%VERSION  VERSION_STAMP = V0001.000  DATE = 04/26/26  05:15:52                  
%FLAG TITLE                                                                     
%FORMAT(20a4)                                                                   
R48                                                                             
%FLAG POINTERS                                                                  
%FORMAT(10I8)                                                                   
   63990       9   63264     726    2118    1068    3885    1414       0       0
   92907   20815     726    1068    1414       9      14      12       9       0
       0       0       0       0       0       0       0       1    1644       0
       0
%FLAG ATOM_NAME                                                                 
%FORMAT(20a4)                                                                   
C   C1  C2  C3  C4  C5  C6  C7  C8  C9  C10 C11 C12 C13 C14 C15 C16 C17 C18 C19 
C20 C21 C22 C23 C24 C25 C26 C27 C28 C29 C30 C31 C32 C33 C34 C35 C36 C37 C38 C39 
C40 C41 C42 C43 C44 C45 C46 C47 C48 C49 C50 C51 C52 C53 C54 C55 C56 C57 C58 C59 
C60 C61 C62 C63 C64 C65 C66 C67 C68 C69 C70 C71 C72 C73 C74 C75 C76 N   C77 C78 
C79 C80 C81 C82 C83 C84 C85 C86 N1  C87 C88 C89 C90 C91 C92 C93 C94 C95 C96 N2  
C97 C98 C99 C100C101C102C103C104C105C106N3  C107C108C109C110C111C112C113C114C115
C116N4  C117C118C119C120C121C122C123C124C125C126N5  C127C128C129C130C131C132C133
C134C135C136N6  C137C138C139C140C141C142C143C144C145C146N7  C147C148C149C150C151
C152C153C154C155C156N8  C157C158C159C160C161C162C163C164C165C166N9  C167C168C169
C170C171C172C173C174C175C176N10 C177C178C179C180C181C182C183C184C185C186N11 C187
C188C189C190C191C192C193C194C195C196C197C198C199C200C201C202C203C204C205C206C207
C208C209C210C211C212C213C214C215C216C217C218C219C220C221C222C223C224C225C226C227
C228C229C230C231C232C233C234C235N12 C236C237C238C239C240C241C242C243C244C245N13 
C246C247C248C249C250C251C252C253C254C255N14 C256C257C258C259C260C261C262C263C264
C265N15 C266C267C268C269C270C271C272C273C274C275N16 C276C277C278C279C280C281C282
C283C284C285N17 C286C287C288C289C290C291C292C293C294C295N18 C296C297C298C299C300
C301C302C303C304C305N19 C306C307C308C309C310C311C312C313C314C315N20 C316C317C318
C319C320C321C322C323C324C325N21 C326C327C328C329C330C331C332C333C334C335N22 C336
C337C338C339C340C341C342C343C344C345C346C347C348C349C350C351C352C353C354C355C356
C357C358C359C360C361C362C363C364C365C366C367C368C369C370C371C372C373C374C375C376
C377C378C379C380C381C382N23 C383C384C385C386C387C388C389C390C391C392N24 C393C394
C395C396C397C398C399C400C401C402N25 C403C404C405C406C407C408C409C410C411C412N26 
C413C414C415C416C417C418C419C420C421C422N27 C423C424C425C426C427C428C429C430C431
C432N28 C433C434C435C436C437C438C439C440C441C442N29 C443C444C445C446C447C448C449
C450C451C452N30 C453C454C455C456C457C458C459C460C461C462N31 C463C464C465C466C467
C468C469C470C471C472N32 C473C474C475C476C477C478C479C480C481C482N33 C483C484C485
C486C487C488C489C490C491C492N34 C493C494C495C496C497C498C499C500C501C502N35 C503
C504C505C506C507C508C509C510C511C512C513C514N36 C515C516C517C518C519C520C521C522
C523C524N37 C525C526C527C528C529C530C531C532C533C534N38 C535C536C537C538C539C540
C541C542C543C544N39 C545C546C547C548C549C550C551C552C553C554N40 C555C556C557C558
C559C560C561C562C563C564N41 C565C566C567C568C569C570C571C572C573C574N42 C575C576
C577C578C579C580C581C582C583C584N43 C585C586C587C588C589C590C591C592C593C594N44 
C595C596C597C598C599C600C601C602C603C604N45 C605C606C607C608C609C610C611C612C613
C614N46 C615C616C617C618C619C620C621C622C623C624N47 C625C626C627C628C629H   H1  
H2  H3  H4  H5  H6  H7  H8  H9  H10 H11 H12 H13 H14 H15 H16 H17 H18 H19 H20 H21 
H22 H23 H24 H25 H26 H27 H28 H29 H30 H31 H32 H33 H34 H35 H36 H37 H38 H39 H40 H41 
H42 H43 H44 H45 H46 H47 H48 H49 H50 H51 H52 H53 H54 H55 H56 H57 H58 H59 H60 H61 
H62 H63 H64 H65 H66 H67 H68 H69 H70 H71 H72 H73 H74 H75 H76 H77 H78 H79 H80 H81 
H82 H83 H84 H85 H86 H87 H88 H89 H90 H91 H92 H93 H94 H95 H96 H97 H98 H99 H100H101
H102H103H104H105H106H107H108H109H110H111H112H113H114H115H116H117H118H119H120H121
H122H123H124H125H126H127H128H129H130H131H132H133H134H135H136H137H138H139H140H141
H142H143H144H145H146H147H148H149H150H151H152H153H154H155H156H157H158H159H160H161
H162H163H164H165H166H167H168H169H170H171H172H173H174H175H176H177H178H179H180H181
H182H183H184H185H186H187H188H189H190H191H192H193H194H195H196H197H198H199H200H201
H202H203H204H205H206H207H208H209H210H211H212H213H214H215H216H217H218H219H220H221
H222H223H224H225H226H227H228H229H230H231H232H233H234H235H236H237H238H239H240H241
H242H243H244H245H246H247H248H249H250H251H252H253H254H255H256H257H258H259H260H261
H262H263H264H265H266H267H268H269H270H271H272H273H274H275H276H277H278H279H280H281
H282H283H284H285H286H287H288H289H290H291H292H293H294H295H296H297H298H299H300H301
H302H303H304H305H306H307H308H309H310H311H312H313H314H315H316H317H318H319H320H321
H322H323H324H325H326H327H328H329H330H331H332H333H334H335H336H337H338H339H340H341
H342H343H344H345H346H347H348H349H350H351H352H353H354H355H356H357H358H359H360H361
H362H363H364H365H366H367H368H369H370H371H372H373H374H375H376H377H378H379H380H381
H382H383H384H385H386H387H388H389H390H391H392H393H394H395H396H397H398H399H400H401
H402H403H404H405H406H407H408H409H410H411H412H413H414H415H416H417H418H419H420H421
H422H423H424H425H426H427H428H429H430H431H432H433H434H435H436H437H438H439H440H441
H442H443H444H445H446H447H448H449H450H451H452H453H454H455H456H457H458H459H460H461
H462H463H464H465H466H467H468H469H470H471H472H473H474H475H476H477H478H479H480H481
H482H483H484H485H486H487H488H489H490H491H492H493H494H495H496H497H498H499H500H501
H502H503H504H505H506H507H508H509H510H511H512H513H514H515H516H517H518H519H520H521
H522H523H524H525H526H527H528H529H530H531H532H533H534H535H536H537H538H539H540H541
H542H543H544H545H546H547H548H549H550H551H552H553H554H555H556H557H558H559H560H561
H562H563H564H565H566H567H568H569H570H571H572H573H574H575H576H577H578H579H580H581
H582H583H584H585H586H587H588H589H590H591H592H593H594H595H596H597H598H599H600H601
H602H603H604H605H606H607H608H609H610H611H612H613H614H615H616H617H618H619H620H621
H622H623H624H625H626H627H628H629H630H631H632H633H634H635H636H637H638H639H640H641
H642H643H644H645H646H647H648H649H650H651H652H653H654H655H656H657H658H659H660H661
H662H663H664H665H666H667H668H669H670H671H672H673H674H675H676H677H678H679H680H681
H682H683H684H685H686H687H688H689H690H691H692H693H694H695H696H697H698H699H700H701
H702H703H704H705H706H707H708H709H710H711H712H713H714H715H716H717H718H719H720H721
H722H723H724H725H726H727H728H729H730H731H732H733H734H735H736H737H738H739H740H741
H742H743H744H745H746H747H748H749H750H751H752H753H754H755H756H757H758H759H760H761
H762H763H764H765H766H767H768H769H770H771H772H773H774H775H776H777H778H779H780H781
H782H783H784H785H786H787H788H789H790H791H792H793H794H795H796H797H798H799H800H801
H802H803H804H805H806H807H808H809H810H811H812H813H814H815H816H817H818H819H820H821
H822H823H824H825H826H827H828H829H830H831H832H833H834H835H836H837H838H839H840H841
H842H843H844H845H846H847H848H849H850H851H852H853H854H855H856H857H858H859H860H861
H862H863H864H865H866H867H868H869H870H871H872H873H874H875H876H877H878H879H880H881
H882H883H884H885H886H887H888H889H890H891H892H893H894H895H896H897H898H899H900H901
H902H903H904H905H906H907H908H909H910H911H912H913H914H915H916H917H918H919H920H921
H922H923H924H925H926H927H928H929H930H931H932H933H934H935H936H937H938H939H940H941
H942H943H944H945H946H947H948H949H950H951H952H953H954H955H956H957H958H959H960H961
H962H963H964H965Cl- Cl- Cl- Cl- Cl- Cl- Cl- Cl- Cl- Cl- Cl- Cl- Cl- Cl- Cl- Cl- 
Cl- Cl- Cl- Cl- Cl- Cl- Cl- Cl- Cl- Cl- Cl- Cl- Cl- Cl- Cl- Cl- Cl- Cl- Cl- Cl- 
Cl- Cl- Cl- Cl- Cl- Cl- Cl- Cl- Cl- Cl- Cl- Cl- O   H1  H2  O   H1  H2  O   H1  
H2  O   H1  H2  O   H1  H2  O   H1  H2  O   H1  H2  O   H1  H2  O   H1  H2  O   
H1  H2  O   H1  H2  O   H1  H2  O   H1  H2  O   H1  H2  O   H1  H2  O   H1  H2  
O   H1  H2  O   H1  H2  O   H1  H2  O   H1  H2  O   H1  H2  O   H1  H2  O   H1  
H2  O   H1  H2  O   H1  H2  O   H1  H2  O   H1  H2  O   H1  H2  O   H1  H2  O   
H1  H2  O   H1  H2  O   H1  H2  O   H1  H2  O   H1  H2  O   H1  H2  O   H1  H2  
O   H1  H2  O   H1  H2  O   H1  H2  O   H1  H2  O   H1  H2  O   H1  H2  O   H1  
H2  O   H1  H2  O   H1  H2  O   H1  H2  O   H1  H2  O   H1  H2  O   H1  H2  O   
H1  H2  O   H1  H2  O   H1  H2  O   H1  H2  O   H1  H2  O   H1  H2  O   H1  H2  
O   H1  H2  O   H1  H2  O   H1  H2  O   H1  H2  O   H1  H2  O   H1  H2  O   H1  
H2  O   H1  H2  O   H1  H2  O   H1  H2  O   H1  H2  O   H1  H2  O   H1  H2  O   
H1  H2  O   H1  H2  O   H1  H2  O   H1  H2  O   H1  H2  O   H1  H2  O   H1  H2  
O   H1  H2  O   H1  H2  O   H1  H2  O   H1  H2  O   H1  H2  O   H1  H2  O   H1  
H2  O   H1  H2  O   H1  H2  O   H1  H2  O   H1  H2  O   H1  H2  O   H1  H2  O   
H1  H2  O   H1  H2  O   H1  H2  O   H1  H2  O   H1  H2  O   H1  H2  O   H1  H2  
O   H1  H2  O   H1  H2  O   H1  H2  O   H1  H2  O   H1  H2  O   H1  H2  O   H1  
H2  O   H1  H2  O   H1  H2  O   H1  H2  O   H1  H2  O   H1  H2  O   H1  H2  O   
H1  H2  O   H1  H2  O   H1  H2  O   H1  H2  O   H1  H2  O   H1  H2  O   H1  H2  
O   H1  H2  O   H1  H2  O   H1  H2  O   H1  H2  O   H1  H2  O   H1  H2  O   H1  
H2  O   H1  H2  O   H1  H2  O   H1  H2  O   H1  H2  O   H1  H2  O   H1  H2  O   
H1  H2  O   H1  H2  O   H1  H2  O   H1  H2  O   H1  H2  O   H1  H2  O   H1  H2  
O   H1  H2  O   H1  H2  O   H1  H2  O   H1  H2  O   H1  H2  O   H1  H2  O   H1  
H2  O   H1  H2  O   H1  H2  O   H1  H2  O   H1  H2  O   H1  H2  O   H1  H2  O   
H1  H2  O   H1  H2  O   H1  H2  O   H1  H2  O   H1  H2  O   H1  H2  O   H1  H2  
O   H1  H2  O   H1  H2  O   H1  H2  O   H1  H2  O   H1  H2  O   H1  H2  O   H1  
H2  O   H1  H2  O   H1  H2  O   H1  H2  O   H1  H2  O   H1  H2  O   H1  H2  O   
H1  H2  O   H1  H2  O   H1  H2  O   H1  H2  O   H1  H2  O   H1  H2  O   H1  H2  
O   H1  H2  O   H1  H2  O   H1  H2  O   H1  H2  O   H1  H2  O   H1  H2  O   H1  
H2  O   H1  H2  O   H1  H2  O   H1  H2  O   H1  H2  O   H1  H2  O   H1  H2  O   
H1  H2  O   H1  H2  O   H1  H2  O   H1  H2  O   H1  H2  O   H1  H2  O   H1  H2  
O   H1  H2  O   H1  H2  O   H1  H2  O   H1  H2  O   H1  H2  O   H1  H2  O   H1  
H2  O   H1  H2  O   H1  H2  O   H1  H2  O   H1  H2  O   H1  H2  O   H1  H2  O   
H1  H2  O   H1  H2  O   H1  H2  O   H1  H2  O   H1  H2  O   H1  H2  O   H1  H2  
O   H1  H2  O   H1  H2  O   H1  H2  O   H1  H2  O   H1  H2  O   H1  H2  O   H1  
H2  O   H1  H2  O   H1  H2  O   H1  H2  O   H1  H2  O   H1  H2  O   H1  H2  O   
H1  H2  O   H1  H2  O   H1  H2  O   H1  H2  O   H1  H2  O   H1  H2  O   H1  H2  
O   H1  H2  O   H1  H2  O   H1  H2  O   H1  H2  O   H1  H2  O   H1  H2  O   H1  
H2  O   H1  H2  O   H1  H2  O   H1  H2  O   H1  H2  O   H1  H2  O   H1  H2  O   
H1  H2  O   H1  H2  O   H1  H2  O   H1  H2  O   H1  H2  O   H1  H2  O   H1  H2  
O   H1  H2  O   H1  H2  O   H1  H2  O   H1  H2  O   H1  H2  O   H1  H2  O   H1  
H2  O   H1  H2  O   H1  H2  O   H1  H2  O   H1  H2  O   H1  H2  O   H1  H2  O   
H1  H2  O   H1  H2  O   H1  H2  O   H1  H2  O   H1  H2  O   H1  H2  O   H1  H2  
O   H1  H2  O   H1  H2  O   H1  H2  O   H1  H2  O   H1  H2  O   H1  H2  O   H1  
H2  O   H1  H2  O   H1  H2  O   H1  H2  O   H1  H2  O   H1  H2  O   H1  H2  O   
H1  H2  O   H1  H2  O   H1  H2  O   H1  H2  O   H1  H2  O   H1  H2  O   H1  H2  
O   H1  H2  O   H1  H2  O   H1  H2  O   H1  H2  O   H1  H2  O   H1  H2  O   H1  
H2  O   H1  H2  O   H1  H2  O   H1  H2  O   H1  H2  O   H1  H2  O   H1  H2  O   
H1  H2  O   H1  H2  O   H1  H2  O   H1  H2  O   H1  H2  O   H1  H2  O   H1  H2  
O   H1  H2  O   H1  H2  O   H1  H2  O   H1  H2  O   H1  H2  O   H1  H2  O   H1  
H2  O   H1  H2  O   H1  H2  O   H1  H2  O   H1  H2  O   H1  H2  O   H1  H2  O   
H1  H2  O   H1  H2  O   H1  H2  O   H1  H2  O   H1  H2  O   H1  H2  O   H1  H2  
O   H1  H2  O   H1  H2  O   H1  H2  O   H1  H2  O   H1  H2  O   H1  H2  O   H1  
H2  O   H1  H2  O   H1  H2  O   H1  H2  O   H1  H2  O   H1  H2  O   H1  H2  O   
H1  H2  O   H1  H2  O   H1  H2  O   H1  H2  O   H1  H2  O   H1  H2  O   H1  H2  
O   H1  H2  O   H1  H2  O   H1  H2  O   H1  H2  O   H1  H2  O   H1  H2  O   H1  
H2  O   H1  H2  O   H1  H2  O   H1  H2  O   H1  H2  O   H1  H2  O   H1  H2  O   
H1  H2  O   H1  H2  O   H1  H2  O   H1  H2  O   H1  H2  O   H1  H2  O   H1  H2  
O   H1  H2  O   H1  H2  O   H1  H2  O   H1  H2  O   H1  H2  O   H1  H2  O   H1  
H2  O   H1  H2  O   H1  H2  O   H1  H2  O   H1  H2  O   H1  H2  O   H1  H2  O   
H1  H2  O   H1  H2  O   H1  H2  O   H1  H2  O   H1  H2  O   H1  H2  O   H1  H2  
O   H1  H2  O   H1  H2  O   H1  H2  O   H1  H2  O   H1  H2  O   H1  H2  O   H1  
H2  O   H1  H2  O   H1  H2  O   H1  H2  O   H1  H2  O   H1  H2  O   H1  H2  O   
H1  H2  O   H1  H2  O   H1  H2  O   H1  H2  O   H1  H2  O   H1  H2  O   H1  H2  
O   H1  H2  O   H1  H2  O   H1  H2  O   H1  H2  O   H1  H2  O   H1  H2  O   H1  
H2  O   H1  H2  O   H1  H2  O   H1  H2  O   H1  H2  O   H1  H2  O   H1  H2  O   
H1  H2  O   H1  H2  O   H1  H2  O   H1  H2  O   H1  H2  O   H1  H2  O   H1  H2  
O   H1  H2  O   H1  H2  O   H1  H2  O   H1  H2  O   H1  H2  O   H1  H2  O   H1  
H2  O   H1  H2  O   H1  H2  O   H1  H2  O   H1  H2  O   H1  H2  O   H1  H2  O   
H1  H2  O   H1  H2  O   H1  H2  O   H1  H2  O   H1  H2  O   H1  H2  O   H1  H2  
O   H1  H2  O   H1  H2  O   H1  H2  O   H1  H2  O   H1  H2  O   H1  H2  O   H1  
H2  O   H1  H2  O   H1  H2  O   H1  H2  O   H1  H2  O   H1  H2  O   H1  H2  O   
H1  H2  O   H1  H2  O   H1  H2  O   H1  H2  O   H1  H2  O   H1  H2  O   H1  H2  
O   H1  H2  O   H1  H2  O   H1  H2  O   H1  H2  O   H1  H2  O   H1  H2  O   H1  
H2  O   H1  H2  O   H1  H2  O   H1  H2  O   H1  H2  O   H1  H2  O   H1  H2  O   
H1  H2  O   H1  H2  O   H1  H2  O   H1  H2  O   H1  H2  O   H1  H2  O   H1  H2  
O   H1  H2  O   H1  H2  O   H1  H2  O   H1  H2  O   H1  H2  O   H1  H2  O   H1  
H2  O   H1  H2  O   H1  H2  O   H1  H2  O   H1  H2  O   H1  H2  O   H1  H2  O   
H1  H2  O   H1  H2  O   H1  H2  O   H1  H2  O   H1  H2  O   H1  H2  O   H1  H2  
O   H1  H2  O   H1  H2  O   H1  H2  O   H1  H2  O   H1  H2  O   H1  H2  O   H1  
H2  O   H1  H2  O   H1  H2  O   H1  H2  O   H1  H2  O   H1  H2  O   H1  H2  O   
H1  H2  O   H1  H2  O   H1  H2  O   H1  H2  O   H1  H2  O   H1  H2  O   H1  H2  
O   H1  H2  O   H1  H2  O   H1  H2  O   H1  H2  O   H1  H2  O   H1  H2  O   H1  
H2  O   H1  H2  O   H1  H2  O   H1  H2  O   H1  H2  O   H1  H2  O   H1  H2  O   
H1  H2  O   H1  H2  O   H1  H2  O   H1  H2  O   H1  H2  O   H1  H2  O   H1  H2  
O   H1  H2  O   H1  H2  O   H1  H2  O   H1  H2  O   H1  H2  O   H1  H2  O   H1  
H2  O   H1  H2  O   H1  H2  O   H1  H2  O   H1  H2  O   H1  H2  O   H1  H2  O   
H1  H2  O   H1  H2  O   H1  H2  O   H1  H2  O   H1  H2  O   H1  H2  O   H1  H2  
O   H1  H2  O   H1  H2  O   H1  H2  O   H1  H2  O   H1  H2  O   H1  H2  O   H1  
H2  O   H1  H2  O   H1  H2  O   H1  H2  O   H1  H2  O   H1  H2  O   H1  H2  O   
H1  H2  O   H1  H2  O   H1  H2  O   H1  H2  O   H1  H2  O   H1  H2  O   H1  H2  
O   H1  H2  O   H1  H2  O   H1  H2  O   H1  H2  O   H1  H2  O   H1  H2  O   H1  
H2  O   H1  H2  O   H1  H2  O   H1  H2  O   H1  H2  O   H1  H2  O   H1  H2  O   
H1  H2  O   H1  H2  O   H1  H2  O   H1  H2  O   H1  H2  O   H1  H2  O   H1  H2  
O   H1  H2  O   H1  H2  O   H1  H2  O   H1  H2  O   H1  H2  O   H1  H2  O   H1  
H2  O   H1  H2  O   H1  H2  O   H1  H2  O   H1  H2  O   H1  H2  O   H1  H2  O   
H1  H2  O   H1  H2  O   H1  H2  O   H1  H2  O   H1  H2  O   H1  H2  O   H1  H2  
O   H1  H2  O   H1  H2  O   H1  H2  O   H1  H2  O   H1  H2  O   H1  H2  O   H1  
H2  O   H1  H2  O   H1  H2  O   H1  H2  O   H1  H2  O   H1  H2  O   H1  H2  O   
H1  H2  O   H1  H2  O   H1  H2  O   H1  H2  O   H1  H2  O   H1  H2  O   H1  H2  
O   H1  H2  O   H1  H2  O   H1  H2  O   H1  H2  O   H1  H2  O   H1  H2  O   H1  
H2  O   H1  H2  O   H1  H2  O   H1  H2  O   H1  H2  O   H1  H2  O   H1  H2  O   
H1  H2  O   H1  H2  O   H1  H2  O   H1  H2  O   H1  H2  O   H1  H2  O   H1  H2  
O   H1  H2  O   H1  H2  O   H1  H2  O   H1  H2  O   H1  H2  O   H1  H2  O   H1  
H2  O   H1  H2  O   H1  H2  O   H1  H2  O   H1  H2  O   H1  H2  O   H1  H2  O   
H1  H2  O   H1  H2  O   H1  H2  O   H1  H2  O   H1  H2  O   H1  H2  O   H1  H2  
O   H1  H2  O   H1  H2  O   H1  H2  O   H1  H2  O   H1  H2  O   H1  H2  O   H1  
H2  O   H1  H2  O   H1  H2  O   H1  H2  O   H1  H2  O   H1  H2  O   H1  H2  O   
H1  H2  O   H1  H2  O   H1  H2  O   H1  H2  O   H1  H2  O   H1  H2  O   H1  H2  
O   H1  H2  O   H1  H2  O   H1  H2  O   H1  H2  O   H1  H2  O   H1  H2  O   H1  
H2  O   H1  H2  O   H1  H2  O   H1  H2  O   H1  H2  O   H1  H2  O   H1  H2  O   
H1  H2  O   H1  H2  O   H1  H2  O   H1  H2  O   H1  H2  O   H1  H2  O   H1  H2  
O   H1  H2  O   H1  H2  O   H1  H2  O   H1  H2  O   H1  H2  O   H1  H2  O   H1  
H2  O   H1  H2  O   H1  H2  O   H1  H2  O   H1  H2  O   H1  H2  O   H1  H2  O   
H1  H2  O   H1  H2  O   H1  H2  O   H1  H2  O   H1  H2  O   H1  H2  O   H1  H2  
O   H1  H2  O   H1  H2  O   H1  H2  O   H1  H2  O   H1  H2  O   H1  H2  O   H1  
H2  O   H1  H2  O   H1  H2  O   H1  H2  O   H1  H2  O   H1  H2  O   H1  H2  O   
H1  H2  O   H1  H2  O   H1  H2  O   H1  H2  O   H1  H2  O   H1  H2  O   H1  H2  
O   H1  H2  O   H1  H2  O   H1  H2  O   H1  H2  O   H1  H2  O   H1  H2  O   H1  
H2  O   H1  H2  O   H1  H2  O   H1  H2  O   H1  H2  O   H1  H2  O   H1  H2  O   
H1  H2  O   H1  H2  O   H1  H2  O   H1  H2  O   H1  H2  O   H1  H2  O   H1  H2  
O   H1  H2  O   H1  H2  O   H1  H2  O   H1  H2  O   H1  H2  O   H1  H2  O   H1  
H2  O   H1  H2  O   H1  H2  O   H1  H2  O   H1  H2  O   H1  H2  O   H1  H2  O   
H1  H2  O   H1  H2  O   H1  H2  O   H1  H2  O   H1  H2  O   H1  H2  O   H1  H2  
O   H1  H2  O   H1  H2  O   H1  H2  O   H1  H2  O   H1  H2  O   H1  H2  O   H1  
H2  O   H1  H2  O   H1  H2  O   H1  H2  O   H1  H2  O   H1  H2  O   H1  H2  O   
H1  H2  O   H1  H2  O   H1  H2  O   H1  H2  O   H1  H2  O   H1  H2  O   H1  H2  
O   H1  H2  O   H1  H2  O   H1  H2  O   H1  H2  O   H1  H2  O   H1  H2  O   H1  
H2  O   H1  H2  O   H1  H2  O   H1  H2  O   H1  H2  O   H1  H2  O   H1  H2  O   
H1  H2  O   H1  H2  O   H1  H2  O   H1  H2  O   H1  H2  O   H1  H2  O   H1  H2  
O   H1  H2  O   H1  H2  O   H1  H2  O   H1  H2  O   H1  H2  O   H1  H2  O   H1  
H2  O   H1  H2  O   H1  H2  O   H1  H2  O   H1  H2  O   H1  H2  O   H1  H2  O   
H1  H2  O   H1  H2  O   H1  H2  O   H1  H2  O   H1  H2  O   H1  H2  O   H1  H2  
O   H1  H2  O   H1  H2  O   H1  H2  O   H1  H2  O   H1  H2  O   H1  H2  O   H1  
H2  O   H1  H2  O   H1  H2  O   H1  H2  O   H1  H2  O   H1  H2  O   H1  H2  O   
H1  H2  O   H1  H2  O   H1  H2  O   H1  H2  O   H1  H2  O   H1  H2  O   H1  H2  
O   H1  H2  O   H1  H2  O   H1  H2  O   H1  H2  O   H1  H2  O   H1  H2  O   H1  
H2  O   H1  H2  O   H1  H2  O   H1  H2  O   H1  H2  O   H1  H2  O   H1  H2  O   
H1  H2  O   H1  H2  O   H1  H2  O   H1  H2  O   H1  H2  O   H1  H2  O   H1  H2  
O   H1  H2  O   H1  H2  O   H1  H2  O   H1  H2  O   H1  H2  O   H1  H2  O   H1  
H2  O   H1  H2  O   H1  H2  O   H1  H2  O   H1  H2  O   H1  H2  O   H1  H2  O   
H1  H2  O   H1  H2  O   H1  H2  O   H1  H2  O   H1  H2  O   H1  H2  O   H1  H2  
O   H1  H2  O   H1  H2  O   H1  H2  O   H1  H2  O   H1  H2  O   H1  H2  O   H1  
H2  O   H1  H2  O   H1  H2  O   H1  H2  O   H1  H2  O   H1  H2  O   H1  H2  O   
H1  H2  O   H1  H2  O   H1  H2  O   H1  H2  O   H1  H2  O   H1  H2  O   H1  H2  
O   H1  H2  O   H1  H2  O   H1  H2  O   H1  H2  O   H1  H2  O   H1  H2  O   H1  
H2  O   H1  H2  O   H1  H2  O   H1  H2  O   H1  H2  O   H1  H2  O   H1  H2  O   
H1  H2  O   H1  H2  O   H1  H2  O   H1  H2  O   H1  H2  O   H1  H2  O   H1  H2  
O   H1  H2  O   H1  H2  O   H1  H2  O   H1  H2  O   H1  H2  O   H1  H2  O   H1  
H2  O   H1  H2  O   H1  H2  O   H1  H2  O   H1  H2  O   H1  H2  O   H1  H2  O   
H1  H2  O   H1  H2  O   H1  H2  O   H1  H2  O   H1  H2  O   H1  H2  O   H1  H2  
O   H1  H2  O   H1  H2  O   H1  H2  O   H1  H2  O   H1  H2  O   H1  H2  O   H1  
H2  O   H1  H2  O   H1  H2  O   H1  H2  O   H1  H2  O   H1  H2  O   H1  H2  O   
H1  H2  O   H1  H2  O   H1  H2  O   H1  H2  O   H1  H2  O   H1  H2  O   H1  H2  
O   H1  H2  O   H1  H2  O   H1  H2  O   H1  H2  O   H1  H2  O   H1  H2  O   H1  
H2  O   H1  H2  O   H1  H2  O   H1  H2  O   H1  H2  O   H1  H2  O   H1  H2  O   
H1  H2  O   H1  H2  O   H1  H2  O   H1  H2  O   H1  H2  O   H1  H2  O   H1  H2  
O   H1  H2  O   H1  H2  O   H1  H2  O   H1  H2  O   H1  H2  O   H1  H2  O   H1  
H2  O   H1  H2  O   H1  H2  O   H1  H2  O   H1  H2  O   H1  H2  O   H1  H2  O   
H1  H2  O   H1  H2  O   H1  H2  O   H1  H2  O   H1  H2  O   H1  H2  O   H1  H2  
O   H1  H2  O   H1  H2  O   H1  H2  O   H1  H2  O   H1  H2  O   H1  H2  O   H1  
H2  O   H1  H2  O   H1  H2  O   H1  H2  O   H1  H2  O   H1  H2  O   H1  H2  O   
H1  H2  O   H1  H2  O   H1  H2  O   H1  H2  O   H1  H2  O   H1  H2  O   H1  H2  
O   H1  H2  O   H1  H2  O   H1  H2  O   H1  H2  O   H1  H2  O   H1  H2  O   H1  
H2  O   H1  H2  O   H1  H2  O   H1  H2  O   H1  H2  O   H1  H2  O   H1  H2  O   
H1  H2  O   H1  H2  O   H1  H2  O   H1  H2  O   H1  H2  O   H1  H2  O   H1  H2  
O   H1  H2  O   H1  H2  O   H1  H2  O   H1  H2  O   H1  H2  O   H1  H2  O   H1  
H2  O   H1  H2  O   H1  H2  O   H1  H2  O   H1  H2  O   H1  H2  O   H1  H2  O   
H1  H2  O   H1  H2  O   H1  H2  O   H1  H2  O   H1  H2  O   H1  H2  O   H1  H2  
O   H1  H2  O   H1  H2  O   H1  H2  O   H1  H2  O   H1  H2  O   H1  H2  O   H1  
H2  O   H1  H2  O   H1  H2  O   H1  H2  O   H1  H2  O   H1  H2  O   H1  H2  O   
H1  H2  O   H1  H2  O   H1  H2  O   H1  H2  O   H1  H2  O   H1  H2  O   H1  H2  
O   H1  H2  O   H1  H2  O   H1  H2  O   H1  H2  O   H1  H2  O   H1  H2  O   H1  
H2  O   H1  H2  O   H1  H2  O   H1  H2  O   H1  H2  O   H1  H2  O   H1  H2  O   
H1  H2  O   H1  H2  O   H1  H2  O   H1  H2  O   H1  H2  O   H1  H2  O   H1  H2  
O   H1  H2  O   H1  H2  O   H1  H2  O   H1  H2  O   H1  H2  O   H1  H2  O   H1  
H2  O   H1  H2  O   H1  H2  O   H1  H2  O   H1  H2  O   H1  H2  O   H1  H2  O   
H1  H2  O   H1  H2  O   H1  H2  O   H1  H2  O   H1  H2  O   H1  H2  O   H1  H2  
O   H1  H2  O   H1  H2  O   H1  H2  O   H1  H2  O   H1  H2  O   H1  H2  O   H1  
H2  O   H1  H2  O   H1  H2  O   H1  H2  O   H1  H2  O   H1  H2  O   H1  H2  O   
H1  H2  O   H1  H2  O   H1  H2  O   H1  H2  O   H1  H2  O   H1  H2  O   H1  H2  
O   H1  H2  O   H1  H2  O   H1  H2  O   H1  H2  O   H1  H2  O   H1  H2  O   H1  
H2  O   H1  H2  O   H1  H2  O   H1  H2  O   H1  H2  O   H1  H2  O   H1  H2  O   
H1  H2  O   H1  H2  O   H1  H2  O   H1  H2  O   H1  H2  O   H1  H2  O   H1  H2  
O   H1  H2  O   H1  H2  O   H1  H2  O   H1  H2  O   H1  H2  O   H1  H2  O   H1  
H2  O   H1  H2  O   H1  H2  O   H1  H2  O   H1  H2  O   H1  H2  O   H1  H2  O   
H1  H2  O   H1  H2  O   H1  H2  O   H1  H2  O   H1  H2  O   H1  H2  O   H1  H2  
O   H1  H2  O   H1  H2  O   H1  H2  O   H1  H2  O   H1  H2  O   H1  H2  O   H1  
H2  O   H1  H2  O   H1  H2  O   H1  H2  O   H1  H2  O   H1  H2  O   H1  H2  O   
H1  H2  O   H1  H2  O   H1  H2  O   H1  H2  O   H1  H2  O   H1  H2  O   H1  H2  
O   H1  H2  O   H1  H2  O   H1  H2  O   H1  H2  O   H1  H2  O   H1  H2  O   H1  
H2  O   H1  H2  O   H1  H2  O   H1  H2  O   H1  H2  O   H1  H2  O   H1  H2  O   
H1  H2  O   H1  H2  O   H1  H2  O   H1  H2  O   H1  H2  O   H1  H2  O   H1  H2  
O   H1  H2  O   H1  H2  O   H1  H2  O   H1  H2  O   H1  H2  O   H1  H2  O   H1  
H2  O   H1  H2  O   H1  H2  O   H1  H2  O   H1  H2  O   H1  H2  O   H1  H2  O   
H1  H2  O   H1  H2  O   H1  H2  O   H1  H2  O   H1  H2  O   H1  H2  O   H1  H2  
O   H1  H2  O   H1  H2  O   H1  H2  O   H1  H2  O   H1  H2  O   H1  H2  O   H1  
H2  O   H1  H2  O   H1  H2  O   H1  H2  O   H1  H2  O   H1  H2  O   H1  H2  O   
H1  H2  O   H1  H2  O   H1  H2  O   H1  H2  O   H1  H2  O   H1  H2  O   H1  H2  
O   H1  H2  O   H1  H2  O   H1  H2  O   H1  H2  O   H1  H2  O   H1  H2  O   H1  
H2  O   H1  H2  O   H1  H2  O   H1  H2  O   H1  H2  O   H1  H2  O   H1  H2  O   
H1  H2  O   H1  H2  O   H1  H2  O   H1  H2  O   H1  H2  O   H1  H2  O   H1  H2  
O   H1  H2  O   H1  H2  O   H1  H2  O   H1  H2  O   H1  H2  O   H1  H2  O   H1  
H2  O   H1  H2  O   H1  H2  O   H1  H2  O   H1  H2  O   H1  H2  O   H1  H2  O   
H1  H2  O   H1  H2  O   H1  H2  O   H1  H2  O   H1  H2  O   H1  H2  O   H1  H2  
O   H1  H2  O   H1  H2  O   H1  H2  O   H1  H2  O   H1  H2  O   H1  H2  O   H1  
H2  O   H1  H2  O   H1  H2  O   H1  H2  O   H1  H2  O   H1  H2  O   H1  H2  O   
H1  H2  O   H1  H2  O   H1  H2  O   H1  H2  O   H1  H2  O   H1  H2  O   H1  H2  
O   H1  H2  O   H1  H2  O   H1  H2  O   H1  H2  O   H1  H2  O   H1  H2  O   H1  
H2  O   H1  H2  O   H1  H2  O   H1  H2  O   H1  H2  O   H1  H2  O   H1  H2  O   
H1  H2  O   H1  H2  O   H1  H2  O   H1  H2  O   H1  H2  O   H1  H2  O   H1  H2  
O   H1  H2  O   H1  H2  O   H1  H2  O   H1  H2  O   H1  H2  O   H1  H2  O   H1  
H2  O   H1  H2  O   H1  H2  O   H1  H2  O   H1  H2  O   H1  H2  O   H1  H2  O   
H1  H2  O   H1  H2  O   H1  H2  O   H1  H2  O   H1  H2  O   H1  H2  O   H1  H2  
O   H1  H2  O   H1  H2  O   H1  H2  O   H1  H2  O   H1  H2  O   H1  H2  O   H1  
H2  O   H1  H2  O   H1  H2  O   H1  H2  O   H1  H2  O   H1  H2  O   H1  H2  O   
H1  H2  O   H1  H2  O   H1  H2  O   H1  H2  O   H1  H2  O   H1  H2  O   H1  H2  
O   H1  H2  O   H1  H2  O   H1  H2  O   H1  H2  O   H1  H2  O   H1  H2  O   H1  
H2  O   H1  H2  O   H1  H2  O   H1  H2  O   H1  H2  O   H1  H2  O   H1  H2  O   
H1  H2  O   H1  H2  O   H1  H2  O   H1  H2  O   H1  H2  O   H1  H2  O   H1  H2  
O   H1  H2  O   H1  H2  O   H1  H2  O   H1  H2  O   H1  H2  O   H1  H2  O   H1  
H2  O   H1  H2  O   H1  H2  O   H1  H2  O   H1  H2  O   H1  H2  O   H1  H2  O   
H1  H2  O   H1  H2  O   H1  H2  O   H1  H2  O   H1  H2  O   H1  H2  O   H1  H2  
O   H1  H2  O   H1  H2  O   H1  H2  O   H1  H2  O   H1  H2  O   H1  H2  O   H1  
H2  O   H1  H2  O   H1  H2  O   H1  H2  O   H1  H2  O   H1  H2  O   H1  H2  O   
H1  H2  O   H1  H2  O   H1  H2  O   H1  H2  O   H1  H2  O   H1  H2  O   H1  H2  
O   H1  H2  O   H1  H2  O   H1  H2  O   H1  H2  O   H1  H2  O   H1  H2  O   H1  
H2  O   H1  H2  O   H1  H2  O   H1  H2  O   H1  H2  O   H1  H2  O   H1  H2  O   
H1  H2  O   H1  H2  O   H1  H2  O   H1  H2  O   H1  H2  O   H1  H2  O   H1  H2  
O   H1  H2  O   H1  H2  O   H1  H2  O   H1  H2  O   H1  H2  O   H1  H2  O   H1  
H2  O   H1  H2  O   H1  H2  O   H1  H2  O   H1  H2  O   H1  H2  O   H1  H2  O   
H1  H2  O   H1  H2  O   H1  H2  O   H1  H2  O   H1  H2  O   H1  H2  O   H1  H2  
O   H1  H2  O   H1  H2  O   H1  H2  O   H1  H2  O   H1  H2  O   H1  H2  O   H1  
H2  O   H1  H2  O   H1  H2  O   H1  H2  O   H1  H2  O   H1  H2  O   H1  H2  O   
H1  H2  O   H1  H2  O   H1  H2  O   H1  H2  O   H1  H2  O   H1  H2  O   H1  H2  
O   H1  H2  O   H1  H2  O   H1  H2  O   H1  H2  O   H1  H2  O   H1  H2  O   H1  
H2  O   H1  H2  O   H1  H2  O   H1  H2  O   H1  H2  O   H1  H2  O   H1  H2  O   
H1  H2  O   H1  H2  O   H1  H2  O   H1  H2  O   H1  H2  O   H1  H2  O   H1  H2  
O   H1  H2  O   H1  H2  O   H1  H2  O   H1  H2  O   H1  H2  O   H1  H2  O   H1  
H2  O   H1  H2  O   H1  H2  O   H1  H2  O   H1  H2  O   H1  H2  O   H1  H2  O   
H1  H2  O   H1  H2  O   H1  H2  O   H1  H2  O   H1  H2  O   H1  H2  O   H1  H2  
O   H1  H2  O   H1  H2  O   H1  H2  O   H1  H2  O   H1  H2  O   H1  H2  O   H1  
H2  O   H1  H2  O   H1  H2  O   H1  H2  O   H1  H2  O   H1  H2  O   H1  H2  O   
H1  H2  O   H1  H2  O   H1  H2  O   H1  H2  O   H1  H2  O   H1  H2  O   H1  H2  
O   H1  H2  O   H1  H2  O   H1  H2  O   H1  H2  O   H1  H2  O   H1  H2  O   H1  
H2  O   H1  H2  O   H1  H2  O   H1  H2  O   H1  H2  O   H1  H2  O   H1  H2  O   
H1  H2  O   H1  H2  O   H1  H2  O   H1  H2  O   H1  H2  O   H1  H2  O   H1  H2  
O   H1  H2  O   H1  H2  O   H1  H2  O   H1  H2  O   H1  H2  O   H1  H2  O   H1  
H2  O   H1  H2  O   H1  H2  O   H1  H2  O   H1  H2  O   H1  H2  O   H1  H2  O   
H1  H2  O   H1  H2  O   H1  H2  O   H1  H2  O   H1  H2  O   H1  H2  O   H1  H2  
O   H1  H2  O   H1  H2  O   H1  H2  O   H1  H2  O   H1  H2  O   H1  H2  O   H1  
H2  O   H1  H2  O   H1  H2  O   H1  H2  O   H1  H2  O   H1  H2  O   H1  H2  O   
H1  H2  O   H1  H2  O   H1  H2  O   H1  H2  O   H1  H2  O   H1  H2  O   H1  H2  
O   H1  H2  O   H1  H2  O   H1  H2  O   H1  H2  O   H1  H2  O   H1  H2  O   H1  
H2  O   H1  H2  O   H1  H2  O   H1  H2  O   H1  H2  O   H1  H2  O   H1  H2  O   
H1  H2  O   H1  H2  O   H1  H2  O   H1  H2  O   H1  H2  O   H1  H2  O   H1  H2  
O   H1  H2  O   H1  H2  O   H1  H2  O   H1  H2  O   H1  H2  O   H1  H2  O   H1  
H2  O   H1  H2  O   H1  H2  O   H1  H2  O   H1  H2  O   H1  H2  O   H1  H2  O   
H1  H2  O   H1  H2  O   H1  H2  O   H1  H2  O   H1  H2  O   H1  H2  O   H1  H2  
O   H1  H2  O   H1  H2  O   H1  H2  O   H1  H2  O   H1  H2  O   H1  H2  O   H1  
H2  O   H1  H2  O   H1  H2  O   H1  H2  O   H1  H2  O   H1  H2  O   H1  H2  O   
H1  H2  O   H1  H2  O   H1  H2  O   H1  H2  O   H1  H2  O   H1  H2  O   H1  H2  
O   H1  H2  O   H1  H2  O   H1  H2  O   H1  H2  O   H1  H2  O   H1  H2  O   H1  
H2  O   H1  H2  O   H1  H2  O   H1  H2  O   H1  H2  O   H1  H2  O   H1  H2  O   
H1  H2  O   H1  H2  O   H1  H2  O   H1  H2  O   H1  H2  O   H1  H2  O   H1  H2  
O   H1  H2  O   H1  H2  O   H1  H2  O   H1  H2  O   H1  H2  O   H1  H2  O   H1  
H2  O   H1  H2  O   H1  H2  O   H1  H2  O   H1  H2  O   H1  H2  O   H1  H2  O   
H1  H2  O   H1  H2  O   H1  H2  O   H1  H2  O   H1  H2  O   H1  H2  O   H1  H2  
O   H1  H2  O   H1  H2  O   H1  H2  O   H1  H2  O   H1  H2  O   H1  H2  O   H1  
H2  O   H1  H2  O   H1  H2  O   H1  H2  O   H1  H2  O   H1  H2  O   H1  H2  O   
H1  H2  O   H1  H2  O   H1  H2  O   H1  H2  O   H1  H2  O   H1  H2  O   H1  H2  
O   H1  H2  O   H1  H2  O   H1  H2  O   H1  H2  O   H1  H2  O   H1  H2  O   H1  
H2  O   H1  H2  O   H1  H2  O   H1  H2  O   H1  H2  O   H1  H2  O   H1  H2  O   
H1  H2  O   H1  H2  O   H1  H2  O   H1  H2  O   H1  H2  O   H1  H2  O   H1  H2  
O   H1  H2  O   H1  H2  O   H1  H2  O   H1  H2  O   H1  H2  O   H1  H2  O   H1  
H2  O   H1  H2  O   H1  H2  O   H1  H2  O   H1  H2  O   H1  H2  O   H1  H2  O   
H1  H2  O   H1  H2  O   H1  H2  O   H1  H2  O   H1  H2  O   H1  H2  O   H1  H2  
O   H1  H2  O   H1  H2  O   H1  H2  O   H1  H2  O   H1  H2  O   H1  H2  O   H1  
H2  O   H1  H2  O   H1  H2  O   H1  H2  O   H1  H2  O   H1  H2  O   H1  H2  O   
H1  H2  O   H1  H2  O   H1  H2  O   H1  H2  O   H1  H2  O   H1  H2  O   H1  H2  
O   H1  H2  O   H1  H2  O   H1  H2  O   H1  H2  O   H1  H2  O   H1  H2  O   H1  
H2  O   H1  H2  O   H1  H2  O   H1  H2  O   H1  H2  O   H1  H2  O   H1  H2  O   
H1  H2  O   H1  H2  O   H1  H2  O   H1  H2  O   H1  H2  O   H1  H2  O   H1  H2  
O   H1  H2  O   H1  H2  O   H1  H2  O   H1  H2  O   H1  H2  O   H1  H2  O   H1  
H2  O   H1  H2  O   H1  H2  O   H1  H2  O   H1  H2  O   H1  H2  O   H1  H2  O   
H1  H2  O   H1  H2  O   H1  H2  O   H1  H2  O   H1  H2  O   H1  H2  O   H1  H2  
O   H1  H2  O   H1  H2  O   H1  H2  O   H1  H2  O   H1  H2  O   H1  H2  O   H1  
H2  O   H1  H2  O   H1  H2  O   H1  H2  O   H1  H2  O   H1  H2  O   H1  H2  O   
H1  H2  O   H1  H2  O   H1  H2  O   H1  H2  O   H1  H2  O   H1  H2  O   H1  H2  
O   H1  H2  O   H1  H2  O   H1  H2  O   H1  H2  O   H1  H2  O   H1  H2  O   H1  
H2  O   H1  H2  O   H1  H2  O   H1  H2  O   H1  H2  O   H1  H2  O   H1  H2  O   
H1  H2  O   H1  H2  O   H1  H2  O   H1  H2  O   H1  H2  O   H1  H2  O   H1  H2  
O   H1  H2  O   H1  H2  O   H1  H2  O   H1  H2  O   H1  H2  O   H1  H2  O   H1  
H2  O   H1  H2  O   H1  H2  O   H1  H2  O   H1  H2  O   H1  H2  O   H1  H2  O   
H1  H2  O   H1  H2  O   H1  H2  O   H1  H2  O   H1  H2  O   H1  H2  O   H1  H2  
O   H1  H2  O   H1  H2  O   H1  H2  O   H1  H2  O   H1  H2  O   H1  H2  O   H1  
H2  O   H1  H2  O   H1  H2  O   H1  H2  O   H1  H2  O   H1  H2  O   H1  H2  O   
H1  H2  O   H1  H2  O   H1  H2  O   H1  H2  O   H1  H2  O   H1  H2  O   H1  H2  
O   H1  H2  O   H1  H2  O   H1  H2  O   H1  H2  O   H1  H2  O   H1  H2  O   H1  
H2  O   H1  H2  O   H1  H2  O   H1  H2  O   H1  H2  O   H1  H2  O   H1  H2  O   
H1  H2  O   H1  H2  O   H1  H2  O   H1  H2  O   H1  H2  O   H1  H2  O   H1  H2  
O   H1  H2  O   H1  H2  O   H1  H2  O   H1  H2  O   H1  H2  O   H1  H2  O   H1  
H2  O   H1  H2  O   H1  H2  O   H1  H2  O   H1  H2  O   H1  H2  O   H1  H2  O   
H1  H2  O   H1  H2  O   H1  H2  O   H1  H2  O   H1  H2  O   H1  H2  O   H1  H2  
O   H1  H2  O   H1  H2  O   H1  H2  O   H1  H2  O   H1  H2  O   H1  H2  O   H1  
H2  O   H1  H2  O   H1  H2  O   H1  H2  O   H1  H2  O   H1  H2  O   H1  H2  O   
H1  H2  O   H1  H2  O   H1  H2  O   H1  H2  O   H1  H2  O   H1  H2  O   H1  H2  
O   H1  H2  O   H1  H2  O   H1  H2  O   H1  H2  O   H1  H2  O   H1  H2  O   H1  
H2  O   H1  H2  O   H1  H2  O   H1  H2  O   H1  H2  O   H1  H2  O   H1  H2  O   
H1  H2  O   H1  H2  O   H1  H2  O   H1  H2  O   H1  H2  O   H1  H2  O   H1  H2  
O   H1  H2  O   H1  H2  O   H1  H2  O   H1  H2  O   H1  H2  O   H1  H2  O   H1  
H2  O   H1  H2  O   H1  H2  O   H1  H2  O   H1  H2  O   H1  H2  O   H1  H2  O   
H1  H2  O   H1  H2  O   H1  H2  O   H1  H2  O   H1  H2  O   H1  H2  O   H1  H2  
O   H1  H2  O   H1  H2  O   H1  H2  O   H1  H2  O   H1  H2  O   H1  H2  O   H1  
H2  O   H1  H2  O   H1  H2  O   H1  H2  O   H1  H2  O   H1  H2  O   H1  H2  O   
H1  H2  O   H1  H2  O   H1  H2  O   H1  H2  O   H1  H2  O   H1  H2  O   H1  H2  
O   H1  H2  O   H1  H2  O   H1  H2  O   H1  H2  O   H1  H2  O   H1  H2  O   H1  
H2  O   H1  H2  O   H1  H2  O   H1  H2  O   H1  H2  O   H1  H2  O   H1  H2  O   
H1  H2  O   H1  H2  O   H1  H2  O   H1  H2  O   H1  H2  O   H1  H2  O   H1  H2  
O   H1  H2  O   H1  H2  O   H1  H2  O   H1  H2  O   H1  H2  O   H1  H2  O   H1  
H2  O   H1  H2  O   H1  H2  O   H1  H2  O   H1  H2  O   H1  H2  O   H1  H2  O   
H1  H2  O   H1  H2  O   H1  H2  O   H1  H2  O   H1  H2  O   H1  H2  O   H1  H2  
O   H1  H2  O   H1  H2  O   H1  H2  O   H1  H2  O   H1  H2  O   H1  H2  O   H1  
H2  O   H1  H2  O   H1  H2  O   H1  H2  O   H1  H2  O   H1  H2  O   H1  H2  O   
H1  H2  O   H1  H2  O   H1  H2  O   H1  H2  O   H1  H2  O   H1  H2  O   H1  H2  
O   H1  H2  O   H1  H2  O   H1  H2  O   H1  H2  O   H1  H2  O   H1  H2  O   H1  
H2  O   H1  H2  O   H1  H2  O   H1  H2  O   H1  H2  O   H1  H2  O   H1  H2  O   
H1  H2  O   H1  H2  O   H1  H2  O   H1  H2  O   H1  H2  O   H1  H2  O   H1  H2  
O   H1  H2  O   H1  H2  O   H1  H2  O   H1  H2  O   H1  H2  O   H1  H2  O   H1  
H2  O   H1  H2  O   H1  H2  O   H1  H2  O   H1  H2  O   H1  H2  O   H1  H2  O   
H1  H2  O   H1  H2  O   H1  H2  O   H1  H2  O   H1  H2  O   H1  H2  O   H1  H2  
O   H1  H2  O   H1  H2  O   H1  H2  O   H1  H2  O   H1  H2  O   H1  H2  O   H1  
H2  O   H1  H2  O   H1  H2  O   H1  H2  O   H1  H2  O   H1  H2  O   H1  H2  O   
H1  H2  O   H1  H2  O   H1  H2  O   H1  H2  O   H1  H2  O   H1  H2  O   H1  H2  
O   H1  H2  O   H1  H2  O   H1  H2  O   H1  H2  O   H1  H2  O   H1  H2  O   H1  
H2  O   H1  H2  O   H1  H2  O   H1  H2  O   H1  H2  O   H1  H2  O   H1  H2  O   
H1  H2  O   H1  H2  O   H1  H2  O   H1  H2  O   H1  H2  O   H1  H2  O   H1  H2  
O   H1  H2  O   H1  H2  O   H1  H2  O   H1  H2  O   H1  H2  O   H1  H2  O   H1  
H2  O   H1  H2  O   H1  H2  O   H1  H2  O   H1  H2  O   H1  H2  O   H1  H2  O   
H1  H2  O   H1  H2  O   H1  H2  O   H1  H2  O   H1  H2  O   H1  H2  O   H1  H2  
O   H1  H2  O   H1  H2  O   H1  H2  O   H1  H2  O   H1  H2  O   H1  H2  O   H1  
H2  O   H1  H2  O   H1  H2  O   H1  H2  O   H1  H2  O   H1  H2  O   H1  H2  O   
H1  H2  O   H1  H2  O   H1  H2  O   H1  H2  O   H1  H2  O   H1  H2  O   H1  H2  
O   H1  H2  O   H1  H2  O   H1  H2  O   H1  H2  O   H1  H2  O   H1  H2  O   H1  
H2  O   H1  H2  O   H1  H2  O   H1  H2  O   H1  H2  O   H1  H2  O   H1  H2  O   
H1  H2  O   H1  H2  O   H1  H2  O   H1  H2  O   H1  H2  O   H1  H2  O   H1  H2  
O   H1  H2  O   H1  H2  O   H1  H2  O   H1  H2  O   H1  H2  O   H1  H2  O   H1  
H2  O   H1  H2  O   H1  H2  O   H1  H2  O   H1  H2  O   H1  H2  O   H1  H2  O   
H1  H2  O   H1  H2  O   H1  H2  O   H1  H2  O   H1  H2  O   H1  H2  O   H1  H2  
O   H1  H2  O   H1  H2  O   H1  H2  O   H1  H2  O   H1  H2  O   H1  H2  O   H1  
H2  O   H1  H2  O   H1  H2  O   H1  H2  O   H1  H2  O   H1  H2  O   H1  H2  O   
H1  H2  O   H1  H2  O   H1  H2  O   H1  H2  O   H1  H2  O   H1  H2  O   H1  H2  
O   H1  H2  O   H1  H2  O   H1  H2  O   H1  H2  O   H1  H2  O   H1  H2  O   H1  
H2  O   H1  H2  O   H1  H2  O   H1  H2  O   H1  H2  O   H1  H2  O   H1  H2  O   
H1  H2  O   H1  H2  O   H1  H2  O   H1  H2  O   H1  H2  O   H1  H2  O   H1  H2  
O   H1  H2  O   H1  H2  O   H1  H2  O   H1  H2  O   H1  H2  O   H1  H2  O   H1  
H2  O   H1  H2  O   H1  H2  O   H1  H2  O   H1  H2  O   H1  H2  O   H1  H2  O   
H1  H2  O   H1  H2  O   H1  H2  O   H1  H2  O   H1  H2  O   H1  H2  O   H1  H2  
O   H1  H2  O   H1  H2  O   H1  H2  O   H1  H2  O   H1  H2  O   H1  H2  O   H1  
H2  O   H1  H2  O   H1  H2  O   H1  H2  O   H1  H2  O   H1  H2  O   H1  H2  O   
H1  H2  O   H1  H2  O   H1  H2  O   H1  H2  O   H1  H2  O   H1  H2  O   H1  H2  
O   H1  H2  O   H1  H2  O   H1  H2  O   H1  H2  O   H1  H2  O   H1  H2  O   H1  
H2  O   H1  H2  O   H1  H2  O   H1  H2  O   H1  H2  O   H1  H2  O   H1  H2  O   
H1  H2  O   H1  H2  O   H1  H2  O   H1  H2  O   H1  H2  O   H1  H2  O   H1  H2  
O   H1  H2  O   H1  H2  O   H1  H2  O   H1  H2  O   H1  H2  O   H1  H2  O   H1  
H2  O   H1  H2  O   H1  H2  O   H1  H2  O   H1  H2  O   H1  H2  O   H1  H2  O   
H1  H2  O   H1  H2  O   H1  H2  O   H1  H2  O   H1  H2  O   H1  H2  O   H1  H2  
O   H1  H2  O   H1  H2  O   H1  H2  O   H1  H2  O   H1  H2  O   H1  H2  O   H1  
H2  O   H1  H2  O   H1  H2  O   H1  H2  O   H1  H2  O   H1  H2  O   H1  H2  O   
H1  H2  O   H1  H2  O   H1  H2  O   H1  H2  O   H1  H2  O   H1  H2  O   H1  H2  
O   H1  H2  O   H1  H2  O   H1  H2  O   H1  H2  O   H1  H2  O   H1  H2  O   H1  
H2  O   H1  H2  O   H1  H2  O   H1  H2  O   H1  H2  O   H1  H2  O   H1  H2  O   
H1  H2  O   H1  H2  O   H1  H2  O   H1  H2  O   H1  H2  O   H1  H2  O   H1  H2  
O   H1  H2  O   H1  H2  O   H1  H2  O   H1  H2  O   H1  H2  O   H1  H2  O   H1  
H2  O   H1  H2  O   H1  H2  O   H1  H2  O   H1  H2  O   H1  H2  O   H1  H2  O   
H1  H2  O   H1  H2  O   H1  H2  O   H1  H2  O   H1  H2  O   H1  H2  O   H1  H2  
O   H1  H2  O   H1  H2  O   H1  H2  O   H1  H2  O   H1  H2  O   H1  H2  O   H1  
H2  O   H1  H2  O   H1  H2  O   H1  H2  O   H1  H2  O   H1  H2  O   H1  H2  O   
H1  H2  O   H1  H2  O   H1  H2  O   H1  H2  O   H1  H2  O   H1  H2  O   H1  H2  
O   H1  H2  O   H1  H2  O   H1  H2  O   H1  H2  O   H1  H2  O   H1  H2  O   H1  
H2  O   H1  H2  O   H1  H2  O   H1  H2  O   H1  H2  O   H1  H2  O   H1  H2  O   
H1  H2  O   H1  H2  O   H1  H2  O   H1  H2  O   H1  H2  O   H1  H2  O   H1  H2  
O   H1  H2  O   H1  H2  O   H1  H2  O   H1  H2  O   H1  H2  O   H1  H2  O   H1  
H2  O   H1  H2  O   H1  H2  O   H1  H2  O   H1  H2  O   H1  H2  O   H1  H2  O   
H1  H2  O   H1  H2  O   H1  H2  O   H1  H2  O   H1  H2  O   H1  H2  O   H1  H2  
O   H1  H2  O   H1  H2  O   H1  H2  O   H1  H2  O   H1  H2  O   H1  H2  O   H1  
H2  O   H1  H2  O   H1  H2  O   H1  H2  O   H1  H2  O   H1  H2  O   H1  H2  O   
H1  H2  O   H1  H2  O   H1  H2  O   H1  H2  O   H1  H2  O   H1  H2  O   H1  H2  
O   H1  H2  O   H1  H2  O   H1  H2  O   H1  H2  O   H1  H2  O   H1  H2  O   H1  
H2  O   H1  H2  O   H1  H2  O   H1  H2  O   H1  H2  O   H1  H2  O   H1  H2  O   
H1  H2  O   H1  H2  O   H1  H2  O   H1  H2  O   H1  H2  O   H1  H2  O   H1  H2  
O   H1  H2  O   H1  H2  O   H1  H2  O   H1  H2  O   H1  H2  O   H1  H2  O   H1  
H2  O   H1  H2  O   H1  H2  O   H1  H2  O   H1  H2  O   H1  H2  O   H1  H2  O   
H1  H2  O   H1  H2  O   H1  H2  O   H1  H2  O   H1  H2  O   H1  H2  O   H1  H2  
O   H1  H2  O   H1  H2  O   H1  H2  O   H1  H2  O   H1  H2  O   H1  H2  O   H1  
H2  O   H1  H2  O   H1  H2  O   H1  H2  O   H1  H2  O   H1  H2  O   H1  H2  O   
H1  H2  O   H1  H2  O   H1  H2  O   H1  H2  O   H1  H2  O   H1  H2  O   H1  H2  
O   H1  H2  O   H1  H2  O   H1  H2  O   H1  H2  O   H1  H2  O   H1  H2  O   H1  
H2  O   H1  H2  O   H1  H2  O   H1  H2  O   H1  H2  O   H1  H2  O   H1  H2  O   
H1  H2  O   H1  H2  O   H1  H2  O   H1  H2  O   H1  H2  O   H1  H2  O   H1  H2  
O   H1  H2  O   H1  H2  O   H1  H2  O   H1  H2  O   H1  H2  O   H1  H2  O   H1  
H2  O   H1  H2  O   H1  H2  O   H1  H2  O   H1  H2  O   H1  H2  O   H1  H2  O   
H1  H2  O   H1  H2  O   H1  H2  O   H1  H2  O   H1  H2  O   H1  H2  O   H1  H2  
O   H1  H2  O   H1  H2  O   H1  H2  O   H1  H2  O   H1  H2  O   H1  H2  O   H1  
H2  O   H1  H2  O   H1  H2  O   H1  H2  O   H1  H2  O   H1  H2  O   H1  H2  O   
H1  H2  O   H1  H2  O   H1  H2  O   H1  H2  O   H1  H2  O   H1  H2  O   H1  H2  
O   H1  H2  O   H1  H2  O   H1  H2  O   H1  H2  O   H1  H2  O   H1  H2  O   H1  
H2  O   H1  H2  O   H1  H2  O   H1  H2  O   H1  H2  O   H1  H2  O   H1  H2  O   
H1  H2  O   H1  H2  O   H1  H2  O   H1  H2  O   H1  H2  O   H1  H2  O   H1  H2  
O   H1  H2  O   H1  H2  O   H1  H2  O   H1  H2  O   H1  H2  O   H1  H2  O   H1  
H2  O   H1  H2  O   H1  H2  O   H1  H2  O   H1  H2  O   H1  H2  O   H1  H2  O   
H1  H2  O   H1  H2  O   H1  H2  O   H1  H2  O   H1  H2  O   H1  H2  O   H1  H2  
O   H1  H2  O   H1  H2  O   H1  H2  O   H1  H2  O   H1  H2  O   H1  H2  O   H1  
H2  O   H1  H2  O   H1  H2  O   H1  H2  O   H1  H2  O   H1  H2  O   H1  H2  O   
H1  H2  O   H1  H2  O   H1  H2  O   H1  H2  O   H1  H2  O   H1  H2  O   H1  H2  
O   H1  H2  O   H1  H2  O   H1  H2  O   H1  H2  O   H1  H2  O   H1  H2  O   H1  
H2  O   H1  H2  O   H1  H2  O   H1  H2  O   H1  H2  O   H1  H2  O   H1  H2  O   
H1  H2  O   H1  H2  O   H1  H2  O   H1  H2  O   H1  H2  O   H1  H2  O   H1  H2  
O   H1  H2  O   H1  H2  O   H1  H2  O   H1  H2  O   H1  H2  O   H1  H2  O   H1  
H2  O   H1  H2  O   H1  H2  O   H1  H2  O   H1  H2  O   H1  H2  O   H1  H2  O   
H1  H2  O   H1  H2  O   H1  H2  O   H1  H2  O   H1  H2  O   H1  H2  O   H1  H2  
O   H1  H2  O   H1  H2  O   H1  H2  O   H1  H2  O   H1  H2  O   H1  H2  O   H1  
H2  O   H1  H2  O   H1  H2  O   H1  H2  O   H1  H2  O   H1  H2  O   H1  H2  O   
H1  H2  O   H1  H2  O   H1  H2  O   H1  H2  O   H1  H2  O   H1  H2  O   H1  H2  
O   H1  H2  O   H1  H2  O   H1  H2  O   H1  H2  O   H1  H2  O   H1  H2  O   H1  
H2  O   H1  H2  O   H1  H2  O   H1  H2  O   H1  H2  O   H1  H2  O   H1  H2  O   
H1  H2  O   H1  H2  O   H1  H2  O   H1  H2  O   H1  H2  O   H1  H2  O   H1  H2  
O   H1  H2  O   H1  H2  O   H1  H2  O   H1  H2  O   H1  H2  O   H1  H2  O   H1  
H2  O   H1  H2  O   H1  H2  O   H1  H2  O   H1  H2  O   H1  H2  O   H1  H2  O   
H1  H2  O   H1  H2  O   H1  H2  O   H1  H2  O   H1  H2  O   H1  H2  O   H1  H2  
O   H1  H2  O   H1  H2  O   H1  H2  O   H1  H2  O   H1  H2  O   H1  H2  O   H1  
H2  O   H1  H2  O   H1  H2  O   H1  H2  O   H1  H2  O   H1  H2  O   H1  H2  O   
H1  H2  O   H1  H2  O   H1  H2  O   H1  H2  O   H1  H2  O   H1  H2  O   H1  H2  
O   H1  H2  O   H1  H2  O   H1  H2  O   H1  H2  O   H1  H2  O   H1  H2  O   H1  
H2  O   H1  H2  O   H1  H2  O   H1  H2  O   H1  H2  O   H1  H2  O   H1  H2  O   
H1  H2  O   H1  H2  O   H1  H2  O   H1  H2  O   H1  H2  O   H1  H2  O   H1  H2  
O   H1  H2  O   H1  H2  O   H1  H2  O   H1  H2  O   H1  H2  O   H1  H2  O   H1  
H2  O   H1  H2  O   H1  H2  O   H1  H2  O   H1  H2  O   H1  H2  O   H1  H2  O   
H1  H2  O   H1  H2  O   H1  H2  O   H1  H2  O   H1  H2  O   H1  H2  O   H1  H2  
O   H1  H2  O   H1  H2  O   H1  H2  O   H1  H2  O   H1  H2  O   H1  H2  O   H1  
H2  O   H1  H2  O   H1  H2  O   H1  H2  O   H1  H2  O   H1  H2  O   H1  H2  O   
H1  H2  O   H1  H2  O   H1  H2  O   H1  H2  O   H1  H2  O   H1  H2  O   H1  H2  
O   H1  H2  O   H1  H2  O   H1  H2  O   H1  H2  O   H1  H2  O   H1  H2  O   H1  
H2  O   H1  H2  O   H1  H2  O   H1  H2  O   H1  H2  O   H1  H2  O   H1  H2  O   
H1  H2  O   H1  H2  O   H1  H2  O   H1  H2  O   H1  H2  O   H1  H2  O   H1  H2  
O   H1  H2  O   H1  H2  O   H1  H2  O   H1  H2  O   H1  H2  O   H1  H2  O   H1  
H2  O   H1  H2  O   H1  H2  O   H1  H2  O   H1  H2  O   H1  H2  O   H1  H2  O   
H1  H2  O   H1  H2  O   H1  H2  O   H1  H2  O   H1  H2  O   H1  H2  O   H1  H2  
O   H1  H2  O   H1  H2  O   H1  H2  O   H1  H2  O   H1  H2  O   H1  H2  O   H1  
H2  O   H1  H2  O   H1  H2  O   H1  H2  O   H1  H2  O   H1  H2  O   H1  H2  O   
H1  H2  O   H1  H2  O   H1  H2  O   H1  H2  O   H1  H2  O   H1  H2  O   H1  H2  
O   H1  H2  O   H1  H2  O   H1  H2  O   H1  H2  O   H1  H2  O   H1  H2  O   H1  
H2  O   H1  H2  O   H1  H2  O   H1  H2  O   H1  H2  O   H1  H2  O   H1  H2  O   
H1  H2  O   H1  H2  O   H1  H2  O   H1  H2  O   H1  H2  O   H1  H2  O   H1  H2  
O   H1  H2  O   H1  H2  O   H1  H2  O   H1  H2  O   H1  H2  O   H1  H2  O   H1  
H2  O   H1  H2  O   H1  H2  O   H1  H2  O   H1  H2  O   H1  H2  O   H1  H2  O   
H1  H2  O   H1  H2  O   H1  H2  O   H1  H2  O   H1  H2  O   H1  H2  O   H1  H2  
O   H1  H2  O   H1  H2  O   H1  H2  O   H1  H2  O   H1  H2  O   H1  H2  O   H1  
H2  O   H1  H2  O   H1  H2  O   H1  H2  O   H1  H2  O   H1  H2  O   H1  H2  O   
H1  H2  O   H1  H2  O   H1  H2  O   H1  H2  O   H1  H2  O   H1  H2  O   H1  H2  
O   H1  H2  O   H1  H2  O   H1  H2  O   H1  H2  O   H1  H2  O   H1  H2  O   H1  
H2  O   H1  H2  O   H1  H2  O   H1  H2  O   H1  H2  O   H1  H2  O   H1  H2  O   
H1  H2  O   H1  H2  O   H1  H2  O   H1  H2  O   H1  H2  O   H1  H2  O   H1  H2  
O   H1  H2  O   H1  H2  O   H1  H2  O   H1  H2  O   H1  H2  O   H1  H2  O   H1  
H2  O   H1  H2  O   H1  H2  O   H1  H2  O   H1  H2  O   H1  H2  O   H1  H2  O   
H1  H2  O   H1  H2  O   H1  H2  O   H1  H2  O   H1  H2  O   H1  H2  O   H1  H2  
O   H1  H2  O   H1  H2  O   H1  H2  O   H1  H2  O   H1  H2  O   H1  H2  O   H1  
H2  O   H1  H2  O   H1  H2  O   H1  H2  O   H1  H2  O   H1  H2  O   H1  H2  O   
H1  H2  O   H1  H2  O   H1  H2  O   H1  H2  O   H1  H2  O   H1  H2  O   H1  H2  
O   H1  H2  O   H1  H2  O   H1  H2  O   H1  H2  O   H1  H2  O   H1  H2  O   H1  
H2  O   H1  H2  O   H1  H2  O   H1  H2  O   H1  H2  O   H1  H2  O   H1  H2  O   
H1  H2  O   H1  H2  O   H1  H2  O   H1  H2  O   H1  H2  O   H1  H2  O   H1  H2  
O   H1  H2  O   H1  H2  O   H1  H2  O   H1  H2  O   H1  H2  O   H1  H2  O   H1  
H2  O   H1  H2  O   H1  H2  O   H1  H2  O   H1  H2  O   H1  H2  O   H1  H2  O   
H1  H2  O   H1  H2  O   H1  H2  O   H1  H2  O   H1  H2  O   H1  H2  O   H1  H2  
O   H1  H2  O   H1  H2  O   H1  H2  O   H1  H2  O   H1  H2  O   H1  H2  O   H1  
H2  O   H1  H2  O   H1  H2  O   H1  H2  O   H1  H2  O   H1  H2  O   H1  H2  O   
H1  H2  O   H1  H2  O   H1  H2  O   H1  H2  O   H1  H2  O   H1  H2  O   H1  H2  
O   H1  H2  O   H1  H2  O   H1  H2  O   H1  H2  O   H1  H2  O   H1  H2  O   H1  
H2  O   H1  H2  O   H1  H2  O   H1  H2  O   H1  H2  O   H1  H2  O   H1  H2  O   
H1  H2  O   H1  H2  O   H1  H2  O   H1  H2  O   H1  H2  O   H1  H2  O   H1  H2  
O   H1  H2  O   H1  H2  O   H1  H2  O   H1  H2  O   H1  H2  O   H1  H2  O   H1  
H2  O   H1  H2  O   H1  H2  O   H1  H2  O   H1  H2  O   H1  H2  O   H1  H2  O   
H1  H2  O   H1  H2  O   H1  H2  O   H1  H2  O   H1  H2  O   H1  H2  O   H1  H2  
O   H1  H2  O   H1  H2  O   H1  H2  O   H1  H2  O   H1  H2  O   H1  H2  O   H1  
H2  O   H1  H2  O   H1  H2  O   H1  H2  O   H1  H2  O   H1  H2  O   H1  H2  O   
H1  H2  O   H1  H2  O   H1  H2  O   H1  H2  O   H1  H2  O   H1  H2  O   H1  H2  
O   H1  H2  O   H1  H2  O   H1  H2  O   H1  H2  O   H1  H2  O   H1  H2  O   H1  
H2  O   H1  H2  O   H1  H2  O   H1  H2  O   H1  H2  O   H1  H2  O   H1  H2  O   
H1  H2  O   H1  H2  O   H1  H2  O   H1  H2  O   H1  H2  O   H1  H2  O   H1  H2  
O   H1  H2  O   H1  H2  O   H1  H2  O   H1  H2  O   H1  H2  O   H1  H2  O   H1  
H2  O   H1  H2  O   H1  H2  O   H1  H2  O   H1  H2  O   H1  H2  O   H1  H2  O   
H1  H2  O   H1  H2  O   H1  H2  O   H1  H2  O   H1  H2  O   H1  H2  O   H1  H2  
O   H1  H2  O   H1  H2  O   H1  H2  O   H1  H2  O   H1  H2  O   H1  H2  O   H1  
H2  O   H1  H2  O   H1  H2  O   H1  H2  O   H1  H2  O   H1  H2  O   H1  H2  O   
H1  H2  O   H1  H2  O   H1  H2  O   H1  H2  O   H1  H2  O   H1  H2  O   H1  H2  
O   H1  H2  O   H1  H2  O   H1  H2  O   H1  H2  O   H1  H2  O   H1  H2  O   H1  
H2  O   H1  H2  O   H1  H2  O   H1  H2  O   H1  H2  O   H1  H2  O   H1  H2  O   
H1  H2  O   H1  H2  O   H1  H2  O   H1  H2  O   H1  H2  O   H1  H2  O   H1  H2  
O   H1  H2  O   H1  H2  O   H1  H2  O   H1  H2  O   H1  H2  O   H1  H2  O   H1  
H2  O   H1  H2  O   H1  H2  O   H1  H2  O   H1  H2  O   H1  H2  O   H1  H2  O   
H1  H2  O   H1  H2  O   H1  H2  O   H1  H2  O   H1  H2  O   H1  H2  O   H1  H2  
O   H1  H2  O   H1  H2  O   H1  H2  O   H1  H2  O   H1  H2  O   H1  H2  O   H1  
H2  O   H1  H2  O   H1  H2  O   H1  H2  O   H1  H2  O   H1  H2  O   H1  H2  O   
H1  H2  O   H1  H2  O   H1  H2  O   H1  H2  O   H1  H2  O   H1  H2  O   H1  H2  
O   H1  H2  O   H1  H2  O   H1  H2  O   H1  H2  O   H1  H2  O   H1  H2  O   H1  
H2  O   H1  H2  O   H1  H2  O   H1  H2  O   H1  H2  O   H1  H2  O   H1  H2  O   
H1  H2  O   H1  H2  O   H1  H2  O   H1  H2  O   H1  H2  O   H1  H2  O   H1  H2  
O   H1  H2  O   H1  H2  O   H1  H2  O   H1  H2  O   H1  H2  O   H1  H2  O   H1  
H2  O   H1  H2  O   H1  H2  O   H1  H2  O   H1  H2  O   H1  H2  O   H1  H2  O   
H1  H2  O   H1  H2  O   H1  H2  O   H1  H2  O   H1  H2  O   H1  H2  O   H1  H2  
O   H1  H2  O   H1  H2  O   H1  H2  O   H1  H2  O   H1  H2  O   H1  H2  O   H1  
H2  O   H1  H2  O   H1  H2  O   H1  H2  O   H1  H2  O   H1  H2  O   H1  H2  O   
H1  H2  O   H1  H2  O   H1  H2  O   H1  H2  O   H1  H2  O   H1  H2  O   H1  H2  
O   H1  H2  O   H1  H2  O   H1  H2  O   H1  H2  O   H1  H2  O   H1  H2  O   H1  
H2  O   H1  H2  O   H1  H2  O   H1  H2  O   H1  H2  O   H1  H2  O   H1  H2  O   
H1  H2  O   H1  H2  O   H1  H2  O   H1  H2  O   H1  H2  O   H1  H2  O   H1  H2  
O   H1  H2  O   H1  H2  O   H1  H2  O   H1  H2  O   H1  H2  O   H1  H2  O   H1  
H2  O   H1  H2  O   H1  H2  O   H1  H2  O   H1  H2  O   H1  H2  O   H1  H2  O   
H1  H2  O   H1  H2  O   H1  H2  O   H1  H2  O   H1  H2  O   H1  H2  O   H1  H2  
O   H1  H2  O   H1  H2  O   H1  H2  O   H1  H2  O   H1  H2  O   H1  H2  O   H1  
H2  O   H1  H2  O   H1  H2  O   H1  H2  O   H1  H2  O   H1  H2  O   H1  H2  O   
H1  H2  O   H1  H2  O   H1  H2  O   H1  H2  O   H1  H2  O   H1  H2  O   H1  H2  
O   H1  H2  O   H1  H2  O   H1  H2  O   H1  H2  O   H1  H2  O   H1  H2  O   H1  
H2  O   H1  H2  O   H1  H2  O   H1  H2  O   H1  H2  O   H1  H2  O   H1  H2  O   
H1  H2  O   H1  H2  O   H1  H2  O   H1  H2  O   H1  H2  O   H1  H2  O   H1  H2  
O   H1  H2  O   H1  H2  O   H1  H2  O   H1  H2  O   H1  H2  O   H1  H2  O   H1  
H2  O   H1  H2  O   H1  H2  O   H1  H2  O   H1  H2  O   H1  H2  O   H1  H2  O   
H1  H2  O   H1  H2  O   H1  H2  O   H1  H2  O   H1  H2  O   H1  H2  O   H1  H2  
O   H1  H2  O   H1  H2  O   H1  H2  O   H1  H2  O   H1  H2  O   H1  H2  O   H1  
H2  O   H1  H2  O   H1  H2  O   H1  H2  O   H1  H2  O   H1  H2  O   H1  H2  O   
H1  H2  O   H1  H2  O   H1  H2  O   H1  H2  O   H1  H2  O   H1  H2  O   H1  H2  
O   H1  H2  O   H1  H2  O   H1  H2  O   H1  H2  O   H1  H2  O   H1  H2  O   H1  
H2  O   H1  H2  O   H1  H2  O   H1  H2  O   H1  H2  O   H1  H2  O   H1  H2  O   
H1  H2  O   H1  H2  O   H1  H2  O   H1  H2  O   H1  H2  O   H1  H2  O   H1  H2  
O   H1  H2  O   H1  H2  O   H1  H2  O   H1  H2  O   H1  H2  O   H1  H2  O   H1  
H2  O   H1  H2  O   H1  H2  O   H1  H2  O   H1  H2  O   H1  H2  O   H1  H2  O   
H1  H2  O   H1  H2  O   H1  H2  O   H1  H2  O   H1  H2  O   H1  H2  O   H1  H2  
O   H1  H2  O   H1  H2  O   H1  H2  O   H1  H2  O   H1  H2  O   H1  H2  O   H1  
H2  O   H1  H2  O   H1  H2  O   H1  H2  O   H1  H2  O   H1  H2  O   H1  H2  O   
H1  H2  O   H1  H2  O   H1  H2  O   H1  H2  O   H1  H2  O   H1  H2  O   H1  H2  
O   H1  H2  O   H1  H2  O   H1  H2  O   H1  H2  O   H1  H2  O   H1  H2  O   H1  
H2  O   H1  H2  O   H1  H2  O   H1  H2  O   H1  H2  O   H1  H2  O   H1  H2  O   
H1  H2  O   H1  H2  O   H1  H2  O   H1  H2  O   H1  H2  O   H1  H2  O   H1  H2  
O   H1  H2  O   H1  H2  O   H1  H2  O   H1  H2  O   H1  H2  O   H1  H2  O   H1  
H2  O   H1  H2  O   H1  H2  O   H1  H2  O   H1  H2  O   H1  H2  O   H1  H2  O   
H1  H2  O   H1  H2  O   H1  H2  O   H1  H2  O   H1  H2  O   H1  H2  O   H1  H2  
O   H1  H2  O   H1  H2  O   H1  H2  O   H1  H2  O   H1  H2  O   H1  H2  O   H1  
H2  O   H1  H2  O   H1  H2  O   H1  H2  O   H1  H2  O   H1  H2  O   H1  H2  O   
H1  H2  O   H1  H2  O   H1  H2  O   H1  H2  O   H1  H2  O   H1  H2  O   H1  H2  
O   H1  H2  O   H1  H2  O   H1  H2  O   H1  H2  O   H1  H2  O   H1  H2  O   H1  
H2  O   H1  H2  O   H1  H2  O   H1  H2  O   H1  H2  O   H1  H2  O   H1  H2  O   
H1  H2  O   H1  H2  O   H1  H2  O   H1  H2  O   H1  H2  O   H1  H2  O   H1  H2  
O   H1  H2  O   H1  H2  O   H1  H2  O   H1  H2  O   H1  H2  O   H1  H2  O   H1  
H2  O   H1  H2  O   H1  H2  O   H1  H2  O   H1  H2  O   H1  H2  O   H1  H2  O   
H1  H2  O   H1  H2  O   H1  H2  O   H1  H2  O   H1  H2  O   H1  H2  O   H1  H2  
O   H1  H2  O   H1  H2  O   H1  H2  O   H1  H2  O   H1  H2  O   H1  H2  O   H1  
H2  O   H1  H2  O   H1  H2  O   H1  H2  O   H1  H2  O   H1  H2  O   H1  H2  O   
H1  H2  O   H1  H2  O   H1  H2  O   H1  H2  O   H1  H2  O   H1  H2  O   H1  H2  
O   H1  H2  O   H1  H2  O   H1  H2  O   H1  H2  O   H1  H2  O   H1  H2  O   H1  
H2  O   H1  H2  O   H1  H2  O   H1  H2  O   H1  H2  O   H1  H2  O   H1  H2  O   
H1  H2  O   H1  H2  O   H1  H2  O   H1  H2  O   H1  H2  O   H1  H2  O   H1  H2  
O   H1  H2  O   H1  H2  O   H1  H2  O   H1  H2  O   H1  H2  O   H1  H2  O   H1  
H2  O   H1  H2  O   H1  H2  O   H1  H2  O   H1  H2  O   H1  H2  O   H1  H2  O   
H1  H2  O   H1  H2  O   H1  H2  O   H1  H2  O   H1  H2  O   H1  H2  O   H1  H2  
O   H1  H2  O   H1  H2  O   H1  H2  O   H1  H2  O   H1  H2  O   H1  H2  O   H1  
H2  O   H1  H2  O   H1  H2  O   H1  H2  O   H1  H2  O   H1  H2  O   H1  H2  O   
H1  H2  O   H1  H2  O   H1  H2  O   H1  H2  O   H1  H2  O   H1  H2  O   H1  H2  
O   H1  H2  O   H1  H2  O   H1  H2  O   H1  H2  O   H1  H2  O   H1  H2  O   H1  
H2  O   H1  H2  O   H1  H2  O   H1  H2  O   H1  H2  O   H1  H2  O   H1  H2  O   
H1  H2  O   H1  H2  O   H1  H2  O   H1  H2  O   H1  H2  O   H1  H2  O   H1  H2  
O   H1  H2  O   H1  H2  O   H1  H2  O   H1  H2  O   H1  H2  O   H1  H2  O   H1  
H2  O   H1  H2  O   H1  H2  O   H1  H2  O   H1  H2  O   H1  H2  O   H1  H2  O   
H1  H2  O   H1  H2  O   H1  H2  O   H1  H2  O   H1  H2  O   H1  H2  O   H1  H2  
O   H1  H2  O   H1  H2  O   H1  H2  O   H1  H2  O   H1  H2  O   H1  H2  O   H1  
H2  O   H1  H2  O   H1  H2  O   H1  H2  O   H1  H2  O   H1  H2  O   H1  H2  O   
H1  H2  O   H1  H2  O   H1  H2  O   H1  H2  O   H1  H2  O   H1  H2  O   H1  H2  
O   H1  H2  O   H1  H2  O   H1  H2  O   H1  H2  O   H1  H2  O   H1  H2  O   H1  
H2  O   H1  H2  O   H1  H2  O   H1  H2  O   H1  H2  O   H1  H2  O   H1  H2  O   
H1  H2  O   H1  H2  O   H1  H2  O   H1  H2  O   H1  H2  O   H1  H2  O   H1  H2  
O   H1  H2  O   H1  H2  O   H1  H2  O   H1  H2  O   H1  H2  O   H1  H2  O   H1  
H2  O   H1  H2  O   H1  H2  O   H1  H2  O   H1  H2  O   H1  H2  O   H1  H2  O   
H1  H2  O   H1  H2  O   H1  H2  O   H1  H2  O   H1  H2  O   H1  H2  O   H1  H2  
O   H1  H2  O   H1  H2  O   H1  H2  O   H1  H2  O   H1  H2  O   H1  H2  O   H1  
H2  O   H1  H2  O   H1  H2  O   H1  H2  O   H1  H2  O   H1  H2  O   H1  H2  O   
H1  H2  O   H1  H2  O   H1  H2  O   H1  H2  O   H1  H2  O   H1  H2  O   H1  H2  
O   H1  H2  O   H1  H2  O   H1  H2  O   H1  H2  O   H1  H2  O   H1  H2  O   H1  
H2  O   H1  H2  O   H1  H2  O   H1  H2  O   H1  H2  O   H1  H2  O   H1  H2  O   
H1  H2  O   H1  H2  O   H1  H2  O   H1  H2  O   H1  H2  O   H1  H2  O   H1  H2  
O   H1  H2  O   H1  H2  O   H1  H2  O   H1  H2  O   H1  H2  O   H1  H2  O   H1  
H2  O   H1  H2  O   H1  H2  O   H1  H2  O   H1  H2  O   H1  H2  O   H1  H2  O   
H1  H2  O   H1  H2  O   H1  H2  O   H1  H2  O   H1  H2  O   H1  H2  O   H1  H2  
O   H1  H2  O   H1  H2  O   H1  H2  O   H1  H2  O   H1  H2  O   H1  H2  O   H1  
H2  O   H1  H2  O   H1  H2  O   H1  H2  O   H1  H2  O   H1  H2  O   H1  H2  O   
H1  H2  O   H1  H2  O   H1  H2  O   H1  H2  O   H1  H2  O   H1  H2  O   H1  H2  
O   H1  H2  O   H1  H2  O   H1  H2  O   H1  H2  O   H1  H2  O   H1  H2  O   H1  
H2  O   H1  H2  O   H1  H2  O   H1  H2  O   H1  H2  O   H1  H2  O   H1  H2  O   
H1  H2  O   H1  H2  O   H1  H2  O   H1  H2  O   H1  H2  O   H1  H2  O   H1  H2  
O   H1  H2  O   H1  H2  O   H1  H2  O   H1  H2  O   H1  H2  O   H1  H2  O   H1  
H2  O   H1  H2  O   H1  H2  O   H1  H2  O   H1  H2  O   H1  H2  O   H1  H2  O   
H1  H2  O   H1  H2  O   H1  H2  O   H1  H2  O   H1  H2  O   H1  H2  O   H1  H2  
O   H1  H2  O   H1  H2  O   H1  H2  O   H1  H2  O   H1  H2  O   H1  H2  O   H1  
H2  O   H1  H2  O   H1  H2  O   H1  H2  O   H1  H2  O   H1  H2  O   H1  H2  O   
H1  H2  O   H1  H2  O   H1  H2  O   H1  H2  O   H1  H2  O   H1  H2  O   H1  H2  
O   H1  H2  O   H1  H2  O   H1  H2  O   H1  H2  O   H1  H2  O   H1  H2  O   H1  
H2  O   H1  H2  O   H1  H2  O   H1  H2  O   H1  H2  O   H1  H2  O   H1  H2  O   
H1  H2  O   H1  H2  O   H1  H2  O   H1  H2  O   H1  H2  O   H1  H2  O   H1  H2  
O   H1  H2  O   H1  H2  O   H1  H2  O   H1  H2  O   H1  H2  O   H1  H2  O   H1  
H2  O   H1  H2  O   H1  H2  O   H1  H2  O   H1  H2  O   H1  H2  O   H1  H2  O   
H1  H2  O   H1  H2  O   H1  H2  O   H1  H2  O   H1  H2  O   H1  H2  O   H1  H2  
O   H1  H2  O   H1  H2  O   H1  H2  O   H1  H2  O   H1  H2  O   H1  H2  O   H1  
H2  O   H1  H2  O   H1  H2  O   H1  H2  O   H1  H2  O   H1  H2  O   H1  H2  O   
H1  H2  O   H1  H2  O   H1  H2  O   H1  H2  O   H1  H2  O   H1  H2  O   H1  H2  
O   H1  H2  O   H1  H2  O   H1  H2  O   H1  H2  O   H1  H2  O   H1  H2  O   H1  
H2  O   H1  H2  O   H1  H2  O   H1  H2  O   H1  H2  O   H1  H2  O   H1  H2  O   
H1  H2  O   H1  H2  O   H1  H2  O   H1  H2  O   H1  H2  O   H1  H2  O   H1  H2  
O   H1  H2  O   H1  H2  O   H1  H2  O   H1  H2  O   H1  H2  O   H1  H2  O   H1  
H2  O   H1  H2  O   H1  H2  O   H1  H2  O   H1  H2  O   H1  H2  O   H1  H2  O   
H1  H2  O   H1  H2  O   H1  H2  O   H1  H2  O   H1  H2  O   H1  H2  O   H1  H2  
O   H1  H2  O   H1  H2  O   H1  H2  O   H1  H2  O   H1  H2  O   H1  H2  O   H1  
H2  O   H1  H2  O   H1  H2  O   H1  H2  O   H1  H2  O   H1  H2  O   H1  H2  O   
H1  H2  O   H1  H2  O   H1  H2  O   H1  H2  O   H1  H2  O   H1  H2  O   H1  H2  
O   H1  H2  O   H1  H2  O   H1  H2  O   H1  H2  O   H1  H2  O   H1  H2  O   H1  
H2  O   H1  H2  O   H1  H2  O   H1  H2  O   H1  H2  O   H1  H2  O   H1  H2  O   
H1  H2  O   H1  H2  O   H1  H2  O   H1  H2  O   H1  H2  O   H1  H2  O   H1  H2  
O   H1  H2  O   H1  H2  O   H1  H2  O   H1  H2  O   H1  H2  O   H1  H2  O   H1  
H2  O   H1  H2  O   H1  H2  O   H1  H2  O   H1  H2  O   H1  H2  O   H1  H2  O   
H1  H2  O   H1  H2  O   H1  H2  O   H1  H2  O   H1  H2  O   H1  H2  O   H1  H2  
O   H1  H2  O   H1  H2  O   H1  H2  O   H1  H2  O   H1  H2  O   H1  H2  O   H1  
H2  O   H1  H2  O   H1  H2  O   H1  H2  O   H1  H2  O   H1  H2  O   H1  H2  O   
H1  H2  O   H1  H2  O   H1  H2  O   H1  H2  O   H1  H2  O   H1  H2  O   H1  H2  
O   H1  H2  O   H1  H2  O   H1  H2  O   H1  H2  O   H1  H2  O   H1  H2  O   H1  
H2  O   H1  H2  O   H1  H2  O   H1  H2  O   H1  H2  O   H1  H2  O   H1  H2  O   
H1  H2  O   H1  H2  O   H1  H2  O   H1  H2  O   H1  H2  O   H1  H2  O   H1  H2  
O   H1  H2  O   H1  H2  O   H1  H2  O   H1  H2  O   H1  H2  O   H1  H2  O   H1  
H2  O   H1  H2  O   H1  H2  O   H1  H2  O   H1  H2  O   H1  H2  O   H1  H2  O   
H1  H2  O   H1  H2  O   H1  H2  O   H1  H2  O   H1  H2  O   H1  H2  O   H1  H2  
O   H1  H2  O   H1  H2  O   H1  H2  O   H1  H2  O   H1  H2  O   H1  H2  O   H1  
H2  O   H1  H2  O   H1  H2  O   H1  H2  O   H1  H2  O   H1  H2  O   H1  H2  O   
H1  H2  O   H1  H2  O   H1  H2  O   H1  H2  O   H1  H2  O   H1  H2  O   H1  H2  
O   H1  H2  O   H1  H2  O   H1  H2  O   H1  H2  O   H1  H2  O   H1  H2  O   H1  
H2  O   H1  H2  O   H1  H2  O   H1  H2  O   H1  H2  O   H1  H2  O   H1  H2  O   
H1  H2  O   H1  H2  O   H1  H2  O   H1  H2  O   H1  H2  O   H1  H2  O   H1  H2  
O   H1  H2  O   H1  H2  O   H1  H2  O   H1  H2  O   H1  H2  O   H1  H2  O   H1  
H2  O   H1  H2  O   H1  H2  O   H1  H2  O   H1  H2  O   H1  H2  O   H1  H2  O   
H1  H2  O   H1  H2  O   H1  H2  O   H1  H2  O   H1  H2  O   H1  H2  O   H1  H2  
O   H1  H2  O   H1  H2  O   H1  H2  O   H1  H2  O   H1  H2  O   H1  H2  O   H1  
H2  O   H1  H2  O   H1  H2  O   H1  H2  O   H1  H2  O   H1  H2  O   H1  H2  O   
H1  H2  O   H1  H2  O   H1  H2  O   H1  H2  O   H1  H2  O   H1  H2  O   H1  H2  
O   H1  H2  O   H1  H2  O   H1  H2  O   H1  H2  O   H1  H2  O   H1  H2  O   H1  
H2  O   H1  H2  O   H1  H2  O   H1  H2  O   H1  H2  O   H1  H2  O   H1  H2  O   
H1  H2  O   H1  H2  O   H1  H2  O   H1  H2  O   H1  H2  O   H1  H2  O   H1  H2  
O   H1  H2  O   H1  H2  O   H1  H2  O   H1  H2  O   H1  H2  O   H1  H2  O   H1  
H2  O   H1  H2  O   H1  H2  O   H1  H2  O   H1  H2  O   H1  H2  O   H1  H2  O   
H1  H2  O   H1  H2  O   H1  H2  O   H1  H2  O   H1  H2  O   H1  H2  O   H1  H2  
O   H1  H2  O   H1  H2  O   H1  H2  O   H1  H2  O   H1  H2  O   H1  H2  O   H1  
H2  O   H1  H2  O   H1  H2  O   H1  H2  O   H1  H2  O   H1  H2  O   H1  H2  O   
H1  H2  O   H1  H2  O   H1  H2  O   H1  H2  O   H1  H2  O   H1  H2  O   H1  H2  
O   H1  H2  O   H1  H2  O   H1  H2  O   H1  H2  O   H1  H2  O   H1  H2  O   H1  
H2  O   H1  H2  O   H1  H2  O   H1  H2  O   H1  H2  O   H1  H2  O   H1  H2  O   
H1  H2  O   H1  H2  O   H1  H2  O   H1  H2  O   H1  H2  O   H1  H2  O   H1  H2  
O   H1  H2  O   H1  H2  O   H1  H2  O   H1  H2  O   H1  H2  O   H1  H2  O   H1  
H2  O   H1  H2  O   H1  H2  O   H1  H2  O   H1  H2  O   H1  H2  O   H1  H2  O   
H1  H2  O   H1  H2  O   H1  H2  O   H1  H2  O   H1  H2  O   H1  H2  O   H1  H2  
O   H1  H2  O   H1  H2  O   H1  H2  O   H1  H2  O   H1  H2  O   H1  H2  O   H1  
H2  O   H1  H2  O   H1  H2  O   H1  H2  O   H1  H2  O   H1  H2  O   H1  H2  O   
H1  H2  O   H1  H2  O   H1  H2  O   H1  H2  O   H1  H2  O   H1  H2  O   H1  H2  
O   H1  H2  O   H1  H2  O   H1  H2  O   H1  H2  O   H1  H2  O   H1  H2  O   H1  
H2  O   H1  H2  O   H1  H2  O   H1  H2  O   H1  H2  O   H1  H2  O   H1  H2  O   
H1  H2  O   H1  H2  O   H1  H2  O   H1  H2  O   H1  H2  O   H1  H2  O   H1  H2  
O   H1  H2  O   H1  H2  O   H1  H2  O   H1  H2  O   H1  H2  O   H1  H2  O   H1  
H2  O   H1  H2  O   H1  H2  O   H1  H2  O   H1  H2  O   H1  H2  O   H1  H2  O   
H1  H2  O   H1  H2  O   H1  H2  O   H1  H2  O   H1  H2  O   H1  H2  O   H1  H2  
O   H1  H2  O   H1  H2  O   H1  H2  O   H1  H2  O   H1  H2  O   H1  H2  O   H1  
H2  O   H1  H2  O   H1  H2  O   H1  H2  O   H1  H2  O   H1  H2  O   H1  H2  O   
H1  H2  O   H1  H2  O   H1  H2  O   H1  H2  O   H1  H2  O   H1  H2  O   H1  H2  
O   H1  H2  O   H1  H2  O   H1  H2  O   H1  H2  O   H1  H2  O   H1  H2  O   H1  
H2  O   H1  H2  O   H1  H2  O   H1  H2  O   H1  H2  O   H1  H2  O   H1  H2  O   
H1  H2  O   H1  H2  O   H1  H2  O   H1  H2  O   H1  H2  O   H1  H2  O   H1  H2  
O   H1  H2  O   H1  H2  O   H1  H2  O   H1  H2  O   H1  H2  O   H1  H2  O   H1  
H2  O   H1  H2  O   H1  H2  O   H1  H2  O   H1  H2  O   H1  H2  O   H1  H2  O   
H1  H2  O   H1  H2  O   H1  H2  O   H1  H2  O   H1  H2  O   H1  H2  O   H1  H2  
O   H1  H2  O   H1  H2  O   H1  H2  O   H1  H2  O   H1  H2  O   H1  H2  O   H1  
H2  O   H1  H2  O   H1  H2  O   H1  H2  O   H1  H2  O   H1  H2  O   H1  H2  O   
H1  H2  O   H1  H2  O   H1  H2  O   H1  H2  O   H1  H2  O   H1  H2  O   H1  H2  
O   H1  H2  O   H1  H2  O   H1  H2  O   H1  H2  O   H1  H2  O   H1  H2  O   H1  
H2  O   H1  H2  O   H1  H2  O   H1  H2  O   H1  H2  O   H1  H2  O   H1  H2  O   
H1  H2  O   H1  H2  O   H1  H2  O   H1  H2  O   H1  H2  O   H1  H2  O   H1  H2  
O   H1  H2  O   H1  H2  O   H1  H2  O   H1  H2  O   H1  H2  O   H1  H2  O   H1  
H2  O   H1  H2  O   H1  H2  O   H1  H2  O   H1  H2  O   H1  H2  O   H1  H2  O   
H1  H2  O   H1  H2  O   H1  H2  O   H1  H2  O   H1  H2  O   H1  H2  O   H1  H2  
O   H1  H2  O   H1  H2  O   H1  H2  O   H1  H2  O   H1  H2  O   H1  H2  O   H1  
H2  O   H1  H2  O   H1  H2  O   H1  H2  O   H1  H2  O   H1  H2  O   H1  H2  O   
H1  H2  O   H1  H2  O   H1  H2  O   H1  H2  O   H1  H2  O   H1  H2  O   H1  H2  
O   H1  H2  O   H1  H2  O   H1  H2  O   H1  H2  O   H1  H2  O   H1  H2  O   H1  
H2  O   H1  H2  O   H1  H2  O   H1  H2  O   H1  H2  O   H1  H2  O   H1  H2  O   
H1  H2  O   H1  H2  O   H1  H2  O   H1  H2  O   H1  H2  O   H1  H2  O   H1  H2  
O   H1  H2  O   H1  H2  O   H1  H2  O   H1  H2  O   H1  H2  O   H1  H2  O   H1  
H2  O   H1  H2  O   H1  H2  O   H1  H2  O   H1  H2  O   H1  H2  O   H1  H2  O   
H1  H2  O   H1  H2  O   H1  H2  O   H1  H2  O   H1  H2  O   H1  H2  O   H1  H2  
O   H1  H2  O   H1  H2  O   H1  H2  O   H1  H2  O   H1  H2  O   H1  H2  O   H1  
H2  O   H1  H2  O   H1  H2  O   H1  H2  O   H1  H2  O   H1  H2  O   H1  H2  O   
H1  H2  O   H1  H2  O   H1  H2  O   H1  H2  O   H1  H2  O   H1  H2  O   H1  H2  
O   H1  H2  O   H1  H2  O   H1  H2  O   H1  H2  O   H1  H2  O   H1  H2  O   H1  
H2  O   H1  H2  O   H1  H2  O   H1  H2  O   H1  H2  O   H1  H2  O   H1  H2  O   
H1  H2  O   H1  H2  O   H1  H2  O   H1  H2  O   H1  H2  O   H1  H2  O   H1  H2  
O   H1  H2  O   H1  H2  O   H1  H2  O   H1  H2  O   H1  H2  O   H1  H2  O   H1  
H2  O   H1  H2  O   H1  H2  O   H1  H2  O   H1  H2  O   H1  H2  O   H1  H2  O   
H1  H2  O   H1  H2  O   H1  H2  O   H1  H2  O   H1  H2  O   H1  H2  O   H1  H2  
O   H1  H2  O   H1  H2  O   H1  H2  O   H1  H2  O   H1  H2  O   H1  H2  O   H1  
H2  O   H1  H2  O   H1  H2  O   H1  H2  O   H1  H2  O   H1  H2  O   H1  H2  O   
H1  H2  O   H1  H2  O   H1  H2  O   H1  H2  O   H1  H2  O   H1  H2  O   H1  H2  
O   H1  H2  O   H1  H2  O   H1  H2  O   H1  H2  O   H1  H2  O   H1  H2  O   H1  
H2  O   H1  H2  O   H1  H2  O   H1  H2  O   H1  H2  O   H1  H2  O   H1  H2  O   
H1  H2  O   H1  H2  O   H1  H2  O   H1  H2  O   H1  H2  O   H1  H2  O   H1  H2  
O   H1  H2  O   H1  H2  O   H1  H2  O   H1  H2  O   H1  H2  O   H1  H2  O   H1  
H2  O   H1  H2  O   H1  H2  O   H1  H2  O   H1  H2  O   H1  H2  O   H1  H2  O   
H1  H2  O   H1  H2  O   H1  H2  O   H1  H2  O   H1  H2  O   H1  H2  O   H1  H2  
O   H1  H2  O   H1  H2  O   H1  H2  O   H1  H2  O   H1  H2  O   H1  H2  O   H1  
H2  O   H1  H2  O   H1  H2  O   H1  H2  O   H1  H2  O   H1  H2  O   H1  H2  O   
H1  H2  O   H1  H2  O   H1  H2  O   H1  H2  O   H1  H2  O   H1  H2  O   H1  H2  
O   H1  H2  O   H1  H2  O   H1  H2  O   H1  H2  O   H1  H2  O   H1  H2  O   H1  
H2  O   H1  H2  O   H1  H2  O   H1  H2  O   H1  H2  O   H1  H2  O   H1  H2  O   
H1  H2  O   H1  H2  O   H1  H2  O   H1  H2  O   H1  H2  O   H1  H2  O   H1  H2  
O   H1  H2  O   H1  H2  O   H1  H2  O   H1  H2  O   H1  H2  O   H1  H2  O   H1  
H2  O   H1  H2  O   H1  H2  O   H1  H2  O   H1  H2  O   H1  H2  O   H1  H2  O   
H1  H2  O   H1  H2  O   H1  H2  O   H1  H2  O   H1  H2  O   H1  H2  O   H1  H2  
O   H1  H2  O   H1  H2  O   H1  H2  O   H1  H2  O   H1  H2  O   H1  H2  O   H1  
H2  O   H1  H2  O   H1  H2  O   H1  H2  O   H1  H2  O   H1  H2  O   H1  H2  O   
H1  H2  O   H1  H2  O   H1  H2  O   H1  H2  O   H1  H2  O   H1  H2  O   H1  H2  
O   H1  H2  O   H1  H2  O   H1  H2  O   H1  H2  O   H1  H2  O   H1  H2  O   H1  
H2  O   H1  H2  O   H1  H2  O   H1  H2  O   H1  H2  O   H1  H2  O   H1  H2  O   
H1  H2  O   H1  H2  O   H1  H2  O   H1  H2  O   H1  H2  O   H1  H2  O   H1  H2  
O   H1  H2  O   H1  H2  O   H1  H2  O   H1  H2  O   H1  H2  O   H1  H2  O   H1  
H2  O   H1  H2  O   H1  H2  O   H1  H2  O   H1  H2  O   H1  H2  O   H1  H2  O   
H1  H2  O   H1  H2  O   H1  H2  O   H1  H2  O   H1  H2  O   H1  H2  O   H1  H2  
O   H1  H2  O   H1  H2  O   H1  H2  O   H1  H2  O   H1  H2  O   H1  H2  O   H1  
H2  O   H1  H2  O   H1  H2  O   H1  H2  O   H1  H2  O   H1  H2  O   H1  H2  O   
H1  H2  O   H1  H2  O   H1  H2  O   H1  H2  O   H1  H2  O   H1  H2  O   H1  H2  
O   H1  H2  O   H1  H2  O   H1  H2  O   H1  H2  O   H1  H2  O   H1  H2  O   H1  
H2  O   H1  H2  O   H1  H2  O   H1  H2  O   H1  H2  O   H1  H2  O   H1  H2  O   
H1  H2  O   H1  H2  O   H1  H2  O   H1  H2  O   H1  H2  O   H1  H2  O   H1  H2  
O   H1  H2  O   H1  H2  O   H1  H2  O   H1  H2  O   H1  H2  O   H1  H2  O   H1  
H2  O   H1  H2  O   H1  H2  O   H1  H2  O   H1  H2  O   H1  H2  O   H1  H2  O   
H1  H2  O   H1  H2  O   H1  H2  O   H1  H2  O   H1  H2  O   H1  H2  O   H1  H2  
O   H1  H2  O   H1  H2  O   H1  H2  O   H1  H2  O   H1  H2  O   H1  H2  O   H1  
H2  O   H1  H2  O   H1  H2  O   H1  H2  O   H1  H2  O   H1  H2  O   H1  H2  O   
H1  H2  O   H1  H2  O   H1  H2  O   H1  H2  O   H1  H2  O   H1  H2  O   H1  H2  
O   H1  H2  O   H1  H2  O   H1  H2  O   H1  H2  O   H1  H2  O   H1  H2  O   H1  
H2  O   H1  H2  O   H1  H2  O   H1  H2  O   H1  H2  O   H1  H2  O   H1  H2  O   
H1  H2  O   H1  H2  O   H1  H2  O   H1  H2  O   H1  H2  O   H1  H2  O   H1  H2  
O   H1  H2  O   H1  H2  O   H1  H2  O   H1  H2  O   H1  H2  O   H1  H2  O   H1  
H2  O   H1  H2  O   H1  H2  O   H1  H2  O   H1  H2  O   H1  H2  O   H1  H2  O   
H1  H2  O   H1  H2  O   H1  H2  O   H1  H2  O   H1  H2  O   H1  H2  O   H1  H2  
O   H1  H2  O   H1  H2  O   H1  H2  O   H1  H2  O   H1  H2  O   H1  H2  O   H1  
H2  O   H1  H2  O   H1  H2  O   H1  H2  O   H1  H2  O   H1  H2  O   H1  H2  O   
H1  H2  O   H1  H2  O   H1  H2  O   H1  H2  O   H1  H2  O   H1  H2  O   H1  H2  
O   H1  H2  O   H1  H2  O   H1  H2  O   H1  H2  O   H1  H2  O   H1  H2  O   H1  
H2  O   H1  H2  O   H1  H2  O   H1  H2  O   H1  H2  O   H1  H2  O   H1  H2  O   
H1  H2  O   H1  H2  O   H1  H2  O   H1  H2  O   H1  H2  O   H1  H2  O   H1  H2  
O   H1  H2  O   H1  H2  O   H1  H2  O   H1  H2  O   H1  H2  O   H1  H2  O   H1  
H2  O   H1  H2  O   H1  H2  O   H1  H2  O   H1  H2  O   H1  H2  O   H1  H2  O   
H1  H2  O   H1  H2  O   H1  H2  O   H1  H2  O   H1  H2  O   H1  H2  O   H1  H2  
O   H1  H2  O   H1  H2  O   H1  H2  O   H1  H2  O   H1  H2  O   H1  H2  O   H1  
H2  O   H1  H2  O   H1  H2  O   H1  H2  O   H1  H2  O   H1  H2  O   H1  H2  O   
H1  H2  O   H1  H2  O   H1  H2  O   H1  H2  O   H1  H2  O   H1  H2  O   H1  H2  
O   H1  H2  O   H1  H2  O   H1  H2  O   H1  H2  O   H1  H2  O   H1  H2  O   H1  
H2  O   H1  H2  O   H1  H2  O   H1  H2  O   H1  H2  O   H1  H2  O   H1  H2  O   
H1  H2  O   H1  H2  O   H1  H2  O   H1  H2  O   H1  H2  O   H1  H2  O   H1  H2  
O   H1  H2  O   H1  H2  O   H1  H2  O   H1  H2  O   H1  H2  O   H1  H2  O   H1  
H2  O   H1  H2  O   H1  H2  O   H1  H2  O   H1  H2  O   H1  H2  O   H1  H2  O   
H1  H2  O   H1  H2  O   H1  H2  O   H1  H2  O   H1  H2  O   H1  H2  O   H1  H2  
O   H1  H2  O   H1  H2  O   H1  H2  O   H1  H2  O   H1  H2  O   H1  H2  O   H1  
H2  O   H1  H2  O   H1  H2  O   H1  H2  O   H1  H2  O   H1  H2  O   H1  H2  O   
H1  H2  O   H1  H2  O   H1  H2  O   H1  H2  O   H1  H2  O   H1  H2  O   H1  H2  
O   H1  H2  O   H1  H2  O   H1  H2  O   H1  H2  O   H1  H2  O   H1  H2  O   H1  
H2  O   H1  H2  O   H1  H2  O   H1  H2  O   H1  H2  O   H1  H2  O   H1  H2  O   
H1  H2  O   H1  H2  O   H1  H2  O   H1  H2  O   H1  H2  O   H1  H2  O   H1  H2  
O   H1  H2  O   H1  H2  O   H1  H2  O   H1  H2  O   H1  H2  O   H1  H2  O   H1  
H2  O   H1  H2  O   H1  H2  O   H1  H2  O   H1  H2  O   H1  H2  O   H1  H2  O   
H1  H2  O   H1  H2  O   H1  H2  O   H1  H2  O   H1  H2  O   H1  H2  O   H1  H2  
O   H1  H2  O   H1  H2  O   H1  H2  O   H1  H2  O   H1  H2  O   H1  H2  O   H1  
H2  O   H1  H2  O   H1  H2  O   H1  H2  O   H1  H2  O   H1  H2  O   H1  H2  O   
H1  H2  O   H1  H2  O   H1  H2  O   H1  H2  O   H1  H2  O   H1  H2  O   H1  H2  
O   H1  H2  O   H1  H2  O   H1  H2  O   H1  H2  O   H1  H2  O   H1  H2  O   H1  
H2  O   H1  H2  O   H1  H2  O   H1  H2  O   H1  H2  O   H1  H2  O   H1  H2  O   
H1  H2  O   H1  H2  O   H1  H2  O   H1  H2  O   H1  H2  O   H1  H2  O   H1  H2  
O   H1  H2  O   H1  H2  O   H1  H2  O   H1  H2  O   H1  H2  O   H1  H2  O   H1  
H2  O   H1  H2  O   H1  H2  O   H1  H2  O   H1  H2  O   H1  H2  O   H1  H2  O   
H1  H2  O   H1  H2  O   H1  H2  O   H1  H2  O   H1  H2  O   H1  H2  O   H1  H2  
O   H1  H2  O   H1  H2  O   H1  H2  O   H1  H2  O   H1  H2  O   H1  H2  O   H1  
H2  O   H1  H2  O   H1  H2  O   H1  H2  O   H1  H2  O   H1  H2  O   H1  H2  O   
H1  H2  O   H1  H2  O   H1  H2  O   H1  H2  O   H1  H2  O   H1  H2  O   H1  H2  
O   H1  H2  O   H1  H2  O   H1  H2  O   H1  H2  O   H1  H2  O   H1  H2  O   H1  
H2  O   H1  H2  O   H1  H2  O   H1  H2  O   H1  H2  O   H1  H2  O   H1  H2  O   
H1  H2  O   H1  H2  O   H1  H2  O   H1  H2  O   H1  H2  O   H1  H2  O   H1  H2  
O   H1  H2  O   H1  H2  O   H1  H2  O   H1  H2  O   H1  H2  O   H1  H2  O   H1  
H2  O   H1  H2  O   H1  H2  O   H1  H2  O   H1  H2  O   H1  H2  O   H1  H2  O   
H1  H2  O   H1  H2  O   H1  H2  O   H1  H2  O   H1  H2  O   H1  H2  O   H1  H2  
O   H1  H2  O   H1  H2  O   H1  H2  O   H1  H2  O   H1  H2  O   H1  H2  O   H1  
H2  O   H1  H2  O   H1  H2  O   H1  H2  O   H1  H2  O   H1  H2  O   H1  H2  O   
H1  H2  O   H1  H2  O   H1  H2  O   H1  H2  O   H1  H2  O   H1  H2  O   H1  H2  
O   H1  H2  O   H1  H2  O   H1  H2  O   H1  H2  O   H1  H2  O   H1  H2  O   H1  
H2  O   H1  H2  O   H1  H2  O   H1  H2  O   H1  H2  O   H1  H2  O   H1  H2  O   
H1  H2  O   H1  H2  O   H1  H2  O   H1  H2  O   H1  H2  O   H1  H2  O   H1  H2  
O   H1  H2  O   H1  H2  O   H1  H2  O   H1  H2  O   H1  H2  O   H1  H2  O   H1  
H2  O   H1  H2  O   H1  H2  O   H1  H2  O   H1  H2  O   H1  H2  O   H1  H2  O   
H1  H2  O   H1  H2  O   H1  H2  O   H1  H2  O   H1  H2  O   H1  H2  O   H1  H2  
O   H1  H2  O   H1  H2  O   H1  H2  O   H1  H2  O   H1  H2  O   H1  H2  O   H1  
H2  O   H1  H2  O   H1  H2  O   H1  H2  O   H1  H2  O   H1  H2  O   H1  H2  O   
H1  H2  O   H1  H2  O   H1  H2  O   H1  H2  O   H1  H2  O   H1  H2  O   H1  H2  
O   H1  H2  O   H1  H2  O   H1  H2  O   H1  H2  O   H1  H2  O   H1  H2  O   H1  
H2  O   H1  H2  O   H1  H2  O   H1  H2  O   H1  H2  O   H1  H2  O   H1  H2  O   
H1  H2  O   H1  H2  O   H1  H2  O   H1  H2  O   H1  H2  O   H1  H2  O   H1  H2  
O   H1  H2  O   H1  H2  O   H1  H2  O   H1  H2  O   H1  H2  O   H1  H2  O   H1  
H2  O   H1  H2  O   H1  H2  O   H1  H2  O   H1  H2  O   H1  H2  O   H1  H2  O   
H1  H2  O   H1  H2  O   H1  H2  O   H1  H2  O   H1  H2  O   H1  H2  O   H1  H2  
O   H1  H2  O   H1  H2  O   H1  H2  O   H1  H2  O   H1  H2  O   H1  H2  O   H1  
H2  O   H1  H2  O   H1  H2  O   H1  H2  O   H1  H2  O   H1  H2  O   H1  H2  O   
H1  H2  O   H1  H2  O   H1  H2  O   H1  H2  O   H1  H2  O   H1  H2  O   H1  H2  
O   H1  H2  O   H1  H2  O   H1  H2  O   H1  H2  O   H1  H2  O   H1  H2  O   H1  
H2  O   H1  H2  O   H1  H2  O   H1  H2  O   H1  H2  O   H1  H2  O   H1  H2  O   
H1  H2  O   H1  H2  O   H1  H2  O   H1  H2  O   H1  H2  O   H1  H2  O   H1  H2  
O   H1  H2  O   H1  H2  O   H1  H2  O   H1  H2  O   H1  H2  O   H1  H2  O   H1  
H2  O   H1  H2  O   H1  H2  O   H1  H2  O   H1  H2  O   H1  H2  O   H1  H2  O   
H1  H2  O   H1  H2  O   H1  H2  O   H1  H2  O   H1  H2  O   H1  H2  O   H1  H2  
O   H1  H2  O   H1  H2  O   H1  H2  O   H1  H2  O   H1  H2  O   H1  H2  O   H1  
H2  O   H1  H2  O   H1  H2  O   H1  H2  O   H1  H2  O   H1  H2  O   H1  H2  O   
H1  H2  O   H1  H2  O   H1  H2  O   H1  H2  O   H1  H2  O   H1  H2  O   H1  H2  
O   H1  H2  O   H1  H2  O   H1  H2  O   H1  H2  O   H1  H2  O   H1  H2  O   H1  
H2  O   H1  H2  O   H1  H2  O   H1  H2  O   H1  H2  O   H1  H2  O   H1  H2  O   
H1  H2  O   H1  H2  O   H1  H2  O   H1  H2  O   H1  H2  O   H1  H2  O   H1  H2  
O   H1  H2  O   H1  H2  O   H1  H2  O   H1  H2  O   H1  H2  O   H1  H2  O   H1  
H2  O   H1  H2  O   H1  H2  O   H1  H2  O   H1  H2  O   H1  H2  O   H1  H2  O   
H1  H2  O   H1  H2  O   H1  H2  O   H1  H2  O   H1  H2  O   H1  H2  O   H1  H2  
O   H1  H2  O   H1  H2  O   H1  H2  O   H1  H2  O   H1  H2  O   H1  H2  O   H1  
H2  O   H1  H2  O   H1  H2  O   H1  H2  O   H1  H2  O   H1  H2  O   H1  H2  O   
H1  H2  O   H1  H2  O   H1  H2  O   H1  H2  O   H1  H2  O   H1  H2  O   H1  H2  
O   H1  H2  O   H1  H2  O   H1  H2  O   H1  H2  O   H1  H2  O   H1  H2  O   H1  
H2  O   H1  H2  O   H1  H2  O   H1  H2  O   H1  H2  O   H1  H2  O   H1  H2  O   
H1  H2  O   H1  H2  O   H1  H2  O   H1  H2  O   H1  H2  O   H1  H2  O   H1  H2  
O   H1  H2  O   H1  H2  O   H1  H2  O   H1  H2  O   H1  H2  O   H1  H2  O   H1  
H2  O   H1  H2  O   H1  H2  O   H1  H2  O   H1  H2  O   H1  H2  O   H1  H2  O   
H1  H2  O   H1  H2  O   H1  H2  O   H1  H2  O   H1  H2  O   H1  H2  O   H1  H2  
O   H1  H2  O   H1  H2  O   H1  H2  O   H1  H2  O   H1  H2  O   H1  H2  O   H1  
H2  O   H1  H2  O   H1  H2  O   H1  H2  O   H1  H2  O   H1  H2  O   H1  H2  O   
H1  H2  O   H1  H2  O   H1  H2  O   H1  H2  O   H1  H2  O   H1  H2  O   H1  H2  
O   H1  H2  O   H1  H2  O   H1  H2  O   H1  H2  O   H1  H2  O   H1  H2  O   H1  
H2  O   H1  H2  O   H1  H2  O   H1  H2  O   H1  H2  O   H1  H2  O   H1  H2  O   
H1  H2  O   H1  H2  O   H1  H2  O   H1  H2  O   H1  H2  O   H1  H2  O   H1  H2  
O   H1  H2  O   H1  H2  O   H1  H2  O   H1  H2  O   H1  H2  O   H1  H2  O   H1  
H2  O   H1  H2  O   H1  H2  O   H1  H2  O   H1  H2  O   H1  H2  O   H1  H2  O   
H1  H2  O   H1  H2  O   H1  H2  O   H1  H2  O   H1  H2  O   H1  H2  O   H1  H2  
O   H1  H2  O   H1  H2  O   H1  H2  O   H1  H2  O   H1  H2  O   H1  H2  O   H1  
H2  O   H1  H2  O   H1  H2  O   H1  H2  O   H1  H2  O   H1  H2  O   H1  H2  O   
H1  H2  O   H1  H2  O   H1  H2  O   H1  H2  O   H1  H2  O   H1  H2  O   H1  H2  
O   H1  H2  O   H1  H2  O   H1  H2  O   H1  H2  O   H1  H2  O   H1  H2  O   H1  
H2  O   H1  H2  O   H1  H2  O   H1  H2  O   H1  H2  O   H1  H2  O   H1  H2  O   
H1  H2  O   H1  H2  O   H1  H2  O   H1  H2  O   H1  H2  O   H1  H2  O   H1  H2  
O   H1  H2  O   H1  H2  O   H1  H2  O   H1  H2  O   H1  H2  O   H1  H2  O   H1  
H2  O   H1  H2  O   H1  H2  O   H1  H2  O   H1  H2  O   H1  H2  O   H1  H2  O   
H1  H2  O   H1  H2  O   H1  H2  O   H1  H2  O   H1  H2  O   H1  H2  O   H1  H2  
O   H1  H2  O   H1  H2  O   H1  H2  O   H1  H2  O   H1  H2  O   H1  H2  O   H1  
H2  O   H1  H2  O   H1  H2  O   H1  H2  O   H1  H2  O   H1  H2  O   H1  H2  O   
H1  H2  O   H1  H2  O   H1  H2  O   H1  H2  O   H1  H2  O   H1  H2  O   H1  H2  
O   H1  H2  O   H1  H2  O   H1  H2  O   H1  H2  O   H1  H2  O   H1  H2  O   H1  
H2  O   H1  H2  O   H1  H2  O   H1  H2  O   H1  H2  O   H1  H2  O   H1  H2  O   
H1  H2  O   H1  H2  O   H1  H2  O   H1  H2  O   H1  H2  O   H1  H2  O   H1  H2  
O   H1  H2  O   H1  H2  O   H1  H2  O   H1  H2  O   H1  H2  O   H1  H2  O   H1  
H2  O   H1  H2  O   H1  H2  O   H1  H2  O   H1  H2  O   H1  H2  O   H1  H2  O   
H1  H2  O   H1  H2  O   H1  H2  O   H1  H2  O   H1  H2  O   H1  H2  O   H1  H2  
O   H1  H2  O   H1  H2  O   H1  H2  O   H1  H2  O   H1  H2  O   H1  H2  O   H1  
H2  O   H1  H2  O   H1  H2  O   H1  H2  O   H1  H2  O   H1  H2  O   H1  H2  O   
H1  H2  O   H1  H2  O   H1  H2  O   H1  H2  O   H1  H2  O   H1  H2  O   H1  H2  
O   H1  H2  O   H1  H2  O   H1  H2  O   H1  H2  O   H1  H2  O   H1  H2  O   H1  
H2  O   H1  H2  O   H1  H2  O   H1  H2  O   H1  H2  O   H1  H2  O   H1  H2  O   
H1  H2  O   H1  H2  O   H1  H2  O   H1  H2  O   H1  H2  O   H1  H2  O   H1  H2  
O   H1  H2  O   H1  H2  O   H1  H2  O   H1  H2  O   H1  H2  O   H1  H2  O   H1  
H2  O   H1  H2  O   H1  H2  O   H1  H2  O   H1  H2  O   H1  H2  O   H1  H2  O   
H1  H2  O   H1  H2  O   H1  H2  O   H1  H2  O   H1  H2  O   H1  H2  O   H1  H2  
O   H1  H2  O   H1  H2  O   H1  H2  O   H1  H2  O   H1  H2  O   H1  H2  O   H1  
H2  O   H1  H2  O   H1  H2  O   H1  H2  O   H1  H2  O   H1  H2  O   H1  H2  O   
H1  H2  O   H1  H2  O   H1  H2  O   H1  H2  O   H1  H2  O   H1  H2  O   H1  H2  
O   H1  H2  O   H1  H2  O   H1  H2  O   H1  H2  O   H1  H2  O   H1  H2  O   H1  
H2  O   H1  H2  O   H1  H2  O   H1  H2  O   H1  H2  O   H1  H2  O   H1  H2  O   
H1  H2  O   H1  H2  O   H1  H2  O   H1  H2  O   H1  H2  O   H1  H2  O   H1  H2  
O   H1  H2  O   H1  H2  O   H1  H2  O   H1  H2  O   H1  H2  O   H1  H2  O   H1  
H2  O   H1  H2  O   H1  H2  O   H1  H2  O   H1  H2  O   H1  H2  O   H1  H2  O   
H1  H2  O   H1  H2  O   H1  H2  O   H1  H2  O   H1  H2  O   H1  H2  O   H1  H2  
O   H1  H2  O   H1  H2  O   H1  H2  O   H1  H2  O   H1  H2  O   H1  H2  O   H1  
H2  O   H1  H2  O   H1  H2  O   H1  H2  O   H1  H2  O   H1  H2  O   H1  H2  O   
H1  H2  O   H1  H2  O   H1  H2  O   H1  H2  O   H1  H2  O   H1  H2  O   H1  H2  
O   H1  H2  O   H1  H2  O   H1  H2  O   H1  H2  O   H1  H2  O   H1  H2  O   H1  
H2  O   H1  H2  O   H1  H2  O   H1  H2  O   H1  H2  O   H1  H2  O   H1  H2  O   
H1  H2  O   H1  H2  O   H1  H2  O   H1  H2  O   H1  H2  O   H1  H2  O   H1  H2  
O   H1  H2  O   H1  H2  O   H1  H2  O   H1  H2  O   H1  H2  O   H1  H2  O   H1  
H2  O   H1  H2  O   H1  H2  O   H1  H2  O   H1  H2  O   H1  H2  O   H1  H2  O   
H1  H2  O   H1  H2  O   H1  H2  O   H1  H2  O   H1  H2  O   H1  H2  O   H1  H2  
O   H1  H2  O   H1  H2  O   H1  H2  O   H1  H2  O   H1  H2  O   H1  H2  O   H1  
H2  O   H1  H2  O   H1  H2  O   H1  H2  O   H1  H2  O   H1  H2  O   H1  H2  O   
H1  H2  O   H1  H2  O   H1  H2  O   H1  H2  O   H1  H2  O   H1  H2  O   H1  H2  
O   H1  H2  O   H1  H2  O   H1  H2  O   H1  H2  O   H1  H2  O   H1  H2  O   H1  
H2  O   H1  H2  O   H1  H2  O   H1  H2  O   H1  H2  O   H1  H2  O   H1  H2  O   
H1  H2  O   H1  H2  O   H1  H2  O   H1  H2  O   H1  H2  O   H1  H2  O   H1  H2  
O   H1  H2  O   H1  H2  O   H1  H2  O   H1  H2  O   H1  H2  O   H1  H2  O   H1  
H2  O   H1  H2  O   H1  H2  O   H1  H2  O   H1  H2  O   H1  H2  O   H1  H2  O   
H1  H2  O   H1  H2  O   H1  H2  O   H1  H2  O   H1  H2  O   H1  H2  O   H1  H2  
O   H1  H2  O   H1  H2  O   H1  H2  O   H1  H2  O   H1  H2  O   H1  H2  O   H1  
H2  O   H1  H2  O   H1  H2  O   H1  H2  O   H1  H2  O   H1  H2  O   H1  H2  O   
H1  H2  O   H1  H2  O   H1  H2  O   H1  H2  O   H1  H2  O   H1  H2  O   H1  H2  
O   H1  H2  O   H1  H2  O   H1  H2  O   H1  H2  O   H1  H2  O   H1  H2  O   H1  
H2  O   H1  H2  O   H1  H2  O   H1  H2  O   H1  H2  O   H1  H2  O   H1  H2  O   
H1  H2  O   H1  H2  O   H1  H2  O   H1  H2  O   H1  H2  O   H1  H2  O   H1  H2  
O   H1  H2  O   H1  H2  O   H1  H2  O   H1  H2  O   H1  H2  O   H1  H2  O   H1  
H2  O   H1  H2  O   H1  H2  O   H1  H2  O   H1  H2  O   H1  H2  O   H1  H2  O   
H1  H2  O   H1  H2  O   H1  H2  O   H1  H2  O   H1  H2  O   H1  H2  O   H1  H2  
O   H1  H2  O   H1  H2  O   H1  H2  O   H1  H2  O   H1  H2  O   H1  H2  O   H1  
H2  O   H1  H2  O   H1  H2  O   H1  H2  O   H1  H2  O   H1  H2  O   H1  H2  O   
H1  H2  O   H1  H2  O   H1  H2  O   H1  H2  O   H1  H2  O   H1  H2  O   H1  H2  
O   H1  H2  O   H1  H2  O   H1  H2  O   H1  H2  O   H1  H2  O   H1  H2  O   H1  
H2  O   H1  H2  O   H1  H2  O   H1  H2  O   H1  H2  O   H1  H2  O   H1  H2  O   
H1  H2  O   H1  H2  O   H1  H2  O   H1  H2  O   H1  H2  O   H1  H2  O   H1  H2  
O   H1  H2  O   H1  H2  O   H1  H2  O   H1  H2  O   H1  H2  O   H1  H2  O   H1  
H2  O   H1  H2  O   H1  H2  O   H1  H2  O   H1  H2  O   H1  H2  O   H1  H2  O   
H1  H2  O   H1  H2  O   H1  H2  O   H1  H2  O   H1  H2  O   H1  H2  O   H1  H2  
O   H1  H2  O   H1  H2  O   H1  H2  O   H1  H2  O   H1  H2  O   H1  H2  O   H1  
H2  O   H1  H2  O   H1  H2  O   H1  H2  O   H1  H2  O   H1  H2  O   H1  H2  O   
H1  H2  O   H1  H2  O   H1  H2  O   H1  H2  O   H1  H2  O   H1  H2  O   H1  H2  
O   H1  H2  O   H1  H2  O   H1  H2  O   H1  H2  O   H1  H2  O   H1  H2  O   H1  
H2  O   H1  H2  O   H1  H2  O   H1  H2  O   H1  H2  O   H1  H2  O   H1  H2  O   
H1  H2  O   H1  H2  O   H1  H2  O   H1  H2  O   H1  H2  O   H1  H2  O   H1  H2  
O   H1  H2  O   H1  H2  O   H1  H2  O   H1  H2  O   H1  H2  O   H1  H2  O   H1  
H2  O   H1  H2  O   H1  H2  O   H1  H2  O   H1  H2  O   H1  H2  O   H1  H2  O   
H1  H2  O   H1  H2  O   H1  H2  O   H1  H2  O   H1  H2  O   H1  H2  O   H1  H2  
O   H1  H2  O   H1  H2  O   H1  H2  O   H1  H2  O   H1  H2  O   H1  H2  O   H1  
H2  O   H1  H2  O   H1  H2  O   H1  H2  O   H1  H2  O   H1  H2  O   H1  H2  O   
H1  H2  O   H1  H2  O   H1  H2  O   H1  H2  O   H1  H2  O   H1  H2  O   H1  H2  
O   H1  H2  O   H1  H2  O   H1  H2  O   H1  H2  O   H1  H2  O   H1  H2  O   H1  
H2  O   H1  H2  O   H1  H2  O   H1  H2  O   H1  H2  O   H1  H2  O   H1  H2  O   
H1  H2  O   H1  H2  O   H1  H2  O   H1  H2  O   H1  H2  O   H1  H2  O   H1  H2  
O   H1  H2  O   H1  H2  O   H1  H2  O   H1  H2  O   H1  H2  O   H1  H2  O   H1  
H2  O   H1  H2  O   H1  H2  O   H1  H2  O   H1  H2  O   H1  H2  O   H1  H2  O   
H1  H2  O   H1  H2  O   H1  H2  O   H1  H2  O   H1  H2  O   H1  H2  O   H1  H2  
O   H1  H2  O   H1  H2  O   H1  H2  O   H1  H2  O   H1  H2  O   H1  H2  O   H1  
H2  O   H1  H2  O   H1  H2  O   H1  H2  O   H1  H2  O   H1  H2  O   H1  H2  O   
H1  H2  O   H1  H2  O   H1  H2  O   H1  H2  O   H1  H2  O   H1  H2  O   H1  H2  
O   H1  H2  O   H1  H2  O   H1  H2  O   H1  H2  O   H1  H2  O   H1  H2  O   H1  
H2  O   H1  H2  O   H1  H2  O   H1  H2  O   H1  H2  O   H1  H2  O   H1  H2  O   
H1  H2  O   H1  H2  O   H1  H2  O   H1  H2  O   H1  H2  O   H1  H2  O   H1  H2  
O   H1  H2  O   H1  H2  O   H1  H2  O   H1  H2  O   H1  H2  O   H1  H2  O   H1  
H2  O   H1  H2  O   H1  H2  O   H1  H2  O   H1  H2  O   H1  H2  O   H1  H2  O   
H1  H2  O   H1  H2  O   H1  H2  O   H1  H2  O   H1  H2  O   H1  H2  O   H1  H2  
O   H1  H2  O   H1  H2  O   H1  H2  O   H1  H2  O   H1  H2  O   H1  H2  O   H1  
H2  O   H1  H2  O   H1  H2  O   H1  H2  O   H1  H2  O   H1  H2  O   H1  H2  O   
H1  H2  O   H1  H2  O   H1  H2  O   H1  H2  O   H1  H2  O   H1  H2  O   H1  H2  
O   H1  H2  O   H1  H2  O   H1  H2  O   H1  H2  O   H1  H2  O   H1  H2  O   H1  
H2  O   H1  H2  O   H1  H2  O   H1  H2  O   H1  H2  O   H1  H2  O   H1  H2  O   
H1  H2  O   H1  H2  O   H1  H2  O   H1  H2  O   H1  H2  O   H1  H2  O   H1  H2  
O   H1  H2  O   H1  H2  O   H1  H2  O   H1  H2  O   H1  H2  O   H1  H2  O   H1  
H2  O   H1  H2  O   H1  H2  O   H1  H2  O   H1  H2  O   H1  H2  O   H1  H2  O   
H1  H2  O   H1  H2  O   H1  H2  O   H1  H2  O   H1  H2  O   H1  H2  O   H1  H2  
O   H1  H2  O   H1  H2  O   H1  H2  O   H1  H2  O   H1  H2  O   H1  H2  O   H1  
H2  O   H1  H2  O   H1  H2  O   H1  H2  O   H1  H2  O   H1  H2  O   H1  H2  O   
H1  H2  O   H1  H2  O   H1  H2  O   H1  H2  O   H1  H2  O   H1  H2  O   H1  H2  
O   H1  H2  O   H1  H2  O   H1  H2  O   H1  H2  O   H1  H2  O   H1  H2  O   H1  
H2  O   H1  H2  O   H1  H2  O   H1  H2  O   H1  H2  O   H1  H2  O   H1  H2  O   
H1  H2  O   H1  H2  O   H1  H2  O   H1  H2  O   H1  H2  O   H1  H2  O   H1  H2  
O   H1  H2  O   H1  H2  O   H1  H2  O   H1  H2  O   H1  H2  O   H1  H2  O   H1  
H2  O   H1  H2  O   H1  H2  O   H1  H2  O   H1  H2  O   H1  H2  O   H1  H2  O   
H1  H2  O   H1  H2  O   H1  H2  O   H1  H2  O   H1  H2  O   H1  H2  O   H1  H2  
O   H1  H2  O   H1  H2  O   H1  H2  O   H1  H2  O   H1  H2  O   H1  H2  O   H1  
H2  O   H1  H2  O   H1  H2  O   H1  H2  O   H1  H2  O   H1  H2  O   H1  H2  O   
H1  H2  O   H1  H2  O   H1  H2  O   H1  H2  O   H1  H2  O   H1  H2  O   H1  H2  
O   H1  H2  O   H1  H2  O   H1  H2  O   H1  H2  O   H1  H2  O   H1  H2  O   H1  
H2  O   H1  H2  O   H1  H2  O   H1  H2  O   H1  H2  O   H1  H2  O   H1  H2  O   
H1  H2  O   H1  H2  O   H1  H2  O   H1  H2  O   H1  H2  O   H1  H2  O   H1  H2  
O   H1  H2  O   H1  H2  O   H1  H2  O   H1  H2  O   H1  H2  O   H1  H2  O   H1  
H2  O   H1  H2  O   H1  H2  O   H1  H2  O   H1  H2  O   H1  H2  O   H1  H2  O   
H1  H2  O   H1  H2  O   H1  H2  O   H1  H2  O   H1  H2  O   H1  H2  O   H1  H2  
O   H1  H2  O   H1  H2  O   H1  H2  O   H1  H2  O   H1  H2  O   H1  H2  O   H1  
H2  O   H1  H2  O   H1  H2  O   H1  H2  O   H1  H2  O   H1  H2  O   H1  H2  O   
H1  H2  O   H1  H2  O   H1  H2  O   H1  H2  O   H1  H2  O   H1  H2  O   H1  H2  
O   H1  H2  O   H1  H2  O   H1  H2  O   H1  H2  O   H1  H2  O   H1  H2  O   H1  
H2  O   H1  H2  O   H1  H2  O   H1  H2  O   H1  H2  O   H1  H2  O   H1  H2  O   
H1  H2  O   H1  H2  O   H1  H2  O   H1  H2  O   H1  H2  O   H1  H2  O   H1  H2  
O   H1  H2  O   H1  H2  O   H1  H2  O   H1  H2  O   H1  H2  O   H1  H2  O   H1  
H2  O   H1  H2  O   H1  H2  O   H1  H2  O   H1  H2  O   H1  H2  O   H1  H2  O   
H1  H2  O   H1  H2  O   H1  H2  O   H1  H2  O   H1  H2  O   H1  H2  O   H1  H2  
O   H1  H2  O   H1  H2  O   H1  H2  O   H1  H2  O   H1  H2  O   H1  H2  O   H1  
H2  O   H1  H2  O   H1  H2  O   H1  H2  O   H1  H2  O   H1  H2  O   H1  H2  O   
H1  H2  O   H1  H2  O   H1  H2  O   H1  H2  O   H1  H2  O   H1  H2  O   H1  H2  
O   H1  H2  O   H1  H2  O   H1  H2  O   H1  H2  O   H1  H2  O   H1  H2  O   H1  
H2  O   H1  H2  O   H1  H2  O   H1  H2  O   H1  H2  O   H1  H2  O   H1  H2  O   
H1  H2  O   H1  H2  O   H1  H2  O   H1  H2  O   H1  H2  O   H1  H2  O   H1  H2  
O   H1  H2  O   H1  H2  O   H1  H2  O   H1  H2  O   H1  H2  O   H1  H2  O   H1  
H2  O   H1  H2  O   H1  H2  O   H1  H2  O   H1  H2  O   H1  H2  O   H1  H2  O   
H1  H2  O   H1  H2  O   H1  H2  O   H1  H2  O   H1  H2  O   H1  H2  O   H1  H2  
O   H1  H2  O   H1  H2  O   H1  H2  O   H1  H2  O   H1  H2  O   H1  H2  O   H1  
H2  O   H1  H2  O   H1  H2  O   H1  H2  O   H1  H2  O   H1  H2  O   H1  H2  O   
H1  H2  O   H1  H2  O   H1  H2  O   H1  H2  O   H1  H2  O   H1  H2  O   H1  H2  
O   H1  H2  O   H1  H2  O   H1  H2  O   H1  H2  O   H1  H2  O   H1  H2  O   H1  
H2  O   H1  H2  O   H1  H2  O   H1  H2  O   H1  H2  O   H1  H2  O   H1  H2  O   
H1  H2  O   H1  H2  O   H1  H2  O   H1  H2  O   H1  H2  O   H1  H2  O   H1  H2  
O   H1  H2  O   H1  H2  O   H1  H2  O   H1  H2  O   H1  H2  O   H1  H2  O   H1  
H2  O   H1  H2  O   H1  H2  O   H1  H2  O   H1  H2  O   H1  H2  O   H1  H2  O   
H1  H2  O   H1  H2  O   H1  H2  O   H1  H2  O   H1  H2  O   H1  H2  O   H1  H2  
O   H1  H2  O   H1  H2  O   H1  H2  O   H1  H2  O   H1  H2  O   H1  H2  O   H1  
H2  O   H1  H2  O   H1  H2  O   H1  H2  O   H1  H2  O   H1  H2  O   H1  H2  O   
H1  H2  O   H1  H2  O   H1  H2  O   H1  H2  O   H1  H2  O   H1  H2  O   H1  H2  
O   H1  H2  O   H1  H2  O   H1  H2  O   H1  H2  O   H1  H2  O   H1  H2  O   H1  
H2  O   H1  H2  O   H1  H2  O   H1  H2  O   H1  H2  O   H1  H2  O   H1  H2  O   
H1  H2  O   H1  H2  O   H1  H2  O   H1  H2  O   H1  H2  O   H1  H2  O   H1  H2  
O   H1  H2  O   H1  H2  O   H1  H2  O   H1  H2  O   H1  H2  O   H1  H2  O   H1  
H2  O   H1  H2  O   H1  H2  O   H1  H2  O   H1  H2  O   H1  H2  O   H1  H2  O   
H1  H2  O   H1  H2  O   H1  H2  O   H1  H2  O   H1  H2  O   H1  H2  O   H1  H2  
O   H1  H2  O   H1  H2  O   H1  H2  O   H1  H2  O   H1  H2  O   H1  H2  O   H1  
H2  O   H1  H2  O   H1  H2  O   H1  H2  O   H1  H2  O   H1  H2  O   H1  H2  O   
H1  H2  O   H1  H2  O   H1  H2  O   H1  H2  O   H1  H2  O   H1  H2  O   H1  H2  
O   H1  H2  O   H1  H2  O   H1  H2  O   H1  H2  O   H1  H2  O   H1  H2  O   H1  
H2  O   H1  H2  O   H1  H2  O   H1  H2  O   H1  H2  O   H1  H2  O   H1  H2  O   
H1  H2  O   H1  H2  O   H1  H2  O   H1  H2  O   H1  H2  O   H1  H2  O   H1  H2  
O   H1  H2  O   H1  H2  O   H1  H2  O   H1  H2  O   H1  H2  O   H1  H2  O   H1  
H2  O   H1  H2  O   H1  H2  O   H1  H2  O   H1  H2  O   H1  H2  O   H1  H2  O   
H1  H2  O   H1  H2  O   H1  H2  O   H1  H2  O   H1  H2  O   H1  H2  O   H1  H2  
O   H1  H2  O   H1  H2  O   H1  H2  O   H1  H2  O   H1  H2  O   H1  H2  O   H1  
H2  O   H1  H2  O   H1  H2  O   H1  H2  O   H1  H2  O   H1  H2  O   H1  H2  O   
H1  H2  O   H1  H2  O   H1  H2  O   H1  H2  O   H1  H2  O   H1  H2  O   H1  H2  
O   H1  H2  O   H1  H2  O   H1  H2  O   H1  H2  O   H1  H2  O   H1  H2  O   H1  
H2  O   H1  H2  O   H1  H2  O   H1  H2  O   H1  H2  O   H1  H2  O   H1  H2  O   
H1  H2  O   H1  H2  O   H1  H2  O   H1  H2  O   H1  H2  O   H1  H2  O   H1  H2  
O   H1  H2  O   H1  H2  O   H1  H2  O   H1  H2  O   H1  H2  O   H1  H2  O   H1  
H2  O   H1  H2  O   H1  H2  O   H1  H2  O   H1  H2  O   H1  H2  O   H1  H2  O   
H1  H2  O   H1  H2  O   H1  H2  O   H1  H2  O   H1  H2  O   H1  H2  O   H1  H2  
O   H1  H2  O   H1  H2  O   H1  H2  O   H1  H2  O   H1  H2  O   H1  H2  O   H1  
H2  O   H1  H2  O   H1  H2  O   H1  H2  O   H1  H2  O   H1  H2  O   H1  H2  O   
H1  H2  O   H1  H2  O   H1  H2  O   H1  H2  O   H1  H2  O   H1  H2  O   H1  H2  
O   H1  H2  O   H1  H2  O   H1  H2  O   H1  H2  O   H1  H2  O   H1  H2  O   H1  
H2  O   H1  H2  O   H1  H2  O   H1  H2  O   H1  H2  O   H1  H2  O   H1  H2  O   
H1  H2  O   H1  H2  O   H1  H2  O   H1  H2  O   H1  H2  O   H1  H2  O   H1  H2  
O   H1  H2  O   H1  H2  O   H1  H2  O   H1  H2  O   H1  H2  O   H1  H2  O   H1  
H2  O   H1  H2  O   H1  H2  O   H1  H2  O   H1  H2  O   H1  H2  O   H1  H2  O   
H1  H2  O   H1  H2  O   H1  H2  O   H1  H2  O   H1  H2  O   H1  H2  O   H1  H2  
O   H1  H2  O   H1  H2  O   H1  H2  O   H1  H2  O   H1  H2  O   H1  H2  O   H1  
H2  O   H1  H2  O   H1  H2  O   H1  H2  O   H1  H2  O   H1  H2  O   H1  H2  O   
H1  H2  O   H1  H2  O   H1  H2  O   H1  H2  O   H1  H2  O   H1  H2  O   H1  H2  
O   H1  H2  O   H1  H2  O   H1  H2  O   H1  H2  O   H1  H2  O   H1  H2  O   H1  
H2  O   H1  H2  O   H1  H2  O   H1  H2  O   H1  H2  O   H1  H2  O   H1  H2  O   
H1  H2  O   H1  H2  O   H1  H2  O   H1  H2  O   H1  H2  O   H1  H2  O   H1  H2  
O   H1  H2  O   H1  H2  O   H1  H2  O   H1  H2  O   H1  H2  O   H1  H2  O   H1  
H2  O   H1  H2  O   H1  H2  O   H1  H2  O   H1  H2  O   H1  H2  O   H1  H2  O   
H1  H2  O   H1  H2  O   H1  H2  O   H1  H2  O   H1  H2  O   H1  H2  O   H1  H2  
O   H1  H2  O   H1  H2  O   H1  H2  O   H1  H2  O   H1  H2  O   H1  H2  O   H1  
H2  O   H1  H2  O   H1  H2  O   H1  H2  O   H1  H2  O   H1  H2  O   H1  H2  O   
H1  H2  O   H1  H2  O   H1  H2  O   H1  H2  O   H1  H2  O   H1  H2  O   H1  H2  
O   H1  H2  O   H1  H2  O   H1  H2  O   H1  H2  O   H1  H2  O   H1  H2  O   H1  
H2  O   H1  H2  O   H1  H2  O   H1  H2  O   H1  H2  O   H1  H2  O   H1  H2  O   
H1  H2  O   H1  H2  O   H1  H2  O   H1  H2  O   H1  H2  O   H1  H2  O   H1  H2  
O   H1  H2  O   H1  H2  O   H1  H2  O   H1  H2  O   H1  H2  O   H1  H2  O   H1  
H2  O   H1  H2  O   H1  H2  O   H1  H2  O   H1  H2  O   H1  H2  O   H1  H2  O   
H1  H2  O   H1  H2  O   H1  H2  O   H1  H2  O   H1  H2  O   H1  H2  O   H1  H2  
O   H1  H2  O   H1  H2  O   H1  H2  O   H1  H2  O   H1  H2  O   H1  H2  O   H1  
H2  O   H1  H2  O   H1  H2  O   H1  H2  O   H1  H2  O   H1  H2  O   H1  H2  O   
H1  H2  O   H1  H2  O   H1  H2  O   H1  H2  O   H1  H2  O   H1  H2  O   H1  H2  
O   H1  H2  O   H1  H2  O   H1  H2  O   H1  H2  O   H1  H2  O   H1  H2  O   H1  
H2  O   H1  H2  O   H1  H2  O   H1  H2  O   H1  H2  O   H1  H2  O   H1  H2  O   
H1  H2  O   H1  H2  O   H1  H2  O   H1  H2  O   H1  H2  O   H1  H2  O   H1  H2  
O   H1  H2  O   H1  H2  O   H1  H2  O   H1  H2  O   H1  H2  O   H1  H2  O   H1  
H2  O   H1  H2  O   H1  H2  O   H1  H2  O   H1  H2  O   H1  H2  O   H1  H2  O   
H1  H2  O   H1  H2  O   H1  H2  O   H1  H2  O   H1  H2  O   H1  H2  O   H1  H2  
O   H1  H2  O   H1  H2  O   H1  H2  O   H1  H2  O   H1  H2  O   H1  H2  O   H1  
H2  O   H1  H2  O   H1  H2  O   H1  H2  O   H1  H2  O   H1  H2  O   H1  H2  O   
H1  H2  O   H1  H2  O   H1  H2  O   H1  H2  O   H1  H2  O   H1  H2  O   H1  H2  
O   H1  H2  O   H1  H2  O   H1  H2  O   H1  H2  O   H1  H2  O   H1  H2  O   H1  
H2  O   H1  H2  O   H1  H2  O   H1  H2  O   H1  H2  O   H1  H2  O   H1  H2  O   
H1  H2  O   H1  H2  O   H1  H2  O   H1  H2  O   H1  H2  O   H1  H2  O   H1  H2  
O   H1  H2  O   H1  H2  O   H1  H2  O   H1  H2  O   H1  H2  O   H1  H2  O   H1  
H2  O   H1  H2  O   H1  H2  O   H1  H2  O   H1  H2  O   H1  H2  O   H1  H2  O   
H1  H2  O   H1  H2  O   H1  H2  O   H1  H2  O   H1  H2  O   H1  H2  O   H1  H2  
O   H1  H2  O   H1  H2  O   H1  H2  O   H1  H2  O   H1  H2  O   H1  H2  O   H1  
H2  O   H1  H2  O   H1  H2  O   H1  H2  O   H1  H2  O   H1  H2  O   H1  H2  O   
H1  H2  O   H1  H2  O   H1  H2  O   H1  H2  O   H1  H2  O   H1  H2  O   H1  H2  
O   H1  H2  O   H1  H2  O   H1  H2  O   H1  H2  O   H1  H2  O   H1  H2  O   H1  
H2  O   H1  H2  O   H1  H2  O   H1  H2  O   H1  H2  O   H1  H2  O   H1  H2  O   
H1  H2  O   H1  H2  O   H1  H2  O   H1  H2  O   H1  H2  O   H1  H2  O   H1  H2  
O   H1  H2  O   H1  H2  O   H1  H2  O   H1  H2  O   H1  H2  O   H1  H2  O   H1  
H2  O   H1  H2  O   H1  H2  O   H1  H2  O   H1  H2  O   H1  H2  O   H1  H2  O   
H1  H2  O   H1  H2  O   H1  H2  O   H1  H2  O   H1  H2  O   H1  H2  O   H1  H2  
O   H1  H2  O   H1  H2  O   H1  H2  O   H1  H2  O   H1  H2  O   H1  H2  O   H1  
H2  O   H1  H2  O   H1  H2  O   H1  H2  O   H1  H2  O   H1  H2  O   H1  H2  O   
H1  H2  O   H1  H2  O   H1  H2  O   H1  H2  O   H1  H2  O   H1  H2  O   H1  H2  
O   H1  H2  O   H1  H2  O   H1  H2  O   H1  H2  O   H1  H2  O   H1  H2  O   H1  
H2  O   H1  H2  O   H1  H2  O   H1  H2  O   H1  H2  O   H1  H2  O   H1  H2  O   
H1  H2  O   H1  H2  O   H1  H2  O   H1  H2  O   H1  H2  O   H1  H2  O   H1  H2  
O   H1  H2  O   H1  H2  O   H1  H2  O   H1  H2  O   H1  H2  O   H1  H2  O   H1  
H2  O   H1  H2  O   H1  H2  O   H1  H2  O   H1  H2  O   H1  H2  O   H1  H2  O   
H1  H2  O   H1  H2  O   H1  H2  O   H1  H2  O   H1  H2  O   H1  H2  O   H1  H2  
O   H1  H2  O   H1  H2  O   H1  H2  O   H1  H2  O   H1  H2  O   H1  H2  O   H1  
H2  O   H1  H2  O   H1  H2  O   H1  H2  O   H1  H2  O   H1  H2  O   H1  H2  O   
H1  H2  O   H1  H2  O   H1  H2  O   H1  H2  O   H1  H2  O   H1  H2  O   H1  H2  
O   H1  H2  O   H1  H2  O   H1  H2  O   H1  H2  O   H1  H2  O   H1  H2  O   H1  
H2  O   H1  H2  O   H1  H2  O   H1  H2  O   H1  H2  O   H1  H2  O   H1  H2  O   
H1  H2  O   H1  H2  O   H1  H2  O   H1  H2  O   H1  H2  O   H1  H2  O   H1  H2  
O   H1  H2  O   H1  H2  O   H1  H2  O   H1  H2  O   H1  H2  O   H1  H2  O   H1  
H2  O   H1  H2  O   H1  H2  O   H1  H2  O   H1  H2  O   H1  H2  O   H1  H2  O   
H1  H2  O   H1  H2  O   H1  H2  O   H1  H2  O   H1  H2  O   H1  H2  O   H1  H2  
O   H1  H2  O   H1  H2  O   H1  H2  O   H1  H2  O   H1  H2  O   H1  H2  O   H1  
H2  O   H1  H2  O   H1  H2  O   H1  H2  O   H1  H2  O   H1  H2  O   H1  H2  O   
H1  H2  O   H1  H2  O   H1  H2  O   H1  H2  O   H1  H2  O   H1  H2  O   H1  H2  
O   H1  H2  O   H1  H2  O   H1  H2  O   H1  H2  O   H1  H2  O   H1  H2  O   H1  
H2  O   H1  H2  O   H1  H2  O   H1  H2  O   H1  H2  O   H1  H2  O   H1  H2  O   
H1  H2  O   H1  H2  O   H1  H2  O   H1  H2  O   H1  H2  O   H1  H2  O   H1  H2  
O   H1  H2  O   H1  H2  O   H1  H2  O   H1  H2  O   H1  H2  O   H1  H2  O   H1  
H2  O   H1  H2  O   H1  H2  O   H1  H2  O   H1  H2  O   H1  H2  O   H1  H2  O   
H1  H2  O   H1  H2  O   H1  H2  O   H1  H2  O   H1  H2  O   H1  H2  O   H1  H2  
O   H1  H2  O   H1  H2  O   H1  H2  O   H1  H2  O   H1  H2  O   H1  H2  O   H1  
H2  O   H1  H2  O   H1  H2  O   H1  H2  O   H1  H2  O   H1  H2  O   H1  H2  O   
H1  H2  O   H1  H2  O   H1  H2  O   H1  H2  O   H1  H2  O   H1  H2  O   H1  H2  
O   H1  H2  O   H1  H2  O   H1  H2  O   H1  H2  O   H1  H2  O   H1  H2  O   H1  
H2  O   H1  H2  O   H1  H2  O   H1  H2  O   H1  H2  O   H1  H2  O   H1  H2  O   
H1  H2  O   H1  H2  O   H1  H2  O   H1  H2  O   H1  H2  O   H1  H2  O   H1  H2  
O   H1  H2  O   H1  H2  O   H1  H2  O   H1  H2  O   H1  H2  O   H1  H2  O   H1  
H2  O   H1  H2  O   H1  H2  O   H1  H2  O   H1  H2  O   H1  H2  O   H1  H2  O   
H1  H2  O   H1  H2  O   H1  H2  O   H1  H2  O   H1  H2  O   H1  H2  O   H1  H2  
O   H1  H2  O   H1  H2  O   H1  H2  O   H1  H2  O   H1  H2  O   H1  H2  O   H1  
H2  O   H1  H2  O   H1  H2  O   H1  H2  O   H1  H2  O   H1  H2  O   H1  H2  O   
H1  H2  O   H1  H2  O   H1  H2  O   H1  H2  O   H1  H2  O   H1  H2  O   H1  H2  
O   H1  H2  O   H1  H2  O   H1  H2  O   H1  H2  O   H1  H2  O   H1  H2  O   H1  
H2  O   H1  H2  O   H1  H2  O   H1  H2  O   H1  H2  O   H1  H2  O   H1  H2  O   
H1  H2  O   H1  H2  O   H1  H2  O   H1  H2  O   H1  H2  O   H1  H2  O   H1  H2  
O   H1  H2  O   H1  H2  O   H1  H2  O   H1  H2  O   H1  H2  O   H1  H2  O   H1  
H2  O   H1  H2  O   H1  H2  O   H1  H2  O   H1  H2  O   H1  H2  O   H1  H2  O   
H1  H2  O   H1  H2  O   H1  H2  O   H1  H2  O   H1  H2  O   H1  H2  O   H1  H2  
O   H1  H2  O   H1  H2  O   H1  H2  O   H1  H2  O   H1  H2  O   H1  H2  O   H1  
H2  O   H1  H2  O   H1  H2  O   H1  H2  O   H1  H2  O   H1  H2  O   H1  H2  O   
H1  H2  O   H1  H2  O   H1  H2  O   H1  H2  O   H1  H2  O   H1  H2  O   H1  H2  
O   H1  H2  O   H1  H2  O   H1  H2  O   H1  H2  O   H1  H2  O   H1  H2  O   H1  
H2  O   H1  H2  O   H1  H2  O   H1  H2  O   H1  H2  O   H1  H2  O   H1  H2  O   
H1  H2  O   H1  H2  O   H1  H2  O   H1  H2  O   H1  H2  O   H1  H2  O   H1  H2  
O   H1  H2  O   H1  H2  O   H1  H2  O   H1  H2  O   H1  H2  O   H1  H2  O   H1  
H2  O   H1  H2  O   H1  H2  O   H1  H2  O   H1  H2  O   H1  H2  O   H1  H2  O   
H1  H2  O   H1  H2  O   H1  H2  O   H1  H2  O   H1  H2  O   H1  H2  O   H1  H2  
O   H1  H2  O   H1  H2  O   H1  H2  O   H1  H2  O   H1  H2  O   H1  H2  O   H1  
H2  O   H1  H2  O   H1  H2  O   H1  H2  O   H1  H2  O   H1  H2  O   H1  H2  O   
H1  H2  O   H1  H2  O   H1  H2  O   H1  H2  O   H1  H2  O   H1  H2  O   H1  H2  
O   H1  H2  O   H1  H2  O   H1  H2  O   H1  H2  O   H1  H2  O   H1  H2  O   H1  
H2  O   H1  H2  O   H1  H2  O   H1  H2  O   H1  H2  O   H1  H2  O   H1  H2  O   
H1  H2  O   H1  H2  O   H1  H2  O   H1  H2  O   H1  H2  O   H1  H2  O   H1  H2  
O   H1  H2  O   H1  H2  O   H1  H2  O   H1  H2  O   H1  H2  O   H1  H2  O   H1  
H2  O   H1  H2  O   H1  H2  O   H1  H2  O   H1  H2  O   H1  H2  O   H1  H2  O   
H1  H2  O   H1  H2  O   H1  H2  O   H1  H2  O   H1  H2  O   H1  H2  O   H1  H2  
O   H1  H2  O   H1  H2  O   H1  H2  O   H1  H2  O   H1  H2  O   H1  H2  O   H1  
H2  O   H1  H2  O   H1  H2  O   H1  H2  O   H1  H2  O   H1  H2  O   H1  H2  O   
H1  H2  O   H1  H2  O   H1  H2  O   H1  H2  O   H1  H2  O   H1  H2  O   H1  H2  
O   H1  H2  O   H1  H2  O   H1  H2  O   H1  H2  O   H1  H2  O   H1  H2  O   H1  
H2  O   H1  H2  O   H1  H2  O   H1  H2  O   H1  H2  O   H1  H2  O   H1  H2  O   
H1  H2  O   H1  H2  O   H1  H2  O   H1  H2  O   H1  H2  O   H1  H2  O   H1  H2  
O   H1  H2  O   H1  H2  O   H1  H2  O   H1  H2  O   H1  H2  O   H1  H2  O   H1  
H2  O   H1  H2  O   H1  H2  O   H1  H2  O   H1  H2  O   H1  H2  O   H1  H2  O   
H1  H2  O   H1  H2  O   H1  H2  O   H1  H2  O   H1  H2  O   H1  H2  O   H1  H2  
O   H1  H2  O   H1  H2  O   H1  H2  O   H1  H2  O   H1  H2  O   H1  H2  O   H1  
H2  O   H1  H2  O   H1  H2  O   H1  H2  O   H1  H2  O   H1  H2  O   H1  H2  O   
H1  H2  O   H1  H2  O   H1  H2  O   H1  H2  O   H1  H2  O   H1  H2  O   H1  H2  
O   H1  H2  O   H1  H2  O   H1  H2  O   H1  H2  O   H1  H2  O   H1  H2  O   H1  
H2  O   H1  H2  O   H1  H2  O   H1  H2  O   H1  H2  O   H1  H2  O   H1  H2  O   
H1  H2  O   H1  H2  O   H1  H2  O   H1  H2  O   H1  H2  O   H1  H2  O   H1  H2  
O   H1  H2  O   H1  H2  O   H1  H2  O   H1  H2  O   H1  H2  O   H1  H2  O   H1  
H2  O   H1  H2  O   H1  H2  O   H1  H2  O   H1  H2  O   H1  H2  O   H1  H2  O   
H1  H2  O   H1  H2  O   H1  H2  O   H1  H2  O   H1  H2  O   H1  H2  O   H1  H2  
O   H1  H2  O   H1  H2  O   H1  H2  O   H1  H2  O   H1  H2  O   H1  H2  O   H1  
H2  O   H1  H2  O   H1  H2  O   H1  H2  O   H1  H2  O   H1  H2  O   H1  H2  O   
H1  H2  O   H1  H2  O   H1  H2  O   H1  H2  O   H1  H2  O   H1  H2  O   H1  H2  
O   H1  H2  O   H1  H2  O   H1  H2  O   H1  H2  O   H1  H2  O   H1  H2  O   H1  
H2  O   H1  H2  O   H1  H2  O   H1  H2  O   H1  H2  O   H1  H2  O   H1  H2  O   
H1  H2  O   H1  H2  O   H1  H2  O   H1  H2  O   H1  H2  O   H1  H2  O   H1  H2  
O   H1  H2  O   H1  H2  O   H1  H2  O   H1  H2  O   H1  H2  O   H1  H2  O   H1  
H2  O   H1  H2  O   H1  H2  O   H1  H2  O   H1  H2  O   H1  H2  O   H1  H2  O   
H1  H2  O   H1  H2  O   H1  H2  O   H1  H2  O   H1  H2  O   H1  H2  O   H1  H2  
O   H1  H2  O   H1  H2  O   H1  H2  O   H1  H2  O   H1  H2  O   H1  H2  O   H1  
H2  O   H1  H2  O   H1  H2  O   H1  H2  O   H1  H2  O   H1  H2  O   H1  H2  O   
H1  H2  O   H1  H2  O   H1  H2  O   H1  H2  O   H1  H2  O   H1  H2  O   H1  H2  
O   H1  H2  O   H1  H2  O   H1  H2  O   H1  H2  O   H1  H2  O   H1  H2  O   H1  
H2  O   H1  H2  O   H1  H2  O   H1  H2  O   H1  H2  O   H1  H2  O   H1  H2  O   
H1  H2  O   H1  H2  O   H1  H2  O   H1  H2  O   H1  H2  O   H1  H2  O   H1  H2  
O   H1  H2  O   H1  H2  O   H1  H2  O   H1  H2  O   H1  H2  O   H1  H2  O   H1  
H2  O   H1  H2  O   H1  H2  O   H1  H2  O   H1  H2  O   H1  H2  O   H1  H2  O   
H1  H2  O   H1  H2  O   H1  H2  O   H1  H2  O   H1  H2  O   H1  H2  O   H1  H2  
O   H1  H2  O   H1  H2  O   H1  H2  O   H1  H2  O   H1  H2  O   H1  H2  O   H1  
H2  O   H1  H2  O   H1  H2  O   H1  H2  O   H1  H2  O   H1  H2  O   H1  H2  O   
H1  H2  O   H1  H2  O   H1  H2  O   H1  H2  O   H1  H2  O   H1  H2  O   H1  H2  
O   H1  H2  O   H1  H2  O   H1  H2  O   H1  H2  O   H1  H2  O   H1  H2  O   H1  
H2  O   H1  H2  O   H1  H2  O   H1  H2  O   H1  H2  O   H1  H2  O   H1  H2  O   
H1  H2  O   H1  H2  O   H1  H2  O   H1  H2  O   H1  H2  O   H1  H2  O   H1  H2  
O   H1  H2  O   H1  H2  O   H1  H2  O   H1  H2  O   H1  H2  O   H1  H2  O   H1  
H2  O   H1  H2  O   H1  H2  O   H1  H2  O   H1  H2  O   H1  H2  O   H1  H2  O   
H1  H2  O   H1  H2  O   H1  H2  O   H1  H2  O   H1  H2  O   H1  H2  O   H1  H2  
O   H1  H2  O   H1  H2  O   H1  H2  O   H1  H2  O   H1  H2  O   H1  H2  O   H1  
H2  O   H1  H2  O   H1  H2  O   H1  H2  O   H1  H2  O   H1  H2  O   H1  H2  O   
H1  H2  O   H1  H2  O   H1  H2  O   H1  H2  O   H1  H2  O   H1  H2  O   H1  H2  
O   H1  H2  O   H1  H2  O   H1  H2  O   H1  H2  O   H1  H2  O   H1  H2  O   H1  
H2  O   H1  H2  O   H1  H2  O   H1  H2  O   H1  H2  O   H1  H2  O   H1  H2  O   
H1  H2  O   H1  H2  O   H1  H2  O   H1  H2  O   H1  H2  O   H1  H2  O   H1  H2  
O   H1  H2  O   H1  H2  O   H1  H2  O   H1  H2  O   H1  H2  O   H1  H2  O   H1  
H2  O   H1  H2  O   H1  H2  O   H1  H2  O   H1  H2  O   H1  H2  O   H1  H2  O   
H1  H2  O   H1  H2  O   H1  H2  O   H1  H2  O   H1  H2  O   H1  H2  O   H1  H2  
O   H1  H2  O   H1  H2  O   H1  H2  O   H1  H2  O   H1  H2  O   H1  H2  O   H1  
H2  O   H1  H2  O   H1  H2  O   H1  H2  O   H1  H2  O   H1  H2  O   H1  H2  O   
H1  H2  O   H1  H2  O   H1  H2  O   H1  H2  O   H1  H2  O   H1  H2  O   H1  H2  
O   H1  H2  O   H1  H2  O   H1  H2  O   H1  H2  O   H1  H2  O   H1  H2  O   H1  
H2  O   H1  H2  O   H1  H2  O   H1  H2  O   H1  H2  O   H1  H2  O   H1  H2  O   
H1  H2  O   H1  H2  O   H1  H2  O   H1  H2  O   H1  H2  O   H1  H2  O   H1  H2  
O   H1  H2  O   H1  H2  O   H1  H2  O   H1  H2  O   H1  H2  O   H1  H2  O   H1  
H2  O   H1  H2  O   H1  H2  O   H1  H2  O   H1  H2  O   H1  H2  O   H1  H2  O   
H1  H2  O   H1  H2  O   H1  H2  O   H1  H2  O   H1  H2  O   H1  H2  O   H1  H2  
O   H1  H2  O   H1  H2  O   H1  H2  O   H1  H2  O   H1  H2  O   H1  H2  O   H1  
H2  O   H1  H2  O   H1  H2  O   H1  H2  O   H1  H2  O   H1  H2  O   H1  H2  O   
H1  H2  O   H1  H2  O   H1  H2  O   H1  H2  O   H1  H2  O   H1  H2  O   H1  H2  
O   H1  H2  O   H1  H2  O   H1  H2  O   H1  H2  O   H1  H2  O   H1  H2  O   H1  
H2  O   H1  H2  O   H1  H2  O   H1  H2  O   H1  H2  O   H1  H2  O   H1  H2  O   
H1  H2  O   H1  H2  O   H1  H2  O   H1  H2  O   H1  H2  O   H1  H2  O   H1  H2  
O   H1  H2  O   H1  H2  O   H1  H2  O   H1  H2  O   H1  H2  O   H1  H2  O   H1  
H2  O   H1  H2  O   H1  H2  O   H1  H2  O   H1  H2  O   H1  H2  O   H1  H2  O   
H1  H2  O   H1  H2  O   H1  H2  O   H1  H2  O   H1  H2  O   H1  H2  O   H1  H2  
O   H1  H2  O   H1  H2  O   H1  H2  O   H1  H2  O   H1  H2  O   H1  H2  O   H1  
H2  O   H1  H2  O   H1  H2  O   H1  H2  O   H1  H2  O   H1  H2  O   H1  H2  O   
H1  H2  O   H1  H2  O   H1  H2  O   H1  H2  O   H1  H2  O   H1  H2  O   H1  H2  
O   H1  H2  O   H1  H2  O   H1  H2  O   H1  H2  O   H1  H2  O   H1  H2  O   H1  
H2  O   H1  H2  O   H1  H2  O   H1  H2  O   H1  H2  O   H1  H2  O   H1  H2  O   
H1  H2  O   H1  H2  O   H1  H2  O   H1  H2  O   H1  H2  O   H1  H2  O   H1  H2  
O   H1  H2  O   H1  H2  O   H1  H2  O   H1  H2  O   H1  H2  O   H1  H2  O   H1  
H2  O   H1  H2  O   H1  H2  O   H1  H2  O   H1  H2  O   H1  H2  O   H1  H2  O   
H1  H2  O   H1  H2  O   H1  H2  O   H1  H2  O   H1  H2  O   H1  H2  O   H1  H2  
O   H1  H2  O   H1  H2  O   H1  H2  O   H1  H2  O   H1  H2  O   H1  H2  O   H1  
H2  O   H1  H2  O   H1  H2  O   H1  H2  O   H1  H2  O   H1  H2  O   H1  H2  O   
H1  H2  O   H1  H2  O   H1  H2  O   H1  H2  O   H1  H2  O   H1  H2  O   H1  H2  
O   H1  H2  O   H1  H2  O   H1  H2  O   H1  H2  O   H1  H2  O   H1  H2  O   H1  
H2  O   H1  H2  O   H1  H2  O   H1  H2  O   H1  H2  O   H1  H2  O   H1  H2  O   
H1  H2  O   H1  H2  O   H1  H2  O   H1  H2  O   H1  H2  O   H1  H2  O   H1  H2  
O   H1  H2  O   H1  H2  O   H1  H2  O   H1  H2  O   H1  H2  O   H1  H2  O   H1  
H2  O   H1  H2  O   H1  H2  O   H1  H2  O   H1  H2  O   H1  H2  O   H1  H2  O   
H1  H2  O   H1  H2  O   H1  H2  O   H1  H2  O   H1  H2  O   H1  H2  O   H1  H2  
O   H1  H2  O   H1  H2  O   H1  H2  O   H1  H2  O   H1  H2  O   H1  H2  O   H1  
H2  O   H1  H2  O   H1  H2  O   H1  H2  O   H1  H2  O   H1  H2  O   H1  H2  O   
H1  H2  O   H1  H2  O   H1  H2  O   H1  H2  O   H1  H2  O   H1  H2  O   H1  H2  
O   H1  H2  O   H1  H2  O   H1  H2  O   H1  H2  O   H1  H2  O   H1  H2  O   H1  
H2  O   H1  H2  O   H1  H2  O   H1  H2  O   H1  H2  O   H1  H2  O   H1  H2  O   
H1  H2  O   H1  H2  O   H1  H2  O   H1  H2  O   H1  H2  O   H1  H2  O   H1  H2  
O   H1  H2  O   H1  H2  O   H1  H2  O   H1  H2  O   H1  H2  O   H1  H2  O   H1  
H2  O   H1  H2  O   H1  H2  O   H1  H2  O   H1  H2  O   H1  H2  O   H1  H2  O   
H1  H2  O   H1  H2  O   H1  H2  O   H1  H2  O   H1  H2  O   H1  H2  O   H1  H2  
O   H1  H2  O   H1  H2  O   H1  H2  O   H1  H2  O   H1  H2  O   H1  H2  O   H1  
H2  O   H1  H2  O   H1  H2  O   H1  H2  O   H1  H2  O   H1  H2  O   H1  H2  O   
H1  H2  O   H1  H2  O   H1  H2  O   H1  H2  O   H1  H2  O   H1  H2  O   H1  H2  
O   H1  H2  O   H1  H2  O   H1  H2  O   H1  H2  O   H1  H2  O   H1  H2  O   H1  
H2  O   H1  H2  O   H1  H2  O   H1  H2  O   H1  H2  O   H1  H2  O   H1  H2  O   
H1  H2  O   H1  H2  O   H1  H2  O   H1  H2  O   H1  H2  O   H1  H2  O   H1  H2  
O   H1  H2  O   H1  H2  O   H1  H2  O   H1  H2  O   H1  H2  O   H1  H2  O   H1  
H2  O   H1  H2  O   H1  H2  O   H1  H2  O   H1  H2  O   H1  H2  O   H1  H2  O   
H1  H2  O   H1  H2  O   H1  H2  O   H1  H2  O   H1  H2  O   H1  H2  O   H1  H2  
O   H1  H2  O   H1  H2  O   H1  H2  O   H1  H2  O   H1  H2  O   H1  H2  O   H1  
H2  O   H1  H2  O   H1  H2  O   H1  H2  O   H1  H2  O   H1  H2  O   H1  H2  O   
H1  H2  O   H1  H2  O   H1  H2  O   H1  H2  O   H1  H2  O   H1  H2  O   H1  H2  
O   H1  H2  O   H1  H2  O   H1  H2  O   H1  H2  O   H1  H2  O   H1  H2  O   H1  
H2  O   H1  H2  O   H1  H2  O   H1  H2  O   H1  H2  O   H1  H2  O   H1  H2  O   
H1  H2  O   H1  H2  O   H1  H2  O   H1  H2  O   H1  H2  O   H1  H2  O   H1  H2  
O   H1  H2  O   H1  H2  O   H1  H2  O   H1  H2  O   H1  H2  O   H1  H2  O   H1  
H2  O   H1  H2  O   H1  H2  O   H1  H2  O   H1  H2  O   H1  H2  O   H1  H2  O   
H1  H2  O   H1  H2  O   H1  H2  O   H1  H2  O   H1  H2  O   H1  H2  O   H1  H2  
O   H1  H2  O   H1  H2  O   H1  H2  O   H1  H2  O   H1  H2  O   H1  H2  O   H1  
H2  O   H1  H2  O   H1  H2  O   H1  H2  O   H1  H2  O   H1  H2  O   H1  H2  O   
H1  H2  O   H1  H2  O   H1  H2  O   H1  H2  O   H1  H2  O   H1  H2  O   H1  H2  
O   H1  H2  O   H1  H2  O   H1  H2  O   H1  H2  O   H1  H2  O   H1  H2  O   H1  
H2  O   H1  H2  O   H1  H2  O   H1  H2  O   H1  H2  O   H1  H2  O   H1  H2  O   
H1  H2  O   H1  H2  O   H1  H2  O   H1  H2  O   H1  H2  O   H1  H2  O   H1  H2  
O   H1  H2  O   H1  H2  O   H1  H2  O   H1  H2  O   H1  H2  O   H1  H2  O   H1  
H2  O   H1  H2  O   H1  H2  O   H1  H2  O   H1  H2  O   H1  H2  O   H1  H2  O   
H1  H2  O   H1  H2  O   H1  H2  O   H1  H2  O   H1  H2  O   H1  H2  O   H1  H2  
O   H1  H2  O   H1  H2  O   H1  H2  O   H1  H2  O   H1  H2  O   H1  H2  O   H1  
H2  O   H1  H2  O   H1  H2  O   H1  H2  O   H1  H2  O   H1  H2  O   H1  H2  O   
H1  H2  O   H1  H2  O   H1  H2  O   H1  H2  O   H1  H2  O   H1  H2  O   H1  H2  
O   H1  H2  O   H1  H2  O   H1  H2  O   H1  H2  O   H1  H2  O   H1  H2  O   H1  
H2  O   H1  H2  O   H1  H2  O   H1  H2  O   H1  H2  O   H1  H2  O   H1  H2  O   
H1  H2  O   H1  H2  O   H1  H2  O   H1  H2  O   H1  H2  O   H1  H2  O   H1  H2  
O   H1  H2  O   H1  H2  O   H1  H2  O   H1  H2  O   H1  H2  O   H1  H2  O   H1  
H2  O   H1  H2  O   H1  H2  O   H1  H2  O   H1  H2  O   H1  H2  O   H1  H2  O   
H1  H2  O   H1  H2  O   H1  H2  O   H1  H2  O   H1  H2  O   H1  H2  O   H1  H2  
O   H1  H2  O   H1  H2  O   H1  H2  O   H1  H2  O   H1  H2  O   H1  H2  O   H1  
H2  O   H1  H2  O   H1  H2  O   H1  H2  O   H1  H2  O   H1  H2  O   H1  H2  O   
H1  H2  O   H1  H2  O   H1  H2  O   H1  H2  O   H1  H2  O   H1  H2  O   H1  H2  
O   H1  H2  O   H1  H2  O   H1  H2  O   H1  H2  O   H1  H2  O   H1  H2  O   H1  
H2  O   H1  H2  O   H1  H2  O   H1  H2  O   H1  H2  O   H1  H2  O   H1  H2  O   
H1  H2  O   H1  H2  O   H1  H2  O   H1  H2  O   H1  H2  O   H1  H2  O   H1  H2  
O   H1  H2  O   H1  H2  O   H1  H2  O   H1  H2  O   H1  H2  O   H1  H2  O   H1  
H2  O   H1  H2  O   H1  H2  O   H1  H2  O   H1  H2  O   H1  H2  O   H1  H2  O   
H1  H2  O   H1  H2  O   H1  H2  O   H1  H2  O   H1  H2  O   H1  H2  O   H1  H2  
O   H1  H2  O   H1  H2  O   H1  H2  O   H1  H2  O   H1  H2  O   H1  H2  O   H1  
H2  O   H1  H2  O   H1  H2  O   H1  H2  O   H1  H2  O   H1  H2  O   H1  H2  O   
H1  H2  O   H1  H2  O   H1  H2  O   H1  H2  O   H1  H2  O   H1  H2  O   H1  H2  
O   H1  H2  O   H1  H2  O   H1  H2  O   H1  H2  O   H1  H2  O   H1  H2  O   H1  
H2  O   H1  H2  O   H1  H2  O   H1  H2  O   H1  H2  O   H1  H2  O   H1  H2  O   
H1  H2  O   H1  H2  O   H1  H2  O   H1  H2  O   H1  H2  O   H1  H2  O   H1  H2  
O   H1  H2  O   H1  H2  O   H1  H2  O   H1  H2  O   H1  H2  O   H1  H2  O   H1  
H2  O   H1  H2  O   H1  H2  O   H1  H2  O   H1  H2  O   H1  H2  O   H1  H2  O   
H1  H2  O   H1  H2  O   H1  H2  O   H1  H2  O   H1  H2  O   H1  H2  O   H1  H2  
O   H1  H2  O   H1  H2  O   H1  H2  O   H1  H2  O   H1  H2  O   H1  H2  O   H1  
H2  O   H1  H2  O   H1  H2  O   H1  H2  O   H1  H2  O   H1  H2  O   H1  H2  O   
H1  H2  O   H1  H2  O   H1  H2  O   H1  H2  O   H1  H2  O   H1  H2  O   H1  H2  
O   H1  H2  O   H1  H2  O   H1  H2  O   H1  H2  O   H1  H2  O   H1  H2  O   H1  
H2  O   H1  H2  O   H1  H2  O   H1  H2  O   H1  H2  O   H1  H2  O   H1  H2  O   
H1  H2  O   H1  H2  O   H1  H2  O   H1  H2  O   H1  H2  O   H1  H2  O   H1  H2  
O   H1  H2  O   H1  H2  O   H1  H2  O   H1  H2  O   H1  H2  O   H1  H2  O   H1  
H2  O   H1  H2  O   H1  H2  O   H1  H2  O   H1  H2  O   H1  H2  O   H1  H2  O   
H1  H2  O   H1  H2  O   H1  H2  O   H1  H2  O   H1  H2  O   H1  H2  O   H1  H2  
O   H1  H2  O   H1  H2  O   H1  H2  O   H1  H2  O   H1  H2  O   H1  H2  O   H1  
H2  O   H1  H2  O   H1  H2  O   H1  H2  O   H1  H2  O   H1  H2  O   H1  H2  O   
H1  H2  O   H1  H2  O   H1  H2  O   H1  H2  O   H1  H2  O   H1  H2  O   H1  H2  
O   H1  H2  O   H1  H2  O   H1  H2  O   H1  H2  O   H1  H2  O   H1  H2  O   H1  
H2  O   H1  H2  O   H1  H2  O   H1  H2  O   H1  H2  O   H1  H2  O   H1  H2  O   
H1  H2  O   H1  H2  O   H1  H2  O   H1  H2  O   H1  H2  O   H1  H2  O   H1  H2  
O   H1  H2  O   H1  H2  O   H1  H2  O   H1  H2  O   H1  H2  O   H1  H2  O   H1  
H2  O   H1  H2  O   H1  H2  O   H1  H2  O   H1  H2  O   H1  H2  O   H1  H2  O   
H1  H2  O   H1  H2  O   H1  H2  O   H1  H2  O   H1  H2  O   H1  H2  O   H1  H2  
O   H1  H2  O   H1  H2  O   H1  H2  O   H1  H2  O   H1  H2  O   H1  H2  O   H1  
H2  O   H1  H2  O   H1  H2  O   H1  H2  O   H1  H2  O   H1  H2  O   H1  H2  O   
H1  H2  O   H1  H2  O   H1  H2  O   H1  H2  O   H1  H2  O   H1  H2  O   H1  H2  
O   H1  H2  O   H1  H2  O   H1  H2  O   H1  H2  O   H1  H2  O   H1  H2  O   H1  
H2  O   H1  H2  O   H1  H2  O   H1  H2  O   H1  H2  O   H1  H2  O   H1  H2  O   
H1  H2  O   H1  H2  O   H1  H2  O   H1  H2  O   H1  H2  O   H1  H2  O   H1  H2  
O   H1  H2  O   H1  H2  O   H1  H2  O   H1  H2  O   H1  H2  O   H1  H2  O   H1  
H2  O   H1  H2  O   H1  H2  O   H1  H2  O   H1  H2  O   H1  H2  O   H1  H2  O   
H1  H2  O   H1  H2  O   H1  H2  O   H1  H2  O   H1  H2  O   H1  H2  O   H1  H2  
O   H1  H2  O   H1  H2  O   H1  H2  O   H1  H2  O   H1  H2  O   H1  H2  O   H1  
H2  O   H1  H2  O   H1  H2  O   H1  H2  O   H1  H2  O   H1  H2  O   H1  H2  O   
H1  H2  O   H1  H2  O   H1  H2  O   H1  H2  O   H1  H2  O   H1  H2  O   H1  H2  
O   H1  H2  O   H1  H2  O   H1  H2  O   H1  H2  O   H1  H2  O   H1  H2  O   H1  
H2  O   H1  H2  O   H1  H2  O   H1  H2  O   H1  H2  O   H1  H2  O   H1  H2  O   
H1  H2  O   H1  H2  O   H1  H2  O   H1  H2  O   H1  H2  O   H1  H2  O   H1  H2  
O   H1  H2  O   H1  H2  O   H1  H2  O   H1  H2  O   H1  H2  O   H1  H2  O   H1  
H2  O   H1  H2  O   H1  H2  O   H1  H2  O   H1  H2  O   H1  H2  O   H1  H2  O   
H1  H2  O   H1  H2  O   H1  H2  O   H1  H2  O   H1  H2  O   H1  H2  O   H1  H2  
O   H1  H2  O   H1  H2  O   H1  H2  O   H1  H2  O   H1  H2  O   H1  H2  O   H1  
H2  O   H1  H2  O   H1  H2  O   H1  H2  O   H1  H2  O   H1  H2  O   H1  H2  O   
H1  H2  O   H1  H2  O   H1  H2  O   H1  H2  O   H1  H2  O   H1  H2  O   H1  H2  
O   H1  H2  O   H1  H2  O   H1  H2  O   H1  H2  O   H1  H2  O   H1  H2  O   H1  
H2  O   H1  H2  O   H1  H2  O   H1  H2  O   H1  H2  O   H1  H2  O   H1  H2  O   
H1  H2  O   H1  H2  O   H1  H2  O   H1  H2  O   H1  H2  O   H1  H2  O   H1  H2  
O   H1  H2  O   H1  H2  O   H1  H2  O   H1  H2  O   H1  H2  O   H1  H2  O   H1  
H2  O   H1  H2  O   H1  H2  O   H1  H2  O   H1  H2  O   H1  H2  O   H1  H2  O   
H1  H2  O   H1  H2  O   H1  H2  O   H1  H2  O   H1  H2  O   H1  H2  O   H1  H2  
O   H1  H2  O   H1  H2  O   H1  H2  O   H1  H2  O   H1  H2  O   H1  H2  O   H1  
H2  O   H1  H2  O   H1  H2  O   H1  H2  O   H1  H2  O   H1  H2  O   H1  H2  O   
H1  H2  O   H1  H2  O   H1  H2  O   H1  H2  O   H1  H2  O   H1  H2  O   H1  H2  
O   H1  H2  O   H1  H2  O   H1  H2  O   H1  H2  O   H1  H2  O   H1  H2  O   H1  
H2  O   H1  H2  O   H1  H2  O   H1  H2  O   H1  H2  O   H1  H2  O   H1  H2  O   
H1  H2  O   H1  H2  O   H1  H2  O   H1  H2  O   H1  H2  O   H1  H2  O   H1  H2  
O   H1  H2  O   H1  H2  O   H1  H2  O   H1  H2  O   H1  H2  O   H1  H2  O   H1  
H2  O   H1  H2  O   H1  H2  O   H1  H2  O   H1  H2  O   H1  H2  O   H1  H2  O   
H1  H2  O   H1  H2  O   H1  H2  O   H1  H2  O   H1  H2  O   H1  H2  O   H1  H2  
O   H1  H2  O   H1  H2  O   H1  H2  O   H1  H2  O   H1  H2  O   H1  H2  O   H1  
H2  O   H1  H2  O   H1  H2  O   H1  H2  O   H1  H2  O   H1  H2  O   H1  H2  O   
H1  H2  O   H1  H2  O   H1  H2  O   H1  H2  O   H1  H2  O   H1  H2  O   H1  H2  
O   H1  H2  O   H1  H2  O   H1  H2  O   H1  H2  O   H1  H2  O   H1  H2  O   H1  
H2  O   H1  H2  O   H1  H2  O   H1  H2  O   H1  H2  O   H1  H2  O   H1  H2  O   
H1  H2  O   H1  H2  O   H1  H2  O   H1  H2  O   H1  H2  O   H1  H2  O   H1  H2  
O   H1  H2  O   H1  H2  O   H1  H2  O   H1  H2  O   H1  H2  O   H1  H2  O   H1  
H2  O   H1  H2  O   H1  H2  O   H1  H2  O   H1  H2  O   H1  H2  O   H1  H2  O   
H1  H2  O   H1  H2  O   H1  H2  O   H1  H2  O   H1  H2  O   H1  H2  O   H1  H2  
O   H1  H2  O   H1  H2  O   H1  H2  O   H1  H2  O   H1  H2  O   H1  H2  O   H1  
H2  O   H1  H2  O   H1  H2  O   H1  H2  O   H1  H2  O   H1  H2  O   H1  H2  O   
H1  H2  O   H1  H2  O   H1  H2  O   H1  H2  O   H1  H2  O   H1  H2  O   H1  H2  
O   H1  H2  O   H1  H2  O   H1  H2  O   H1  H2  O   H1  H2  O   H1  H2  O   H1  
H2  O   H1  H2  O   H1  H2  O   H1  H2  O   H1  H2  O   H1  H2  O   H1  H2  O   
H1  H2  O   H1  H2  O   H1  H2  O   H1  H2  O   H1  H2  O   H1  H2  O   H1  H2  
O   H1  H2  O   H1  H2  O   H1  H2  O   H1  H2  O   H1  H2  O   H1  H2  O   H1  
H2  O   H1  H2  O   H1  H2  O   H1  H2  O   H1  H2  O   H1  H2  O   H1  H2  O   
H1  H2  O   H1  H2  O   H1  H2  O   H1  H2  O   H1  H2  O   H1  H2  O   H1  H2  
O   H1  H2  O   H1  H2  O   H1  H2  O   H1  H2  O   H1  H2  O   H1  H2  O   H1  
H2  O   H1  H2  O   H1  H2  O   H1  H2  O   H1  H2  O   H1  H2  O   H1  H2  O   
H1  H2  O   H1  H2  O   H1  H2  O   H1  H2  O   H1  H2  O   H1  H2  O   H1  H2  
O   H1  H2  O   H1  H2  O   H1  H2  O   H1  H2  O   H1  H2  O   H1  H2  O   H1  
H2  O   H1  H2  O   H1  H2  O   H1  H2  O   H1  H2  O   H1  H2  O   H1  H2  O   
H1  H2  O   H1  H2  O   H1  H2  O   H1  H2  O   H1  H2  O   H1  H2  O   H1  H2  
O   H1  H2  O   H1  H2  O   H1  H2  O   H1  H2  O   H1  H2  O   H1  H2  O   H1  
H2  O   H1  H2  O   H1  H2  O   H1  H2  O   H1  H2  O   H1  H2  O   H1  H2  O   
H1  H2  O   H1  H2  O   H1  H2  O   H1  H2  O   H1  H2  O   H1  H2  O   H1  H2  
O   H1  H2  O   H1  H2  O   H1  H2  O   H1  H2  O   H1  H2  O   H1  H2  O   H1  
H2  O   H1  H2  O   H1  H2  O   H1  H2  O   H1  H2  O   H1  H2  O   H1  H2  O   
H1  H2  O   H1  H2  O   H1  H2  O   H1  H2  O   H1  H2  O   H1  H2  O   H1  H2  
O   H1  H2  O   H1  H2  O   H1  H2  O   H1  H2  O   H1  H2  O   H1  H2  O   H1  
H2  O   H1  H2  O   H1  H2  O   H1  H2  O   H1  H2  O   H1  H2  O   H1  H2  O   
H1  H2  O   H1  H2  O   H1  H2  O   H1  H2  O   H1  H2  O   H1  H2  O   H1  H2  
O   H1  H2  O   H1  H2  O   H1  H2  O   H1  H2  O   H1  H2  O   H1  H2  O   H1  
H2  O   H1  H2  O   H1  H2  O   H1  H2  O   H1  H2  O   H1  H2  O   H1  H2  O   
H1  H2  O   H1  H2  O   H1  H2  O   H1  H2  O   H1  H2  O   H1  H2  O   H1  H2  
O   H1  H2  O   H1  H2  O   H1  H2  O   H1  H2  O   H1  H2  O   H1  H2  O   H1  
H2  O   H1  H2  O   H1  H2  O   H1  H2  O   H1  H2  O   H1  H2  O   H1  H2  O   
H1  H2  O   H1  H2  O   H1  H2  O   H1  H2  O   H1  H2  O   H1  H2  O   H1  H2  
O   H1  H2  O   H1  H2  O   H1  H2  O   H1  H2  O   H1  H2  O   H1  H2  O   H1  
H2  O   H1  H2  O   H1  H2  O   H1  H2  O   H1  H2  O   H1  H2  O   H1  H2  O   
H1  H2  O   H1  H2  O   H1  H2  O   H1  H2  O   H1  H2  O   H1  H2  O   H1  H2  
O   H1  H2  O   H1  H2  O   H1  H2  O   H1  H2  O   H1  H2  O   H1  H2  O   H1  
H2  O   H1  H2  O   H1  H2  O   H1  H2  O   H1  H2  O   H1  H2  O   H1  H2  O   
H1  H2  O   H1  H2  O   H1  H2  O   H1  H2  O   H1  H2  O   H1  H2  O   H1  H2  
O   H1  H2  O   H1  H2  O   H1  H2  O   H1  H2  O   H1  H2  O   H1  H2  O   H1  
H2  O   H1  H2  O   H1  H2  O   H1  H2  O   H1  H2  O   H1  H2  O   H1  H2  O   
H1  H2  O   H1  H2  O   H1  H2  O   H1  H2  O   H1  H2  O   H1  H2  O   H1  H2  
O   H1  H2  O   H1  H2  O   H1  H2  O   H1  H2  O   H1  H2  O   H1  H2  O   H1  
H2  O   H1  H2  O   H1  H2  O   H1  H2  O   H1  H2  O   H1  H2  O   H1  H2  O   
H1  H2  O   H1  H2  O   H1  H2  O   H1  H2  O   H1  H2  O   H1  H2  O   H1  H2  
O   H1  H2  O   H1  H2  O   H1  H2  O   H1  H2  O   H1  H2  O   H1  H2  O   H1  
H2  O   H1  H2  O   H1  H2  O   H1  H2  O   H1  H2  O   H1  H2  O   H1  H2  O   
H1  H2  O   H1  H2  O   H1  H2  O   H1  H2  O   H1  H2  O   H1  H2  O   H1  H2  
O   H1  H2  O   H1  H2  O   H1  H2  O   H1  H2  O   H1  H2  O   H1  H2  O   H1  
H2  O   H1  H2  O   H1  H2  O   H1  H2  O   H1  H2  O   H1  H2  O   H1  H2  O   
H1  H2  O   H1  H2  O   H1  H2  O   H1  H2  O   H1  H2  O   H1  H2  O   H1  H2  
O   H1  H2  O   H1  H2  O   H1  H2  O   H1  H2  O   H1  H2  O   H1  H2  O   H1  
H2  O   H1  H2  O   H1  H2  O   H1  H2  O   H1  H2  O   H1  H2  O   H1  H2  O   
H1  H2  O   H1  H2  O   H1  H2  O   H1  H2  O   H1  H2  O   H1  H2  O   H1  H2  
O   H1  H2  O   H1  H2  O   H1  H2  O   H1  H2  O   H1  H2  O   H1  H2  O   H1  
H2  O   H1  H2  O   H1  H2  O   H1  H2  O   H1  H2  O   H1  H2  O   H1  H2  O   
H1  H2  O   H1  H2  O   H1  H2  O   H1  H2  O   H1  H2  O   H1  H2  O   H1  H2  
O   H1  H2  O   H1  H2  O   H1  H2  O   H1  H2  O   H1  H2  O   H1  H2  O   H1  
H2  O   H1  H2  O   H1  H2  O   H1  H2  O   H1  H2  O   H1  H2  O   H1  H2  O   
H1  H2  O   H1  H2  O   H1  H2  O   H1  H2  O   H1  H2  O   H1  H2  O   H1  H2  
O   H1  H2  O   H1  H2  O   H1  H2  O   H1  H2  O   H1  H2  O   H1  H2  O   H1  
H2  O   H1  H2  O   H1  H2  O   H1  H2  O   H1  H2  O   H1  H2  O   H1  H2  O   
H1  H2  O   H1  H2  O   H1  H2  O   H1  H2  O   H1  H2  O   H1  H2  O   H1  H2  
O   H1  H2  O   H1  H2  O   H1  H2  O   H1  H2  O   H1  H2  O   H1  H2  O   H1  
H2  O   H1  H2  O   H1  H2  O   H1  H2  O   H1  H2  O   H1  H2  O   H1  H2  O   
H1  H2  O   H1  H2  O   H1  H2  O   H1  H2  O   H1  H2  O   H1  H2  O   H1  H2  
O   H1  H2  O   H1  H2  O   H1  H2  O   H1  H2  O   H1  H2  O   H1  H2  O   H1  
H2  O   H1  H2  O   H1  H2  O   H1  H2  O   H1  H2  O   H1  H2  O   H1  H2  O   
H1  H2  O   H1  H2  O   H1  H2  O   H1  H2  O   H1  H2  O   H1  H2  O   H1  H2  
O   H1  H2  O   H1  H2  O   H1  H2  O   H1  H2  O   H1  H2  O   H1  H2  O   H1  
H2  O   H1  H2  O   H1  H2  O   H1  H2  O   H1  H2  O   H1  H2  O   H1  H2  O   
H1  H2  O   H1  H2  O   H1  H2  O   H1  H2  O   H1  H2  O   H1  H2  O   H1  H2  
O   H1  H2  O   H1  H2  O   H1  H2  O   H1  H2  O   H1  H2  O   H1  H2  O   H1  
H2  O   H1  H2  O   H1  H2  O   H1  H2  O   H1  H2  O   H1  H2  O   H1  H2  O   
H1  H2  O   H1  H2  O   H1  H2  O   H1  H2  O   H1  H2  O   H1  H2  O   H1  H2  
O   H1  H2  O   H1  H2  O   H1  H2  O   H1  H2  O   H1  H2  O   H1  H2  O   H1  
H2  O   H1  H2  O   H1  H2  O   H1  H2  O   H1  H2  O   H1  H2  O   H1  H2  O   
H1  H2  O   H1  H2  O   H1  H2  O   H1  H2  O   H1  H2  O   H1  H2  O   H1  H2  
O   H1  H2  O   H1  H2  O   H1  H2  O   H1  H2  O   H1  H2  O   H1  H2  O   H1  
H2  O   H1  H2  O   H1  H2  O   H1  H2  O   H1  H2  O   H1  H2  O   H1  H2  O   
H1  H2  O   H1  H2  O   H1  H2  O   H1  H2  O   H1  H2  O   H1  H2  O   H1  H2  
O   H1  H2  O   H1  H2  O   H1  H2  O   H1  H2  O   H1  H2  O   H1  H2  O   H1  
H2  O   H1  H2  O   H1  H2  O   H1  H2  O   H1  H2  O   H1  H2  O   H1  H2  O   
H1  H2  O   H1  H2  O   H1  H2  O   H1  H2  O   H1  H2  O   H1  H2  O   H1  H2  
O   H1  H2  O   H1  H2  O   H1  H2  O   H1  H2  O   H1  H2  O   H1  H2  O   H1  
H2  O   H1  H2  O   H1  H2  O   H1  H2  O   H1  H2  O   H1  H2  O   H1  H2  O   
H1  H2  O   H1  H2  O   H1  H2  O   H1  H2  O   H1  H2  O   H1  H2  O   H1  H2  
O   H1  H2  O   H1  H2  O   H1  H2  O   H1  H2  O   H1  H2  O   H1  H2  O   H1  
H2  O   H1  H2  O   H1  H2  O   H1  H2  O   H1  H2  O   H1  H2  O   H1  H2  O   
H1  H2  O   H1  H2  O   H1  H2  O   H1  H2  O   H1  H2  O   H1  H2  O   H1  H2  
O   H1  H2  O   H1  H2  O   H1  H2  O   H1  H2  O   H1  H2  O   H1  H2  O   H1  
H2  O   H1  H2  O   H1  H2  O   H1  H2  O   H1  H2  O   H1  H2  O   H1  H2  O   
H1  H2  O   H1  H2  O   H1  H2  O   H1  H2  O   H1  H2  O   H1  H2  O   H1  H2  
O   H1  H2  O   H1  H2  O   H1  H2  O   H1  H2  O   H1  H2  O   H1  H2  O   H1  
H2  O   H1  H2  O   H1  H2  O   H1  H2  O   H1  H2  O   H1  H2  O   H1  H2  O   
H1  H2  O   H1  H2  O   H1  H2  O   H1  H2  O   H1  H2  O   H1  H2  O   H1  H2  
O   H1  H2  O   H1  H2  O   H1  H2  O   H1  H2  O   H1  H2  O   H1  H2  O   H1  
H2  O   H1  H2  O   H1  H2  O   H1  H2  O   H1  H2  O   H1  H2  O   H1  H2  O   
H1  H2  O   H1  H2  O   H1  H2  O   H1  H2  O   H1  H2  O   H1  H2  O   H1  H2  
O   H1  H2  O   H1  H2  O   H1  H2  O   H1  H2  O   H1  H2  O   H1  H2  O   H1  
H2  O   H1  H2  O   H1  H2  O   H1  H2  O   H1  H2  O   H1  H2  O   H1  H2  O   
H1  H2  O   H1  H2  O   H1  H2  O   H1  H2  O   H1  H2  O   H1  H2  O   H1  H2  
O   H1  H2  O   H1  H2  O   H1  H2  O   H1  H2  O   H1  H2  O   H1  H2  O   H1  
H2  O   H1  H2  O   H1  H2  O   H1  H2  O   H1  H2  O   H1  H2  O   H1  H2  O   
H1  H2  O   H1  H2  O   H1  H2  O   H1  H2  O   H1  H2  O   H1  H2  O   H1  H2  
O   H1  H2  O   H1  H2  O   H1  H2  O   H1  H2  O   H1  H2  O   H1  H2  O   H1  
H2  O   H1  H2  O   H1  H2  O   H1  H2  O   H1  H2  O   H1  H2  O   H1  H2  O   
H1  H2  O   H1  H2  O   H1  H2  O   H1  H2  O   H1  H2  O   H1  H2  O   H1  H2  
O   H1  H2  O   H1  H2  O   H1  H2  O   H1  H2  O   H1  H2  O   H1  H2  O   H1  
H2  O   H1  H2  O   H1  H2  O   H1  H2  O   H1  H2  O   H1  H2  O   H1  H2  O   
H1  H2  O   H1  H2  O   H1  H2  O   H1  H2  O   H1  H2  O   H1  H2  O   H1  H2  
O   H1  H2  O   H1  H2  O   H1  H2  O   H1  H2  O   H1  H2  O   H1  H2  O   H1  
H2  O   H1  H2  O   H1  H2  O   H1  H2  O   H1  H2  O   H1  H2  O   H1  H2  O   
H1  H2  O   H1  H2  O   H1  H2  O   H1  H2  O   H1  H2  O   H1  H2  O   H1  H2  
O   H1  H2  O   H1  H2  O   H1  H2  O   H1  H2  O   H1  H2  O   H1  H2  O   H1  
H2  O   H1  H2  O   H1  H2  O   H1  H2  O   H1  H2  O   H1  H2  O   H1  H2  O   
H1  H2  O   H1  H2  O   H1  H2  O   H1  H2  O   H1  H2  O   H1  H2  O   H1  H2  
O   H1  H2  O   H1  H2  O   H1  H2  O   H1  H2  O   H1  H2  O   H1  H2  O   H1  
H2  O   H1  H2  O   H1  H2  O   H1  H2  O   H1  H2  O   H1  H2  O   H1  H2  O   
H1  H2  O   H1  H2  O   H1  H2  O   H1  H2  O   H1  H2  O   H1  H2  O   H1  H2  
O   H1  H2  O   H1  H2  O   H1  H2  O   H1  H2  O   H1  H2  O   H1  H2  O   H1  
H2  O   H1  H2  O   H1  H2  O   H1  H2  O   H1  H2  O   H1  H2  O   H1  H2  O   
H1  H2  O   H1  H2  O   H1  H2  O   H1  H2  O   H1  H2  O   H1  H2  O   H1  H2  
O   H1  H2  O   H1  H2  O   H1  H2  O   H1  H2  O   H1  H2  O   H1  H2  O   H1  
H2  O   H1  H2  O   H1  H2  O   H1  H2  O   H1  H2  O   H1  H2  O   H1  H2  O   
H1  H2  O   H1  H2  O   H1  H2  O   H1  H2  O   H1  H2  O   H1  H2  O   H1  H2  
O   H1  H2  O   H1  H2  O   H1  H2  O   H1  H2  O   H1  H2  O   H1  H2  O   H1  
H2  O   H1  H2  O   H1  H2  O   H1  H2  O   H1  H2  O   H1  H2  O   H1  H2  O   
H1  H2  O   H1  H2  O   H1  H2  O   H1  H2  O   H1  H2  O   H1  H2  O   H1  H2  
O   H1  H2  O   H1  H2  O   H1  H2  O   H1  H2  O   H1  H2  O   H1  H2  O   H1  
H2  O   H1  H2  O   H1  H2  O   H1  H2  O   H1  H2  O   H1  H2  O   H1  H2  O   
H1  H2  O   H1  H2  O   H1  H2  O   H1  H2  O   H1  H2  O   H1  H2  O   H1  H2  
O   H1  H2  O   H1  H2  O   H1  H2  O   H1  H2  O   H1  H2  O   H1  H2  O   H1  
H2  O   H1  H2  O   H1  H2  O   H1  H2  O   H1  H2  O   H1  H2  O   H1  H2  O   
H1  H2  O   H1  H2  O   H1  H2  O   H1  H2  O   H1  H2  O   H1  H2  O   H1  H2  
O   H1  H2  O   H1  H2  O   H1  H2  O   H1  H2  O   H1  H2  O   H1  H2  O   H1  
H2  O   H1  H2  O   H1  H2  O   H1  H2  O   H1  H2  O   H1  H2  O   H1  H2  O   
H1  H2  O   H1  H2  O   H1  H2  O   H1  H2  O   H1  H2  O   H1  H2  O   H1  H2  
O   H1  H2  O   H1  H2  O   H1  H2  O   H1  H2  O   H1  H2  O   H1  H2  O   H1  
H2  O   H1  H2  O   H1  H2  O   H1  H2  O   H1  H2  O   H1  H2  O   H1  H2  O   
H1  H2  O   H1  H2  O   H1  H2  O   H1  H2  O   H1  H2  O   H1  H2  O   H1  H2  
O   H1  H2  O   H1  H2  O   H1  H2  O   H1  H2  O   H1  H2  O   H1  H2  O   H1  
H2  O   H1  H2  O   H1  H2  O   H1  H2  O   H1  H2  O   H1  H2  O   H1  H2  O   
H1  H2  O   H1  H2  O   H1  H2  O   H1  H2  O   H1  H2  O   H1  H2  O   H1  H2  
O   H1  H2  O   H1  H2  O   H1  H2  O   H1  H2  O   H1  H2  O   H1  H2  O   H1  
H2  O   H1  H2  O   H1  H2  O   H1  H2  O   H1  H2  O   H1  H2  O   H1  H2  O   
H1  H2  O   H1  H2  O   H1  H2  O   H1  H2  O   H1  H2  O   H1  H2  O   H1  H2  
O   H1  H2  O   H1  H2  O   H1  H2  O   H1  H2  O   H1  H2  O   H1  H2  O   H1  
H2  O   H1  H2  O   H1  H2  O   H1  H2  O   H1  H2  O   H1  H2  O   H1  H2  O   
H1  H2  O   H1  H2  O   H1  H2  O   H1  H2  O   H1  H2  O   H1  H2  O   H1  H2  
O   H1  H2  O   H1  H2  O   H1  H2  O   H1  H2  O   H1  H2  O   H1  H2  O   H1  
H2  O   H1  H2  O   H1  H2  O   H1  H2  O   H1  H2  O   H1  H2  O   H1  H2  O   
H1  H2  O   H1  H2  O   H1  H2  O   H1  H2  O   H1  H2  O   H1  H2  O   H1  H2  
O   H1  H2  O   H1  H2  O   H1  H2  O   H1  H2  O   H1  H2  O   H1  H2  O   H1  
H2  O   H1  H2  O   H1  H2  O   H1  H2  O   H1  H2  O   H1  H2  O   H1  H2  O   
H1  H2  O   H1  H2  O   H1  H2  O   H1  H2  O   H1  H2  O   H1  H2  O   H1  H2  
O   H1  H2  O   H1  H2  O   H1  H2  O   H1  H2  O   H1  H2  O   H1  H2  O   H1  
H2  O   H1  H2  O   H1  H2  O   H1  H2  O   H1  H2  O   H1  H2  O   H1  H2  O   
H1  H2  O   H1  H2  O   H1  H2  O   H1  H2  O   H1  H2  O   H1  H2  O   H1  H2  
O   H1  H2  O   H1  H2  O   H1  H2  O   H1  H2  O   H1  H2  O   H1  H2  O   H1  
H2  O   H1  H2  O   H1  H2  O   H1  H2  O   H1  H2  O   H1  H2  O   H1  H2  O   
H1  H2  O   H1  H2  O   H1  H2  O   H1  H2  O   H1  H2  O   H1  H2  O   H1  H2  
O   H1  H2  O   H1  H2  O   H1  H2  O   H1  H2  O   H1  H2  O   H1  H2  O   H1  
H2  O   H1  H2  O   H1  H2  O   H1  H2  O   H1  H2  O   H1  H2  O   H1  H2  O   
H1  H2  O   H1  H2  O   H1  H2  O   H1  H2  O   H1  H2  O   H1  H2  O   H1  H2  
O   H1  H2  O   H1  H2  O   H1  H2  O   H1  H2  O   H1  H2  O   H1  H2  O   H1  
H2  O   H1  H2  O   H1  H2  O   H1  H2  O   H1  H2  O   H1  H2  O   H1  H2  O   
H1  H2  O   H1  H2  O   H1  H2  O   H1  H2  O   H1  H2  O   H1  H2  O   H1  H2  
O   H1  H2  O   H1  H2  O   H1  H2  O   H1  H2  O   H1  H2  O   H1  H2  O   H1  
H2  O   H1  H2  O   H1  H2  O   H1  H2  O   H1  H2  O   H1  H2  O   H1  H2  O   
H1  H2  O   H1  H2  O   H1  H2  O   H1  H2  O   H1  H2  O   H1  H2  O   H1  H2  
O   H1  H2  O   H1  H2  O   H1  H2  O   H1  H2  O   H1  H2  O   H1  H2  O   H1  
H2  O   H1  H2  O   H1  H2  O   H1  H2  O   H1  H2  O   H1  H2  O   H1  H2  O   
H1  H2  O   H1  H2  O   H1  H2  O   H1  H2  O   H1  H2  O   H1  H2  O   H1  H2  
O   H1  H2  O   H1  H2  O   H1  H2  O   H1  H2  O   H1  H2  O   H1  H2  O   H1  
H2  O   H1  H2  O   H1  H2  O   H1  H2  O   H1  H2  O   H1  H2  O   H1  H2  O   
H1  H2  O   H1  H2  O   H1  H2  O   H1  H2  O   H1  H2  O   H1  H2  O   H1  H2  
O   H1  H2  O   H1  H2  O   H1  H2  O   H1  H2  O   H1  H2  O   H1  H2  O   H1  
H2  O   H1  H2  O   H1  H2  O   H1  H2  O   H1  H2  O   H1  H2  O   H1  H2  O   
H1  H2  O   H1  H2  O   H1  H2  O   H1  H2  O   H1  H2  O   H1  H2  O   H1  H2  
O   H1  H2  O   H1  H2  O   H1  H2  O   H1  H2  O   H1  H2  O   H1  H2  O   H1  
H2  O   H1  H2  O   H1  H2  O   H1  H2  O   H1  H2  O   H1  H2  O   H1  H2  O   
H1  H2  O   H1  H2  O   H1  H2  O   H1  H2  O   H1  H2  O   H1  H2  O   H1  H2  
O   H1  H2  O   H1  H2  O   H1  H2  O   H1  H2  O   H1  H2  O   H1  H2  O   H1  
H2  O   H1  H2  O   H1  H2  O   H1  H2  O   H1  H2  O   H1  H2  O   H1  H2  O   
H1  H2  O   H1  H2  O   H1  H2  O   H1  H2  O   H1  H2  O   H1  H2  O   H1  H2  
O   H1  H2  O   H1  H2  O   H1  H2  O   H1  H2  O   H1  H2  O   H1  H2  O   H1  
H2  O   H1  H2  O   H1  H2  O   H1  H2  O   H1  H2  O   H1  H2  O   H1  H2  O   
H1  H2  O   H1  H2  O   H1  H2  O   H1  H2  O   H1  H2  O   H1  H2  O   H1  H2  
O   H1  H2  O   H1  H2  O   H1  H2  O   H1  H2  O   H1  H2  O   H1  H2  O   H1  
H2  O   H1  H2  O   H1  H2  O   H1  H2  O   H1  H2  O   H1  H2  O   H1  H2  O   
H1  H2  O   H1  H2  O   H1  H2  O   H1  H2  O   H1  H2  O   H1  H2  O   H1  H2  
O   H1  H2  O   H1  H2  O   H1  H2  O   H1  H2  O   H1  H2  O   H1  H2  O   H1  
H2  O   H1  H2  O   H1  H2  O   H1  H2  O   H1  H2  O   H1  H2  O   H1  H2  O   
H1  H2  O   H1  H2  O   H1  H2  O   H1  H2  O   H1  H2  O   H1  H2  O   H1  H2  
O   H1  H2  O   H1  H2  O   H1  H2  O   H1  H2  O   H1  H2  O   H1  H2  O   H1  
H2  O   H1  H2  O   H1  H2  O   H1  H2  O   H1  H2  O   H1  H2  O   H1  H2  O   
H1  H2  O   H1  H2  O   H1  H2  O   H1  H2  O   H1  H2  O   H1  H2  O   H1  H2  
O   H1  H2  O   H1  H2  O   H1  H2  O   H1  H2  O   H1  H2  O   H1  H2  O   H1  
H2  O   H1  H2  O   H1  H2  O   H1  H2  O   H1  H2  O   H1  H2  O   H1  H2  O   
H1  H2  O   H1  H2  O   H1  H2  O   H1  H2  O   H1  H2  O   H1  H2  O   H1  H2  
O   H1  H2  O   H1  H2  O   H1  H2  O   H1  H2  O   H1  H2  O   H1  H2  O   H1  
H2  O   H1  H2  O   H1  H2  O   H1  H2  O   H1  H2  O   H1  H2  O   H1  H2  O   
H1  H2  O   H1  H2  O   H1  H2  O   H1  H2  O   H1  H2  O   H1  H2  O   H1  H2  
O   H1  H2  O   H1  H2  O   H1  H2  O   H1  H2  O   H1  H2  O   H1  H2  O   H1  
H2  O   H1  H2  O   H1  H2  O   H1  H2  O   H1  H2  O   H1  H2  O   H1  H2  O   
H1  H2  O   H1  H2  O   H1  H2  O   H1  H2  O   H1  H2  O   H1  H2  O   H1  H2  
O   H1  H2  O   H1  H2  O   H1  H2  O   H1  H2  O   H1  H2  O   H1  H2  O   H1  
H2  O   H1  H2  O   H1  H2  O   H1  H2  O   H1  H2  O   H1  H2  O   H1  H2  O   
H1  H2  O   H1  H2  O   H1  H2  O   H1  H2  O   H1  H2  O   H1  H2  O   H1  H2  
O   H1  H2  O   H1  H2  O   H1  H2  O   H1  H2  O   H1  H2  O   H1  H2  O   H1  
H2  O   H1  H2  O   H1  H2  O   H1  H2  O   H1  H2  O   H1  H2  O   H1  H2  O   
H1  H2  O   H1  H2  O   H1  H2  O   H1  H2  O   H1  H2  O   H1  H2  O   H1  H2  
O   H1  H2  O   H1  H2  O   H1  H2  O   H1  H2  O   H1  H2  O   H1  H2  O   H1  
H2  O   H1  H2  O   H1  H2  O   H1  H2  O   H1  H2  O   H1  H2  O   H1  H2  O   
H1  H2  O   H1  H2  O   H1  H2  O   H1  H2  O   H1  H2  O   H1  H2  O   H1  H2  
O   H1  H2  O   H1  H2  O   H1  H2  O   H1  H2  O   H1  H2  O   H1  H2  O   H1  
H2  O   H1  H2  O   H1  H2  O   H1  H2  O   H1  H2  O   H1  H2  O   H1  H2  O   
H1  H2  O   H1  H2  O   H1  H2  O   H1  H2  O   H1  H2  O   H1  H2  O   H1  H2  
O   H1  H2  O   H1  H2  O   H1  H2  O   H1  H2  O   H1  H2  O   H1  H2  O   H1  
H2  O   H1  H2  O   H1  H2  O   H1  H2  O   H1  H2  O   H1  H2  O   H1  H2  O   
H1  H2  O   H1  H2  O   H1  H2  O   H1  H2  O   H1  H2  O   H1  H2  O   H1  H2  
O   H1  H2  O   H1  H2  O   H1  H2  O   H1  H2  O   H1  H2  O   H1  H2  O   H1  
H2  O   H1  H2  O   H1  H2  O   H1  H2  O   H1  H2  O   H1  H2  O   H1  H2  O   
H1  H2  O   H1  H2  O   H1  H2  O   H1  H2  O   H1  H2  O   H1  H2  O   H1  H2  
O   H1  H2  O   H1  H2  O   H1  H2  O   H1  H2  O   H1  H2  O   H1  H2  O   H1  
H2  O   H1  H2  O   H1  H2  O   H1  H2  O   H1  H2  O   H1  H2  O   H1  H2  O   
H1  H2  O   H1  H2  O   H1  H2  O   H1  H2  O   H1  H2  O   H1  H2  O   H1  H2  
O   H1  H2  O   H1  H2  O   H1  H2  O   H1  H2  O   H1  H2  O   H1  H2  O   H1  
H2  O   H1  H2  O   H1  H2  O   H1  H2  O   H1  H2  O   H1  H2  O   H1  H2  O   
H1  H2  O   H1  H2  O   H1  H2  O   H1  H2  O   H1  H2  O   H1  H2  O   H1  H2  
O   H1  H2  O   H1  H2  O   H1  H2  O   H1  H2  O   H1  H2  O   H1  H2  O   H1  
H2  O   H1  H2  O   H1  H2  O   H1  H2  O   H1  H2  O   H1  H2  O   H1  H2  O   
H1  H2  O   H1  H2  O   H1  H2  O   H1  H2  O   H1  H2  O   H1  H2  O   H1  H2  
O   H1  H2  O   H1  H2  O   H1  H2  O   H1  H2  O   H1  H2  O   H1  H2  O   H1  
H2  O   H1  H2  O   H1  H2  O   H1  H2  O   H1  H2  O   H1  H2  O   H1  H2  O   
H1  H2  O   H1  H2  O   H1  H2  O   H1  H2  O   H1  H2  O   H1  H2  O   H1  H2  
O   H1  H2  O   H1  H2  O   H1  H2  O   H1  H2  O   H1  H2  O   H1  H2  O   H1  
H2  O   H1  H2  O   H1  H2  O   H1  H2  O   H1  H2  O   H1  H2  O   H1  H2  O   
H1  H2  O   H1  H2  O   H1  H2  O   H1  H2  O   H1  H2  O   H1  H2  O   H1  H2  
O   H1  H2  O   H1  H2  O   H1  H2  O   H1  H2  O   H1  H2  O   H1  H2  O   H1  
H2  O   H1  H2  O   H1  H2  O   H1  H2  O   H1  H2  O   H1  H2  O   H1  H2  O   
H1  H2  O   H1  H2  O   H1  H2  O   H1  H2  O   H1  H2  O   H1  H2  O   H1  H2  
O   H1  H2  O   H1  H2  O   H1  H2  O   H1  H2  O   H1  H2  O   H1  H2  O   H1  
H2  O   H1  H2  O   H1  H2  O   H1  H2  O   H1  H2  O   H1  H2  O   H1  H2  O   
H1  H2  O   H1  H2  O   H1  H2  O   H1  H2  O   H1  H2  O   H1  H2  O   H1  H2  
O   H1  H2  O   H1  H2  O   H1  H2  O   H1  H2  O   H1  H2  O   H1  H2  O   H1  
H2  O   H1  H2  O   H1  H2  O   H1  H2  O   H1  H2  O   H1  H2  O   H1  H2  O   
H1  H2  O   H1  H2  O   H1  H2  O   H1  H2  O   H1  H2  O   H1  H2  O   H1  H2  
O   H1  H2  O   H1  H2  O   H1  H2  O   H1  H2  O   H1  H2  O   H1  H2  O   H1  
H2  O   H1  H2  O   H1  H2  O   H1  H2  O   H1  H2  O   H1  H2  O   H1  H2  O   
H1  H2  O   H1  H2  O   H1  H2  O   H1  H2  O   H1  H2  O   H1  H2  O   H1  H2  
O   H1  H2  O   H1  H2  O   H1  H2  O   H1  H2  O   H1  H2  O   H1  H2  O   H1  
H2  O   H1  H2  O   H1  H2  O   H1  H2  O   H1  H2  O   H1  H2  O   H1  H2  O   
H1  H2  O   H1  H2  O   H1  H2  O   H1  H2  O   H1  H2  O   H1  H2  O   H1  H2  
O   H1  H2  O   H1  H2  O   H1  H2  O   H1  H2  O   H1  H2  O   H1  H2  O   H1  
H2  O   H1  H2  O   H1  H2  O   H1  H2  O   H1  H2  O   H1  H2  O   H1  H2  O   
H1  H2  O   H1  H2  O   H1  H2  O   H1  H2  O   H1  H2  O   H1  H2  O   H1  H2  
O   H1  H2  O   H1  H2  O   H1  H2  O   H1  H2  O   H1  H2  O   H1  H2  O   H1  
H2  O   H1  H2  O   H1  H2  O   H1  H2  O   H1  H2  O   H1  H2  O   H1  H2  O   
H1  H2  O   H1  H2  O   H1  H2  O   H1  H2  O   H1  H2  O   H1  H2  O   H1  H2  
O   H1  H2  O   H1  H2  O   H1  H2  O   H1  H2  O   H1  H2  O   H1  H2  O   H1  
H2  O   H1  H2  O   H1  H2  O   H1  H2  O   H1  H2  O   H1  H2  O   H1  H2  O   
H1  H2  O   H1  H2  O   H1  H2  O   H1  H2  O   H1  H2  O   H1  H2  O   H1  H2  
O   H1  H2  O   H1  H2  O   H1  H2  O   H1  H2  O   H1  H2  O   H1  H2  O   H1  
H2  O   H1  H2  O   H1  H2  O   H1  H2  O   H1  H2  O   H1  H2  O   H1  H2  O   
H1  H2  O   H1  H2  O   H1  H2  O   H1  H2  O   H1  H2  O   H1  H2  O   H1  H2  
O   H1  H2  O   H1  H2  O   H1  H2  O   H1  H2  O   H1  H2  O   H1  H2  O   H1  
H2  O   H1  H2  O   H1  H2  O   H1  H2  O   H1  H2  O   H1  H2  O   H1  H2  O   
H1  H2  O   H1  H2  O   H1  H2  O   H1  H2  O   H1  H2  O   H1  H2  O   H1  H2  
O   H1  H2  O   H1  H2  O   H1  H2  O   H1  H2  O   H1  H2  O   H1  H2  O   H1  
H2  O   H1  H2  O   H1  H2  O   H1  H2  O   H1  H2  O   H1  H2  O   H1  H2  O   
H1  H2  O   H1  H2  O   H1  H2  O   H1  H2  O   H1  H2  O   H1  H2  O   H1  H2  
O   H1  H2  O   H1  H2  O   H1  H2  O   H1  H2  O   H1  H2  O   H1  H2  O   H1  
H2  O   H1  H2  O   H1  H2  O   H1  H2  O   H1  H2  O   H1  H2  O   H1  H2  O   
H1  H2  O   H1  H2  O   H1  H2  O   H1  H2  O   H1  H2  O   H1  H2  O   H1  H2  
O   H1  H2  O   H1  H2  O   H1  H2  O   H1  H2  O   H1  H2  O   H1  H2  O   H1  
H2  O   H1  H2  O   H1  H2  O   H1  H2  O   H1  H2  O   H1  H2  O   H1  H2  O   
H1  H2  O   H1  H2  O   H1  H2  O   H1  H2  O   H1  H2  O   H1  H2  O   H1  H2  
O   H1  H2  O   H1  H2  O   H1  H2  O   H1  H2  O   H1  H2  O   H1  H2  O   H1  
H2  O   H1  H2  O   H1  H2  O   H1  H2  O   H1  H2  O   H1  H2  O   H1  H2  O   
H1  H2  O   H1  H2  O   H1  H2  O   H1  H2  O   H1  H2  O   H1  H2  O   H1  H2  
O   H1  H2  O   H1  H2  O   H1  H2  O   H1  H2  O   H1  H2  O   H1  H2  O   H1  
H2  O   H1  H2  O   H1  H2  O   H1  H2  O   H1  H2  O   H1  H2  O   H1  H2  O   
H1  H2  O   H1  H2  O   H1  H2  O   H1  H2  O   H1  H2  O   H1  H2  O   H1  H2  
O   H1  H2  O   H1  H2  O   H1  H2  O   H1  H2  O   H1  H2  O   H1  H2  O   H1  
H2  O   H1  H2  O   H1  H2  O   H1  H2  O   H1  H2  O   H1  H2  O   H1  H2  O   
H1  H2  O   H1  H2  O   H1  H2  O   H1  H2  O   H1  H2  O   H1  H2  O   H1  H2  
O   H1  H2  O   H1  H2  O   H1  H2  O   H1  H2  O   H1  H2  O   H1  H2  O   H1  
H2  O   H1  H2  O   H1  H2  O   H1  H2  O   H1  H2  O   H1  H2  O   H1  H2  O   
H1  H2  O   H1  H2  O   H1  H2  O   H1  H2  O   H1  H2  O   H1  H2  O   H1  H2  
O   H1  H2  O   H1  H2  O   H1  H2  O   H1  H2  O   H1  H2  O   H1  H2  O   H1  
H2  O   H1  H2  O   H1  H2  O   H1  H2  O   H1  H2  O   H1  H2  O   H1  H2  O   
H1  H2  O   H1  H2  O   H1  H2  O   H1  H2  O   H1  H2  O   H1  H2  O   H1  H2  
O   H1  H2  O   H1  H2  O   H1  H2  O   H1  H2  O   H1  H2  O   H1  H2  O   H1  
H2  O   H1  H2  O   H1  H2  O   H1  H2  O   H1  H2  O   H1  H2  O   H1  H2  O   
H1  H2  O   H1  H2  O   H1  H2  O   H1  H2  O   H1  H2  O   H1  H2  O   H1  H2  
O   H1  H2  O   H1  H2  O   H1  H2  O   H1  H2  O   H1  H2  O   H1  H2  O   H1  
H2  O   H1  H2  O   H1  H2  O   H1  H2  O   H1  H2  O   H1  H2  O   H1  H2  O   
H1  H2  O   H1  H2  O   H1  H2  O   H1  H2  O   H1  H2  O   H1  H2  O   H1  H2  
O   H1  H2  O   H1  H2  O   H1  H2  O   H1  H2  O   H1  H2  O   H1  H2  O   H1  
H2  O   H1  H2  O   H1  H2  O   H1  H2  O   H1  H2  O   H1  H2  O   H1  H2  O   
H1  H2  O   H1  H2  O   H1  H2  O   H1  H2  O   H1  H2  O   H1  H2  O   H1  H2  
O   H1  H2  O   H1  H2  O   H1  H2  O   H1  H2  O   H1  H2  O   H1  H2  O   H1  
H2  O   H1  H2  O   H1  H2  O   H1  H2  O   H1  H2  O   H1  H2  O   H1  H2  O   
H1  H2  O   H1  H2  O   H1  H2  O   H1  H2  O   H1  H2  O   H1  H2  O   H1  H2  
O   H1  H2  O   H1  H2  O   H1  H2  O   H1  H2  O   H1  H2  O   H1  H2  O   H1  
H2  O   H1  H2  O   H1  H2  O   H1  H2  O   H1  H2  O   H1  H2  O   H1  H2  O   
H1  H2  O   H1  H2  O   H1  H2  O   H1  H2  O   H1  H2  O   H1  H2  O   H1  H2  
O   H1  H2  O   H1  H2  O   H1  H2  O   H1  H2  O   H1  H2  O   H1  H2  O   H1  
H2  O   H1  H2  O   H1  H2  O   H1  H2  O   H1  H2  O   H1  H2  O   H1  H2  O   
H1  H2  O   H1  H2  O   H1  H2  O   H1  H2  O   H1  H2  O   H1  H2  O   H1  H2  
O   H1  H2  O   H1  H2  O   H1  H2  O   H1  H2  O   H1  H2  O   H1  H2  O   H1  
H2  O   H1  H2  O   H1  H2  O   H1  H2  O   H1  H2  O   H1  H2  O   H1  H2  O   
H1  H2  O   H1  H2  O   H1  H2  O   H1  H2  O   H1  H2  O   H1  H2  O   H1  H2  
O   H1  H2  O   H1  H2  O   H1  H2  O   H1  H2  O   H1  H2  O   H1  H2  O   H1  
H2  O   H1  H2  O   H1  H2  O   H1  H2  O   H1  H2  O   H1  H2  O   H1  H2  O   
H1  H2  O   H1  H2  O   H1  H2  O   H1  H2  O   H1  H2  O   H1  H2  O   H1  H2  
O   H1  H2  O   H1  H2  O   H1  H2  O   H1  H2  O   H1  H2  O   H1  H2  O   H1  
H2  O   H1  H2  O   H1  H2  O   H1  H2  O   H1  H2  O   H1  H2  O   H1  H2  O   
H1  H2  O   H1  H2  O   H1  H2  O   H1  H2  O   H1  H2  O   H1  H2  O   H1  H2  
O   H1  H2  O   H1  H2  O   H1  H2  O   H1  H2  O   H1  H2  O   H1  H2  O   H1  
H2  O   H1  H2  O   H1  H2  O   H1  H2  O   H1  H2  O   H1  H2  O   H1  H2  O   
H1  H2  O   H1  H2  O   H1  H2  O   H1  H2  O   H1  H2  O   H1  H2  O   H1  H2  
O   H1  H2  O   H1  H2  O   H1  H2  O   H1  H2  O   H1  H2  O   H1  H2  O   H1  
H2  O   H1  H2  O   H1  H2  O   H1  H2  O   H1  H2  O   H1  H2  O   H1  H2  O   
H1  H2  O   H1  H2  O   H1  H2  O   H1  H2  O   H1  H2  O   H1  H2  O   H1  H2  
O   H1  H2  O   H1  H2  O   H1  H2  O   H1  H2  O   H1  H2  O   H1  H2  O   H1  
H2  O   H1  H2  O   H1  H2  O   H1  H2  O   H1  H2  O   H1  H2  O   H1  H2  O   
H1  H2  O   H1  H2  O   H1  H2  O   H1  H2  O   H1  H2  O   H1  H2  O   H1  H2  
O   H1  H2  O   H1  H2  O   H1  H2  O   H1  H2  O   H1  H2  O   H1  H2  O   H1  
H2  O   H1  H2  O   H1  H2  O   H1  H2  O   H1  H2  O   H1  H2  O   H1  H2  O   
H1  H2  O   H1  H2  O   H1  H2  O   H1  H2  O   H1  H2  O   H1  H2  O   H1  H2  
O   H1  H2  O   H1  H2  O   H1  H2  O   H1  H2  O   H1  H2  O   H1  H2  O   H1  
H2  O   H1  H2  O   H1  H2  O   H1  H2  O   H1  H2  O   H1  H2  O   H1  H2  O   
H1  H2  O   H1  H2  O   H1  H2  O   H1  H2  O   H1  H2  O   H1  H2  O   H1  H2  
O   H1  H2  O   H1  H2  O   H1  H2  O   H1  H2  O   H1  H2  O   H1  H2  O   H1  
H2  O   H1  H2  O   H1  H2  O   H1  H2  O   H1  H2  O   H1  H2  O   H1  H2  O   
H1  H2  O   H1  H2  O   H1  H2  O   H1  H2  O   H1  H2  O   H1  H2  O   H1  H2  
O   H1  H2  O   H1  H2  O   H1  H2  O   H1  H2  O   H1  H2  O   H1  H2  O   H1  
H2  O   H1  H2  O   H1  H2  O   H1  H2  O   H1  H2  O   H1  H2  O   H1  H2  O   
H1  H2  O   H1  H2  O   H1  H2  O   H1  H2  O   H1  H2  O   H1  H2  O   H1  H2  
O   H1  H2  O   H1  H2  O   H1  H2  O   H1  H2  O   H1  H2  O   H1  H2  O   H1  
H2  O   H1  H2  O   H1  H2  O   H1  H2  O   H1  H2  O   H1  H2  O   H1  H2  O   
H1  H2  O   H1  H2  O   H1  H2  O   H1  H2  O   H1  H2  O   H1  H2  O   H1  H2  
O   H1  H2  O   H1  H2  O   H1  H2  O   H1  H2  O   H1  H2  O   H1  H2  O   H1  
H2  O   H1  H2  O   H1  H2  O   H1  H2  O   H1  H2  O   H1  H2  O   H1  H2  O   
H1  H2  O   H1  H2  O   H1  H2  O   H1  H2  O   H1  H2  O   H1  H2  O   H1  H2  
O   H1  H2  O   H1  H2  O   H1  H2  O   H1  H2  O   H1  H2  O   H1  H2  O   H1  
H2  O   H1  H2  O   H1  H2  O   H1  H2  O   H1  H2  O   H1  H2  O   H1  H2  O   
H1  H2  O   H1  H2  O   H1  H2  O   H1  H2  O   H1  H2  O   H1  H2  O   H1  H2  
O   H1  H2  O   H1  H2  O   H1  H2  O   H1  H2  O   H1  H2  O   H1  H2  O   H1  
H2  O   H1  H2  O   H1  H2  O   H1  H2  O   H1  H2  O   H1  H2  O   H1  H2  O   
H1  H2  O   H1  H2  O   H1  H2  O   H1  H2  O   H1  H2  O   H1  H2  O   H1  H2  
O   H1  H2  O   H1  H2  O   H1  H2  O   H1  H2  O   H1  H2  O   H1  H2  O   H1  
H2  O   H1  H2  O   H1  H2  O   H1  H2  O   H1  H2  O   H1  H2  O   H1  H2  O   
H1  H2  O   H1  H2  O   H1  H2  O   H1  H2  O   H1  H2  O   H1  H2  O   H1  H2  
O   H1  H2  O   H1  H2  O   H1  H2  O   H1  H2  O   H1  H2  O   H1  H2  O   H1  
H2  O   H1  H2  O   H1  H2  O   H1  H2  O   H1  H2  O   H1  H2  O   H1  H2  O   
H1  H2  O   H1  H2  O   H1  H2  O   H1  H2  O   H1  H2  O   H1  H2  O   H1  H2  
O   H1  H2  O   H1  H2  O   H1  H2  O   H1  H2  O   H1  H2  O   H1  H2  O   H1  
H2  O   H1  H2  O   H1  H2  O   H1  H2  O   H1  H2  O   H1  H2  O   H1  H2  O   
H1  H2  O   H1  H2  O   H1  H2  O   H1  H2  O   H1  H2  O   H1  H2  O   H1  H2  
O   H1  H2  O   H1  H2  O   H1  H2  O   H1  H2  O   H1  H2  O   H1  H2  O   H1  
H2  O   H1  H2  O   H1  H2  O   H1  H2  O   H1  H2  O   H1  H2  O   H1  H2  O   
H1  H2  O   H1  H2  O   H1  H2  O   H1  H2  O   H1  H2  O   H1  H2  O   H1  H2  
O   H1  H2  O   H1  H2  O   H1  H2  O   H1  H2  O   H1  H2  O   H1  H2  O   H1  
H2  O   H1  H2  O   H1  H2  O   H1  H2  O   H1  H2  O   H1  H2  O   H1  H2  O   
H1  H2  O   H1  H2  O   H1  H2  O   H1  H2  O   H1  H2  O   H1  H2  O   H1  H2  
O   H1  H2  O   H1  H2  O   H1  H2  O   H1  H2  O   H1  H2  O   H1  H2  O   H1  
H2  O   H1  H2  O   H1  H2  O   H1  H2  O   H1  H2  O   H1  H2  O   H1  H2  O   
H1  H2  O   H1  H2  O   H1  H2  O   H1  H2  O   H1  H2  O   H1  H2  O   H1  H2  
O   H1  H2  O   H1  H2  O   H1  H2  O   H1  H2  O   H1  H2  O   H1  H2  O   H1  
H2  O   H1  H2  O   H1  H2  O   H1  H2  O   H1  H2  O   H1  H2  O   H1  H2  O   
H1  H2  O   H1  H2  O   H1  H2  O   H1  H2  O   H1  H2  O   H1  H2  O   H1  H2  
O   H1  H2  O   H1  H2  O   H1  H2  O   H1  H2  O   H1  H2  O   H1  H2  O   H1  
H2  O   H1  H2  O   H1  H2  O   H1  H2  O   H1  H2  O   H1  H2  O   H1  H2  O   
H1  H2  O   H1  H2  O   H1  H2  O   H1  H2  O   H1  H2  O   H1  H2  O   H1  H2  
O   H1  H2  O   H1  H2  O   H1  H2  O   H1  H2  O   H1  H2  O   H1  H2  O   H1  
H2  O   H1  H2  O   H1  H2  O   H1  H2  O   H1  H2  O   H1  H2  O   H1  H2  O   
H1  H2  O   H1  H2  O   H1  H2  O   H1  H2  O   H1  H2  O   H1  H2  O   H1  H2  
O   H1  H2  O   H1  H2  O   H1  H2  O   H1  H2  O   H1  H2  O   H1  H2  O   H1  
H2  O   H1  H2  O   H1  H2  O   H1  H2  O   H1  H2  O   H1  H2  O   H1  H2  O   
H1  H2  O   H1  H2  O   H1  H2  O   H1  H2  O   H1  H2  O   H1  H2  O   H1  H2  
O   H1  H2  O   H1  H2  O   H1  H2  O   H1  H2  O   H1  H2  O   H1  H2  O   H1  
H2  O   H1  H2  O   H1  H2  O   H1  H2  O   H1  H2  O   H1  H2  O   H1  H2  O   
H1  H2  O   H1  H2  O   H1  H2  O   H1  H2  O   H1  H2  O   H1  H2  O   H1  H2  
O   H1  H2  O   H1  H2  O   H1  H2  O   H1  H2  O   H1  H2  O   H1  H2  O   H1  
H2  O   H1  H2  O   H1  H2  O   H1  H2  O   H1  H2  O   H1  H2  O   H1  H2  O   
H1  H2  O   H1  H2  O   H1  H2  O   H1  H2  O   H1  H2  O   H1  H2  O   H1  H2  
O   H1  H2  O   H1  H2  O   H1  H2  O   H1  H2  O   H1  H2  O   H1  H2  O   H1  
H2  O   H1  H2  O   H1  H2  O   H1  H2  O   H1  H2  O   H1  H2  O   H1  H2  O   
H1  H2  O   H1  H2  O   H1  H2  O   H1  H2  O   H1  H2  O   H1  H2  O   H1  H2  
O   H1  H2  O   H1  H2  O   H1  H2  O   H1  H2  O   H1  H2  O   H1  H2  O   H1  
H2  O   H1  H2  O   H1  H2  O   H1  H2  O   H1  H2  O   H1  H2  O   H1  H2  O   
H1  H2  O   H1  H2  O   H1  H2  O   H1  H2  O   H1  H2  O   H1  H2  O   H1  H2  
O   H1  H2  O   H1  H2  O   H1  H2  O   H1  H2  O   H1  H2  O   H1  H2  O   H1  
H2  O   H1  H2  O   H1  H2  O   H1  H2  O   H1  H2  O   H1  H2  O   H1  H2  O   
H1  H2  O   H1  H2  O   H1  H2  O   H1  H2  O   H1  H2  O   H1  H2  O   H1  H2  
O   H1  H2  O   H1  H2  O   H1  H2  O   H1  H2  O   H1  H2  O   H1  H2  O   H1  
H2  O   H1  H2  O   H1  H2  O   H1  H2  O   H1  H2  O   H1  H2  O   H1  H2  O   
H1  H2  O   H1  H2  O   H1  H2  O   H1  H2  O   H1  H2  O   H1  H2  O   H1  H2  
O   H1  H2  O   H1  H2  O   H1  H2  O   H1  H2  O   H1  H2  O   H1  H2  O   H1  
H2  O   H1  H2  O   H1  H2  O   H1  H2  O   H1  H2  O   H1  H2  O   H1  H2  O   
H1  H2  O   H1  H2  O   H1  H2  O   H1  H2  O   H1  H2  O   H1  H2  O   H1  H2  
O   H1  H2  O   H1  H2  O   H1  H2  O   H1  H2  O   H1  H2  O   H1  H2  O   H1  
H2  O   H1  H2  O   H1  H2  O   H1  H2  O   H1  H2  O   H1  H2  O   H1  H2  O   
H1  H2  O   H1  H2  O   H1  H2  O   H1  H2  O   H1  H2  O   H1  H2  O   H1  H2  
O   H1  H2  O   H1  H2  O   H1  H2  O   H1  H2  O   H1  H2  O   H1  H2  O   H1  
H2  O   H1  H2  O   H1  H2  O   H1  H2  O   H1  H2  O   H1  H2  O   H1  H2  O   
H1  H2  O   H1  H2  O   H1  H2  O   H1  H2  O   H1  H2  O   H1  H2  O   H1  H2  
O   H1  H2  O   H1  H2  O   H1  H2  O   H1  H2  O   H1  H2  O   H1  H2  O   H1  
H2  O   H1  H2  O   H1  H2  O   H1  H2  O   H1  H2  O   H1  H2  O   H1  H2  O   
H1  H2  O   H1  H2  O   H1  H2  O   H1  H2  O   H1  H2  O   H1  H2  O   H1  H2  
O   H1  H2  O   H1  H2  O   H1  H2  O   H1  H2  O   H1  H2  O   H1  H2  O   H1  
H2  O   H1  H2  O   H1  H2  O   H1  H2  O   H1  H2  O   H1  H2  O   H1  H2  O   
H1  H2  O   H1  H2  O   H1  H2  O   H1  H2  O   H1  H2  O   H1  H2  O   H1  H2  
O   H1  H2  O   H1  H2  O   H1  H2  O   H1  H2  O   H1  H2  O   H1  H2  O   H1  
H2  O   H1  H2  O   H1  H2  O   H1  H2  O   H1  H2  O   H1  H2  O   H1  H2  O   
H1  H2  O   H1  H2  O   H1  H2  O   H1  H2  O   H1  H2  O   H1  H2  O   H1  H2  
O   H1  H2  O   H1  H2  O   H1  H2  O   H1  H2  O   H1  H2  O   H1  H2  O   H1  
H2  O   H1  H2  O   H1  H2  O   H1  H2  O   H1  H2  O   H1  H2  O   H1  H2  O   
H1  H2  O   H1  H2  O   H1  H2  O   H1  H2  O   H1  H2  O   H1  H2  O   H1  H2  
O   H1  H2  O   H1  H2  O   H1  H2  O   H1  H2  O   H1  H2  O   H1  H2  O   H1  
H2  O   H1  H2  O   H1  H2  O   H1  H2  O   H1  H2  O   H1  H2  O   H1  H2  O   
H1  H2  O   H1  H2  O   H1  H2  O   H1  H2  O   H1  H2  O   H1  H2  O   H1  H2  
O   H1  H2  O   H1  H2  O   H1  H2  O   H1  H2  O   H1  H2  O   H1  H2  O   H1  
H2  O   H1  H2  O   H1  H2  O   H1  H2  O   H1  H2  O   H1  H2  O   H1  H2  O   
H1  H2  O   H1  H2  O   H1  H2  O   H1  H2  O   H1  H2  O   H1  H2  O   H1  H2  
O   H1  H2  O   H1  H2  O   H1  H2  O   H1  H2  O   H1  H2  O   H1  H2  O   H1  
H2  O   H1  H2  O   H1  H2  O   H1  H2  O   H1  H2  O   H1  H2  O   H1  H2  O   
H1  H2  O   H1  H2  O   H1  H2  O   H1  H2  O   H1  H2  O   H1  H2  O   H1  H2  
O   H1  H2  O   H1  H2  O   H1  H2  O   H1  H2  O   H1  H2  O   H1  H2  O   H1  
H2  O   H1  H2  O   H1  H2  O   H1  H2  O   H1  H2  O   H1  H2  O   H1  H2  O   
H1  H2  O   H1  H2  O   H1  H2  O   H1  H2  O   H1  H2  O   H1  H2  O   H1  H2  
O   H1  H2  O   H1  H2  O   H1  H2  O   H1  H2  O   H1  H2  O   H1  H2  O   H1  
H2  O   H1  H2  O   H1  H2  O   H1  H2  O   H1  H2  O   H1  H2  O   H1  H2  O   
H1  H2  O   H1  H2  O   H1  H2  O   H1  H2  O   H1  H2  O   H1  H2  O   H1  H2  
O   H1  H2  O   H1  H2  O   H1  H2  O   H1  H2  O   H1  H2  O   H1  H2  O   H1  
H2  O   H1  H2  O   H1  H2  O   H1  H2  O   H1  H2  O   H1  H2  O   H1  H2  O   
H1  H2  O   H1  H2  O   H1  H2  O   H1  H2  O   H1  H2  O   H1  H2  O   H1  H2  
O   H1  H2  O   H1  H2  O   H1  H2  O   H1  H2  O   H1  H2  O   H1  H2  O   H1  
H2  O   H1  H2  O   H1  H2  O   H1  H2  O   H1  H2  O   H1  H2  O   H1  H2  O   
H1  H2  O   H1  H2  O   H1  H2  O   H1  H2  O   H1  H2  O   H1  H2  O   H1  H2  
O   H1  H2  O   H1  H2  O   H1  H2  O   H1  H2  O   H1  H2  O   H1  H2  O   H1  
H2  O   H1  H2  O   H1  H2  O   H1  H2  O   H1  H2  O   H1  H2  O   H1  H2  O   
H1  H2  O   H1  H2  O   H1  H2  O   H1  H2  O   H1  H2  O   H1  H2  O   H1  H2  
O   H1  H2  O   H1  H2  O   H1  H2  O   H1  H2  O   H1  H2  O   H1  H2  O   H1  
H2  O   H1  H2  O   H1  H2  O   H1  H2  O   H1  H2  O   H1  H2  O   H1  H2  O   
H1  H2  O   H1  H2  O   H1  H2  O   H1  H2  O   H1  H2  O   H1  H2  O   H1  H2  
O   H1  H2  O   H1  H2  O   H1  H2  O   H1  H2  O   H1  H2  O   H1  H2  O   H1  
H2  O   H1  H2  O   H1  H2  O   H1  H2  O   H1  H2  O   H1  H2  O   H1  H2  O   
H1  H2  O   H1  H2  O   H1  H2  O   H1  H2  O   H1  H2  O   H1  H2  O   H1  H2  
O   H1  H2  O   H1  H2  O   H1  H2  O   H1  H2  O   H1  H2  O   H1  H2  O   H1  
H2  O   H1  H2  O   H1  H2  O   H1  H2  O   H1  H2  O   H1  H2  O   H1  H2  O   
H1  H2  O   H1  H2  O   H1  H2  O   H1  H2  O   H1  H2  O   H1  H2  O   H1  H2  
O   H1  H2  O   H1  H2  O   H1  H2  O   H1  H2  O   H1  H2  O   H1  H2  O   H1  
H2  O   H1  H2  O   H1  H2  O   H1  H2  O   H1  H2  O   H1  H2  O   H1  H2  O   
H1  H2  O   H1  H2  O   H1  H2  O   H1  H2  O   H1  H2  O   H1  H2  O   H1  H2  
O   H1  H2  O   H1  H2  O   H1  H2  O   H1  H2  O   H1  H2  O   H1  H2  O   H1  
H2  O   H1  H2  O   H1  H2  O   H1  H2  O   H1  H2  O   H1  H2  O   H1  H2  O   
H1  H2  O   H1  H2  O   H1  H2  O   H1  H2  O   H1  H2  O   H1  H2  O   H1  H2  
O   H1  H2  O   H1  H2  O   H1  H2  O   H1  H2  O   H1  H2  O   H1  H2  O   H1  
H2  O   H1  H2  O   H1  H2  O   H1  H2  O   H1  H2  O   H1  H2  O   H1  H2  O   
H1  H2  O   H1  H2  O   H1  H2  O   H1  H2  O   H1  H2  O   H1  H2  O   H1  H2  
O   H1  H2  O   H1  H2  O   H1  H2  O   H1  H2  O   H1  H2  O   H1  H2  O   H1  
H2  O   H1  H2  O   H1  H2  O   H1  H2  O   H1  H2  O   H1  H2  O   H1  H2  O   
H1  H2  O   H1  H2  O   H1  H2  O   H1  H2  O   H1  H2  O   H1  H2  O   H1  H2  
O   H1  H2  O   H1  H2  O   H1  H2  O   H1  H2  O   H1  H2  O   H1  H2  O   H1  
H2  O   H1  H2  O   H1  H2  O   H1  H2  O   H1  H2  O   H1  H2  O   H1  H2  O   
H1  H2  O   H1  H2  O   H1  H2  O   H1  H2  O   H1  H2  O   H1  H2  O   H1  H2  
O   H1  H2  O   H1  H2  O   H1  H2  O   H1  H2  O   H1  H2  O   H1  H2  O   H1  
H2  O   H1  H2  O   H1  H2  O   H1  H2  O   H1  H2  O   H1  H2  O   H1  H2  O   
H1  H2  O   H1  H2  O   H1  H2  O   H1  H2  O   H1  H2  O   H1  H2  O   H1  H2  
O   H1  H2  O   H1  H2  O   H1  H2  O   H1  H2  O   H1  H2  O   H1  H2  O   H1  
H2  O   H1  H2  O   H1  H2  O   H1  H2  O   H1  H2  O   H1  H2  O   H1  H2  O   
H1  H2  O   H1  H2  O   H1  H2  O   H1  H2  O   H1  H2  O   H1  H2  O   H1  H2  
O   H1  H2  O   H1  H2  O   H1  H2  O   H1  H2  O   H1  H2  O   H1  H2  O   H1  
H2  O   H1  H2  O   H1  H2  O   H1  H2  O   H1  H2  O   H1  H2  O   H1  H2  O   
H1  H2  O   H1  H2  O   H1  H2  O   H1  H2  O   H1  H2  O   H1  H2  O   H1  H2  
O   H1  H2  O   H1  H2  O   H1  H2  O   H1  H2  O   H1  H2  O   H1  H2  O   H1  
H2  O   H1  H2  O   H1  H2  O   H1  H2  O   H1  H2  O   H1  H2  O   H1  H2  O   
H1  H2  O   H1  H2  O   H1  H2  O   H1  H2  O   H1  H2  O   H1  H2  O   H1  H2  
O   H1  H2  O   H1  H2  O   H1  H2  O   H1  H2  O   H1  H2  O   H1  H2  O   H1  
H2  O   H1  H2  O   H1  H2  O   H1  H2  O   H1  H2  O   H1  H2  O   H1  H2  O   
H1  H2  O   H1  H2  O   H1  H2  O   H1  H2  O   H1  H2  O   H1  H2  O   H1  H2  
O   H1  H2  O   H1  H2  O   H1  H2  O   H1  H2  O   H1  H2  O   H1  H2  O   H1  
H2  O   H1  H2  O   H1  H2  O   H1  H2  O   H1  H2  O   H1  H2  O   H1  H2  O   
H1  H2  O   H1  H2  O   H1  H2  O   H1  H2  O   H1  H2  O   H1  H2  O   H1  H2  
O   H1  H2  O   H1  H2  O   H1  H2  O   H1  H2  O   H1  H2  O   H1  H2  O   H1  
H2  O   H1  H2  O   H1  H2  O   H1  H2  O   H1  H2  O   H1  H2  O   H1  H2  O   
H1  H2  O   H1  H2  O   H1  H2  O   H1  H2  O   H1  H2  O   H1  H2  O   H1  H2  
O   H1  H2  O   H1  H2  O   H1  H2  O   H1  H2  O   H1  H2  O   H1  H2  O   H1  
H2  O   H1  H2  O   H1  H2  O   H1  H2  O   H1  H2  O   H1  H2  O   H1  H2  O   
H1  H2  O   H1  H2  O   H1  H2  O   H1  H2  O   H1  H2  O   H1  H2  O   H1  H2  
O   H1  H2  O   H1  H2  O   H1  H2  O   H1  H2  O   H1  H2  O   H1  H2  O   H1  
H2  O   H1  H2  O   H1  H2  O   H1  H2  O   H1  H2  O   H1  H2  O   H1  H2  O   
H1  H2  O   H1  H2  O   H1  H2  O   H1  H2  O   H1  H2  O   H1  H2  O   H1  H2  
O   H1  H2  O   H1  H2  O   H1  H2  O   H1  H2  O   H1  H2  O   H1  H2  O   H1  
H2  O   H1  H2  O   H1  H2  O   H1  H2  O   H1  H2  O   H1  H2  O   H1  H2  O   
H1  H2  O   H1  H2  O   H1  H2  O   H1  H2  O   H1  H2  O   H1  H2  O   H1  H2  
O   H1  H2  O   H1  H2  O   H1  H2  O   H1  H2  O   H1  H2  O   H1  H2  O   H1  
H2  O   H1  H2  O   H1  H2  O   H1  H2  O   H1  H2  O   H1  H2  O   H1  H2  O   
H1  H2  O   H1  H2  O   H1  H2  O   H1  H2  O   H1  H2  O   H1  H2  O   H1  H2  
O   H1  H2  O   H1  H2  O   H1  H2  O   H1  H2  O   H1  H2  O   H1  H2  O   H1  
H2  O   H1  H2  O   H1  H2  O   H1  H2  O   H1  H2  O   H1  H2  O   H1  H2  O   
H1  H2  O   H1  H2  O   H1  H2  O   H1  H2  O   H1  H2  O   H1  H2  O   H1  H2  
O   H1  H2  O   H1  H2  O   H1  H2  O   H1  H2  O   H1  H2  O   H1  H2  O   H1  
H2  O   H1  H2  O   H1  H2  O   H1  H2  O   H1  H2  O   H1  H2  O   H1  H2  O   
H1  H2  O   H1  H2  O   H1  H2  O   H1  H2  O   H1  H2  O   H1  H2  O   H1  H2  
O   H1  H2  O   H1  H2  O   H1  H2  O   H1  H2  O   H1  H2  O   H1  H2  O   H1  
H2  O   H1  H2  O   H1  H2  O   H1  H2  O   H1  H2  O   H1  H2  O   H1  H2  O   
H1  H2  O   H1  H2  O   H1  H2  O   H1  H2  O   H1  H2  O   H1  H2  O   H1  H2  
O   H1  H2  O   H1  H2  O   H1  H2  O   H1  H2  O   H1  H2  O   H1  H2  O   H1  
H2  O   H1  H2  O   H1  H2  O   H1  H2  O   H1  H2  O   H1  H2  O   H1  H2  O   
H1  H2  O   H1  H2  O   H1  H2  O   H1  H2  O   H1  H2  O   H1  H2  O   H1  H2  
O   H1  H2  O   H1  H2  O   H1  H2  O   H1  H2  O   H1  H2  O   H1  H2  O   H1  
H2  O   H1  H2  O   H1  H2  O   H1  H2  O   H1  H2  O   H1  H2  O   H1  H2  O   
H1  H2  O   H1  H2  O   H1  H2  O   H1  H2  O   H1  H2  O   H1  H2  O   H1  H2  
O   H1  H2  O   H1  H2  O   H1  H2  O   H1  H2  O   H1  H2  O   H1  H2  O   H1  
H2  O   H1  H2  O   H1  H2  O   H1  H2  O   H1  H2  O   H1  H2  O   H1  H2  O   
H1  H2  O   H1  H2  O   H1  H2  O   H1  H2  O   H1  H2  O   H1  H2  O   H1  H2  
O   H1  H2  O   H1  H2  O   H1  H2  O   H1  H2  O   H1  H2  O   H1  H2  O   H1  
H2  O   H1  H2  O   H1  H2  O   H1  H2  O   H1  H2  O   H1  H2  O   H1  H2  O   
H1  H2  O   H1  H2  O   H1  H2  O   H1  H2  O   H1  H2  O   H1  H2  O   H1  H2  
O   H1  H2  O   H1  H2  O   H1  H2  O   H1  H2  O   H1  H2  O   H1  H2  O   H1  
H2  O   H1  H2  O   H1  H2  O   H1  H2  O   H1  H2  O   H1  H2  O   H1  H2  O   
H1  H2  O   H1  H2  O   H1  H2  O   H1  H2  O   H1  H2  O   H1  H2  O   H1  H2  
O   H1  H2  O   H1  H2  O   H1  H2  O   H1  H2  O   H1  H2  O   H1  H2  O   H1  
H2  O   H1  H2  O   H1  H2  O   H1  H2  O   H1  H2  O   H1  H2  O   H1  H2  O   
H1  H2  O   H1  H2  O   H1  H2  O   H1  H2  O   H1  H2  O   H1  H2  O   H1  H2  
O   H1  H2  O   H1  H2  O   H1  H2  O   H1  H2  O   H1  H2  O   H1  H2  O   H1  
H2  O   H1  H2  O   H1  H2  O   H1  H2  O   H1  H2  O   H1  H2  O   H1  H2  O   
H1  H2  O   H1  H2  O   H1  H2  O   H1  H2  O   H1  H2  O   H1  H2  O   H1  H2  
O   H1  H2  O   H1  H2  O   H1  H2  O   H1  H2  O   H1  H2  O   H1  H2  O   H1  
H2  O   H1  H2  O   H1  H2  O   H1  H2  O   H1  H2  O   H1  H2  O   H1  H2  O   
H1  H2  O   H1  H2  O   H1  H2  O   H1  H2  O   H1  H2  O   H1  H2  O   H1  H2  
O   H1  H2  O   H1  H2  O   H1  H2  O   H1  H2  O   H1  H2  O   H1  H2  O   H1  
H2  O   H1  H2  O   H1  H2  O   H1  H2  O   H1  H2  O   H1  H2  O   H1  H2  O   
H1  H2  O   H1  H2  O   H1  H2  O   H1  H2  O   H1  H2  O   H1  H2  O   H1  H2  
O   H1  H2  O   H1  H2  O   H1  H2  O   H1  H2  O   H1  H2  O   H1  H2  O   H1  
H2  O   H1  H2  O   H1  H2  O   H1  H2  O   H1  H2  O   H1  H2  O   H1  H2  O   
H1  H2  O   H1  H2  O   H1  H2  O   H1  H2  O   H1  H2  O   H1  H2  O   H1  H2  
O   H1  H2  O   H1  H2  O   H1  H2  O   H1  H2  O   H1  H2  O   H1  H2  O   H1  
H2  O   H1  H2  O   H1  H2  O   H1  H2  O   H1  H2  O   H1  H2  O   H1  H2  O   
H1  H2  O   H1  H2  O   H1  H2  O   H1  H2  O   H1  H2  O   H1  H2  O   H1  H2  
O   H1  H2  O   H1  H2  O   H1  H2  O   H1  H2  O   H1  H2  O   H1  H2  O   H1  
H2  O   H1  H2  O   H1  H2  O   H1  H2  O   H1  H2  O   H1  H2  O   H1  H2  O   
H1  H2  O   H1  H2  O   H1  H2  O   H1  H2  O   H1  H2  O   H1  H2  O   H1  H2  
O   H1  H2  O   H1  H2  O   H1  H2  O   H1  H2  O   H1  H2  O   H1  H2  O   H1  
H2  O   H1  H2  O   H1  H2  O   H1  H2  O   H1  H2  O   H1  H2  O   H1  H2  O   
H1  H2  O   H1  H2  O   H1  H2  O   H1  H2  O   H1  H2  O   H1  H2  O   H1  H2  
O   H1  H2  O   H1  H2  O   H1  H2  O   H1  H2  O   H1  H2  O   H1  H2  O   H1  
H2  O   H1  H2  O   H1  H2  O   H1  H2  O   H1  H2  O   H1  H2  O   H1  H2  O   
H1  H2  O   H1  H2  O   H1  H2  O   H1  H2  O   H1  H2  O   H1  H2  O   H1  H2  
O   H1  H2  O   H1  H2  O   H1  H2  O   H1  H2  O   H1  H2  O   H1  H2  O   H1  
H2  O   H1  H2  O   H1  H2  O   H1  H2  O   H1  H2  O   H1  H2  O   H1  H2  O   
H1  H2  O   H1  H2  O   H1  H2  O   H1  H2  O   H1  H2  O   H1  H2  O   H1  H2  
O   H1  H2  O   H1  H2  O   H1  H2  O   H1  H2  O   H1  H2  O   H1  H2  O   H1  
H2  O   H1  H2  O   H1  H2  O   H1  H2  O   H1  H2  O   H1  H2  O   H1  H2  O   
H1  H2  O   H1  H2  O   H1  H2  O   H1  H2  O   H1  H2  O   H1  H2  O   H1  H2  
O   H1  H2  O   H1  H2  O   H1  H2  O   H1  H2  O   H1  H2  O   H1  H2  O   H1  
H2  O   H1  H2  O   H1  H2  O   H1  H2  O   H1  H2  O   H1  H2  O   H1  H2  O   
H1  H2  O   H1  H2  O   H1  H2  O   H1  H2  O   H1  H2  O   H1  H2  O   H1  H2  
O   H1  H2  O   H1  H2  O   H1  H2  O   H1  H2  O   H1  H2  O   H1  H2  O   H1  
H2  O   H1  H2  O   H1  H2  O   H1  H2  O   H1  H2  O   H1  H2  O   H1  H2  O   
H1  H2  O   H1  H2  O   H1  H2  O   H1  H2  O   H1  H2  O   H1  H2  O   H1  H2  
O   H1  H2  O   H1  H2  O   H1  H2  O   H1  H2  O   H1  H2  O   H1  H2  O   H1  
H2  O   H1  H2  O   H1  H2  O   H1  H2  O   H1  H2  O   H1  H2  O   H1  H2  O   
H1  H2  O   H1  H2  O   H1  H2  O   H1  H2  O   H1  H2  O   H1  H2  O   H1  H2  
O   H1  H2  O   H1  H2  O   H1  H2  O   H1  H2  O   H1  H2  O   H1  H2  O   H1  
H2  O   H1  H2  O   H1  H2  O   H1  H2  O   H1  H2  O   H1  H2  O   H1  H2  O   
H1  H2  O   H1  H2  O   H1  H2  O   H1  H2  O   H1  H2  O   H1  H2  O   H1  H2  
O   H1  H2  O   H1  H2  O   H1  H2  O   H1  H2  O   H1  H2  O   H1  H2  O   H1  
H2  O   H1  H2  O   H1  H2  O   H1  H2  O   H1  H2  O   H1  H2  O   H1  H2  O   
H1  H2  O   H1  H2  O   H1  H2  O   H1  H2  O   H1  H2  O   H1  H2  O   H1  H2  
O   H1  H2  O   H1  H2  O   H1  H2  O   H1  H2  O   H1  H2  O   H1  H2  O   H1  
H2  O   H1  H2  O   H1  H2  O   H1  H2  O   H1  H2  O   H1  H2  O   H1  H2  O   
H1  H2  O   H1  H2  O   H1  H2  O   H1  H2  O   H1  H2  O   H1  H2  O   H1  H2  
O   H1  H2  O   H1  H2  O   H1  H2  O   H1  H2  O   H1  H2  O   H1  H2  O   H1  
H2  O   H1  H2  O   H1  H2  O   H1  H2  O   H1  H2  O   H1  H2  O   H1  H2  O   
H1  H2  O   H1  H2  O   H1  H2  O   H1  H2  O   H1  H2  O   H1  H2  O   H1  H2  
O   H1  H2  O   H1  H2  O   H1  H2  O   H1  H2  O   H1  H2  O   H1  H2  O   H1  
H2  O   H1  H2  O   H1  H2  O   H1  H2  O   H1  H2  O   H1  H2  O   H1  H2  O   
H1  H2  O   H1  H2  O   H1  H2  O   H1  H2  O   H1  H2  O   H1  H2  O   H1  H2  
O   H1  H2  O   H1  H2  O   H1  H2  O   H1  H2  O   H1  H2  O   H1  H2  O   H1  
H2  O   H1  H2  O   H1  H2  O   H1  H2  O   H1  H2  O   H1  H2  O   H1  H2  O   
H1  H2  O   H1  H2  O   H1  H2  O   H1  H2  O   H1  H2  O   H1  H2  O   H1  H2  
O   H1  H2  O   H1  H2  O   H1  H2  O   H1  H2  O   H1  H2  O   H1  H2  O   H1  
H2  O   H1  H2  O   H1  H2  O   H1  H2  O   H1  H2  O   H1  H2  O   H1  H2  O   
H1  H2  O   H1  H2  O   H1  H2  O   H1  H2  O   H1  H2  O   H1  H2  O   H1  H2  
O   H1  H2  O   H1  H2  O   H1  H2  O   H1  H2  O   H1  H2  O   H1  H2  O   H1  
H2  O   H1  H2  O   H1  H2  O   H1  H2  O   H1  H2  O   H1  H2  O   H1  H2  O   
H1  H2  O   H1  H2  O   H1  H2  O   H1  H2  O   H1  H2  O   H1  H2  O   H1  H2  
O   H1  H2  O   H1  H2  O   H1  H2  O   H1  H2  O   H1  H2  O   H1  H2  O   H1  
H2  O   H1  H2  O   H1  H2  O   H1  H2  O   H1  H2  O   H1  H2  O   H1  H2  O   
H1  H2  O   H1  H2  O   H1  H2  O   H1  H2  O   H1  H2  O   H1  H2  O   H1  H2  
O   H1  H2  O   H1  H2  O   H1  H2  O   H1  H2  O   H1  H2  O   H1  H2  O   H1  
H2  O   H1  H2  O   H1  H2  O   H1  H2  O   H1  H2  O   H1  H2  O   H1  H2  O   
H1  H2  O   H1  H2  O   H1  H2  O   H1  H2  O   H1  H2  O   H1  H2  O   H1  H2  
O   H1  H2  O   H1  H2  O   H1  H2  O   H1  H2  O   H1  H2  O   H1  H2  O   H1  
H2  O   H1  H2  O   H1  H2  O   H1  H2  O   H1  H2  O   H1  H2  O   H1  H2  O   
H1  H2  O   H1  H2  O   H1  H2  O   H1  H2  O   H1  H2  O   H1  H2  O   H1  H2  
O   H1  H2  O   H1  H2  O   H1  H2  O   H1  H2  O   H1  H2  O   H1  H2  O   H1  
H2  O   H1  H2  O   H1  H2  O   H1  H2  O   H1  H2  O   H1  H2  O   H1  H2  O   
H1  H2  O   H1  H2  O   H1  H2  O   H1  H2  O   H1  H2  O   H1  H2  O   H1  H2  
O   H1  H2  O   H1  H2  O   H1  H2  O   H1  H2  O   H1  H2  O   H1  H2  O   H1  
H2  O   H1  H2  O   H1  H2  O   H1  H2  O   H1  H2  O   H1  H2  O   H1  H2  O   
H1  H2  O   H1  H2  O   H1  H2  O   H1  H2  O   H1  H2  O   H1  H2  O   H1  H2  
O   H1  H2  O   H1  H2  O   H1  H2  O   H1  H2  O   H1  H2  O   H1  H2  O   H1  
H2  O   H1  H2  O   H1  H2  O   H1  H2  O   H1  H2  O   H1  H2  O   H1  H2  O   
H1  H2  O   H1  H2  O   H1  H2  O   H1  H2  O   H1  H2  O   H1  H2  O   H1  H2  
O   H1  H2  O   H1  H2  O   H1  H2  O   H1  H2  O   H1  H2  O   H1  H2  O   H1  
H2  O   H1  H2  O   H1  H2  O   H1  H2  O   H1  H2  O   H1  H2  O   H1  H2  O   
H1  H2  O   H1  H2  O   H1  H2  O   H1  H2  O   H1  H2  O   H1  H2  O   H1  H2  
O   H1  H2  O   H1  H2  O   H1  H2  O   H1  H2  O   H1  H2  O   H1  H2  O   H1  
H2  O   H1  H2  O   H1  H2  O   H1  H2  O   H1  H2  O   H1  H2  O   H1  H2  O   
H1  H2  O   H1  H2  O   H1  H2  O   H1  H2  O   H1  H2  O   H1  H2  O   H1  H2  
O   H1  H2  O   H1  H2  O   H1  H2  O   H1  H2  O   H1  H2  O   H1  H2  O   H1  
H2  O   H1  H2  O   H1  H2  O   H1  H2  O   H1  H2  O   H1  H2  O   H1  H2  O   
H1  H2  O   H1  H2  O   H1  H2  O   H1  H2  O   H1  H2  O   H1  H2  O   H1  H2  
O   H1  H2  O   H1  H2  O   H1  H2  O   H1  H2  O   H1  H2  O   H1  H2  O   H1  
H2  O   H1  H2  O   H1  H2  O   H1  H2  O   H1  H2  O   H1  H2  O   H1  H2  O   
H1  H2  O   H1  H2  O   H1  H2  O   H1  H2  O   H1  H2  O   H1  H2  O   H1  H2  
O   H1  H2  O   H1  H2  O   H1  H2  O   H1  H2  O   H1  H2  O   H1  H2  O   H1  
H2  O   H1  H2  O   H1  H2  O   H1  H2  O   H1  H2  O   H1  H2  O   H1  H2  O   
H1  H2  O   H1  H2  O   H1  H2  O   H1  H2  O   H1  H2  O   H1  H2  O   H1  H2  
O   H1  H2  O   H1  H2  O   H1  H2  O   H1  H2  O   H1  H2  O   H1  H2  O   H1  
H2  O   H1  H2  O   H1  H2  O   H1  H2  O   H1  H2  O   H1  H2  O   H1  H2  O   
H1  H2  O   H1  H2  O   H1  H2  O   H1  H2  O   H1  H2  O   H1  H2  O   H1  H2  
O   H1  H2  O   H1  H2  O   H1  H2  O   H1  H2  O   H1  H2  O   H1  H2  O   H1  
H2  O   H1  H2  O   H1  H2  O   H1  H2  O   H1  H2  O   H1  H2  O   H1  H2  O   
H1  H2  O   H1  H2  O   H1  H2  O   H1  H2  O   H1  H2  O   H1  H2  O   H1  H2  
O   H1  H2  O   H1  H2  O   H1  H2  O   H1  H2  O   H1  H2  O   H1  H2  O   H1  
H2  O   H1  H2  O   H1  H2  O   H1  H2  O   H1  H2  O   H1  H2  O   H1  H2  O   
H1  H2  O   H1  H2  O   H1  H2  O   H1  H2  O   H1  H2  O   H1  H2  O   H1  H2  
O   H1  H2  O   H1  H2  O   H1  H2  O   H1  H2  O   H1  H2  O   H1  H2  O   H1  
H2  O   H1  H2  O   H1  H2  O   H1  H2  O   H1  H2  O   H1  H2  O   H1  H2  O   
H1  H2  O   H1  H2  O   H1  H2  O   H1  H2  O   H1  H2  O   H1  H2  O   H1  H2  
O   H1  H2  O   H1  H2  O   H1  H2  O   H1  H2  O   H1  H2  O   H1  H2  O   H1  
H2  O   H1  H2  O   H1  H2  O   H1  H2  O   H1  H2  O   H1  H2  O   H1  H2  O   
H1  H2  O   H1  H2  O   H1  H2  O   H1  H2  O   H1  H2  O   H1  H2  O   H1  H2  
O   H1  H2  O   H1  H2  O   H1  H2  O   H1  H2  O   H1  H2  O   H1  H2  O   H1  
H2  O   H1  H2  O   H1  H2  O   H1  H2  O   H1  H2  O   H1  H2  O   H1  H2  O   
H1  H2  O   H1  H2  O   H1  H2  O   H1  H2  O   H1  H2  O   H1  H2  O   H1  H2  
O   H1  H2  O   H1  H2  O   H1  H2  O   H1  H2  O   H1  H2  O   H1  H2  O   H1  
H2  O   H1  H2  O   H1  H2  O   H1  H2  O   H1  H2  O   H1  H2  O   H1  H2  O   
H1  H2  O   H1  H2  O   H1  H2  O   H1  H2  O   H1  H2  O   H1  H2  O   H1  H2  
O   H1  H2  O   H1  H2  O   H1  H2  O   H1  H2  O   H1  H2  O   H1  H2  O   H1  
H2  O   H1  H2  O   H1  H2  O   H1  H2  O   H1  H2  O   H1  H2  O   H1  H2  O   
H1  H2  O   H1  H2  O   H1  H2  O   H1  H2  O   H1  H2  O   H1  H2  O   H1  H2  
O   H1  H2  O   H1  H2  O   H1  H2  O   H1  H2  O   H1  H2  O   H1  H2  O   H1  
H2  O   H1  H2  O   H1  H2  O   H1  H2  O   H1  H2  O   H1  H2  O   H1  H2  O   
H1  H2  O   H1  H2  O   H1  H2  O   H1  H2  O   H1  H2  O   H1  H2  O   H1  H2  
O   H1  H2  O   H1  H2  O   H1  H2  O   H1  H2  O   H1  H2  O   H1  H2  O   H1  
H2  O   H1  H2  O   H1  H2  O   H1  H2  O   H1  H2  O   H1  H2  O   H1  H2  O   
H1  H2  O   H1  H2  O   H1  H2  O   H1  H2  O   H1  H2  O   H1  H2  O   H1  H2  
O   H1  H2  O   H1  H2  O   H1  H2  O   H1  H2  O   H1  H2  O   H1  H2  O   H1  
H2  O   H1  H2  O   H1  H2  O   H1  H2  O   H1  H2  O   H1  H2  O   H1  H2  O   
H1  H2  O   H1  H2  O   H1  H2  O   H1  H2  O   H1  H2  O   H1  H2  O   H1  H2  
O   H1  H2  O   H1  H2  O   H1  H2  O   H1  H2  O   H1  H2  O   H1  H2  O   H1  
H2  O   H1  H2  O   H1  H2  O   H1  H2  O   H1  H2  O   H1  H2  O   H1  H2  O   
H1  H2  O   H1  H2  O   H1  H2  O   H1  H2  O   H1  H2  O   H1  H2  O   H1  H2  
O   H1  H2  O   H1  H2  O   H1  H2  O   H1  H2  O   H1  H2  O   H1  H2  O   H1  
H2  O   H1  H2  O   H1  H2  O   H1  H2  O   H1  H2  O   H1  H2  O   H1  H2  O   
H1  H2  O   H1  H2  O   H1  H2  O   H1  H2  O   H1  H2  O   H1  H2  O   H1  H2  
O   H1  H2  O   H1  H2  O   H1  H2  O   H1  H2  O   H1  H2  O   H1  H2  O   H1  
H2  O   H1  H2  O   H1  H2  O   H1  H2  O   H1  H2  O   H1  H2  O   H1  H2  O   
H1  H2  O   H1  H2  O   H1  H2  O   H1  H2  O   H1  H2  O   H1  H2  O   H1  H2  
O   H1  H2  O   H1  H2  O   H1  H2  O   H1  H2  O   H1  H2  O   H1  H2  O   H1  
H2  O   H1  H2  O   H1  H2  O   H1  H2  O   H1  H2  O   H1  H2  O   H1  H2  O   
H1  H2  O   H1  H2  O   H1  H2  O   H1  H2  O   H1  H2  O   H1  H2  O   H1  H2  
O   H1  H2  O   H1  H2  O   H1  H2  O   H1  H2  O   H1  H2  O   H1  H2  O   H1  
H2  O   H1  H2  O   H1  H2  O   H1  H2  O   H1  H2  O   H1  H2  O   H1  H2  O   
H1  H2  O   H1  H2  O   H1  H2  O   H1  H2  O   H1  H2  O   H1  H2  O   H1  H2  
O   H1  H2  O   H1  H2  O   H1  H2  O   H1  H2  O   H1  H2  O   H1  H2  O   H1  
H2  O   H1  H2  O   H1  H2  O   H1  H2  O   H1  H2  O   H1  H2  O   H1  H2  O   
H1  H2  O   H1  H2  O   H1  H2  O   H1  H2  O   H1  H2  O   H1  H2  O   H1  H2  
O   H1  H2  O   H1  H2  O   H1  H2  O   H1  H2  O   H1  H2  O   H1  H2  O   H1  
H2  O   H1  H2  O   H1  H2  O   H1  H2  O   H1  H2  O   H1  H2  O   H1  H2  O   
H1  H2  O   H1  H2  O   H1  H2  O   H1  H2  O   H1  H2  O   H1  H2  O   H1  H2  
O   H1  H2  O   H1  H2  O   H1  H2  O   H1  H2  O   H1  H2  O   H1  H2  O   H1  
H2  O   H1  H2  O   H1  H2  O   H1  H2  O   H1  H2  O   H1  H2  O   H1  H2  O   
H1  H2  O   H1  H2  O   H1  H2  O   H1  H2  O   H1  H2  O   H1  H2  O   H1  H2  
O   H1  H2  O   H1  H2  O   H1  H2  O   H1  H2  O   H1  H2  O   H1  H2  O   H1  
H2  O   H1  H2  O   H1  H2  O   H1  H2  O   H1  H2  O   H1  H2  O   H1  H2  O   
H1  H2  O   H1  H2  O   H1  H2  O   H1  H2  O   H1  H2  O   H1  H2  O   H1  H2  
O   H1  H2  O   H1  H2  O   H1  H2  O   H1  H2  O   H1  H2  O   H1  H2  O   H1  
H2  O   H1  H2  O   H1  H2  O   H1  H2  O   H1  H2  O   H1  H2  O   H1  H2  O   
H1  H2  O   H1  H2  O   H1  H2  O   H1  H2  O   H1  H2  O   H1  H2  O   H1  H2  
O   H1  H2  O   H1  H2  O   H1  H2  O   H1  H2  O   H1  H2  O   H1  H2  O   H1  
H2  O   H1  H2  O   H1  H2  O   H1  H2  O   H1  H2  O   H1  H2  O   H1  H2  O   
H1  H2  O   H1  H2  O   H1  H2  O   H1  H2  O   H1  H2  O   H1  H2  O   H1  H2  
O   H1  H2  O   H1  H2  O   H1  H2  O   H1  H2  O   H1  H2  O   H1  H2  O   H1  
H2  O   H1  H2  O   H1  H2  O   H1  H2  O   H1  H2  O   H1  H2  O   H1  H2  O   
H1  H2  O   H1  H2  O   H1  H2  O   H1  H2  O   H1  H2  O   H1  H2  O   H1  H2  
O   H1  H2  O   H1  H2  O   H1  H2  O   H1  H2  O   H1  H2  O   H1  H2  O   H1  
H2  O   H1  H2  O   H1  H2  O   H1  H2  O   H1  H2  O   H1  H2  O   H1  H2  O   
H1  H2  O   H1  H2  O   H1  H2  O   H1  H2  O   H1  H2  O   H1  H2  O   H1  H2  
O   H1  H2  O   H1  H2  O   H1  H2  O   H1  H2  O   H1  H2  O   H1  H2  O   H1  
H2  O   H1  H2  O   H1  H2  O   H1  H2  O   H1  H2  O   H1  H2  O   H1  H2  O   
H1  H2  O   H1  H2  O   H1  H2  O   H1  H2  O   H1  H2  O   H1  H2  O   H1  H2  
O   H1  H2  O   H1  H2  O   H1  H2  O   H1  H2  O   H1  H2  O   H1  H2  O   H1  
H2  O   H1  H2  O   H1  H2  O   H1  H2  O   H1  H2  O   H1  H2  O   H1  H2  O   
H1  H2  O   H1  H2  O   H1  H2  O   H1  H2  O   H1  H2  O   H1  H2  O   H1  H2  
O   H1  H2  O   H1  H2  O   H1  H2  O   H1  H2  O   H1  H2  O   H1  H2  O   H1  
H2  O   H1  H2  O   H1  H2  O   H1  H2  O   H1  H2  O   H1  H2  O   H1  H2  O   
H1  H2  O   H1  H2  O   H1  H2  O   H1  H2  O   H1  H2  O   H1  H2  O   H1  H2  
O   H1  H2  O   H1  H2  O   H1  H2  O   H1  H2  O   H1  H2  O   H1  H2  O   H1  
H2  O   H1  H2  O   H1  H2  O   H1  H2  O   H1  H2  O   H1  H2  O   H1  H2  O   
H1  H2  O   H1  H2  O   H1  H2  O   H1  H2  O   H1  H2  O   H1  H2  O   H1  H2  
O   H1  H2  O   H1  H2  O   H1  H2  O   H1  H2  O   H1  H2  O   H1  H2  O   H1  
H2  O   H1  H2  O   H1  H2  O   H1  H2  O   H1  H2  O   H1  H2  O   H1  H2  O   
H1  H2  O   H1  H2  O   H1  H2  O   H1  H2  O   H1  H2  O   H1  H2  O   H1  H2  
O   H1  H2  O   H1  H2  O   H1  H2  O   H1  H2  O   H1  H2  O   H1  H2  O   H1  
H2  O   H1  H2  O   H1  H2  O   H1  H2  O   H1  H2  O   H1  H2  O   H1  H2  O   
H1  H2  O   H1  H2  O   H1  H2  O   H1  H2  O   H1  H2  O   H1  H2  O   H1  H2  
O   H1  H2  O   H1  H2  O   H1  H2  O   H1  H2  O   H1  H2  O   H1  H2  O   H1  
H2  O   H1  H2  O   H1  H2  O   H1  H2  O   H1  H2  O   H1  H2  O   H1  H2  O   
H1  H2  O   H1  H2  O   H1  H2  O   H1  H2  O   H1  H2  O   H1  H2  O   H1  H2  
O   H1  H2  O   H1  H2  O   H1  H2  O   H1  H2  O   H1  H2  O   H1  H2  O   H1  
H2  O   H1  H2  O   H1  H2  O   H1  H2  O   H1  H2  O   H1  H2  O   H1  H2  O   
H1  H2  O   H1  H2  O   H1  H2  O   H1  H2  O   H1  H2  O   H1  H2  O   H1  H2  
O   H1  H2  O   H1  H2  O   H1  H2  O   H1  H2  O   H1  H2  O   H1  H2  O   H1  
H2  O   H1  H2  O   H1  H2  O   H1  H2  O   H1  H2  O   H1  H2  O   H1  H2  O   
H1  H2  O   H1  H2  O   H1  H2  O   H1  H2  O   H1  H2  O   H1  H2  O   H1  H2  
O   H1  H2  O   H1  H2  O   H1  H2  O   H1  H2  O   H1  H2  O   H1  H2  O   H1  
H2  O   H1  H2  O   H1  H2  O   H1  H2  O   H1  H2  O   H1  H2  O   H1  H2  O   
H1  H2  O   H1  H2  O   H1  H2  O   H1  H2  O   H1  H2  O   H1  H2  O   H1  H2  
O   H1  H2  O   H1  H2  O   H1  H2  O   H1  H2  O   H1  H2  O   H1  H2  O   H1  
H2  O   H1  H2  O   H1  H2  O   H1  H2  O   H1  H2  O   H1  H2  O   H1  H2  O   
H1  H2  O   H1  H2  O   H1  H2  O   H1  H2  O   H1  H2  O   H1  H2  O   H1  H2  
O   H1  H2  O   H1  H2  O   H1  H2  O   H1  H2  O   H1  H2  O   H1  H2  O   H1  
H2  O   H1  H2  O   H1  H2  O   H1  H2  O   H1  H2  O   H1  H2  O   H1  H2  O   
H1  H2  O   H1  H2  O   H1  H2  O   H1  H2  O   H1  H2  O   H1  H2  O   H1  H2  
O   H1  H2  O   H1  H2  O   H1  H2  O   H1  H2  O   H1  H2  O   H1  H2  O   H1  
H2  O   H1  H2  O   H1  H2  O   H1  H2  O   H1  H2  O   H1  H2  O   H1  H2  O   
H1  H2  O   H1  H2  O   H1  H2  O   H1  H2  O   H1  H2  O   H1  H2  O   H1  H2  
O   H1  H2  O   H1  H2  O   H1  H2  O   H1  H2  O   H1  H2  O   H1  H2  O   H1  
H2  O   H1  H2  O   H1  H2  O   H1  H2  O   H1  H2  O   H1  H2  O   H1  H2  O   
H1  H2  O   H1  H2  O   H1  H2  O   H1  H2  O   H1  H2  O   H1  H2  O   H1  H2  
O   H1  H2  O   H1  H2  O   H1  H2  O   H1  H2  O   H1  H2  O   H1  H2  O   H1  
H2  O   H1  H2  O   H1  H2  O   H1  H2  O   H1  H2  O   H1  H2  O   H1  H2  O   
H1  H2  O   H1  H2  O   H1  H2  O   H1  H2  O   H1  H2  O   H1  H2  O   H1  H2  
O   H1  H2  O   H1  H2  O   H1  H2  O   H1  H2  O   H1  H2  O   H1  H2  O   H1  
H2  O   H1  H2  O   H1  H2  O   H1  H2  O   H1  H2  O   H1  H2  O   H1  H2  O   
H1  H2  O   H1  H2  O   H1  H2  O   H1  H2  O   H1  H2  O   H1  H2  O   H1  H2  
O   H1  H2  O   H1  H2  O   H1  H2  O   H1  H2  O   H1  H2  O   H1  H2  O   H1  
H2  O   H1  H2  O   H1  H2  O   H1  H2  O   H1  H2  O   H1  H2  O   H1  H2  O   
H1  H2  O   H1  H2  O   H1  H2  O   H1  H2  O   H1  H2  O   H1  H2  O   H1  H2  
O   H1  H2  O   H1  H2  O   H1  H2  O   H1  H2  O   H1  H2  O   H1  H2  O   H1  
H2  O   H1  H2  O   H1  H2  O   H1  H2  O   H1  H2  O   H1  H2  O   H1  H2  O   
H1  H2  O   H1  H2  O   H1  H2  O   H1  H2  O   H1  H2  O   H1  H2  O   H1  H2  
O   H1  H2  O   H1  H2  O   H1  H2  O   H1  H2  O   H1  H2  O   H1  H2  O   H1  
H2  O   H1  H2  O   H1  H2  O   H1  H2  O   H1  H2  O   H1  H2  O   H1  H2  O   
H1  H2  O   H1  H2  O   H1  H2  O   H1  H2  O   H1  H2  O   H1  H2  O   H1  H2  
O   H1  H2  O   H1  H2  O   H1  H2  O   H1  H2  O   H1  H2  O   H1  H2  O   H1  
H2  O   H1  H2  O   H1  H2  O   H1  H2  O   H1  H2  O   H1  H2  O   H1  H2  O   
H1  H2  O   H1  H2  O   H1  H2  O   H1  H2  O   H1  H2  O   H1  H2  O   H1  H2  
O   H1  H2  O   H1  H2  O   H1  H2  O   H1  H2  O   H1  H2  O   H1  H2  O   H1  
H2  O   H1  H2  O   H1  H2  O   H1  H2  O   H1  H2  O   H1  H2  O   H1  H2  O   
H1  H2  O   H1  H2  O   H1  H2  O   H1  H2  O   H1  H2  O   H1  H2  O   H1  H2  
O   H1  H2  O   H1  H2  O   H1  H2  O   H1  H2  O   H1  H2  O   H1  H2  O   H1  
H2  O   H1  H2  O   H1  H2  O   H1  H2  O   H1  H2  O   H1  H2  O   H1  H2  O   
H1  H2  O   H1  H2  O   H1  H2  O   H1  H2  O   H1  H2  O   H1  H2  O   H1  H2  
O   H1  H2  O   H1  H2  O   H1  H2  O   H1  H2  O   H1  H2  O   H1  H2  O   H1  
H2  O   H1  H2  O   H1  H2  O   H1  H2  O   H1  H2  O   H1  H2  O   H1  H2  O   
H1  H2  O   H1  H2  O   H1  H2  O   H1  H2  O   H1  H2  O   H1  H2  O   H1  H2  
O   H1  H2  O   H1  H2  O   H1  H2  O   H1  H2  O   H1  H2  O   H1  H2  O   H1  
H2  O   H1  H2  O   H1  H2  O   H1  H2  O   H1  H2  O   H1  H2  O   H1  H2  O   
H1  H2  O   H1  H2  O   H1  H2  O   H1  H2  O   H1  H2  O   H1  H2  O   H1  H2  
O   H1  H2  O   H1  H2  O   H1  H2  O   H1  H2  O   H1  H2  O   H1  H2  O   H1  
H2  O   H1  H2  O   H1  H2  O   H1  H2  O   H1  H2  O   H1  H2  O   H1  H2  O   
H1  H2  O   H1  H2  O   H1  H2  O   H1  H2  O   H1  H2  O   H1  H2  O   H1  H2  
O   H1  H2  O   H1  H2  O   H1  H2  O   H1  H2  O   H1  H2  O   H1  H2  O   H1  
H2  O   H1  H2  O   H1  H2  O   H1  H2  O   H1  H2  O   H1  H2  O   H1  H2  O   
H1  H2  O   H1  H2  O   H1  H2  O   H1  H2  O   H1  H2  O   H1  H2  O   H1  H2  
O   H1  H2  O   H1  H2  O   H1  H2  O   H1  H2  O   H1  H2  O   H1  H2  O   H1  
H2  O   H1  H2  O   H1  H2  O   H1  H2  O   H1  H2  O   H1  H2  O   H1  H2  O   
H1  H2  O   H1  H2  O   H1  H2  O   H1  H2  O   H1  H2  O   H1  H2  O   H1  H2  
O   H1  H2  O   H1  H2  O   H1  H2  O   H1  H2  O   H1  H2  O   H1  H2  O   H1  
H2  O   H1  H2  O   H1  H2  O   H1  H2  O   H1  H2  O   H1  H2  O   H1  H2  O   
H1  H2  O   H1  H2  O   H1  H2  O   H1  H2  O   H1  H2  O   H1  H2  O   H1  H2  
O   H1  H2  O   H1  H2  O   H1  H2  O   H1  H2  O   H1  H2  O   H1  H2  O   H1  
H2  O   H1  H2  O   H1  H2  O   H1  H2  O   H1  H2  O   H1  H2  O   H1  H2  O   
H1  H2  O   H1  H2  O   H1  H2  O   H1  H2  O   H1  H2  O   H1  H2  O   H1  H2  
O   H1  H2  O   H1  H2  O   H1  H2  O   H1  H2  O   H1  H2  O   H1  H2  O   H1  
H2  O   H1  H2  O   H1  H2  O   H1  H2  O   H1  H2  O   H1  H2  O   H1  H2  O   
H1  H2  O   H1  H2  O   H1  H2  O   H1  H2  O   H1  H2  O   H1  H2  O   H1  H2  
O   H1  H2  O   H1  H2  O   H1  H2  O   H1  H2  O   H1  H2  O   H1  H2  O   H1  
H2  O   H1  H2  O   H1  H2  O   H1  H2  O   H1  H2  O   H1  H2  O   H1  H2  O   
H1  H2  O   H1  H2  O   H1  H2  O   H1  H2  O   H1  H2  O   H1  H2  O   H1  H2  
O   H1  H2  O   H1  H2  O   H1  H2  O   H1  H2  O   H1  H2  O   H1  H2  O   H1  
H2  O   H1  H2  O   H1  H2  O   H1  H2  O   H1  H2  O   H1  H2  O   H1  H2  O   
H1  H2  O   H1  H2  O   H1  H2  O   H1  H2  O   H1  H2  O   H1  H2  O   H1  H2  
O   H1  H2  O   H1  H2  O   H1  H2  O   H1  H2  O   H1  H2  O   H1  H2  O   H1  
H2  O   H1  H2  O   H1  H2  O   H1  H2  O   H1  H2  O   H1  H2  O   H1  H2  O   
H1  H2  O   H1  H2  O   H1  H2  O   H1  H2  O   H1  H2  O   H1  H2  O   H1  H2  
O   H1  H2  O   H1  H2  O   H1  H2  O   H1  H2  O   H1  H2  O   H1  H2  O   H1  
H2  O   H1  H2  O   H1  H2  O   H1  H2  O   H1  H2  O   H1  H2  O   H1  H2  O   
H1  H2  O   H1  H2  O   H1  H2  O   H1  H2  O   H1  H2  O   H1  H2  O   H1  H2  
O   H1  H2  O   H1  H2  O   H1  H2  O   H1  H2  O   H1  H2  O   H1  H2  O   H1  
H2  O   H1  H2  O   H1  H2  O   H1  H2  O   H1  H2  O   H1  H2  O   H1  H2  O   
H1  H2  O   H1  H2  O   H1  H2  O   H1  H2  O   H1  H2  O   H1  H2  O   H1  H2  
O   H1  H2  O   H1  H2  O   H1  H2  O   H1  H2  O   H1  H2  O   H1  H2  O   H1  
H2  O   H1  H2  O   H1  H2  O   H1  H2  O   H1  H2  O   H1  H2  O   H1  H2  O   
H1  H2  O   H1  H2  O   H1  H2  O   H1  H2  O   H1  H2  O   H1  H2  O   H1  H2  
O   H1  H2  O   H1  H2  O   H1  H2  O   H1  H2  O   H1  H2  O   H1  H2  O   H1  
H2  O   H1  H2  O   H1  H2  O   H1  H2  O   H1  H2  O   H1  H2  O   H1  H2  O   
H1  H2  O   H1  H2  O   H1  H2  O   H1  H2  O   H1  H2  O   H1  H2  O   H1  H2  
O   H1  H2  O   H1  H2  O   H1  H2  O   H1  H2  O   H1  H2  O   H1  H2  O   H1  
H2  O   H1  H2  O   H1  H2  O   H1  H2  O   H1  H2  O   H1  H2  O   H1  H2  O   
H1  H2  O   H1  H2  O   H1  H2  O   H1  H2  O   H1  H2  O   H1  H2  O   H1  H2  
O   H1  H2  O   H1  H2  O   H1  H2  O   H1  H2  O   H1  H2  O   H1  H2  O   H1  
H2  O   H1  H2  O   H1  H2  O   H1  H2  O   H1  H2  O   H1  H2  O   H1  H2  O   
H1  H2  O   H1  H2  O   H1  H2  O   H1  H2  O   H1  H2  O   H1  H2  O   H1  H2  
O   H1  H2  O   H1  H2  O   H1  H2  O   H1  H2  O   H1  H2  O   H1  H2  O   H1  
H2  O   H1  H2  O   H1  H2  O   H1  H2  O   H1  H2  O   H1  H2  O   H1  H2  O   
H1  H2  O   H1  H2  O   H1  H2  O   H1  H2  O   H1  H2  O   H1  H2  O   H1  H2  
O   H1  H2  O   H1  H2  O   H1  H2  O   H1  H2  O   H1  H2  O   H1  H2  O   H1  
H2  O   H1  H2  O   H1  H2  O   H1  H2  O   H1  H2  O   H1  H2  O   H1  H2  O   
H1  H2  O   H1  H2  O   H1  H2  O   H1  H2  O   H1  H2  O   H1  H2  O   H1  H2  
O   H1  H2  O   H1  H2  O   H1  H2  O   H1  H2  O   H1  H2  O   H1  H2  O   H1  
H2  O   H1  H2  O   H1  H2  O   H1  H2  O   H1  H2  O   H1  H2  O   H1  H2  O   
H1  H2  O   H1  H2  O   H1  H2  O   H1  H2  O   H1  H2  O   H1  H2  O   H1  H2  
O   H1  H2  O   H1  H2  O   H1  H2  O   H1  H2  O   H1  H2  O   H1  H2  O   H1  
H2  O   H1  H2  O   H1  H2  O   H1  H2  O   H1  H2  O   H1  H2  O   H1  H2  O   
H1  H2  O   H1  H2  O   H1  H2  O   H1  H2  O   H1  H2  O   H1  H2  O   H1  H2  
O   H1  H2  O   H1  H2  O   H1  H2  O   H1  H2  O   H1  H2  O   H1  H2  O   H1  
H2  O   H1  H2  O   H1  H2  O   H1  H2  O   H1  H2  O   H1  H2  O   H1  H2  O   
H1  H2  O   H1  H2  O   H1  H2  O   H1  H2  O   H1  H2  O   H1  H2  O   H1  H2  
O   H1  H2  O   H1  H2  O   H1  H2  O   H1  H2  O   H1  H2  O   H1  H2  O   H1  
H2  O   H1  H2  O   H1  H2  O   H1  H2  O   H1  H2  O   H1  H2  O   H1  H2  O   
H1  H2  O   H1  H2  O   H1  H2  O   H1  H2  O   H1  H2  O   H1  H2  O   H1  H2  
O   H1  H2  O   H1  H2  O   H1  H2  O   H1  H2  O   H1  H2  O   H1  H2  O   H1  
H2  O   H1  H2  O   H1  H2  O   H1  H2  O   H1  H2  O   H1  H2  O   H1  H2  O   
H1  H2  O   H1  H2  O   H1  H2  O   H1  H2  O   H1  H2  O   H1  H2  O   H1  H2  
O   H1  H2  O   H1  H2  O   H1  H2  O   H1  H2  O   H1  H2  O   H1  H2  O   H1  
H2  O   H1  H2  O   H1  H2  O   H1  H2  O   H1  H2  O   H1  H2  O   H1  H2  O   
H1  H2  O   H1  H2  O   H1  H2  O   H1  H2  O   H1  H2  O   H1  H2  O   H1  H2  
O   H1  H2  O   H1  H2  O   H1  H2  O   H1  H2  O   H1  H2  O   H1  H2  O   H1  
H2  O   H1  H2  O   H1  H2  O   H1  H2  O   H1  H2  O   H1  H2  O   H1  H2  O   
H1  H2  O   H1  H2  O   H1  H2  O   H1  H2  O   H1  H2  O   H1  H2  O   H1  H2  
O   H1  H2  O   H1  H2  O   H1  H2  O   H1  H2  O   H1  H2  O   H1  H2  O   H1  
H2  O   H1  H2  O   H1  H2  O   H1  H2  O   H1  H2  O   H1  H2  O   H1  H2  O   
H1  H2  O   H1  H2  O   H1  H2  O   H1  H2  O   H1  H2  O   H1  H2  O   H1  H2  
O   H1  H2  O   H1  H2  O   H1  H2  O   H1  H2  O   H1  H2  O   H1  H2  O   H1  
H2  O   H1  H2  O   H1  H2  O   H1  H2  O   H1  H2  O   H1  H2  O   H1  H2  O   
H1  H2  O   H1  H2  O   H1  H2  O   H1  H2  O   H1  H2  O   H1  H2  O   H1  H2  
O   H1  H2  O   H1  H2  O   H1  H2  O   H1  H2  O   H1  H2  O   H1  H2  O   H1  
H2  O   H1  H2  O   H1  H2  O   H1  H2  O   H1  H2  O   H1  H2  O   H1  H2  O   
H1  H2  O   H1  H2  O   H1  H2  O   H1  H2  O   H1  H2  O   H1  H2  O   H1  H2  
O   H1  H2  O   H1  H2  O   H1  H2  O   H1  H2  O   H1  H2  O   H1  H2  O   H1  
H2  O   H1  H2  O   H1  H2  O   H1  H2  O   H1  H2  O   H1  H2  O   H1  H2  O   
H1  H2  O   H1  H2  O   H1  H2  O   H1  H2  O   H1  H2  O   H1  H2  O   H1  H2  
O   H1  H2  O   H1  H2  O   H1  H2  O   H1  H2  O   H1  H2  O   H1  H2  O   H1  
H2  O   H1  H2  O   H1  H2  O   H1  H2  O   H1  H2  O   H1  H2  O   H1  H2  O   
H1  H2  O   H1  H2  O   H1  H2  O   H1  H2  O   H1  H2  O   H1  H2  O   H1  H2  
O   H1  H2  O   H1  H2  O   H1  H2  O   H1  H2  O   H1  H2  O   H1  H2  O   H1  
H2  O   H1  H2  O   H1  H2  O   H1  H2  O   H1  H2  O   H1  H2  O   H1  H2  O   
H1  H2  O   H1  H2  O   H1  H2  O   H1  H2  O   H1  H2  O   H1  H2  O   H1  H2  
O   H1  H2  O   H1  H2  O   H1  H2  O   H1  H2  O   H1  H2  O   H1  H2  O   H1  
H2  O   H1  H2  O   H1  H2  O   H1  H2  O   H1  H2  O   H1  H2  O   H1  H2  O   
H1  H2  O   H1  H2  O   H1  H2  O   H1  H2  O   H1  H2  O   H1  H2  O   H1  H2  
O   H1  H2  O   H1  H2  O   H1  H2  O   H1  H2  O   H1  H2  O   H1  H2  O   H1  
H2  O   H1  H2  O   H1  H2  O   H1  H2  O   H1  H2  O   H1  H2  O   H1  H2  O   
H1  H2  O   H1  H2  O   H1  H2  O   H1  H2  O   H1  H2  O   H1  H2  O   H1  H2  
O   H1  H2  O   H1  H2  O   H1  H2  O   H1  H2  O   H1  H2  O   H1  H2  O   H1  
H2  O   H1  H2  O   H1  H2  O   H1  H2  O   H1  H2  O   H1  H2  O   H1  H2  O   
H1  H2  O   H1  H2  O   H1  H2  O   H1  H2  O   H1  H2  O   H1  H2  O   H1  H2  
O   H1  H2  O   H1  H2  O   H1  H2  O   H1  H2  O   H1  H2  O   H1  H2  O   H1  
H2  O   H1  H2  O   H1  H2  O   H1  H2  O   H1  H2  O   H1  H2  O   H1  H2  O   
H1  H2  O   H1  H2  O   H1  H2  O   H1  H2  O   H1  H2  O   H1  H2  O   H1  H2  
O   H1  H2  O   H1  H2  O   H1  H2  O   H1  H2  O   H1  H2  O   H1  H2  O   H1  
H2  O   H1  H2  O   H1  H2  O   H1  H2  O   H1  H2  O   H1  H2  O   H1  H2  O   
H1  H2  O   H1  H2  O   H1  H2  O   H1  H2  O   H1  H2  O   H1  H2  O   H1  H2  
O   H1  H2  O   H1  H2  O   H1  H2  O   H1  H2  O   H1  H2  O   H1  H2  O   H1  
H2  O   H1  H2  O   H1  H2  O   H1  H2  O   H1  H2  O   H1  H2  O   H1  H2  O   
H1  H2  O   H1  H2  O   H1  H2  O   H1  H2  O   H1  H2  O   H1  H2  O   H1  H2  
O   H1  H2  O   H1  H2  O   H1  H2  O   H1  H2  O   H1  H2  O   H1  H2  O   H1  
H2  O   H1  H2  O   H1  H2  O   H1  H2  O   H1  H2  O   H1  H2  O   H1  H2  O   
H1  H2  O   H1  H2  O   H1  H2  O   H1  H2  O   H1  H2  O   H1  H2  O   H1  H2  
O   H1  H2  O   H1  H2  O   H1  H2  O   H1  H2  O   H1  H2  O   H1  H2  O   H1  
H2  O   H1  H2  O   H1  H2  O   H1  H2  O   H1  H2  O   H1  H2  O   H1  H2  O   
H1  H2  O   H1  H2  O   H1  H2  O   H1  H2  O   H1  H2  O   H1  H2  O   H1  H2  
O   H1  H2  O   H1  H2  O   H1  H2  O   H1  H2  O   H1  H2  O   H1  H2  O   H1  
H2  O   H1  H2  O   H1  H2  O   H1  H2  O   H1  H2  O   H1  H2  O   H1  H2  O   
H1  H2  O   H1  H2  O   H1  H2  O   H1  H2  O   H1  H2  O   H1  H2  O   H1  H2  
O   H1  H2  O   H1  H2  O   H1  H2  O   H1  H2  O   H1  H2  O   H1  H2  O   H1  
H2  O   H1  H2  O   H1  H2  O   H1  H2  O   H1  H2  O   H1  H2  O   H1  H2  O   
H1  H2  O   H1  H2  O   H1  H2  O   H1  H2  O   H1  H2  O   H1  H2  O   H1  H2  
O   H1  H2  O   H1  H2  O   H1  H2  O   H1  H2  O   H1  H2  O   H1  H2  O   H1  
H2  O   H1  H2  O   H1  H2  O   H1  H2  O   H1  H2  O   H1  H2  O   H1  H2  O   
H1  H2  O   H1  H2  O   H1  H2  O   H1  H2  O   H1  H2  O   H1  H2  O   H1  H2  
O   H1  H2  O   H1  H2  O   H1  H2  O   H1  H2  O   H1  H2  O   H1  H2  O   H1  
H2  O   H1  H2  O   H1  H2  O   H1  H2  O   H1  H2  O   H1  H2  O   H1  H2  O   
H1  H2  O   H1  H2  O   H1  H2  O   H1  H2  O   H1  H2  O   H1  H2  O   H1  H2  
O   H1  H2  O   H1  H2  O   H1  H2  O   H1  H2  O   H1  H2  O   H1  H2  O   H1  
H2  O   H1  H2  O   H1  H2  O   H1  H2  O   H1  H2  O   H1  H2  O   H1  H2  O   
H1  H2  O   H1  H2  O   H1  H2  O   H1  H2  O   H1  H2  O   H1  H2  O   H1  H2  
O   H1  H2  O   H1  H2  O   H1  H2  O   H1  H2  O   H1  H2  O   H1  H2  O   H1  
H2  O   H1  H2  O   H1  H2  O   H1  H2  O   H1  H2  O   H1  H2  O   H1  H2  O   
H1  H2  O   H1  H2  O   H1  H2  O   H1  H2  O   H1  H2  O   H1  H2  O   H1  H2  
O   H1  H2  O   H1  H2  O   H1  H2  O   H1  H2  O   H1  H2  O   H1  H2  O   H1  
H2  O   H1  H2  O   H1  H2  O   H1  H2  O   H1  H2  O   H1  H2  O   H1  H2  O   
H1  H2  O   H1  H2  O   H1  H2  O   H1  H2  O   H1  H2  O   H1  H2  O   H1  H2  
O   H1  H2  O   H1  H2  O   H1  H2  O   H1  H2  O   H1  H2  O   H1  H2  O   H1  
H2  O   H1  H2  O   H1  H2  O   H1  H2  O   H1  H2  O   H1  H2  O   H1  H2  O   
H1  H2  O   H1  H2  O   H1  H2  O   H1  H2  O   H1  H2  O   H1  H2  O   H1  H2  
O   H1  H2  O   H1  H2  O   H1  H2  O   H1  H2  O   H1  H2  O   H1  H2  O   H1  
H2  O   H1  H2  O   H1  H2  O   H1  H2  O   H1  H2  O   H1  H2  O   H1  H2  O   
H1  H2  O   H1  H2  O   H1  H2  O   H1  H2  O   H1  H2  O   H1  H2  O   H1  H2  
O   H1  H2  O   H1  H2  O   H1  H2  O   H1  H2  O   H1  H2  O   H1  H2  O   H1  
H2  O   H1  H2  O   H1  H2  O   H1  H2  O   H1  H2  O   H1  H2  O   H1  H2  O   
H1  H2  O   H1  H2  O   H1  H2  O   H1  H2  O   H1  H2  O   H1  H2  O   H1  H2  
O   H1  H2  O   H1  H2  O   H1  H2  O   H1  H2  O   H1  H2  O   H1  H2  O   H1  
H2  O   H1  H2  O   H1  H2  O   H1  H2  O   H1  H2  O   H1  H2  O   H1  H2  O   
H1  H2  O   H1  H2  O   H1  H2  O   H1  H2  O   H1  H2  O   H1  H2  O   H1  H2  
O   H1  H2  O   H1  H2  O   H1  H2  O   H1  H2  O   H1  H2  O   H1  H2  O   H1  
H2  O   H1  H2  O   H1  H2  O   H1  H2  O   H1  H2  O   H1  H2  O   H1  H2  O   
H1  H2  O   H1  H2  O   H1  H2  O   H1  H2  O   H1  H2  O   H1  H2  O   H1  H2  
O   H1  H2  O   H1  H2  O   H1  H2  O   H1  H2  O   H1  H2  O   H1  H2  O   H1  
H2  O   H1  H2  O   H1  H2  O   H1  H2  O   H1  H2  O   H1  H2  O   H1  H2  O   
H1  H2  O   H1  H2  O   H1  H2  O   H1  H2  O   H1  H2  O   H1  H2  O   H1  H2  
O   H1  H2  O   H1  H2  O   H1  H2  O   H1  H2  O   H1  H2  O   H1  H2  O   H1  
H2  O   H1  H2  O   H1  H2  O   H1  H2  O   H1  H2  O   H1  H2  O   H1  H2  O   
H1  H2  O   H1  H2  O   H1  H2  O   H1  H2  O   H1  H2  O   H1  H2  O   H1  H2  
O   H1  H2  O   H1  H2  O   H1  H2  O   H1  H2  O   H1  H2  O   H1  H2  O   H1  
H2  O   H1  H2  O   H1  H2  O   H1  H2  O   H1  H2  O   H1  H2  O   H1  H2  O   
H1  H2  O   H1  H2  O   H1  H2  O   H1  H2  O   H1  H2  O   H1  H2  O   H1  H2  
O   H1  H2  O   H1  H2  O   H1  H2  O   H1  H2  O   H1  H2  O   H1  H2  O   H1  
H2  O   H1  H2  O   H1  H2  O   H1  H2  O   H1  H2  O   H1  H2  O   H1  H2  O   
H1  H2  O   H1  H2  O   H1  H2  O   H1  H2  O   H1  H2  O   H1  H2  O   H1  H2  
O   H1  H2  O   H1  H2  O   H1  H2  O   H1  H2  O   H1  H2  O   H1  H2  O   H1  
H2  O   H1  H2  O   H1  H2  O   H1  H2  O   H1  H2  O   H1  H2  O   H1  H2  O   
H1  H2  O   H1  H2  O   H1  H2  O   H1  H2  O   H1  H2  O   H1  H2  O   H1  H2  
O   H1  H2  O   H1  H2  O   H1  H2  O   H1  H2  O   H1  H2  O   H1  H2  O   H1  
H2  O   H1  H2  O   H1  H2  O   H1  H2  O   H1  H2  O   H1  H2  O   H1  H2  O   
H1  H2  O   H1  H2  O   H1  H2  O   H1  H2  O   H1  H2  O   H1  H2  O   H1  H2  
O   H1  H2  O   H1  H2  O   H1  H2  O   H1  H2  O   H1  H2  O   H1  H2  O   H1  
H2  O   H1  H2  O   H1  H2  O   H1  H2  O   H1  H2  O   H1  H2  O   H1  H2  O   
H1  H2  O   H1  H2  O   H1  H2  O   H1  H2  O   H1  H2  O   H1  H2  O   H1  H2  
O   H1  H2  O   H1  H2  O   H1  H2  O   H1  H2  O   H1  H2  O   H1  H2  O   H1  
H2  O   H1  H2  O   H1  H2  O   H1  H2  O   H1  H2  O   H1  H2  O   H1  H2  O   
H1  H2  O   H1  H2  O   H1  H2  O   H1  H2  O   H1  H2  O   H1  H2  O   H1  H2  
O   H1  H2  O   H1  H2  O   H1  H2  O   H1  H2  O   H1  H2  O   H1  H2  O   H1  
H2  O   H1  H2  O   H1  H2  O   H1  H2  O   H1  H2  O   H1  H2  O   H1  H2  O   
H1  H2  O   H1  H2  O   H1  H2  O   H1  H2  O   H1  H2  O   H1  H2  O   H1  H2  
O   H1  H2  O   H1  H2  O   H1  H2  O   H1  H2  O   H1  H2  O   H1  H2  O   H1  
H2  O   H1  H2  O   H1  H2  O   H1  H2  O   H1  H2  O   H1  H2  O   H1  H2  O   
H1  H2  O   H1  H2  O   H1  H2  O   H1  H2  O   H1  H2  O   H1  H2  O   H1  H2  
O   H1  H2  O   H1  H2  O   H1  H2  O   H1  H2  O   H1  H2  O   H1  H2  O   H1  
H2  O   H1  H2  O   H1  H2  O   H1  H2  O   H1  H2  O   H1  H2  O   H1  H2  O   
H1  H2  O   H1  H2  O   H1  H2  O   H1  H2  O   H1  H2  O   H1  H2  O   H1  H2  
O   H1  H2  O   H1  H2  O   H1  H2  O   H1  H2  O   H1  H2  O   H1  H2  O   H1  
H2  O   H1  H2  O   H1  H2  O   H1  H2  O   H1  H2  O   H1  H2  O   H1  H2  O   
H1  H2  O   H1  H2  O   H1  H2  O   H1  H2  O   H1  H2  O   H1  H2  O   H1  H2  
O   H1  H2  O   H1  H2  O   H1  H2  O   H1  H2  O   H1  H2  O   H1  H2  O   H1  
H2  O   H1  H2  O   H1  H2  O   H1  H2  O   H1  H2  O   H1  H2  O   H1  H2  O   
H1  H2  O   H1  H2  O   H1  H2  O   H1  H2  O   H1  H2  O   H1  H2  O   H1  H2  
O   H1  H2  O   H1  H2  O   H1  H2  O   H1  H2  O   H1  H2  O   H1  H2  O   H1  
H2  O   H1  H2  O   H1  H2  O   H1  H2  O   H1  H2  O   H1  H2  O   H1  H2  O   
H1  H2  O   H1  H2  O   H1  H2  O   H1  H2  O   H1  H2  O   H1  H2  O   H1  H2  
O   H1  H2  O   H1  H2  O   H1  H2  O   H1  H2  O   H1  H2  O   H1  H2  O   H1  
H2  O   H1  H2  O   H1  H2  O   H1  H2  O   H1  H2  O   H1  H2  O   H1  H2  O   
H1  H2  O   H1  H2  O   H1  H2  O   H1  H2  O   H1  H2  O   H1  H2  O   H1  H2  
O   H1  H2  O   H1  H2  O   H1  H2  O   H1  H2  O   H1  H2  O   H1  H2  O   H1  
H2  O   H1  H2  O   H1  H2  O   H1  H2  O   H1  H2  O   H1  H2  O   H1  H2  O   
H1  H2  O   H1  H2  O   H1  H2  O   H1  H2  O   H1  H2  O   H1  H2  O   H1  H2  
O   H1  H2  O   H1  H2  O   H1  H2  O   H1  H2  O   H1  H2  O   H1  H2  O   H1  
H2  O   H1  H2  O   H1  H2  O   H1  H2  O   H1  H2  O   H1  H2  O   H1  H2  O   
H1  H2  O   H1  H2  O   H1  H2  O   H1  H2  O   H1  H2  O   H1  H2  O   H1  H2  
O   H1  H2  O   H1  H2  O   H1  H2  O   H1  H2  O   H1  H2  O   H1  H2  O   H1  
H2  O   H1  H2  O   H1  H2  O   H1  H2  O   H1  H2  O   H1  H2  O   H1  H2  O   
H1  H2  O   H1  H2  O   H1  H2  O   H1  H2  O   H1  H2  O   H1  H2  O   H1  H2  
O   H1  H2  O   H1  H2  O   H1  H2  O   H1  H2  O   H1  H2  O   H1  H2  O   H1  
H2  O   H1  H2  O   H1  H2  O   H1  H2  O   H1  H2  O   H1  H2  O   H1  H2  O   
H1  H2  O   H1  H2  O   H1  H2  O   H1  H2  O   H1  H2  O   H1  H2  O   H1  H2  
O   H1  H2  O   H1  H2  O   H1  H2  O   H1  H2  O   H1  H2  O   H1  H2  O   H1  
H2  O   H1  H2  O   H1  H2  O   H1  H2  O   H1  H2  O   H1  H2  O   H1  H2  O   
H1  H2  O   H1  H2  O   H1  H2  O   H1  H2  O   H1  H2  O   H1  H2  O   H1  H2  
O   H1  H2  O   H1  H2  O   H1  H2  O   H1  H2  O   H1  H2  O   H1  H2  O   H1  
H2  O   H1  H2  O   H1  H2  O   H1  H2  O   H1  H2  O   H1  H2  O   H1  H2  O   
H1  H2  O   H1  H2  O   H1  H2  O   H1  H2  O   H1  H2  O   H1  H2  O   H1  H2  
O   H1  H2  O   H1  H2  O   H1  H2  O   H1  H2  O   H1  H2  O   H1  H2  O   H1  
H2  O   H1  H2  O   H1  H2  O   H1  H2  O   H1  H2  O   H1  H2  O   H1  H2  O   
H1  H2  O   H1  H2  O   H1  H2  O   H1  H2  O   H1  H2  O   H1  H2  O   H1  H2  
O   H1  H2  O   H1  H2  O   H1  H2  O   H1  H2  O   H1  H2  O   H1  H2  O   H1  
H2  O   H1  H2  O   H1  H2  O   H1  H2  O   H1  H2  O   H1  H2  O   H1  H2  O   
H1  H2  O   H1  H2  O   H1  H2  O   H1  H2  O   H1  H2  O   H1  H2  O   H1  H2  
O   H1  H2  O   H1  H2  O   H1  H2  O   H1  H2  O   H1  H2  O   H1  H2  O   H1  
H2  O   H1  H2  O   H1  H2  O   H1  H2  O   H1  H2  O   H1  H2  O   H1  H2  O   
H1  H2  O   H1  H2  O   H1  H2  O   H1  H2  O   H1  H2  O   H1  H2  O   H1  H2  
O   H1  H2  O   H1  H2  O   H1  H2  O   H1  H2  O   H1  H2  O   H1  H2  O   H1  
H2  O   H1  H2  O   H1  H2  O   H1  H2  O   H1  H2  O   H1  H2  O   H1  H2  O   
H1  H2  O   H1  H2  O   H1  H2  O   H1  H2  O   H1  H2  O   H1  H2  O   H1  H2  
O   H1  H2  O   H1  H2  O   H1  H2  O   H1  H2  O   H1  H2  O   H1  H2  O   H1  
H2  O   H1  H2  O   H1  H2  O   H1  H2  O   H1  H2  O   H1  H2  O   H1  H2  O   
H1  H2  O   H1  H2  O   H1  H2  O   H1  H2  O   H1  H2  O   H1  H2  O   H1  H2  
O   H1  H2  O   H1  H2  O   H1  H2  O   H1  H2  O   H1  H2  O   H1  H2  O   H1  
H2  O   H1  H2  O   H1  H2  O   H1  H2  O   H1  H2  O   H1  H2  O   H1  H2  O   
H1  H2  O   H1  H2  O   H1  H2  O   H1  H2  O   H1  H2  O   H1  H2  O   H1  H2  
O   H1  H2  O   H1  H2  O   H1  H2  O   H1  H2  O   H1  H2  O   H1  H2  O   H1  
H2  O   H1  H2  O   H1  H2  O   H1  H2  O   H1  H2  O   H1  H2  O   H1  H2  O   
H1  H2  O   H1  H2  O   H1  H2  O   H1  H2  O   H1  H2  O   H1  H2  O   H1  H2  
O   H1  H2  O   H1  H2  O   H1  H2  O   H1  H2  O   H1  H2  O   H1  H2  O   H1  
H2  O   H1  H2  O   H1  H2  O   H1  H2  O   H1  H2  O   H1  H2  O   H1  H2  O   
H1  H2  O   H1  H2  O   H1  H2  O   H1  H2  O   H1  H2  O   H1  H2  O   H1  H2  
O   H1  H2  O   H1  H2  O   H1  H2  O   H1  H2  O   H1  H2  O   H1  H2  O   H1  
H2  O   H1  H2  O   H1  H2  O   H1  H2  O   H1  H2  O   H1  H2  O   H1  H2  O   
H1  H2  O   H1  H2  O   H1  H2  O   H1  H2  O   H1  H2  O   H1  H2  O   H1  H2  
O   H1  H2  O   H1  H2  O   H1  H2  O   H1  H2  O   H1  H2  O   H1  H2  O   H1  
H2  O   H1  H2  O   H1  H2  O   H1  H2  O   H1  H2  O   H1  H2  O   H1  H2  O   
H1  H2  O   H1  H2  O   H1  H2  O   H1  H2  O   H1  H2  O   H1  H2  O   H1  H2  
O   H1  H2  O   H1  H2  O   H1  H2  O   H1  H2  O   H1  H2  O   H1  H2  O   H1  
H2  O   H1  H2  O   H1  H2  O   H1  H2  O   H1  H2  O   H1  H2  O   H1  H2  O   
H1  H2  O   H1  H2  O   H1  H2  O   H1  H2  O   H1  H2  O   H1  H2  O   H1  H2  
O   H1  H2  O   H1  H2  O   H1  H2  O   H1  H2  O   H1  H2  O   H1  H2  O   H1  
H2  O   H1  H2  O   H1  H2  O   H1  H2  O   H1  H2  O   H1  H2  O   H1  H2  O   
H1  H2  O   H1  H2  O   H1  H2  O   H1  H2  O   H1  H2  O   H1  H2  O   H1  H2  
O   H1  H2  O   H1  H2  O   H1  H2  O   H1  H2  O   H1  H2  O   H1  H2  O   H1  
H2  O   H1  H2  O   H1  H2  O   H1  H2  O   H1  H2  O   H1  H2  O   H1  H2  O   
H1  H2  O   H1  H2  O   H1  H2  O   H1  H2  O   H1  H2  O   H1  H2  O   H1  H2  
O   H1  H2  O   H1  H2  O   H1  H2  O   H1  H2  O   H1  H2  O   H1  H2  O   H1  
H2  O   H1  H2  O   H1  H2  O   H1  H2  O   H1  H2  O   H1  H2  O   H1  H2  O   
H1  H2  O   H1  H2  O   H1  H2  O   H1  H2  O   H1  H2  O   H1  H2  O   H1  H2  
O   H1  H2  O   H1  H2  O   H1  H2  O   H1  H2  O   H1  H2  O   H1  H2  O   H1  
H2  O   H1  H2  O   H1  H2  O   H1  H2  O   H1  H2  O   H1  H2  O   H1  H2  O   
H1  H2  O   H1  H2  O   H1  H2  O   H1  H2  O   H1  H2  O   H1  H2  O   H1  H2  
O   H1  H2  O   H1  H2  O   H1  H2  O   H1  H2  O   H1  H2  O   H1  H2  O   H1  
H2  O   H1  H2  O   H1  H2  O   H1  H2  O   H1  H2  O   H1  H2  O   H1  H2  O   
H1  H2  O   H1  H2  O   H1  H2  O   H1  H2  O   H1  H2  O   H1  H2  O   H1  H2  
O   H1  H2  O   H1  H2  O   H1  H2  O   H1  H2  O   H1  H2  O   H1  H2  O   H1  
H2  O   H1  H2  O   H1  H2  O   H1  H2  O   H1  H2  O   H1  H2  O   H1  H2  O   
H1  H2  O   H1  H2  O   H1  H2  O   H1  H2  O   H1  H2  O   H1  H2  O   H1  H2  
O   H1  H2  O   H1  H2  O   H1  H2  O   H1  H2  O   H1  H2  O   H1  H2  O   H1  
H2  O   H1  H2  O   H1  H2  O   H1  H2  O   H1  H2  O   H1  H2  O   H1  H2  O   
H1  H2  O   H1  H2  O   H1  H2  O   H1  H2  O   H1  H2  O   H1  H2  O   H1  H2  
O   H1  H2  O   H1  H2  O   H1  H2  O   H1  H2  O   H1  H2  O   H1  H2  O   H1  
H2  O   H1  H2  O   H1  H2  O   H1  H2  O   H1  H2  O   H1  H2  O   H1  H2  O   
H1  H2  O   H1  H2  O   H1  H2  O   H1  H2  O   H1  H2  O   H1  H2  O   H1  H2  
O   H1  H2  O   H1  H2  O   H1  H2  O   H1  H2  O   H1  H2  O   H1  H2  O   H1  
H2  O   H1  H2  O   H1  H2  O   H1  H2  O   H1  H2  O   H1  H2  O   H1  H2  O   
H1  H2  O   H1  H2  O   H1  H2  O   H1  H2  O   H1  H2  O   H1  H2  O   H1  H2  
O   H1  H2  O   H1  H2  O   H1  H2  O   H1  H2  O   H1  H2  O   H1  H2  O   H1  
H2  O   H1  H2  O   H1  H2  O   H1  H2  O   H1  H2  O   H1  H2  O   H1  H2  O   
H1  H2  O   H1  H2  O   H1  H2  O   H1  H2  O   H1  H2  O   H1  H2  O   H1  H2  
O   H1  H2  O   H1  H2  O   H1  H2  O   H1  H2  O   H1  H2  O   H1  H2  O   H1  
H2  O   H1  H2  O   H1  H2  O   H1  H2  O   H1  H2  O   H1  H2  O   H1  H2  O   
H1  H2  O   H1  H2  O   H1  H2  O   H1  H2  O   H1  H2  O   H1  H2  O   H1  H2  
O   H1  H2  O   H1  H2  O   H1  H2  O   H1  H2  O   H1  H2  O   H1  H2  O   H1  
H2  O   H1  H2  O   H1  H2  O   H1  H2  O   H1  H2  O   H1  H2  O   H1  H2  O   
H1  H2  O   H1  H2  O   H1  H2  O   H1  H2  O   H1  H2  O   H1  H2  O   H1  H2  
O   H1  H2  O   H1  H2  O   H1  H2  O   H1  H2  O   H1  H2  O   H1  H2  O   H1  
H2  O   H1  H2  O   H1  H2  O   H1  H2  O   H1  H2  O   H1  H2  O   H1  H2  O   
H1  H2  O   H1  H2  O   H1  H2  O   H1  H2  O   H1  H2  O   H1  H2  O   H1  H2  
O   H1  H2  O   H1  H2  O   H1  H2  O   H1  H2  O   H1  H2  O   H1  H2  O   H1  
H2  O   H1  H2  O   H1  H2  O   H1  H2  O   H1  H2  O   H1  H2  O   H1  H2  O   
H1  H2  O   H1  H2  O   H1  H2  O   H1  H2  O   H1  H2  O   H1  H2  O   H1  H2  
O   H1  H2  O   H1  H2  O   H1  H2  O   H1  H2  O   H1  H2  O   H1  H2  O   H1  
H2  O   H1  H2  O   H1  H2  O   H1  H2  O   H1  H2  O   H1  H2  O   H1  H2  O   
H1  H2  O   H1  H2  O   H1  H2  O   H1  H2  O   H1  H2  O   H1  H2  O   H1  H2  
O   H1  H2  O   H1  H2  O   H1  H2  O   H1  H2  O   H1  H2  O   H1  H2  O   H1  
H2  O   H1  H2  O   H1  H2  O   H1  H2  O   H1  H2  O   H1  H2  O   H1  H2  O   
H1  H2  O   H1  H2  O   H1  H2  O   H1  H2  O   H1  H2  O   H1  H2  O   H1  H2  
O   H1  H2  O   H1  H2  O   H1  H2  O   H1  H2  O   H1  H2  O   H1  H2  O   H1  
H2  O   H1  H2  O   H1  H2  O   H1  H2  O   H1  H2  O   H1  H2  O   H1  H2  O   
H1  H2  O   H1  H2  O   H1  H2  O   H1  H2  O   H1  H2  O   H1  H2  O   H1  H2  
O   H1  H2  O   H1  H2  O   H1  H2  O   H1  H2  O   H1  H2  O   H1  H2  O   H1  
H2  O   H1  H2  O   H1  H2  O   H1  H2  O   H1  H2  O   H1  H2  O   H1  H2  O   
H1  H2  O   H1  H2  O   H1  H2  O   H1  H2  O   H1  H2  O   H1  H2  O   H1  H2  
O   H1  H2  O   H1  H2  O   H1  H2  O   H1  H2  O   H1  H2  O   H1  H2  O   H1  
H2  O   H1  H2  O   H1  H2  O   H1  H2  O   H1  H2  O   H1  H2  O   H1  H2  O   
H1  H2  O   H1  H2  O   H1  H2  O   H1  H2  O   H1  H2  O   H1  H2  O   H1  H2  
O   H1  H2  O   H1  H2  O   H1  H2  O   H1  H2  O   H1  H2  O   H1  H2  O   H1  
H2  O   H1  H2  O   H1  H2  O   H1  H2  O   H1  H2  O   H1  H2  O   H1  H2  O   
H1  H2  O   H1  H2  O   H1  H2  O   H1  H2  O   H1  H2  O   H1  H2  O   H1  H2  
O   H1  H2  O   H1  H2  O   H1  H2  O   H1  H2  O   H1  H2  O   H1  H2  O   H1  
H2  O   H1  H2  O   H1  H2  O   H1  H2  O   H1  H2  O   H1  H2  O   H1  H2  O   
H1  H2  O   H1  H2  O   H1  H2  O   H1  H2  O   H1  H2  O   H1  H2  O   H1  H2  
O   H1  H2  O   H1  H2  O   H1  H2  O   H1  H2  O   H1  H2  O   H1  H2  O   H1  
H2  O   H1  H2  O   H1  H2  O   H1  H2  O   H1  H2  O   H1  H2  O   H1  H2  O   
H1  H2  O   H1  H2  O   H1  H2  O   H1  H2  O   H1  H2  O   H1  H2  O   H1  H2  
O   H1  H2  O   H1  H2  O   H1  H2  O   H1  H2  O   H1  H2  O   H1  H2  O   H1  
H2  O   H1  H2  O   H1  H2  O   H1  H2  O   H1  H2  O   H1  H2  O   H1  H2  O   
H1  H2  O   H1  H2  O   H1  H2  O   H1  H2  O   H1  H2  O   H1  H2  O   H1  H2  
O   H1  H2  O   H1  H2  O   H1  H2  O   H1  H2  O   H1  H2  O   H1  H2  O   H1  
H2  O   H1  H2  O   H1  H2  O   H1  H2  O   H1  H2  O   H1  H2  O   H1  H2  O   
H1  H2  O   H1  H2  O   H1  H2  O   H1  H2  O   H1  H2  O   H1  H2  O   H1  H2  
O   H1  H2  O   H1  H2  O   H1  H2  O   H1  H2  O   H1  H2  O   H1  H2  O   H1  
H2  O   H1  H2  O   H1  H2  O   H1  H2  O   H1  H2  O   H1  H2  O   H1  H2  O   
H1  H2  O   H1  H2  O   H1  H2  O   H1  H2  O   H1  H2  O   H1  H2  O   H1  H2  
O   H1  H2  O   H1  H2  O   H1  H2  O   H1  H2  O   H1  H2  O   H1  H2  O   H1  
H2  O   H1  H2  O   H1  H2  O   H1  H2  O   H1  H2  O   H1  H2  O   H1  H2  O   
H1  H2  O   H1  H2  O   H1  H2  O   H1  H2  O   H1  H2  O   H1  H2  O   H1  H2  
O   H1  H2  O   H1  H2  O   H1  H2  O   H1  H2  O   H1  H2  O   H1  H2  O   H1  
H2  O   H1  H2  O   H1  H2  O   H1  H2  O   H1  H2  O   H1  H2  O   H1  H2  O   
H1  H2  O   H1  H2  O   H1  H2  O   H1  H2  O   H1  H2  O   H1  H2  O   H1  H2  
O   H1  H2  O   H1  H2  O   H1  H2  O   H1  H2  O   H1  H2  O   H1  H2  O   H1  
H2  O   H1  H2  O   H1  H2  O   H1  H2  O   H1  H2  O   H1  H2  O   H1  H2  O   
H1  H2  O   H1  H2  O   H1  H2  O   H1  H2  O   H1  H2  O   H1  H2  O   H1  H2  
O   H1  H2  O   H1  H2  O   H1  H2  O   H1  H2  O   H1  H2  O   H1  H2  O   H1  
H2  O   H1  H2  O   H1  H2  O   H1  H2  O   H1  H2  O   H1  H2  O   H1  H2  O   
H1  H2  O   H1  H2  O   H1  H2  O   H1  H2  O   H1  H2  O   H1  H2  O   H1  H2  
O   H1  H2  O   H1  H2  O   H1  H2  O   H1  H2  O   H1  H2  O   H1  H2  O   H1  
H2  O   H1  H2  O   H1  H2  O   H1  H2  O   H1  H2  O   H1  H2  O   H1  H2  O   
H1  H2  O   H1  H2  O   H1  H2  O   H1  H2  O   H1  H2  O   H1  H2  O   H1  H2  
O   H1  H2  O   H1  H2  O   H1  H2  O   H1  H2  O   H1  H2  O   H1  H2  O   H1  
H2  O   H1  H2  O   H1  H2  O   H1  H2  O   H1  H2  O   H1  H2  O   H1  H2  O   
H1  H2  O   H1  H2  O   H1  H2  O   H1  H2  O   H1  H2  O   H1  H2  O   H1  H2  
O   H1  H2  O   H1  H2  O   H1  H2  O   H1  H2  O   H1  H2  O   H1  H2  O   H1  
H2  O   H1  H2  O   H1  H2  O   H1  H2  O   H1  H2  O   H1  H2  O   H1  H2  O   
H1  H2  O   H1  H2  O   H1  H2  O   H1  H2  O   H1  H2  O   H1  H2  O   H1  H2  
O   H1  H2  O   H1  H2  O   H1  H2  O   H1  H2  O   H1  H2  O   H1  H2  O   H1  
H2  O   H1  H2  O   H1  H2  O   H1  H2  O   H1  H2  O   H1  H2  O   H1  H2  O   
H1  H2  O   H1  H2  O   H1  H2  O   H1  H2  O   H1  H2  O   H1  H2  O   H1  H2  
O   H1  H2  O   H1  H2  O   H1  H2  O   H1  H2  O   H1  H2  O   H1  H2  O   H1  
H2  O   H1  H2  O   H1  H2  O   H1  H2  O   H1  H2  O   H1  H2  O   H1  H2  O   
H1  H2  O   H1  H2  O   H1  H2  O   H1  H2  O   H1  H2  O   H1  H2  O   H1  H2  
O   H1  H2  O   H1  H2  O   H1  H2  O   H1  H2  O   H1  H2  O   H1  H2  O   H1  
H2  O   H1  H2  O   H1  H2  O   H1  H2  O   H1  H2  O   H1  H2  O   H1  H2  O   
H1  H2  O   H1  H2  O   H1  H2  O   H1  H2  O   H1  H2  O   H1  H2  O   H1  H2  
O   H1  H2  O   H1  H2  O   H1  H2  O   H1  H2  O   H1  H2  O   H1  H2  O   H1  
H2  O   H1  H2  O   H1  H2  O   H1  H2  O   H1  H2  O   H1  H2  O   H1  H2  O   
H1  H2  O   H1  H2  O   H1  H2  O   H1  H2  O   H1  H2  O   H1  H2  O   H1  H2  
O   H1  H2  O   H1  H2  O   H1  H2  O   H1  H2  O   H1  H2  O   H1  H2  O   H1  
H2  O   H1  H2  O   H1  H2  O   H1  H2  O   H1  H2  O   H1  H2  O   H1  H2  O   
H1  H2  O   H1  H2  O   H1  H2  O   H1  H2  O   H1  H2  O   H1  H2  O   H1  H2  
O   H1  H2  O   H1  H2  O   H1  H2  O   H1  H2  O   H1  H2  O   H1  H2  O   H1  
H2  O   H1  H2  O   H1  H2  O   H1  H2  O   H1  H2  O   H1  H2  O   H1  H2  O   
H1  H2  O   H1  H2  O   H1  H2  O   H1  H2  O   H1  H2  O   H1  H2  O   H1  H2  
O   H1  H2  O   H1  H2  O   H1  H2  O   H1  H2  O   H1  H2  O   H1  H2  O   H1  
H2  O   H1  H2  O   H1  H2  O   H1  H2  O   H1  H2  O   H1  H2  O   H1  H2  O   
H1  H2  O   H1  H2  O   H1  H2  O   H1  H2  O   H1  H2  O   H1  H2  O   H1  H2  
O   H1  H2  O   H1  H2  O   H1  H2  O   H1  H2  O   H1  H2  O   H1  H2  O   H1  
H2  O   H1  H2  O   H1  H2  O   H1  H2  O   H1  H2  O   H1  H2  O   H1  H2  O   
H1  H2  O   H1  H2  O   H1  H2  O   H1  H2  O   H1  H2  O   H1  H2  O   H1  H2  
O   H1  H2  O   H1  H2  O   H1  H2  O   H1  H2  O   H1  H2  O   H1  H2  O   H1  
H2  O   H1  H2  O   H1  H2  O   H1  H2  O   H1  H2  O   H1  H2  O   H1  H2  O   
H1  H2  O   H1  H2  O   H1  H2  O   H1  H2  O   H1  H2  O   H1  H2  O   H1  H2  
O   H1  H2  O   H1  H2  O   H1  H2  O   H1  H2  O   H1  H2  O   H1  H2  O   H1  
H2  O   H1  H2  O   H1  H2  O   H1  H2  O   H1  H2  O   H1  H2  O   H1  H2  O   
H1  H2  O   H1  H2  O   H1  H2  O   H1  H2  O   H1  H2  O   H1  H2  O   H1  H2  
O   H1  H2  O   H1  H2  O   H1  H2  O   H1  H2  O   H1  H2  O   H1  H2  O   H1  
H2  O   H1  H2  O   H1  H2  O   H1  H2  O   H1  H2  O   H1  H2  O   H1  H2  O   
H1  H2  O   H1  H2  O   H1  H2  O   H1  H2  O   H1  H2  O   H1  H2  O   H1  H2  
O   H1  H2  O   H1  H2  O   H1  H2  O   H1  H2  O   H1  H2  O   H1  H2  O   H1  
H2  O   H1  H2  O   H1  H2  O   H1  H2  O   H1  H2  O   H1  H2  O   H1  H2  O   
H1  H2  O   H1  H2  O   H1  H2  O   H1  H2  O   H1  H2  O   H1  H2  O   H1  H2  
O   H1  H2  O   H1  H2  O   H1  H2  O   H1  H2  O   H1  H2  O   H1  H2  O   H1  
H2  O   H1  H2  O   H1  H2  O   H1  H2  O   H1  H2  O   H1  H2  O   H1  H2  O   
H1  H2  O   H1  H2  O   H1  H2  O   H1  H2  O   H1  H2  O   H1  H2  O   H1  H2  
O   H1  H2  O   H1  H2  O   H1  H2  O   H1  H2  O   H1  H2  O   H1  H2  O   H1  
H2  O   H1  H2  O   H1  H2  O   H1  H2  O   H1  H2  O   H1  H2  O   H1  H2  O   
H1  H2  O   H1  H2  O   H1  H2  O   H1  H2  O   H1  H2  O   H1  H2  O   H1  H2  
O   H1  H2  O   H1  H2  O   H1  H2  O   H1  H2  O   H1  H2  O   H1  H2  O   H1  
H2  O   H1  H2  O   H1  H2  O   H1  H2  O   H1  H2  O   H1  H2  O   H1  H2  O   
H1  H2  O   H1  H2  O   H1  H2  O   H1  H2  O   H1  H2  O   H1  H2  O   H1  H2  
O   H1  H2  O   H1  H2  O   H1  H2  O   H1  H2  O   H1  H2  O   H1  H2  O   H1  
H2  O   H1  H2  O   H1  H2  O   H1  H2  O   H1  H2  O   H1  H2  O   H1  H2  O   
H1  H2  O   H1  H2  O   H1  H2  O   H1  H2  O   H1  H2  O   H1  H2  O   H1  H2  
O   H1  H2  O   H1  H2  O   H1  H2  O   H1  H2  O   H1  H2  O   H1  H2  O   H1  
H2  O   H1  H2  O   H1  H2  O   H1  H2  O   H1  H2  O   H1  H2  O   H1  H2  O   
H1  H2  O   H1  H2  O   H1  H2  O   H1  H2  O   H1  H2  O   H1  H2  O   H1  H2  
O   H1  H2  O   H1  H2  O   H1  H2  O   H1  H2  O   H1  H2  O   H1  H2  O   H1  
H2  O   H1  H2  O   H1  H2  O   H1  H2  O   H1  H2  O   H1  H2  O   H1  H2  O   
H1  H2  O   H1  H2  O   H1  H2  O   H1  H2  O   H1  H2  O   H1  H2  O   H1  H2  
O   H1  H2  O   H1  H2  O   H1  H2  O   H1  H2  O   H1  H2  O   H1  H2  O   H1  
H2  O   H1  H2  O   H1  H2  O   H1  H2  O   H1  H2  O   H1  H2  O   H1  H2  O   
H1  H2  O   H1  H2  O   H1  H2  O   H1  H2  O   H1  H2  O   H1  H2  O   H1  H2  
O   H1  H2  O   H1  H2  O   H1  H2  O   H1  H2  O   H1  H2  O   H1  H2  O   H1  
H2  O   H1  H2  O   H1  H2  O   H1  H2  O   H1  H2  O   H1  H2  O   H1  H2  O   
H1  H2  O   H1  H2  O   H1  H2  O   H1  H2  O   H1  H2  O   H1  H2  O   H1  H2  
O   H1  H2  O   H1  H2  O   H1  H2  O   H1  H2  O   H1  H2  O   H1  H2  O   H1  
H2  O   H1  H2  O   H1  H2  O   H1  H2  O   H1  H2  O   H1  H2  O   H1  H2  O   
H1  H2  O   H1  H2  O   H1  H2  O   H1  H2  O   H1  H2  O   H1  H2  O   H1  H2  
O   H1  H2  O   H1  H2  O   H1  H2  O   H1  H2  O   H1  H2  O   H1  H2  O   H1  
H2  O   H1  H2  O   H1  H2  O   H1  H2  O   H1  H2  O   H1  H2  O   H1  H2  O   
H1  H2  O   H1  H2  O   H1  H2  O   H1  H2  O   H1  H2  O   H1  H2  O   H1  H2  
O   H1  H2  O   H1  H2  O   H1  H2  O   H1  H2  O   H1  H2  O   H1  H2  O   H1  
H2  O   H1  H2  O   H1  H2  O   H1  H2  O   H1  H2  O   H1  H2  O   H1  H2  O   
H1  H2  O   H1  H2  O   H1  H2  O   H1  H2  O   H1  H2  O   H1  H2  O   H1  H2  
O   H1  H2  O   H1  H2  O   H1  H2  O   H1  H2  O   H1  H2  O   H1  H2  O   H1  
H2  O   H1  H2  O   H1  H2  O   H1  H2  O   H1  H2  O   H1  H2  O   H1  H2  O   
H1  H2  O   H1  H2  O   H1  H2  O   H1  H2  O   H1  H2  O   H1  H2  O   H1  H2  
O   H1  H2  O   H1  H2  O   H1  H2  O   H1  H2  O   H1  H2  O   H1  H2  O   H1  
H2  O   H1  H2  O   H1  H2  O   H1  H2  O   H1  H2  O   H1  H2  O   H1  H2  O   
H1  H2  O   H1  H2  O   H1  H2  O   H1  H2  O   H1  H2  O   H1  H2  O   H1  H2  
O   H1  H2  O   H1  H2  O   H1  H2  O   H1  H2  O   H1  H2  O   H1  H2  O   H1  
H2  O   H1  H2  O   H1  H2  O   H1  H2  O   H1  H2  O   H1  H2  O   H1  H2  O   
H1  H2  O   H1  H2  O   H1  H2  O   H1  H2  O   H1  H2  O   H1  H2  O   H1  H2  
O   H1  H2  O   H1  H2  O   H1  H2  O   H1  H2  O   H1  H2  O   H1  H2  O   H1  
H2  O   H1  H2  O   H1  H2  O   H1  H2  O   H1  H2  O   H1  H2  O   H1  H2  O   
H1  H2  O   H1  H2  O   H1  H2  O   H1  H2  O   H1  H2  O   H1  H2  O   H1  H2  
O   H1  H2  O   H1  H2  O   H1  H2  O   H1  H2  O   H1  H2  O   H1  H2  O   H1  
H2  O   H1  H2  O   H1  H2  O   H1  H2  O   H1  H2  O   H1  H2  O   H1  H2  O   
H1  H2  O   H1  H2  O   H1  H2  O   H1  H2  O   H1  H2  O   H1  H2  O   H1  H2  
O   H1  H2  O   H1  H2  O   H1  H2  O   H1  H2  O   H1  H2  O   H1  H2  O   H1  
H2  O   H1  H2  O   H1  H2  O   H1  H2  O   H1  H2  O   H1  H2  O   H1  H2  O   
H1  H2  O   H1  H2  O   H1  H2  O   H1  H2  O   H1  H2  O   H1  H2  O   H1  H2  
O   H1  H2  O   H1  H2  O   H1  H2  O   H1  H2  O   H1  H2  O   H1  H2  O   H1  
H2  O   H1  H2  O   H1  H2  O   H1  H2  O   H1  H2  O   H1  H2  O   H1  H2  O   
H1  H2  O   H1  H2  O   H1  H2  O   H1  H2  O   H1  H2  O   H1  H2  O   H1  H2  
O   H1  H2  O   H1  H2  O   H1  H2  O   H1  H2  O   H1  H2  O   H1  H2  O   H1  
H2  O   H1  H2  O   H1  H2  O   H1  H2  O   H1  H2  O   H1  H2  O   H1  H2  O   
H1  H2  O   H1  H2  O   H1  H2  O   H1  H2  O   H1  H2  O   H1  H2  O   H1  H2  
O   H1  H2  O   H1  H2  O   H1  H2  O   H1  H2  O   H1  H2  O   H1  H2  O   H1  
H2  O   H1  H2  O   H1  H2  O   H1  H2  O   H1  H2  O   H1  H2  O   H1  H2  O   
H1  H2  O   H1  H2  O   H1  H2  O   H1  H2  O   H1  H2  O   H1  H2  O   H1  H2  
O   H1  H2  O   H1  H2  O   H1  H2  O   H1  H2  O   H1  H2  O   H1  H2  O   H1  
H2  O   H1  H2  O   H1  H2  O   H1  H2  O   H1  H2  O   H1  H2  O   H1  H2  O   
H1  H2  O   H1  H2  O   H1  H2  O   H1  H2  O   H1  H2  O   H1  H2  O   H1  H2  
O   H1  H2  O   H1  H2  O   H1  H2  O   H1  H2  O   H1  H2  O   H1  H2  O   H1  
H2  O   H1  H2  O   H1  H2  O   H1  H2  O   H1  H2  O   H1  H2  O   H1  H2  O   
H1  H2  O   H1  H2  O   H1  H2  O   H1  H2  O   H1  H2  O   H1  H2  O   H1  H2  
O   H1  H2  O   H1  H2  O   H1  H2  O   H1  H2  O   H1  H2  O   H1  H2  O   H1  
H2  O   H1  H2  O   H1  H2  O   H1  H2  O   H1  H2  O   H1  H2  O   H1  H2  O   
H1  H2  O   H1  H2  O   H1  H2  O   H1  H2  O   H1  H2  O   H1  H2  O   H1  H2  
O   H1  H2  O   H1  H2  O   H1  H2  O   H1  H2  O   H1  H2  O   H1  H2  O   H1  
H2  O   H1  H2  O   H1  H2  O   H1  H2  O   H1  H2  O   H1  H2  O   H1  H2  O   
H1  H2  O   H1  H2  O   H1  H2  O   H1  H2  O   H1  H2  O   H1  H2  O   H1  H2  
O   H1  H2  O   H1  H2  O   H1  H2  O   H1  H2  O   H1  H2  O   H1  H2  O   H1  
H2  O   H1  H2  O   H1  H2  O   H1  H2  O   H1  H2  O   H1  H2  O   H1  H2  O   
H1  H2  O   H1  H2  O   H1  H2  O   H1  H2  O   H1  H2  O   H1  H2  O   H1  H2  
O   H1  H2  O   H1  H2  O   H1  H2  O   H1  H2  O   H1  H2  O   H1  H2  O   H1  
H2  O   H1  H2  O   H1  H2  O   H1  H2  O   H1  H2  O   H1  H2  O   H1  H2  O   
H1  H2  O   H1  H2  O   H1  H2  O   H1  H2  O   H1  H2  O   H1  H2  O   H1  H2  
O   H1  H2  O   H1  H2  O   H1  H2  O   H1  H2  O   H1  H2  O   H1  H2  O   H1  
H2  O   H1  H2  O   H1  H2  O   H1  H2  O   H1  H2  O   H1  H2  O   H1  H2  O   
H1  H2  O   H1  H2  O   H1  H2  O   H1  H2  O   H1  H2  O   H1  H2  O   H1  H2  
O   H1  H2  O   H1  H2  O   H1  H2  O   H1  H2  O   H1  H2  O   H1  H2  O   H1  
H2  O   H1  H2  O   H1  H2  O   H1  H2  O   H1  H2  O   H1  H2  O   H1  H2  O   
H1  H2  O   H1  H2  O   H1  H2  O   H1  H2  O   H1  H2  O   H1  H2  O   H1  H2  
O   H1  H2  O   H1  H2  O   H1  H2  O   H1  H2  O   H1  H2  O   H1  H2  O   H1  
H2  O   H1  H2  O   H1  H2  O   H1  H2  O   H1  H2  O   H1  H2  O   H1  H2  O   
H1  H2  O   H1  H2  O   H1  H2  O   H1  H2  O   H1  H2  O   H1  H2  O   H1  H2  
O   H1  H2  O   H1  H2  O   H1  H2  O   H1  H2  O   H1  H2  O   H1  H2  O   H1  
H2  O   H1  H2  O   H1  H2  O   H1  H2  O   H1  H2  O   H1  H2  O   H1  H2  O   
H1  H2  O   H1  H2  O   H1  H2  O   H1  H2  O   H1  H2  O   H1  H2  O   H1  H2  
O   H1  H2  O   H1  H2  O   H1  H2  O   H1  H2  O   H1  H2  O   H1  H2  O   H1  
H2  O   H1  H2  O   H1  H2  O   H1  H2  O   H1  H2  O   H1  H2  O   H1  H2  O   
H1  H2  O   H1  H2  O   H1  H2  O   H1  H2  O   H1  H2  O   H1  H2  O   H1  H2  
O   H1  H2  O   H1  H2  O   H1  H2  O   H1  H2  O   H1  H2  O   H1  H2  O   H1  
H2  O   H1  H2  O   H1  H2  O   H1  H2  O   H1  H2  O   H1  H2  O   H1  H2  O   
H1  H2  O   H1  H2  O   H1  H2  O   H1  H2  O   H1  H2  O   H1  H2  O   H1  H2  
O   H1  H2  O   H1  H2  O   H1  H2  O   H1  H2  O   H1  H2  O   H1  H2  O   H1  
H2  O   H1  H2  O   H1  H2  O   H1  H2  O   H1  H2  O   H1  H2  O   H1  H2  O   
H1  H2  O   H1  H2  O   H1  H2  O   H1  H2  O   H1  H2  O   H1  H2  O   H1  H2  
O   H1  H2  O   H1  H2  O   H1  H2  O   H1  H2  O   H1  H2  O   H1  H2  O   H1  
H2  O   H1  H2  O   H1  H2  O   H1  H2  O   H1  H2  O   H1  H2  O   H1  H2  O   
H1  H2  O   H1  H2  O   H1  H2  O   H1  H2  O   H1  H2  O   H1  H2  O   H1  H2  
O   H1  H2  O   H1  H2  O   H1  H2  O   H1  H2  O   H1  H2  O   H1  H2  O   H1  
H2  O   H1  H2  O   H1  H2  O   H1  H2  O   H1  H2  O   H1  H2  O   H1  H2  O   
H1  H2  O   H1  H2  O   H1  H2  O   H1  H2  O   H1  H2  O   H1  H2  O   H1  H2  
O   H1  H2  O   H1  H2  O   H1  H2  O   H1  H2  O   H1  H2  O   H1  H2  O   H1  
H2  O   H1  H2  O   H1  H2  O   H1  H2  O   H1  H2  O   H1  H2  O   H1  H2  O   
H1  H2  O   H1  H2  O   H1  H2  O   H1  H2  O   H1  H2  O   H1  H2  O   H1  H2  
O   H1  H2  O   H1  H2  O   H1  H2  O   H1  H2  O   H1  H2  O   H1  H2  O   H1  
H2  O   H1  H2  O   H1  H2  O   H1  H2  O   H1  H2  O   H1  H2  O   H1  H2  O   
H1  H2  O   H1  H2  O   H1  H2  O   H1  H2  O   H1  H2  O   H1  H2  O   H1  H2  
O   H1  H2  O   H1  H2  O   H1  H2  O   H1  H2  O   H1  H2  O   H1  H2  O   H1  
H2  O   H1  H2  O   H1  H2  O   H1  H2  O   H1  H2  O   H1  H2  O   H1  H2  O   
H1  H2  O   H1  H2  O   H1  H2  O   H1  H2  O   H1  H2  O   H1  H2  O   H1  H2  
O   H1  H2  O   H1  H2  O   H1  H2  O   H1  H2  O   H1  H2  O   H1  H2  O   H1  
H2  O   H1  H2  O   H1  H2  O   H1  H2  O   H1  H2  O   H1  H2  O   H1  H2  O   
H1  H2  O   H1  H2  O   H1  H2  O   H1  H2  O   H1  H2  O   H1  H2  O   H1  H2  
O   H1  H2  O   H1  H2  O   H1  H2  O   H1  H2  O   H1  H2  O   H1  H2  O   H1  
H2  O   H1  H2  O   H1  H2  O   H1  H2  O   H1  H2  O   H1  H2  O   H1  H2  O   
H1  H2  O   H1  H2  O   H1  H2  O   H1  H2  O   H1  H2  O   H1  H2  O   H1  H2  
O   H1  H2  O   H1  H2  O   H1  H2  O   H1  H2  O   H1  H2  O   H1  H2  O   H1  
H2  O   H1  H2  O   H1  H2  O   H1  H2  O   H1  H2  O   H1  H2  O   H1  H2  O   
H1  H2  O   H1  H2  O   H1  H2  O   H1  H2  O   H1  H2  O   H1  H2  O   H1  H2  
O   H1  H2  O   H1  H2  O   H1  H2  O   H1  H2  O   H1  H2  O   H1  H2  O   H1  
H2  O   H1  H2  O   H1  H2  O   H1  H2  O   H1  H2  O   H1  H2  O   H1  H2  O   
H1  H2  O   H1  H2  O   H1  H2  O   H1  H2  O   H1  H2  O   H1  H2  O   H1  H2  
O   H1  H2  O   H1  H2  O   H1  H2  O   H1  H2  O   H1  H2  O   H1  H2  O   H1  
H2  O   H1  H2  O   H1  H2  O   H1  H2  O   H1  H2  O   H1  H2  O   H1  H2  O   
H1  H2  O   H1  H2  O   H1  H2  O   H1  H2  O   H1  H2  O   H1  H2  O   H1  H2  
O   H1  H2  O   H1  H2  O   H1  H2  O   H1  H2  O   H1  H2  O   H1  H2  O   H1  
H2  O   H1  H2  O   H1  H2  O   H1  H2  O   H1  H2  O   H1  H2  O   H1  H2  O   
H1  H2  O   H1  H2  O   H1  H2  O   H1  H2  O   H1  H2  O   H1  H2  O   H1  H2  
O   H1  H2  O   H1  H2  O   H1  H2  O   H1  H2  O   H1  H2  O   H1  H2  O   H1  
H2  O   H1  H2  O   H1  H2  O   H1  H2  O   H1  H2  O   H1  H2  O   H1  H2  O   
H1  H2  O   H1  H2  O   H1  H2  O   H1  H2  O   H1  H2  O   H1  H2  O   H1  H2  
O   H1  H2  O   H1  H2  O   H1  H2  O   H1  H2  O   H1  H2  O   H1  H2  O   H1  
H2  O   H1  H2  O   H1  H2  O   H1  H2  O   H1  H2  O   H1  H2  O   H1  H2  O   
H1  H2  O   H1  H2  O   H1  H2  O   H1  H2  O   H1  H2  O   H1  H2  O   H1  H2  
O   H1  H2  O   H1  H2  O   H1  H2  O   H1  H2  O   H1  H2  O   H1  H2  O   H1  
H2  O   H1  H2  O   H1  H2  O   H1  H2  O   H1  H2  O   H1  H2  O   H1  H2  O   
H1  H2  O   H1  H2  O   H1  H2  O   H1  H2  O   H1  H2  O   H1  H2  O   H1  H2  
O   H1  H2  O   H1  H2  O   H1  H2  O   H1  H2  O   H1  H2  O   H1  H2  O   H1  
H2  O   H1  H2  O   H1  H2  O   H1  H2  O   H1  H2  O   H1  H2  O   H1  H2  O   
H1  H2  O   H1  H2  O   H1  H2  O   H1  H2  O   H1  H2  O   H1  H2  O   H1  H2  
O   H1  H2  O   H1  H2  O   H1  H2  O   H1  H2  O   H1  H2  O   H1  H2  O   H1  
H2  O   H1  H2  O   H1  H2  O   H1  H2  O   H1  H2  O   H1  H2  O   H1  H2  O   
H1  H2  O   H1  H2  O   H1  H2  O   H1  H2  O   H1  H2  O   H1  H2  O   H1  H2  
O   H1  H2  O   H1  H2  O   H1  H2  O   H1  H2  O   H1  H2  O   H1  H2  O   H1  
H2  O   H1  H2  O   H1  H2  O   H1  H2  O   H1  H2  O   H1  H2  O   H1  H2  O   
H1  H2  O   H1  H2  O   H1  H2  O   H1  H2  O   H1  H2  O   H1  H2  O   H1  H2  
O   H1  H2  O   H1  H2  O   H1  H2  O   H1  H2  O   H1  H2  O   H1  H2  O   H1  
H2  O   H1  H2  O   H1  H2  O   H1  H2  O   H1  H2  O   H1  H2  O   H1  H2  O   
H1  H2  O   H1  H2  O   H1  H2  O   H1  H2  O   H1  H2  O   H1  H2  O   H1  H2  
O   H1  H2  O   H1  H2  O   H1  H2  O   H1  H2  O   H1  H2  O   H1  H2  O   H1  
H2  O   H1  H2  O   H1  H2  O   H1  H2  O   H1  H2  O   H1  H2  O   H1  H2  O   
H1  H2  O   H1  H2  O   H1  H2  O   H1  H2  O   H1  H2  O   H1  H2  O   H1  H2  
O   H1  H2  O   H1  H2  O   H1  H2  O   H1  H2  O   H1  H2  O   H1  H2  O   H1  
H2  O   H1  H2  O   H1  H2  O   H1  H2  O   H1  H2  O   H1  H2  O   H1  H2  O   
H1  H2  O   H1  H2  O   H1  H2  O   H1  H2  O   H1  H2  O   H1  H2  O   H1  H2  
O   H1  H2  O   H1  H2  O   H1  H2  O   H1  H2  O   H1  H2  O   H1  H2  O   H1  
H2  O   H1  H2  O   H1  H2  O   H1  H2  O   H1  H2  O   H1  H2  O   H1  H2  O   
H1  H2  O   H1  H2  O   H1  H2  O   H1  H2  O   H1  H2  O   H1  H2  O   H1  H2  
O   H1  H2  O   H1  H2  O   H1  H2  O   H1  H2  O   H1  H2  O   H1  H2  O   H1  
H2  O   H1  H2  O   H1  H2  O   H1  H2  O   H1  H2  O   H1  H2  O   H1  H2  O   
H1  H2  O   H1  H2  O   H1  H2  O   H1  H2  O   H1  H2  O   H1  H2  O   H1  H2  
O   H1  H2  O   H1  H2  O   H1  H2  O   H1  H2  O   H1  H2  O   H1  H2  O   H1  
H2  O   H1  H2  O   H1  H2  O   H1  H2  O   H1  H2  O   H1  H2  O   H1  H2  O   
H1  H2  O   H1  H2  O   H1  H2  O   H1  H2  O   H1  H2  O   H1  H2  O   H1  H2  
O   H1  H2  O   H1  H2  O   H1  H2  O   H1  H2  O   H1  H2  O   H1  H2  O   H1  
H2  O   H1  H2  O   H1  H2  O   H1  H2  O   H1  H2  O   H1  H2  O   H1  H2  O   
H1  H2  O   H1  H2  O   H1  H2  O   H1  H2  O   H1  H2  O   H1  H2  O   H1  H2  
O   H1  H2  O   H1  H2  O   H1  H2  O   H1  H2  O   H1  H2  O   H1  H2  O   H1  
H2  O   H1  H2  O   H1  H2  O   H1  H2  O   H1  H2  O   H1  H2  O   H1  H2  O   
H1  H2  O   H1  H2  O   H1  H2  O   H1  H2  O   H1  H2  O   H1  H2  O   H1  H2  
O   H1  H2  O   H1  H2  O   H1  H2  O   H1  H2  O   H1  H2  O   H1  H2  O   H1  
H2  O   H1  H2  O   H1  H2  O   H1  H2  O   H1  H2  O   H1  H2  O   H1  H2  O   
H1  H2  O   H1  H2  O   H1  H2  O   H1  H2  O   H1  H2  O   H1  H2  O   H1  H2  
O   H1  H2  O   H1  H2  O   H1  H2  O   H1  H2  O   H1  H2  O   H1  H2  O   H1  
H2  O   H1  H2  O   H1  H2  O   H1  H2  O   H1  H2  O   H1  H2  O   H1  H2  O   
H1  H2  O   H1  H2  O   H1  H2  O   H1  H2  O   H1  H2  O   H1  H2  O   H1  H2  
O   H1  H2  O   H1  H2  O   H1  H2  O   H1  H2  O   H1  H2  O   H1  H2  O   H1  
H2  O   H1  H2  O   H1  H2  O   H1  H2  O   H1  H2  O   H1  H2  O   H1  H2  O   
H1  H2  O   H1  H2  O   H1  H2  O   H1  H2  O   H1  H2  O   H1  H2  O   H1  H2  
O   H1  H2  O   H1  H2  O   H1  H2  O   H1  H2  O   H1  H2  O   H1  H2  O   H1  
H2  O   H1  H2  O   H1  H2  O   H1  H2  O   H1  H2  O   H1  H2  O   H1  H2  O   
H1  H2  O   H1  H2  O   H1  H2  O   H1  H2  O   H1  H2  O   H1  H2  O   H1  H2  
O   H1  H2  O   H1  H2  O   H1  H2  O   H1  H2  O   H1  H2  O   H1  H2  O   H1  
H2  O   H1  H2  O   H1  H2  O   H1  H2  O   H1  H2  O   H1  H2  O   H1  H2  O   
H1  H2  O   H1  H2  O   H1  H2  O   H1  H2  O   H1  H2  O   H1  H2  O   H1  H2  
O   H1  H2  O   H1  H2  O   H1  H2  O   H1  H2  O   H1  H2  O   H1  H2  O   H1  
H2  O   H1  H2  O   H1  H2  O   H1  H2  O   H1  H2  O   H1  H2  O   H1  H2  O   
H1  H2  O   H1  H2  O   H1  H2  O   H1  H2  O   H1  H2  O   H1  H2  O   H1  H2  
O   H1  H2  O   H1  H2  O   H1  H2  O   H1  H2  O   H1  H2  O   H1  H2  O   H1  
H2  O   H1  H2  O   H1  H2  O   H1  H2  O   H1  H2  O   H1  H2  O   H1  H2  O   
H1  H2  O   H1  H2  O   H1  H2  O   H1  H2  O   H1  H2  O   H1  H2  O   H1  H2  
O   H1  H2  O   H1  H2  O   H1  H2  O   H1  H2  O   H1  H2  O   H1  H2  O   H1  
H2  O   H1  H2  O   H1  H2  O   H1  H2  O   H1  H2  O   H1  H2  O   H1  H2  O   
H1  H2  O   H1  H2  O   H1  H2  O   H1  H2  O   H1  H2  O   H1  H2  O   H1  H2  
O   H1  H2  O   H1  H2  O   H1  H2  O   H1  H2  O   H1  H2  O   H1  H2  O   H1  
H2  O   H1  H2  O   H1  H2  O   H1  H2  O   H1  H2  O   H1  H2  O   H1  H2  O   
H1  H2  O   H1  H2  O   H1  H2  O   H1  H2  O   H1  H2  O   H1  H2  O   H1  H2  
O   H1  H2  O   H1  H2  O   H1  H2  O   H1  H2  O   H1  H2  O   H1  H2  O   H1  
H2  O   H1  H2  O   H1  H2  O   H1  H2  O   H1  H2  O   H1  H2  O   H1  H2  O   
H1  H2  O   H1  H2  O   H1  H2  O   H1  H2  O   H1  H2  O   H1  H2  O   H1  H2  
O   H1  H2  O   H1  H2  O   H1  H2  O   H1  H2  O   H1  H2  O   H1  H2  O   H1  
H2  O   H1  H2  O   H1  H2  O   H1  H2  O   H1  H2  O   H1  H2  O   H1  H2  O   
H1  H2  O   H1  H2  O   H1  H2  O   H1  H2  O   H1  H2  O   H1  H2  O   H1  H2  
O   H1  H2  O   H1  H2  O   H1  H2  O   H1  H2  O   H1  H2  O   H1  H2  O   H1  
H2  O   H1  H2  O   H1  H2  O   H1  H2  O   H1  H2  O   H1  H2  O   H1  H2  O   
H1  H2  O   H1  H2  O   H1  H2  O   H1  H2  O   H1  H2  O   H1  H2  O   H1  H2  
O   H1  H2  O   H1  H2  O   H1  H2  O   H1  H2  O   H1  H2  O   H1  H2  O   H1  
H2  O   H1  H2  O   H1  H2  O   H1  H2  O   H1  H2  O   H1  H2  O   H1  H2  O   
H1  H2  O   H1  H2  O   H1  H2  O   H1  H2  O   H1  H2  O   H1  H2  O   H1  H2  
O   H1  H2  O   H1  H2  O   H1  H2  O   H1  H2  O   H1  H2  O   H1  H2  O   H1  
H2  O   H1  H2  O   H1  H2  O   H1  H2  O   H1  H2  O   H1  H2  O   H1  H2  O   
H1  H2  O   H1  H2  O   H1  H2  O   H1  H2  O   H1  H2  O   H1  H2  O   H1  H2  
O   H1  H2  O   H1  H2  O   H1  H2  O   H1  H2  O   H1  H2  O   H1  H2  O   H1  
H2  O   H1  H2  O   H1  H2  O   H1  H2  O   H1  H2  O   H1  H2  O   H1  H2  O   
H1  H2  O   H1  H2  O   H1  H2  O   H1  H2  O   H1  H2  O   H1  H2  O   H1  H2  
O   H1  H2  O   H1  H2  O   H1  H2  O   H1  H2  O   H1  H2  O   H1  H2  O   H1  
H2  O   H1  H2  O   H1  H2  O   H1  H2  O   H1  H2  O   H1  H2  O   H1  H2  O   
H1  H2  O   H1  H2  O   H1  H2  O   H1  H2  O   H1  H2  O   H1  H2  O   H1  H2  
O   H1  H2  O   H1  H2  O   H1  H2  O   H1  H2  O   H1  H2  O   H1  H2  O   H1  
H2  O   H1  H2  O   H1  H2  O   H1  H2  O   H1  H2  O   H1  H2  O   H1  H2  O   
H1  H2  O   H1  H2  O   H1  H2  O   H1  H2  O   H1  H2  O   H1  H2  O   H1  H2  
O   H1  H2  O   H1  H2  O   H1  H2  O   H1  H2  O   H1  H2  O   H1  H2  O   H1  
H2  O   H1  H2  O   H1  H2  O   H1  H2  O   H1  H2  O   H1  H2  O   H1  H2  O   
H1  H2  O   H1  H2  O   H1  H2  O   H1  H2  O   H1  H2  O   H1  H2  O   H1  H2  
O   H1  H2  O   H1  H2  O   H1  H2  O   H1  H2  O   H1  H2  O   H1  H2  O   H1  
H2  O   H1  H2  O   H1  H2  O   H1  H2  O   H1  H2  O   H1  H2  O   H1  H2  O   
H1  H2  O   H1  H2  O   H1  H2  O   H1  H2  O   H1  H2  O   H1  H2  O   H1  H2  
O   H1  H2  O   H1  H2  O   H1  H2  O   H1  H2  O   H1  H2  O   H1  H2  O   H1  
H2  O   H1  H2  O   H1  H2  O   H1  H2  O   H1  H2  O   H1  H2  O   H1  H2  O   
H1  H2  O   H1  H2  O   H1  H2  O   H1  H2  O   H1  H2  O   H1  H2  O   H1  H2  
O   H1  H2  O   H1  H2  O   H1  H2  O   H1  H2  O   H1  H2  O   H1  H2  O   H1  
H2  O   H1  H2  O   H1  H2  O   H1  H2  O   H1  H2  O   H1  H2  O   H1  H2  O   
H1  H2  O   H1  H2  O   H1  H2  O   H1  H2  O   H1  H2  O   H1  H2  O   H1  H2  
O   H1  H2  O   H1  H2  O   H1  H2  O   H1  H2  O   H1  H2  O   H1  H2  O   H1  
H2  O   H1  H2  O   H1  H2  O   H1  H2  O   H1  H2  O   H1  H2  O   H1  H2  O   
H1  H2  O   H1  H2  O   H1  H2  O   H1  H2  O   H1  H2  O   H1  H2  O   H1  H2  
O   H1  H2  O   H1  H2  O   H1  H2  O   H1  H2  O   H1  H2  O   H1  H2  O   H1  
H2  O   H1  H2  O   H1  H2  O   H1  H2  O   H1  H2  O   H1  H2  O   H1  H2  O   
H1  H2  O   H1  H2  O   H1  H2  O   H1  H2  O   H1  H2  O   H1  H2  O   H1  H2  
O   H1  H2  O   H1  H2  O   H1  H2  O   H1  H2  O   H1  H2  O   H1  H2  O   H1  
H2  O   H1  H2  O   H1  H2  O   H1  H2  O   H1  H2  O   H1  H2  O   H1  H2  O   
H1  H2  O   H1  H2  O   H1  H2  O   H1  H2  O   H1  H2  O   H1  H2  O   H1  H2  
O   H1  H2  O   H1  H2  O   H1  H2  O   H1  H2  O   H1  H2  O   H1  H2  O   H1  
H2  O   H1  H2  O   H1  H2  O   H1  H2  O   H1  H2  O   H1  H2  O   H1  H2  O   
H1  H2  O   H1  H2  O   H1  H2  O   H1  H2  O   H1  H2  O   H1  H2  O   H1  H2  
O   H1  H2  O   H1  H2  O   H1  H2  O   H1  H2  O   H1  H2  O   H1  H2  O   H1  
H2  O   H1  H2  O   H1  H2  O   H1  H2  O   H1  H2  O   H1  H2  O   H1  H2  O   
H1  H2  O   H1  H2  O   H1  H2  O   H1  H2  O   H1  H2  O   H1  H2  O   H1  H2  
O   H1  H2  O   H1  H2  O   H1  H2  O   H1  H2  O   H1  H2  O   H1  H2  O   H1  
H2  O   H1  H2  O   H1  H2  O   H1  H2  O   H1  H2  O   H1  H2  O   H1  H2  O   
H1  H2  O   H1  H2  O   H1  H2  O   H1  H2  O   H1  H2  O   H1  H2  O   H1  H2  
O   H1  H2  O   H1  H2  O   H1  H2  O   H1  H2  O   H1  H2  O   H1  H2  O   H1  
H2  O   H1  H2  O   H1  H2  O   H1  H2  O   H1  H2  O   H1  H2  O   H1  H2  O   
H1  H2  O   H1  H2  O   H1  H2  O   H1  H2  O   H1  H2  O   H1  H2  O   H1  H2  
O   H1  H2  O   H1  H2  O   H1  H2  O   H1  H2  O   H1  H2  O   H1  H2  O   H1  
H2  O   H1  H2  O   H1  H2  O   H1  H2  O   H1  H2  O   H1  H2  O   H1  H2  O   
H1  H2  O   H1  H2  O   H1  H2  O   H1  H2  O   H1  H2  O   H1  H2  O   H1  H2  
O   H1  H2  O   H1  H2  O   H1  H2  O   H1  H2  O   H1  H2  O   H1  H2  O   H1  
H2  O   H1  H2  O   H1  H2  O   H1  H2  O   H1  H2  O   H1  H2  O   H1  H2  O   
H1  H2  O   H1  H2  O   H1  H2  O   H1  H2  O   H1  H2  O   H1  H2  O   H1  H2  
O   H1  H2  O   H1  H2  O   H1  H2  O   H1  H2  O   H1  H2  O   H1  H2  O   H1  
H2  O   H1  H2  O   H1  H2  O   H1  H2  O   H1  H2  O   H1  H2  O   H1  H2  O   
H1  H2  O   H1  H2  O   H1  H2  O   H1  H2  O   H1  H2  O   H1  H2  O   H1  H2  
O   H1  H2  O   H1  H2  O   H1  H2  O   H1  H2  O   H1  H2  O   H1  H2  O   H1  
H2  O   H1  H2  O   H1  H2  O   H1  H2  O   H1  H2  O   H1  H2  O   H1  H2  O   
H1  H2  O   H1  H2  O   H1  H2  O   H1  H2  O   H1  H2  O   H1  H2  O   H1  H2  
O   H1  H2  O   H1  H2  O   H1  H2  O   H1  H2  O   H1  H2  O   H1  H2  O   H1  
H2  O   H1  H2  O   H1  H2  O   H1  H2  O   H1  H2  O   H1  H2  O   H1  H2  O   
H1  H2  O   H1  H2  O   H1  H2  O   H1  H2  O   H1  H2  O   H1  H2  O   H1  H2  
O   H1  H2  O   H1  H2  O   H1  H2  O   H1  H2  O   H1  H2  O   H1  H2  O   H1  
H2  O   H1  H2  O   H1  H2  O   H1  H2  O   H1  H2  O   H1  H2  O   H1  H2  O   
H1  H2  O   H1  H2  O   H1  H2  O   H1  H2  O   H1  H2  O   H1  H2  O   H1  H2  
O   H1  H2  O   H1  H2  O   H1  H2  O   H1  H2  O   H1  H2  O   H1  H2  O   H1  
H2  O   H1  H2  O   H1  H2  O   H1  H2  O   H1  H2  O   H1  H2  O   H1  H2  O   
H1  H2  O   H1  H2  O   H1  H2  O   H1  H2  O   H1  H2  O   H1  H2  O   H1  H2  
O   H1  H2  O   H1  H2  O   H1  H2  O   H1  H2  O   H1  H2  O   H1  H2  O   H1  
H2  O   H1  H2  O   H1  H2  O   H1  H2  O   H1  H2  O   H1  H2  O   H1  H2  O   
H1  H2  O   H1  H2  O   H1  H2  O   H1  H2  O   H1  H2  O   H1  H2  O   H1  H2  
O   H1  H2  O   H1  H2  O   H1  H2  O   H1  H2  O   H1  H2  O   H1  H2  O   H1  
H2  O   H1  H2  O   H1  H2  O   H1  H2  O   H1  H2  O   H1  H2  O   H1  H2  O   
H1  H2  O   H1  H2  O   H1  H2  O   H1  H2  O   H1  H2  O   H1  H2  O   H1  H2  
O   H1  H2  O   H1  H2  O   H1  H2  O   H1  H2  O   H1  H2  O   H1  H2  O   H1  
H2  O   H1  H2  O   H1  H2  O   H1  H2  O   H1  H2  O   H1  H2  O   H1  H2  O   
H1  H2  O   H1  H2  O   H1  H2  O   H1  H2  O   H1  H2  O   H1  H2  O   H1  H2  
O   H1  H2  O   H1  H2  O   H1  H2  O   H1  H2  O   H1  H2  O   H1  H2  O   H1  
H2  O   H1  H2  O   H1  H2  O   H1  H2  O   H1  H2  O   H1  H2  O   H1  H2  O   
H1  H2  O   H1  H2  O   H1  H2  O   H1  H2  O   H1  H2  O   H1  H2  O   H1  H2  
O   H1  H2  O   H1  H2  O   H1  H2  O   H1  H2  O   H1  H2  O   H1  H2  O   H1  
H2  O   H1  H2  O   H1  H2  O   H1  H2  O   H1  H2  O   H1  H2  O   H1  H2  O   
H1  H2  O   H1  H2  O   H1  H2  O   H1  H2  O   H1  H2  O   H1  H2  O   H1  H2  
O   H1  H2  O   H1  H2  O   H1  H2  O   H1  H2  O   H1  H2  O   H1  H2  O   H1  
H2  O   H1  H2  O   H1  H2  O   H1  H2  O   H1  H2  O   H1  H2  O   H1  H2  O   
H1  H2  O   H1  H2  O   H1  H2  O   H1  H2  O   H1  H2  O   H1  H2  O   H1  H2  
O   H1  H2  O   H1  H2  O   H1  H2  O   H1  H2  O   H1  H2  O   H1  H2  O   H1  
H2  O   H1  H2  O   H1  H2  O   H1  H2  O   H1  H2  O   H1  H2  O   H1  H2  O   
H1  H2  O   H1  H2  O   H1  H2  O   H1  H2  O   H1  H2  O   H1  H2  O   H1  H2  
O   H1  H2  O   H1  H2  O   H1  H2  O   H1  H2  O   H1  H2  O   H1  H2  O   H1  
H2  O   H1  H2  O   H1  H2  O   H1  H2  O   H1  H2  O   H1  H2  O   H1  H2  O   
H1  H2  O   H1  H2  O   H1  H2  O   H1  H2  O   H1  H2  O   H1  H2  O   H1  H2  
O   H1  H2  O   H1  H2  O   H1  H2  O   H1  H2  O   H1  H2  O   H1  H2  O   H1  
H2  O   H1  H2  O   H1  H2  O   H1  H2  O   H1  H2  O   H1  H2  O   H1  H2  O   
H1  H2  O   H1  H2  O   H1  H2  O   H1  H2  O   H1  H2  O   H1  H2  O   H1  H2  
O   H1  H2  O   H1  H2  O   H1  H2  O   H1  H2  O   H1  H2  O   H1  H2  O   H1  
H2  O   H1  H2  O   H1  H2  O   H1  H2  O   H1  H2  O   H1  H2  O   H1  H2  O   
H1  H2  O   H1  H2  O   H1  H2  O   H1  H2  O   H1  H2  O   H1  H2  O   H1  H2  
O   H1  H2  O   H1  H2  O   H1  H2  O   H1  H2  O   H1  H2  O   H1  H2  O   H1  
H2  O   H1  H2  O   H1  H2  O   H1  H2  O   H1  H2  O   H1  H2  O   H1  H2  O   
H1  H2  O   H1  H2  O   H1  H2  O   H1  H2  O   H1  H2  O   H1  H2  O   H1  H2  
O   H1  H2  O   H1  H2  O   H1  H2  O   H1  H2  O   H1  H2  O   H1  H2  O   H1  
H2  O   H1  H2  O   H1  H2  O   H1  H2  O   H1  H2  O   H1  H2  O   H1  H2  O   
H1  H2  O   H1  H2  O   H1  H2  O   H1  H2  O   H1  H2  O   H1  H2  O   H1  H2  
O   H1  H2  O   H1  H2  O   H1  H2  O   H1  H2  O   H1  H2  O   H1  H2  O   H1  
H2  O   H1  H2  O   H1  H2  O   H1  H2  O   H1  H2  O   H1  H2  O   H1  H2  O   
H1  H2  O   H1  H2  O   H1  H2  O   H1  H2  O   H1  H2  O   H1  H2  O   H1  H2  
O   H1  H2  O   H1  H2  O   H1  H2  O   H1  H2  O   H1  H2  O   H1  H2  O   H1  
H2  O   H1  H2  O   H1  H2  O   H1  H2  O   H1  H2  O   H1  H2  O   H1  H2  O   
H1  H2  O   H1  H2  O   H1  H2  O   H1  H2  O   H1  H2  O   H1  H2  O   H1  H2  
O   H1  H2  O   H1  H2  O   H1  H2  O   H1  H2  O   H1  H2  O   H1  H2  O   H1  
H2  O   H1  H2  O   H1  H2  O   H1  H2  O   H1  H2  O   H1  H2  O   H1  H2  O   
H1  H2  O   H1  H2  O   H1  H2  O   H1  H2  O   H1  H2  O   H1  H2  O   H1  H2  
O   H1  H2  O   H1  H2  O   H1  H2  O   H1  H2  O   H1  H2  O   H1  H2  O   H1  
H2  O   H1  H2  O   H1  H2  O   H1  H2  O   H1  H2  O   H1  H2  O   H1  H2  O   
H1  H2  O   H1  H2  O   H1  H2  O   H1  H2  O   H1  H2  O   H1  H2  O   H1  H2  
O   H1  H2  O   H1  H2  O   H1  H2  O   H1  H2  O   H1  H2  O   H1  H2  O   H1  
H2  O   H1  H2  O   H1  H2  O   H1  H2  O   H1  H2  O   H1  H2  O   H1  H2  O   
H1  H2  O   H1  H2  O   H1  H2  O   H1  H2  O   H1  H2  O   H1  H2  O   H1  H2  
O   H1  H2  O   H1  H2  O   H1  H2  O   H1  H2  O   H1  H2  O   H1  H2  O   H1  
H2  O   H1  H2  O   H1  H2  O   H1  H2  O   H1  H2  O   H1  H2  O   H1  H2  O   
H1  H2  O   H1  H2  O   H1  H2  O   H1  H2  O   H1  H2  O   H1  H2  O   H1  H2  
O   H1  H2  O   H1  H2  O   H1  H2  O   H1  H2  O   H1  H2  O   H1  H2  O   H1  
H2  O   H1  H2  O   H1  H2  O   H1  H2  O   H1  H2  O   H1  H2  O   H1  H2  O   
H1  H2  O   H1  H2  O   H1  H2  O   H1  H2  O   H1  H2  O   H1  H2  O   H1  H2  
O   H1  H2  O   H1  H2  O   H1  H2  O   H1  H2  O   H1  H2  O   H1  H2  O   H1  
H2  O   H1  H2  O   H1  H2  O   H1  H2  O   H1  H2  O   H1  H2  O   H1  H2  O   
H1  H2  O   H1  H2  O   H1  H2  O   H1  H2  O   H1  H2  O   H1  H2  O   H1  H2  
O   H1  H2  O   H1  H2  O   H1  H2  O   H1  H2  O   H1  H2  O   H1  H2  O   H1  
H2  O   H1  H2  O   H1  H2  O   H1  H2  O   H1  H2  O   H1  H2  O   H1  H2  O   
H1  H2  O   H1  H2  O   H1  H2  O   H1  H2  O   H1  H2  O   H1  H2  O   H1  H2  
O   H1  H2  O   H1  H2  O   H1  H2  O   H1  H2  O   H1  H2  O   H1  H2  O   H1  
H2  O   H1  H2  O   H1  H2  O   H1  H2  O   H1  H2  O   H1  H2  O   H1  H2  O   
H1  H2  O   H1  H2  O   H1  H2  O   H1  H2  O   H1  H2  O   H1  H2  O   H1  H2  
O   H1  H2  O   H1  H2  O   H1  H2  O   H1  H2  O   H1  H2  O   H1  H2  O   H1  
H2  O   H1  H2  O   H1  H2  O   H1  H2  O   H1  H2  O   H1  H2  O   H1  H2  O   
H1  H2  O   H1  H2  O   H1  H2  O   H1  H2  O   H1  H2  O   H1  H2  O   H1  H2  
O   H1  H2  O   H1  H2  O   H1  H2  O   H1  H2  O   H1  H2  O   H1  H2  O   H1  
H2  O   H1  H2  O   H1  H2  O   H1  H2  O   H1  H2  O   H1  H2  O   H1  H2  O   
H1  H2  O   H1  H2  O   H1  H2  O   H1  H2  O   H1  H2  O   H1  H2  O   H1  H2  
O   H1  H2  O   H1  H2  O   H1  H2  O   H1  H2  O   H1  H2  O   H1  H2  O   H1  
H2  O   H1  H2  O   H1  H2  O   H1  H2  O   H1  H2  O   H1  H2  O   H1  H2  O   
H1  H2  O   H1  H2  O   H1  H2  O   H1  H2  O   H1  H2  O   H1  H2  O   H1  H2  
O   H1  H2  O   H1  H2  O   H1  H2  O   H1  H2  O   H1  H2  O   H1  H2  O   H1  
H2  O   H1  H2  O   H1  H2  O   H1  H2  O   H1  H2  O   H1  H2  O   H1  H2  O   
H1  H2  O   H1  H2  O   H1  H2  O   H1  H2  O   H1  H2  O   H1  H2  O   H1  H2  
O   H1  H2  O   H1  H2  O   H1  H2  O   H1  H2  O   H1  H2  O   H1  H2  O   H1  
H2  O   H1  H2  O   H1  H2  O   H1  H2  O   H1  H2  O   H1  H2  O   H1  H2  O   
H1  H2  O   H1  H2  O   H1  H2  O   H1  H2  O   H1  H2  O   H1  H2  O   H1  H2  
O   H1  H2  O   H1  H2  O   H1  H2  O   H1  H2  O   H1  H2  O   H1  H2  O   H1  
H2  O   H1  H2  O   H1  H2  O   H1  H2  O   H1  H2  O   H1  H2  O   H1  H2  O   
H1  H2  O   H1  H2  O   H1  H2  O   H1  H2  O   H1  H2  O   H1  H2  O   H1  H2  
O   H1  H2  O   H1  H2  O   H1  H2  O   H1  H2  O   H1  H2  O   H1  H2  O   H1  
H2  O   H1  H2  O   H1  H2  O   H1  H2  O   H1  H2  O   H1  H2  O   H1  H2  O   
H1  H2  O   H1  H2  O   H1  H2  O   H1  H2  O   H1  H2  O   H1  H2  O   H1  H2  
O   H1  H2  O   H1  H2  O   H1  H2  O   H1  H2  O   H1  H2  O   H1  H2  O   H1  
H2  O   H1  H2  O   H1  H2  O   H1  H2  O   H1  H2  O   H1  H2  O   H1  H2  O   
H1  H2  O   H1  H2  O   H1  H2  O   H1  H2  O   H1  H2  O   H1  H2  O   H1  H2  
O   H1  H2  O   H1  H2  O   H1  H2  O   H1  H2  O   H1  H2  O   H1  H2  O   H1  
H2  O   H1  H2  O   H1  H2  O   H1  H2  O   H1  H2  O   H1  H2  O   H1  H2  O   
H1  H2  O   H1  H2  O   H1  H2  O   H1  H2  O   H1  H2  O   H1  H2  O   H1  H2  
O   H1  H2  O   H1  H2  O   H1  H2  O   H1  H2  O   H1  H2  O   H1  H2  O   H1  
H2  O   H1  H2  O   H1  H2  O   H1  H2  O   H1  H2  O   H1  H2  O   H1  H2  O   
H1  H2  O   H1  H2  O   H1  H2  O   H1  H2  O   H1  H2  O   H1  H2  O   H1  H2  
O   H1  H2  O   H1  H2  O   H1  H2  O   H1  H2  O   H1  H2  O   H1  H2  O   H1  
H2  O   H1  H2  O   H1  H2  O   H1  H2  O   H1  H2  O   H1  H2  O   H1  H2  O   
H1  H2  O   H1  H2  O   H1  H2  O   H1  H2  O   H1  H2  O   H1  H2  O   H1  H2  
O   H1  H2  O   H1  H2  O   H1  H2  O   H1  H2  O   H1  H2  O   H1  H2  O   H1  
H2  O   H1  H2  O   H1  H2  O   H1  H2  O   H1  H2  O   H1  H2  O   H1  H2  O   
H1  H2  O   H1  H2  O   H1  H2  O   H1  H2  O   H1  H2  O   H1  H2  O   H1  H2  
O   H1  H2  O   H1  H2  O   H1  H2  O   H1  H2  O   H1  H2  O   H1  H2  O   H1  
H2  O   H1  H2  O   H1  H2  O   H1  H2  O   H1  H2  O   H1  H2  O   H1  H2  O   
H1  H2  O   H1  H2  O   H1  H2  O   H1  H2  O   H1  H2  O   H1  H2  O   H1  H2  
O   H1  H2  O   H1  H2  O   H1  H2  O   H1  H2  O   H1  H2  O   H1  H2  O   H1  
H2  O   H1  H2  O   H1  H2  O   H1  H2  O   H1  H2  O   H1  H2  O   H1  H2  O   
H1  H2  O   H1  H2  O   H1  H2  O   H1  H2  O   H1  H2  O   H1  H2  O   H1  H2  
O   H1  H2  O   H1  H2  O   H1  H2  O   H1  H2  O   H1  H2  O   H1  H2  O   H1  
H2  O   H1  H2  O   H1  H2  O   H1  H2  O   H1  H2  O   H1  H2  O   H1  H2  O   
H1  H2  O   H1  H2  O   H1  H2  O   H1  H2  O   H1  H2  O   H1  H2  O   H1  H2  
O   H1  H2  O   H1  H2  O   H1  H2  O   H1  H2  O   H1  H2  O   H1  H2  O   H1  
H2  O   H1  H2  O   H1  H2  O   H1  H2  O   H1  H2  O   H1  H2  O   H1  H2  O   
H1  H2  O   H1  H2  O   H1  H2  O   H1  H2  O   H1  H2  O   H1  H2  O   H1  H2  
O   H1  H2  O   H1  H2  O   H1  H2  O   H1  H2  O   H1  H2  O   H1  H2  O   H1  
H2  O   H1  H2  O   H1  H2  O   H1  H2  O   H1  H2  O   H1  H2  O   H1  H2  O   
H1  H2  O   H1  H2  O   H1  H2  O   H1  H2  O   H1  H2  O   H1  H2  O   H1  H2  
O   H1  H2  O   H1  H2  O   H1  H2  O   H1  H2  O   H1  H2  O   H1  H2  O   H1  
H2  O   H1  H2  O   H1  H2  O   H1  H2  O   H1  H2  O   H1  H2  O   H1  H2  O   
H1  H2  O   H1  H2  O   H1  H2  O   H1  H2  O   H1  H2  O   H1  H2  O   H1  H2  
O   H1  H2  O   H1  H2  O   H1  H2  O   H1  H2  O   H1  H2  O   H1  H2  O   H1  
H2  O   H1  H2  O   H1  H2  O   H1  H2  O   H1  H2  O   H1  H2  O   H1  H2  O   
H1  H2  O   H1  H2  O   H1  H2  O   H1  H2  O   H1  H2  O   H1  H2  O   H1  H2  
O   H1  H2  O   H1  H2  O   H1  H2  O   H1  H2  O   H1  H2  O   H1  H2  O   H1  
H2  O   H1  H2  O   H1  H2  O   H1  H2  O   H1  H2  O   H1  H2  O   H1  H2  O   
H1  H2  O   H1  H2  O   H1  H2  O   H1  H2  O   H1  H2  O   H1  H2  O   H1  H2  
O   H1  H2  O   H1  H2  O   H1  H2  O   H1  H2  O   H1  H2  O   H1  H2  O   H1  
H2  O   H1  H2  O   H1  H2  O   H1  H2  O   H1  H2  O   H1  H2  O   H1  H2  O   
H1  H2  O   H1  H2  O   H1  H2  O   H1  H2  O   H1  H2  O   H1  H2  O   H1  H2  
O   H1  H2  O   H1  H2  O   H1  H2  O   H1  H2  O   H1  H2  O   H1  H2  O   H1  
H2  O   H1  H2  O   H1  H2  O   H1  H2  O   H1  H2  O   H1  H2  O   H1  H2  O   
H1  H2  O   H1  H2  O   H1  H2  O   H1  H2  O   H1  H2  O   H1  H2  O   H1  H2  
O   H1  H2  O   H1  H2  O   H1  H2  O   H1  H2  O   H1  H2  O   H1  H2  O   H1  
H2  O   H1  H2  O   H1  H2  O   H1  H2  O   H1  H2  O   H1  H2  O   H1  H2  O   
H1  H2  O   H1  H2  O   H1  H2  O   H1  H2  O   H1  H2  O   H1  H2  O   H1  H2  
O   H1  H2  O   H1  H2  O   H1  H2  O   H1  H2  O   H1  H2  O   H1  H2  O   H1  
H2  O   H1  H2  O   H1  H2  O   H1  H2  O   H1  H2  O   H1  H2  O   H1  H2  O   
H1  H2  O   H1  H2  O   H1  H2  O   H1  H2  O   H1  H2  O   H1  H2  O   H1  H2  
O   H1  H2  O   H1  H2  O   H1  H2  O   H1  H2  O   H1  H2  O   H1  H2  O   H1  
H2  O   H1  H2  O   H1  H2  O   H1  H2  O   H1  H2  O   H1  H2  O   H1  H2  O   
H1  H2  O   H1  H2  O   H1  H2  O   H1  H2  O   H1  H2  O   H1  H2  O   H1  H2  
O   H1  H2  O   H1  H2  O   H1  H2  O   H1  H2  O   H1  H2  O   H1  H2  O   H1  
H2  O   H1  H2  O   H1  H2  O   H1  H2  O   H1  H2  O   H1  H2  O   H1  H2  O   
H1  H2  O   H1  H2  O   H1  H2  O   H1  H2  O   H1  H2  O   H1  H2  O   H1  H2  
O   H1  H2  O   H1  H2  O   H1  H2  O   H1  H2  O   H1  H2  O   H1  H2  O   H1  
H2  O   H1  H2  O   H1  H2  O   H1  H2  O   H1  H2  O   H1  H2  O   H1  H2  O   
H1  H2  O   H1  H2  O   H1  H2  O   H1  H2  O   H1  H2  O   H1  H2  O   H1  H2  
O   H1  H2  O   H1  H2  O   H1  H2  O   H1  H2  O   H1  H2  O   H1  H2  O   H1  
H2  O   H1  H2  O   H1  H2  O   H1  H2  O   H1  H2  O   H1  H2  O   H1  H2  O   
H1  H2  O   H1  H2  O   H1  H2  O   H1  H2  O   H1  H2  O   H1  H2  O   H1  H2  
O   H1  H2  O   H1  H2  O   H1  H2  O   H1  H2  O   H1  H2  O   H1  H2  O   H1  
H2  O   H1  H2  O   H1  H2  O   H1  H2  O   H1  H2  O   H1  H2  O   H1  H2  O   
H1  H2  O   H1  H2  O   H1  H2  O   H1  H2  O   H1  H2  O   H1  H2  O   H1  H2  
O   H1  H2  O   H1  H2  O   H1  H2  O   H1  H2  O   H1  H2  O   H1  H2  O   H1  
H2  O   H1  H2  O   H1  H2  O   H1  H2  O   H1  H2  O   H1  H2  O   H1  H2  O   
H1  H2  O   H1  H2  O   H1  H2  O   H1  H2  O   H1  H2  O   H1  H2  O   H1  H2  
O   H1  H2  O   H1  H2  O   H1  H2  O   H1  H2  O   H1  H2  O   H1  H2  O   H1  
H2  O   H1  H2  O   H1  H2  O   H1  H2  O   H1  H2  O   H1  H2  O   H1  H2  O   
H1  H2  O   H1  H2  O   H1  H2  O   H1  H2  O   H1  H2  O   H1  H2  O   H1  H2  
O   H1  H2  O   H1  H2  O   H1  H2  O   H1  H2  O   H1  H2  O   H1  H2  O   H1  
H2  O   H1  H2  O   H1  H2  O   H1  H2  O   H1  H2  O   H1  H2  O   H1  H2  O   
H1  H2  O   H1  H2  O   H1  H2  O   H1  H2  O   H1  H2  O   H1  H2  O   H1  H2  
O   H1  H2  O   H1  H2  O   H1  H2  O   H1  H2  O   H1  H2  O   H1  H2  O   H1  
H2  O   H1  H2  O   H1  H2  O   H1  H2  O   H1  H2  O   H1  H2  O   H1  H2  O   
H1  H2  O   H1  H2  O   H1  H2  O   H1  H2  O   H1  H2  O   H1  H2  O   H1  H2  
O   H1  H2  O   H1  H2  O   H1  H2  O   H1  H2  O   H1  H2  O   H1  H2  O   H1  
H2  O   H1  H2  O   H1  H2  O   H1  H2  O   H1  H2  O   H1  H2  O   H1  H2  O   
H1  H2  O   H1  H2  O   H1  H2  O   H1  H2  O   H1  H2  O   H1  H2  O   H1  H2  
O   H1  H2  O   H1  H2  O   H1  H2  O   H1  H2  O   H1  H2  O   H1  H2  O   H1  
H2  O   H1  H2  O   H1  H2  O   H1  H2  O   H1  H2  O   H1  H2  O   H1  H2  O   
H1  H2  O   H1  H2  O   H1  H2  O   H1  H2  O   H1  H2  O   H1  H2  O   H1  H2  
O   H1  H2  O   H1  H2  O   H1  H2  O   H1  H2  O   H1  H2  O   H1  H2  O   H1  
H2  O   H1  H2  O   H1  H2  O   H1  H2  O   H1  H2  O   H1  H2  O   H1  H2  O   
H1  H2  O   H1  H2  O   H1  H2  O   H1  H2  O   H1  H2  O   H1  H2  O   H1  H2  
O   H1  H2  O   H1  H2  O   H1  H2  O   H1  H2  O   H1  H2  O   H1  H2  O   H1  
H2  O   H1  H2  O   H1  H2  O   H1  H2  O   H1  H2  O   H1  H2  O   H1  H2  O   
H1  H2  O   H1  H2  O   H1  H2  O   H1  H2  O   H1  H2  O   H1  H2  O   H1  H2  
O   H1  H2  O   H1  H2  O   H1  H2  O   H1  H2  O   H1  H2  O   H1  H2  O   H1  
H2  O   H1  H2  O   H1  H2  O   H1  H2  O   H1  H2  O   H1  H2  O   H1  H2  O   
H1  H2  O   H1  H2  O   H1  H2  O   H1  H2  O   H1  H2  O   H1  H2  O   H1  H2  
O   H1  H2  O   H1  H2  O   H1  H2  O   H1  H2  O   H1  H2  O   H1  H2  O   H1  
H2  O   H1  H2  O   H1  H2  O   H1  H2  O   H1  H2  O   H1  H2  O   H1  H2  O   
H1  H2  O   H1  H2  O   H1  H2  O   H1  H2  O   H1  H2  O   H1  H2  O   H1  H2  
O   H1  H2  O   H1  H2  O   H1  H2  O   H1  H2  O   H1  H2  O   H1  H2  O   H1  
H2  O   H1  H2  O   H1  H2  O   H1  H2  O   H1  H2  O   H1  H2  O   H1  H2  O   
H1  H2  O   H1  H2  O   H1  H2  O   H1  H2  O   H1  H2  O   H1  H2  O   H1  H2  
O   H1  H2  O   H1  H2  O   H1  H2  O   H1  H2  O   H1  H2  O   H1  H2  O   H1  
H2  O   H1  H2  O   H1  H2  O   H1  H2  O   H1  H2  O   H1  H2  O   H1  H2  O   
H1  H2  O   H1  H2  O   H1  H2  O   H1  H2  O   H1  H2  O   H1  H2  O   H1  H2  
O   H1  H2  O   H1  H2  O   H1  H2  O   H1  H2  O   H1  H2  O   H1  H2  O   H1  
H2  O   H1  H2  O   H1  H2  O   H1  H2  O   H1  H2  O   H1  H2  O   H1  H2  O   
H1  H2  O   H1  H2  O   H1  H2  O   H1  H2  O   H1  H2  O   H1  H2  O   H1  H2  
O   H1  H2  O   H1  H2  O   H1  H2  O   H1  H2  O   H1  H2  O   H1  H2  O   H1  
H2  O   H1  H2  O   H1  H2  O   H1  H2  O   H1  H2  O   H1  H2  O   H1  H2  O   
H1  H2  O   H1  H2  O   H1  H2  O   H1  H2  O   H1  H2  O   H1  H2  O   H1  H2  
O   H1  H2  O   H1  H2  O   H1  H2  O   H1  H2  O   H1  H2  O   H1  H2  O   H1  
H2  O   H1  H2  O   H1  H2  O   H1  H2  O   H1  H2  O   H1  H2  O   H1  H2  O   
H1  H2  O   H1  H2  O   H1  H2  O   H1  H2  O   H1  H2  O   H1  H2  O   H1  H2  
O   H1  H2  O   H1  H2  O   H1  H2  O   H1  H2  O   H1  H2  O   H1  H2  O   H1  
H2  O   H1  H2  O   H1  H2  O   H1  H2  O   H1  H2  O   H1  H2  O   H1  H2  O   
H1  H2  O   H1  H2  O   H1  H2  O   H1  H2  O   H1  H2  O   H1  H2  O   H1  H2  
O   H1  H2  O   H1  H2  O   H1  H2  O   H1  H2  O   H1  H2  O   H1  H2  O   H1  
H2  O   H1  H2  O   H1  H2  O   H1  H2  O   H1  H2  O   H1  H2  O   H1  H2  O   
H1  H2  O   H1  H2  O   H1  H2  O   H1  H2  O   H1  H2  O   H1  H2  O   H1  H2  
O   H1  H2  O   H1  H2  O   H1  H2  O   H1  H2  O   H1  H2  O   H1  H2  O   H1  
H2  O   H1  H2  O   H1  H2  O   H1  H2  O   H1  H2  O   H1  H2  O   H1  H2  O   
H1  H2  O   H1  H2  O   H1  H2  O   H1  H2  O   H1  H2  O   H1  H2  O   H1  H2  
O   H1  H2  O   H1  H2  O   H1  H2  O   H1  H2  O   H1  H2  O   H1  H2  O   H1  
H2  O   H1  H2  O   H1  H2  O   H1  H2  O   H1  H2  O   H1  H2  O   H1  H2  O   
H1  H2  O   H1  H2  O   H1  H2  O   H1  H2  O   H1  H2  O   H1  H2  O   H1  H2  
O   H1  H2  O   H1  H2  O   H1  H2  O   H1  H2  O   H1  H2  O   H1  H2  O   H1  
H2  O   H1  H2  O   H1  H2  O   H1  H2  O   H1  H2  O   H1  H2  O   H1  H2  O   
H1  H2  O   H1  H2  O   H1  H2  O   H1  H2  O   H1  H2  O   H1  H2  O   H1  H2  
O   H1  H2  O   H1  H2  O   H1  H2  O   H1  H2  O   H1  H2  O   H1  H2  O   H1  
H2  O   H1  H2  O   H1  H2  O   H1  H2  O   H1  H2  O   H1  H2  O   H1  H2  O   
H1  H2  O   H1  H2  O   H1  H2  O   H1  H2  O   H1  H2  O   H1  H2  O   H1  H2  
O   H1  H2  O   H1  H2  O   H1  H2  O   H1  H2  O   H1  H2  O   H1  H2  O   H1  
H2  O   H1  H2  O   H1  H2  O   H1  H2  O   H1  H2  O   H1  H2  O   H1  H2  O   
H1  H2  O   H1  H2  O   H1  H2  O   H1  H2  O   H1  H2  O   H1  H2  O   H1  H2  
O   H1  H2  O   H1  H2  O   H1  H2  O   H1  H2  O   H1  H2  O   H1  H2  O   H1  
H2  O   H1  H2  O   H1  H2  O   H1  H2  O   H1  H2  O   H1  H2  O   H1  H2  O   
H1  H2  O   H1  H2  O   H1  H2  O   H1  H2  O   H1  H2  O   H1  H2  O   H1  H2  
O   H1  H2  O   H1  H2  O   H1  H2  O   H1  H2  O   H1  H2  O   H1  H2  O   H1  
H2  O   H1  H2  O   H1  H2  O   H1  H2  O   H1  H2  O   H1  H2  O   H1  H2  O   
H1  H2  O   H1  H2  O   H1  H2  O   H1  H2  O   H1  H2  O   H1  H2  O   H1  H2  
O   H1  H2  O   H1  H2  O   H1  H2  O   H1  H2  O   H1  H2  O   H1  H2  O   H1  
H2  O   H1  H2  O   H1  H2  O   H1  H2  O   H1  H2  O   H1  H2  O   H1  H2  O   
H1  H2  O   H1  H2  O   H1  H2  O   H1  H2  O   H1  H2  O   H1  H2  O   H1  H2  
O   H1  H2  O   H1  H2  O   H1  H2  O   H1  H2  O   H1  H2  O   H1  H2  O   H1  
H2  O   H1  H2  O   H1  H2  O   H1  H2  O   H1  H2  O   H1  H2  O   H1  H2  O   
H1  H2  O   H1  H2  O   H1  H2  O   H1  H2  O   H1  H2  O   H1  H2  O   H1  H2  
O   H1  H2  O   H1  H2  O   H1  H2  O   H1  H2  O   H1  H2  O   H1  H2  O   H1  
H2  O   H1  H2  O   H1  H2  O   H1  H2  O   H1  H2  O   H1  H2  O   H1  H2  O   
H1  H2  O   H1  H2  O   H1  H2  O   H1  H2  O   H1  H2  O   H1  H2  O   H1  H2  
O   H1  H2  O   H1  H2  O   H1  H2  O   H1  H2  O   H1  H2  O   H1  H2  O   H1  
H2  O   H1  H2  O   H1  H2  O   H1  H2  O   H1  H2  O   H1  H2  O   H1  H2  O   
H1  H2  O   H1  H2  O   H1  H2  O   H1  H2  O   H1  H2  O   H1  H2  O   H1  H2  
O   H1  H2  O   H1  H2  O   H1  H2  O   H1  H2  O   H1  H2  O   H1  H2  O   H1  
H2  O   H1  H2  O   H1  H2  O   H1  H2  O   H1  H2  O   H1  H2  O   H1  H2  O   
H1  H2  O   H1  H2  O   H1  H2  O   H1  H2  O   H1  H2  O   H1  H2  O   H1  H2  
O   H1  H2  O   H1  H2  O   H1  H2  O   H1  H2  O   H1  H2  O   H1  H2  O   H1  
H2  O   H1  H2  O   H1  H2  O   H1  H2  O   H1  H2  O   H1  H2  O   H1  H2  O   
H1  H2  O   H1  H2  O   H1  H2  O   H1  H2  O   H1  H2  O   H1  H2  O   H1  H2  
O   H1  H2  O   H1  H2  O   H1  H2  O   H1  H2  O   H1  H2  O   H1  H2  O   H1  
H2  O   H1  H2  O   H1  H2  O   H1  H2  O   H1  H2  O   H1  H2  O   H1  H2  O   
H1  H2  O   H1  H2  O   H1  H2  O   H1  H2  O   H1  H2  O   H1  H2  O   H1  H2  
O   H1  H2  O   H1  H2  O   H1  H2  O   H1  H2  O   H1  H2  O   H1  H2  O   H1  
H2  O   H1  H2  O   H1  H2  O   H1  H2  O   H1  H2  O   H1  H2  O   H1  H2  O   
H1  H2  O   H1  H2  O   H1  H2  O   H1  H2  O   H1  H2  O   H1  H2  O   H1  H2  
O   H1  H2  O   H1  H2  O   H1  H2  O   H1  H2  O   H1  H2  O   H1  H2  O   H1  
H2  O   H1  H2  O   H1  H2  O   H1  H2  O   H1  H2  O   H1  H2  O   H1  H2  O   
H1  H2  O   H1  H2  O   H1  H2  O   H1  H2  O   H1  H2  O   H1  H2  O   H1  H2  
O   H1  H2  O   H1  H2  O   H1  H2  O   H1  H2  O   H1  H2  O   H1  H2  O   H1  
H2  O   H1  H2  O   H1  H2  O   H1  H2  O   H1  H2  O   H1  H2  O   H1  H2  O   
H1  H2  O   H1  H2  O   H1  H2  O   H1  H2  O   H1  H2  O   H1  H2  O   H1  H2  
O   H1  H2  O   H1  H2  O   H1  H2  O   H1  H2  O   H1  H2  O   H1  H2  O   H1  
H2  O   H1  H2  O   H1  H2  O   H1  H2  O   H1  H2  O   H1  H2  O   H1  H2  O   
H1  H2  O   H1  H2  O   H1  H2  O   H1  H2  O   H1  H2  O   H1  H2  O   H1  H2  
O   H1  H2  O   H1  H2  O   H1  H2  O   H1  H2  O   H1  H2  O   H1  H2  O   H1  
H2  O   H1  H2  O   H1  H2  O   H1  H2  O   H1  H2  O   H1  H2  O   H1  H2  O   
H1  H2  O   H1  H2  O   H1  H2  O   H1  H2  O   H1  H2  O   H1  H2  O   H1  H2  
O   H1  H2  O   H1  H2  O   H1  H2  O   H1  H2  O   H1  H2  O   H1  H2  O   H1  
H2  O   H1  H2  O   H1  H2  O   H1  H2  O   H1  H2  O   H1  H2  O   H1  H2  O   
H1  H2  O   H1  H2  O   H1  H2  O   H1  H2  O   H1  H2  O   H1  H2  O   H1  H2  
O   H1  H2  O   H1  H2  O   H1  H2  O   H1  H2  O   H1  H2  O   H1  H2  O   H1  
H2  O   H1  H2  O   H1  H2  O   H1  H2  O   H1  H2  O   H1  H2  O   H1  H2  O   
H1  H2  O   H1  H2  O   H1  H2  O   H1  H2  O   H1  H2  O   H1  H2  O   H1  H2  
O   H1  H2  O   H1  H2  O   H1  H2  O   H1  H2  O   H1  H2  O   H1  H2  O   H1  
H2  O   H1  H2  O   H1  H2  O   H1  H2  O   H1  H2  O   H1  H2  O   H1  H2  O   
H1  H2  O   H1  H2  O   H1  H2  O   H1  H2  O   H1  H2  O   H1  H2  O   H1  H2  
O   H1  H2  O   H1  H2  O   H1  H2  O   H1  H2  O   H1  H2  O   H1  H2  O   H1  
H2  O   H1  H2  O   H1  H2  O   H1  H2  O   H1  H2  O   H1  H2  O   H1  H2  O   
H1  H2  O   H1  H2  O   H1  H2  O   H1  H2  O   H1  H2  O   H1  H2  O   H1  H2  
O   H1  H2  O   H1  H2  O   H1  H2  O   H1  H2  O   H1  H2  O   H1  H2  O   H1  
H2  O   H1  H2  O   H1  H2  O   H1  H2  O   H1  H2  O   H1  H2  O   H1  H2  O   
H1  H2  O   H1  H2  O   H1  H2  O   H1  H2  O   H1  H2  O   H1  H2  O   H1  H2  
O   H1  H2  O   H1  H2  O   H1  H2  O   H1  H2  O   H1  H2  O   H1  H2  O   H1  
H2  O   H1  H2  O   H1  H2  O   H1  H2  O   H1  H2  O   H1  H2  O   H1  H2  O   
H1  H2  O   H1  H2  O   H1  H2  O   H1  H2  O   H1  H2  O   H1  H2  O   H1  H2  
O   H1  H2  O   H1  H2  O   H1  H2  O   H1  H2  O   H1  H2  O   H1  H2  O   H1  
H2  O   H1  H2  O   H1  H2  O   H1  H2  O   H1  H2  O   H1  H2  O   H1  H2  O   
H1  H2  O   H1  H2  O   H1  H2  O   H1  H2  O   H1  H2  O   H1  H2  O   H1  H2  
O   H1  H2  O   H1  H2  O   H1  H2  O   H1  H2  O   H1  H2  O   H1  H2  O   H1  
H2  O   H1  H2  O   H1  H2  O   H1  H2  O   H1  H2  O   H1  H2  O   H1  H2  O   
H1  H2  O   H1  H2  O   H1  H2  O   H1  H2  O   H1  H2  O   H1  H2  O   H1  H2  
O   H1  H2  O   H1  H2  O   H1  H2  O   H1  H2  O   H1  H2  O   H1  H2  O   H1  
H2  O   H1  H2  O   H1  H2  O   H1  H2  O   H1  H2  O   H1  H2  O   H1  H2  O   
H1  H2  O   H1  H2  O   H1  H2  O   H1  H2  O   H1  H2  O   H1  H2  O   H1  H2  
O   H1  H2  O   H1  H2  O   H1  H2  O   H1  H2  O   H1  H2  O   H1  H2  O   H1  
H2  O   H1  H2  O   H1  H2  O   H1  H2  O   H1  H2  O   H1  H2  O   H1  H2  O   
H1  H2  O   H1  H2  O   H1  H2  O   H1  H2  O   H1  H2  O   H1  H2  O   H1  H2  
O   H1  H2  O   H1  H2  O   H1  H2  O   H1  H2  O   H1  H2  O   H1  H2  O   H1  
H2  O   H1  H2  O   H1  H2  O   H1  H2  O   H1  H2  O   H1  H2  O   H1  H2  O   
H1  H2  O   H1  H2  O   H1  H2  O   H1  H2  O   H1  H2  O   H1  H2  O   H1  H2  
O   H1  H2  O   H1  H2  O   H1  H2  O   H1  H2  O   H1  H2  O   H1  H2  O   H1  
H2  O   H1  H2  O   H1  H2  O   H1  H2  O   H1  H2  O   H1  H2  O   H1  H2  O   
H1  H2  O   H1  H2  O   H1  H2  O   H1  H2  O   H1  H2  O   H1  H2  O   H1  H2  
O   H1  H2  O   H1  H2  O   H1  H2  O   H1  H2  O   H1  H2  O   H1  H2  O   H1  
H2  O   H1  H2  O   H1  H2  O   H1  H2  O   H1  H2  O   H1  H2  O   H1  H2  O   
H1  H2  O   H1  H2  O   H1  H2  O   H1  H2  O   H1  H2  O   H1  H2  O   H1  H2  
O   H1  H2  O   H1  H2  O   H1  H2  O   H1  H2  O   H1  H2  O   H1  H2  O   H1  
H2  O   H1  H2  O   H1  H2  O   H1  H2  O   H1  H2  O   H1  H2  O   H1  H2  O   
H1  H2  O   H1  H2  O   H1  H2  O   H1  H2  O   H1  H2  O   H1  H2  O   H1  H2  
O   H1  H2  O   H1  H2  O   H1  H2  O   H1  H2  O   H1  H2  O   H1  H2  O   H1  
H2  O   H1  H2  O   H1  H2  O   H1  H2  O   H1  H2  O   H1  H2  O   H1  H2  O   
H1  H2  O   H1  H2  O   H1  H2  O   H1  H2  O   H1  H2  O   H1  H2  O   H1  H2  
O   H1  H2  O   H1  H2  O   H1  H2  O   H1  H2  O   H1  H2  O   H1  H2  O   H1  
H2  O   H1  H2  O   H1  H2  O   H1  H2  O   H1  H2  O   H1  H2  O   H1  H2  O   
H1  H2  O   H1  H2  O   H1  H2  O   H1  H2  O   H1  H2  O   H1  H2  O   H1  H2  
O   H1  H2  O   H1  H2  O   H1  H2  O   H1  H2  O   H1  H2  O   H1  H2  O   H1  
H2  O   H1  H2  O   H1  H2  O   H1  H2  O   H1  H2  O   H1  H2  O   H1  H2  O   
H1  H2  O   H1  H2  O   H1  H2  O   H1  H2  O   H1  H2  O   H1  H2  O   H1  H2  
O   H1  H2  O   H1  H2  O   H1  H2  O   H1  H2  O   H1  H2  O   H1  H2  O   H1  
H2  O   H1  H2  O   H1  H2  O   H1  H2  O   H1  H2  O   H1  H2  O   H1  H2  O   
H1  H2  O   H1  H2  O   H1  H2  O   H1  H2  O   H1  H2  O   H1  H2  O   H1  H2  
O   H1  H2  O   H1  H2  O   H1  H2  O   H1  H2  O   H1  H2  O   H1  H2  O   H1  
H2  O   H1  H2  O   H1  H2  O   H1  H2  O   H1  H2  O   H1  H2  O   H1  H2  O   
H1  H2  O   H1  H2  O   H1  H2  O   H1  H2  O   H1  H2  O   H1  H2  O   H1  H2  
O   H1  H2  O   H1  H2  O   H1  H2  O   H1  H2  O   H1  H2  O   H1  H2  O   H1  
H2  O   H1  H2  O   H1  H2  O   H1  H2  O   H1  H2  O   H1  H2  O   H1  H2  O   
H1  H2  O   H1  H2  O   H1  H2  O   H1  H2  O   H1  H2  O   H1  H2  O   H1  H2  
O   H1  H2  O   H1  H2  O   H1  H2  O   H1  H2  O   H1  H2  O   H1  H2  O   H1  
H2  O   H1  H2  O   H1  H2  O   H1  H2  O   H1  H2  O   H1  H2  O   H1  H2  O   
H1  H2  O   H1  H2  O   H1  H2  O   H1  H2  O   H1  H2  O   H1  H2  O   H1  H2  
O   H1  H2  O   H1  H2  O   H1  H2  O   H1  H2  O   H1  H2  O   H1  H2  O   H1  
H2  O   H1  H2  O   H1  H2  O   H1  H2  
%FLAG CHARGE                                                                    
%FORMAT(5E16.8)                                                                 
 -1.73294073E+00 -6.81514020E-01 -1.40129487E+00 -1.43773947E+00 -7.90847820E-01
 -1.43773947E+00 -1.43773947E+00 -7.90847820E-01 -1.43773947E+00 -1.43773947E+00
 -7.90847820E-01 -1.43773947E+00 -1.43773947E+00 -7.90847820E-01 -1.43773947E+00
 -1.43773947E+00 -7.90847820E-01 -1.43773947E+00 -1.43773947E+00 -7.90847820E-01
 -1.43773947E+00 -1.43773947E+00 -7.90847820E-01 -1.43773947E+00 -1.43773947E+00
 -7.90847820E-01 -1.43773947E+00 -1.43773947E+00 -7.90847820E-01 -1.43773947E+00
 -1.43773947E+00 -7.90847820E-01 -1.43773947E+00 -1.44685062E+00 -6.26847120E-01
 -1.46507292E+00 -1.42862832E+00  6.94269630E-01 -1.42862832E+00 -1.46507292E+00
 -6.26847120E-01 -1.44685062E+00 -1.43773947E+00 -7.90847820E-01 -1.43773947E+00
 -1.43773947E+00 -7.90847820E-01 -1.43773947E+00 -1.43773947E+00 -7.90847820E-01
 -1.43773947E+00 -1.43773947E+00 -7.90847820E-01 -1.43773947E+00 -1.43773947E+00
 -7.90847820E-01 -1.43773947E+00 -1.43773947E+00 -7.90847820E-01 -1.43773947E+00
 -1.43773947E+00 -7.90847820E-01 -1.43773947E+00 -1.43773947E+00 -7.90847820E-01
 -1.43773947E+00 -1.43773947E+00 -7.90847820E-01 -1.43773947E+00 -1.40129487E+00
 -6.81514020E-01 -1.73294073E+00 -3.69912690E-01 -2.26412077E+00 -1.85411902E+00
 -3.41303679E+00  3.57339303E+00 -1.16039606E+01  2.01234326E+00  2.01234326E+00
  2.01234326E+00 -1.85411902E+00 -2.26412077E+00 -4.06357290E-01 -2.38712130E+00
 -1.79489655E+00 -3.24903609E+00  3.53694843E+00 -1.16221829E+01  2.03665180E+00
  2.03665180E+00  2.03665180E+00 -1.79489655E+00 -2.38712130E+00 -4.06357290E-01
 -2.38712130E+00 -1.79489655E+00 -3.24903609E+00  3.53694843E+00 -1.16221829E+01
  2.03665180E+00  2.03665180E+00  2.03665180E+00 -1.79489655E+00 -2.38712130E+00
 -4.06357290E-01 -2.38712130E+00 -1.79489655E+00 -3.24903609E+00  3.53694843E+00
 -1.16221829E+01  2.03665180E+00  2.03665180E+00  2.03665180E+00 -1.79489655E+00
 -2.38712130E+00 -4.06357290E-01 -2.38712130E+00 -1.79489655E+00 -3.24903609E+00
  3.53694843E+00 -1.16221829E+01  2.03665180E+00  2.03665180E+00  2.03665180E+00
 -1.79489655E+00 -2.38712130E+00 -4.06357290E-01 -2.38712130E+00 -1.79489655E+00
 -3.24903609E+00  3.53694843E+00 -1.16221829E+01  2.03665180E+00  2.03665180E+00
  2.03665180E+00 -1.79489655E+00 -2.38712130E+00 -4.06357290E-01 -2.38712130E+00
 -1.79489655E+00 -3.24903609E+00  3.53694843E+00 -1.16221829E+01  2.03665180E+00
  2.03665180E+00  2.03665180E+00 -1.79489655E+00 -2.38712130E+00 -4.06357290E-01
 -2.38712130E+00 -1.79489655E+00 -3.24903609E+00  3.53694843E+00 -1.16221829E+01
  2.03665180E+00  2.03665180E+00  2.03665180E+00 -1.79489655E+00 -2.38712130E+00
 -4.06357290E-01 -2.38712130E+00 -1.79489655E+00 -3.24903609E+00  3.53694843E+00
 -1.16221829E+01  2.03665180E+00  2.03665180E+00  2.03665180E+00 -1.79489655E+00
 -2.38712130E+00 -4.06357290E-01 -2.38712130E+00 -1.79489655E+00 -3.24903609E+00
  3.53694843E+00 -1.16221829E+01  2.03665180E+00  2.03665180E+00  2.03665180E+00
 -1.79489655E+00 -2.38712130E+00 -8.61914790E-01 -2.34156555E+00 -1.79489655E+00
 -2.82992319E+00  3.57339303E+00 -1.16039606E+01  1.87871913E+00  1.87871913E+00
  1.87871913E+00 -1.79489655E+00 -2.34156555E+00 -2.69690040E-01 -2.26867635E+00
 -1.99989743E+00 -3.20348034E+00  3.60072648E+00 -1.16312941E+01  1.92731800E+00
  1.92731800E+00  1.92731800E+00 -1.99989743E+00 -2.26867635E+00 -1.48147299E+00
 -2.33245440E+00 -2.33245440E+00 -1.48147299E+00  6.94269630E-01 -1.42862832E+00
 -1.46507292E+00 -6.26847120E-01 -1.44685062E+00 -1.43773947E+00 -7.90847820E-01
 -1.43773947E+00 -1.43773947E+00 -7.90847820E-01 -1.43773947E+00 -1.43773947E+00
 -7.90847820E-01 -1.43773947E+00 -1.43773947E+00 -7.90847820E-01 -1.43773947E+00
 -1.43773947E+00 -7.90847820E-01 -1.43773947E+00 -1.43773947E+00 -7.90847820E-01
 -1.43773947E+00 -1.43773947E+00 -7.90847820E-01 -1.43773947E+00 -1.43773947E+00
 -7.90847820E-01 -1.43773947E+00 -1.43773947E+00 -7.90847820E-01 -1.43773947E+00
 -1.40129487E+00 -6.81514020E-01 -1.73294073E+00 -3.69912690E-01 -2.26412077E+00
 -1.85411902E+00 -3.41303679E+00  3.57339303E+00 -1.16039606E+01  2.01234326E+00
  2.01234326E+00  2.01234326E+00 -1.85411902E+00 -2.26412077E+00 -4.06357290E-01
 -2.38712130E+00 -1.79489655E+00 -3.24903609E+00  3.53694843E+00 -1.16221829E+01
  2.03665180E+00  2.03665180E+00  2.03665180E+00 -1.79489655E+00 -2.38712130E+00
 -4.06357290E-01 -2.38712130E+00 -1.79489655E+00 -3.24903609E+00  3.53694843E+00
 -1.16221829E+01  2.03665180E+00  2.03665180E+00  2.03665180E+00 -1.79489655E+00
 -2.38712130E+00 -4.06357290E-01 -2.38712130E+00 -1.79489655E+00 -3.24903609E+00
  3.53694843E+00 -1.16221829E+01  2.03665180E+00  2.03665180E+00  2.03665180E+00
 -1.79489655E+00 -2.38712130E+00 -4.06357290E-01 -2.38712130E+00 -1.79489655E+00
 -3.24903609E+00  3.53694843E+00 -1.16221829E+01  2.03665180E+00  2.03665180E+00
  2.03665180E+00 -1.79489655E+00 -2.38712130E+00 -4.06357290E-01 -2.38712130E+00
 -1.79489655E+00 -3.24903609E+00  3.53694843E+00 -1.16221829E+01  2.03665180E+00
  2.03665180E+00  2.03665180E+00 -1.79489655E+00 -2.38712130E+00 -4.06357290E-01
 -2.38712130E+00 -1.79489655E+00 -3.24903609E+00  3.53694843E+00 -1.16221829E+01
  2.03665180E+00  2.03665180E+00  2.03665180E+00 -1.79489655E+00 -2.38712130E+00
 -4.06357290E-01 -2.38712130E+00 -1.79489655E+00 -3.24903609E+00  3.53694843E+00
 -1.16221829E+01  2.03665180E+00  2.03665180E+00  2.03665180E+00 -1.79489655E+00
 -2.38712130E+00 -4.06357290E-01 -2.38712130E+00 -1.79489655E+00 -3.24903609E+00
  3.53694843E+00 -1.16221829E+01  2.03665180E+00  2.03665180E+00  2.03665180E+00
 -1.79489655E+00 -2.38712130E+00 -4.06357290E-01 -2.38712130E+00 -1.79489655E+00
 -3.24903609E+00  3.53694843E+00 -1.16221829E+01  2.03665180E+00  2.03665180E+00
  2.03665180E+00 -1.79489655E+00 -2.38712130E+00 -8.61914790E-01 -2.34156555E+00
 -1.79489655E+00 -2.82992319E+00  3.57339303E+00 -1.16039606E+01  1.87871913E+00
  1.87871913E+00  1.87871913E+00 -1.79489655E+00 -2.34156555E+00 -1.42862832E+00
 -1.46507292E+00 -6.26847120E-01 -1.44685062E+00 -1.43773947E+00 -7.90847820E-01
 -1.43773947E+00 -1.43773947E+00 -7.90847820E-01 -1.43773947E+00 -1.43773947E+00
 -7.90847820E-01 -1.43773947E+00 -1.43773947E+00 -7.90847820E-01 -1.43773947E+00
 -1.43773947E+00 -7.90847820E-01 -1.43773947E+00 -1.43773947E+00 -7.90847820E-01
 -1.43773947E+00 -1.43773947E+00 -7.90847820E-01 -1.43773947E+00 -1.43773947E+00
 -7.90847820E-01 -1.43773947E+00 -1.43773947E+00 -7.90847820E-01 -1.43773947E+00
 -1.43773947E+00 -7.90847820E-01 -1.43773947E+00 -1.40129487E+00 -6.81514020E-01
 -1.73294073E+00 -3.69912690E-01 -2.26412077E+00 -1.85411902E+00 -3.41303679E+00
  3.57339303E+00 -1.16039606E+01  2.01234326E+00  2.01234326E+00  2.01234326E+00
 -1.85411902E+00 -2.26412077E+00 -4.06357290E-01 -2.38712130E+00 -1.79489655E+00
 -3.24903609E+00  3.53694843E+00 -1.16221829E+01  2.03665180E+00  2.03665180E+00
  2.03665180E+00 -1.79489655E+00 -2.38712130E+00 -4.06357290E-01 -2.38712130E+00
 -1.79489655E+00 -3.24903609E+00  3.53694843E+00 -1.16221829E+01  2.03665180E+00
  2.03665180E+00  2.03665180E+00 -1.79489655E+00 -2.38712130E+00 -4.06357290E-01
 -2.38712130E+00 -1.79489655E+00 -3.24903609E+00  3.53694843E+00 -1.16221829E+01
  2.03665180E+00  2.03665180E+00  2.03665180E+00 -1.79489655E+00 -2.38712130E+00
 -4.06357290E-01 -2.38712130E+00 -1.79489655E+00 -3.24903609E+00  3.53694843E+00
 -1.16221829E+01  2.03665180E+00  2.03665180E+00  2.03665180E+00 -1.79489655E+00
 -2.38712130E+00 -4.06357290E-01 -2.38712130E+00 -1.79489655E+00 -3.24903609E+00
  3.53694843E+00 -1.16221829E+01  2.03665180E+00  2.03665180E+00  2.03665180E+00
 -1.79489655E+00 -2.38712130E+00 -4.06357290E-01 -2.38712130E+00 -1.79489655E+00
 -3.24903609E+00  3.53694843E+00 -1.16221829E+01  2.03665180E+00  2.03665180E+00
  2.03665180E+00 -1.79489655E+00 -2.38712130E+00 -4.06357290E-01 -2.38712130E+00
 -1.79489655E+00 -3.24903609E+00  3.53694843E+00 -1.16221829E+01  2.03665180E+00
  2.03665180E+00  2.03665180E+00 -1.79489655E+00 -2.38712130E+00 -4.06357290E-01
 -2.38712130E+00 -1.79489655E+00 -3.24903609E+00  3.53694843E+00 -1.16221829E+01
  2.03665180E+00  2.03665180E+00  2.03665180E+00 -1.79489655E+00 -2.38712130E+00
 -4.06357290E-01 -2.38712130E+00 -1.79489655E+00 -3.24903609E+00  3.53694843E+00
 -1.16221829E+01  2.03665180E+00  2.03665180E+00  2.03665180E+00 -1.79489655E+00
 -2.38712130E+00 -4.06357290E-01 -2.38712130E+00 -1.79489655E+00 -3.24903609E+00
  3.53694843E+00 -1.16221829E+01  2.03665180E+00  2.03665180E+00  2.03665180E+00
 -1.79489655E+00 -2.38712130E+00 -8.61914790E-01 -2.34156555E+00 -1.79489655E+00
 -2.82992319E+00  3.57339303E+00 -1.16039606E+01  1.87871913E+00  1.87871913E+00
  1.87871913E+00 -1.79489655E+00 -2.34156555E+00 -2.69690040E-01 -2.26867635E+00
 -1.99989743E+00 -3.20348034E+00  3.60072648E+00 -1.16312941E+01  1.92731800E+00
  1.92731800E+00  1.92731800E+00 -1.99989743E+00 -2.26867635E+00 -2.33245440E+00
 -2.33245440E+00 -8.61914790E-01 -2.34156555E+00 -1.79489655E+00 -2.82992319E+00
  3.57339303E+00 -1.16039606E+01  1.87871913E+00  1.87871913E+00  1.87871913E+00
 -1.79489655E+00 -2.34156555E+00 -4.06357290E-01 -2.38712130E+00 -1.79489655E+00
 -3.24903609E+00  3.53694843E+00 -1.16221829E+01  2.03665180E+00  2.03665180E+00
  2.03665180E+00 -1.79489655E+00 -2.38712130E+00 -4.06357290E-01 -2.38712130E+00
 -1.79489655E+00 -3.24903609E+00  3.53694843E+00 -1.16221829E+01  2.03665180E+00
  2.03665180E+00  2.03665180E+00 -1.79489655E+00 -2.38712130E+00 -4.06357290E-01
 -2.38712130E+00 -1.79489655E+00 -3.24903609E+00  3.53694843E+00 -1.16221829E+01
  2.03665180E+00  2.03665180E+00  2.03665180E+00 -1.79489655E+00 -2.38712130E+00
 -4.06357290E-01 -2.38712130E+00 -1.79489655E+00 -3.24903609E+00  3.53694843E+00
 -1.16221829E+01  2.03665180E+00  2.03665180E+00  2.03665180E+00 -1.79489655E+00
 -2.38712130E+00 -4.06357290E-01 -2.38712130E+00 -1.79489655E+00 -3.24903609E+00
  3.53694843E+00 -1.16221829E+01  2.03665180E+00  2.03665180E+00  2.03665180E+00
 -1.79489655E+00 -2.38712130E+00 -4.06357290E-01 -2.38712130E+00 -1.79489655E+00
 -3.24903609E+00  3.53694843E+00 -1.16221829E+01  2.03665180E+00  2.03665180E+00
  2.03665180E+00 -1.79489655E+00 -2.38712130E+00 -4.06357290E-01 -2.38712130E+00
 -1.79489655E+00 -3.24903609E+00  3.53694843E+00 -1.16221829E+01  2.03665180E+00
  2.03665180E+00  2.03665180E+00 -1.79489655E+00 -2.38712130E+00 -4.06357290E-01
 -2.38712130E+00 -1.79489655E+00 -3.24903609E+00  3.53694843E+00 -1.16221829E+01
  2.03665180E+00  2.03665180E+00  2.03665180E+00 -1.79489655E+00 -2.38712130E+00
 -4.06357290E-01 -2.38712130E+00 -1.79489655E+00 -3.24903609E+00  3.53694843E+00
 -1.16221829E+01  2.03665180E+00  2.03665180E+00  2.03665180E+00 -1.79489655E+00
 -2.38712130E+00 -4.06357290E-01 -2.38712130E+00 -1.79489655E+00 -3.24903609E+00
  3.53694843E+00 -1.16221829E+01  2.03665180E+00  2.03665180E+00  2.03665180E+00
 -1.79489655E+00 -2.38712130E+00 -3.69912690E-01 -2.26412077E+00 -1.85411902E+00
 -3.41303679E+00  3.57339303E+00 -1.16039606E+01  2.01234326E+00  2.01234326E+00
  2.01234326E+00 -1.85411902E+00 -2.26412077E+00  8.78752195E-01  8.78752195E-01
  8.78752195E-01  1.31608740E+00  9.69863695E-01  9.69863695E-01  1.01589323E+00
  1.01589323E+00  1.19811623E+00  1.01589323E+00  1.01589323E+00  1.01589323E+00
  1.01589323E+00  1.19811623E+00  1.01589323E+00  1.01589323E+00  1.01589323E+00
  1.01589323E+00  1.19811623E+00  1.01589323E+00  1.01589323E+00  1.01589323E+00
  1.01589323E+00  1.19811623E+00  1.01589323E+00  1.01589323E+00  1.01589323E+00
  1.01589323E+00  1.19811623E+00  1.01589323E+00  1.01589323E+00  1.01589323E+00
  1.01589323E+00  1.19811623E+00  1.01589323E+00  1.01589323E+00  1.01589323E+00
  1.01589323E+00  1.19811623E+00  1.01589323E+00  1.01589323E+00  1.01589323E+00
  1.01589323E+00  1.19811623E+00  1.01589323E+00  1.01589323E+00  1.01589323E+00
  1.01589323E+00  1.19811623E+00  1.01589323E+00  1.01589323E+00  1.01589323E+00
  1.01589323E+00  1.19811623E+00  1.01589323E+00  1.01589323E+00  9.63048555E-01
  9.63048555E-01  9.44826255E-01  1.07238236E+00  1.07238236E+00  1.13419240E+00
  1.13419240E+00  1.13419240E+00  1.13419240E+00  1.07238236E+00  1.07238236E+00
  9.44826255E-01  9.63048555E-01  9.63048555E-01  1.01589323E+00  1.01589323E+00
  1.19811623E+00  1.01589323E+00  1.01589323E+00  1.01589323E+00  1.01589323E+00
  1.19811623E+00  1.01589323E+00  1.01589323E+00  1.01589323E+00  1.01589323E+00
  1.19811623E+00  1.01589323E+00  1.01589323E+00  1.01589323E+00  1.01589323E+00
  1.19811623E+00  1.01589323E+00  1.01589323E+00  1.01589323E+00  1.01589323E+00
  1.19811623E+00  1.01589323E+00  1.01589323E+00  1.01589323E+00  1.01589323E+00
  1.19811623E+00  1.01589323E+00  1.01589323E+00  1.01589323E+00  1.01589323E+00
  1.19811623E+00  1.01589323E+00  1.01589323E+00  1.01589323E+00  1.01589323E+00
  1.19811623E+00  1.01589323E+00  1.01589323E+00  1.01589323E+00  1.01589323E+00
  1.19811623E+00  1.01589323E+00  1.01589323E+00  9.69863695E-01  9.69863695E-01
  1.31608740E+00  8.78752195E-01  8.78752195E-01  8.78752195E-01  2.88867189E+00
  2.45133669E+00  1.75342260E+00  1.75342260E+00  1.77468802E+00  1.77468802E+00
  1.77468802E+00  1.77468802E+00  1.77468802E+00  1.77468802E+00  1.77468802E+00
  1.77468802E+00  1.77468802E+00  2.45133669E+00  2.88867189E+00  2.79803416E+00
  2.54292197E+00  1.85411902E+00  1.85411902E+00  1.80349748E+00  1.80349748E+00
  1.80349748E+00  1.80349748E+00  1.80349748E+00  1.80349748E+00  1.80349748E+00
  1.80349748E+00  1.80349748E+00  2.54292197E+00  2.79803416E+00  2.79803416E+00
  2.54292197E+00  1.85411902E+00  1.85411902E+00  1.80349748E+00  1.80349748E+00
  1.80349748E+00  1.80349748E+00  1.80349748E+00  1.80349748E+00  1.80349748E+00
  1.80349748E+00  1.80349748E+00  2.54292197E+00  2.79803416E+00  2.79803416E+00
  2.54292197E+00  1.85411902E+00  1.85411902E+00  1.80349748E+00  1.80349748E+00
  1.80349748E+00  1.80349748E+00  1.80349748E+00  1.80349748E+00  1.80349748E+00
  1.80349748E+00  1.80349748E+00  2.54292197E+00  2.79803416E+00  2.79803416E+00
  2.54292197E+00  1.85411902E+00  1.85411902E+00  1.80349748E+00  1.80349748E+00
  1.80349748E+00  1.80349748E+00  1.80349748E+00  1.80349748E+00  1.80349748E+00
  1.80349748E+00  1.80349748E+00  2.54292197E+00  2.79803416E+00  2.79803416E+00
  2.54292197E+00  1.85411902E+00  1.85411902E+00  1.80349748E+00  1.80349748E+00
  1.80349748E+00  1.80349748E+00  1.80349748E+00  1.80349748E+00  1.80349748E+00
  1.80349748E+00  1.80349748E+00  2.54292197E+00  2.79803416E+00  2.79803416E+00
  2.54292197E+00  1.85411902E+00  1.85411902E+00  1.80349748E+00  1.80349748E+00
  1.80349748E+00  1.80349748E+00  1.80349748E+00  1.80349748E+00  1.80349748E+00
  1.80349748E+00  1.80349748E+00  2.54292197E+00  2.79803416E+00  2.79803416E+00
  2.54292197E+00  1.85411902E+00  1.85411902E+00  1.80349748E+00  1.80349748E+00
  1.80349748E+00  1.80349748E+00  1.80349748E+00  1.80349748E+00  1.80349748E+00
  1.80349748E+00  1.80349748E+00  2.54292197E+00  2.79803416E+00  2.79803416E+00
  2.54292197E+00  1.85411902E+00  1.85411902E+00  1.80349748E+00  1.80349748E+00
  1.80349748E+00  1.80349748E+00  1.80349748E+00  1.80349748E+00  1.80349748E+00
  1.80349748E+00  1.80349748E+00  2.54292197E+00  2.79803416E+00  2.79803416E+00
  2.54292197E+00  1.85411902E+00  1.85411902E+00  1.80349748E+00  1.80349748E+00
  1.80349748E+00  1.80349748E+00  1.80349748E+00  1.80349748E+00  1.80349748E+00
  1.80349748E+00  1.80349748E+00  2.54292197E+00  2.79803416E+00  2.68141145E+00
  2.72696720E+00  2.03816426E+00  2.03816426E+00  1.80127435E+00  1.80127435E+00
  1.80127435E+00  1.80127435E+00  1.80127435E+00  1.80127435E+00  1.80127435E+00
  1.80127435E+00  1.80127435E+00  2.72696720E+00  2.68141145E+00  2.95050015E+00
  2.53138725E+00  1.90636236E+00  1.90636236E+00  1.81271796E+00  1.81271796E+00
  1.81271796E+00  1.81271796E+00  1.81271796E+00  1.81271796E+00  1.81271796E+00
  1.81271796E+00  1.81271796E+00  2.53138725E+00  2.95050015E+00  2.58149857E+00
  2.58149857E+00  1.13419240E+00  1.13419240E+00  1.07238236E+00  1.07238236E+00
  9.44826255E-01  9.63048555E-01  9.63048555E-01  1.01589323E+00  1.01589323E+00
  1.19811623E+00  1.01589323E+00  1.01589323E+00  1.01589323E+00  1.01589323E+00
  1.19811623E+00  1.01589323E+00  1.01589323E+00  1.01589323E+00  1.01589323E+00
  1.19811623E+00  1.01589323E+00  1.01589323E+00  1.01589323E+00  1.01589323E+00
  1.19811623E+00  1.01589323E+00  1.01589323E+00  1.01589323E+00  1.01589323E+00
  1.19811623E+00  1.01589323E+00  1.01589323E+00  1.01589323E+00  1.01589323E+00
  1.19811623E+00  1.01589323E+00  1.01589323E+00  1.01589323E+00  1.01589323E+00
  1.19811623E+00  1.01589323E+00  1.01589323E+00  1.01589323E+00  1.01589323E+00
  1.19811623E+00  1.01589323E+00  1.01589323E+00  1.01589323E+00  1.01589323E+00
  1.19811623E+00  1.01589323E+00  1.01589323E+00  9.69863695E-01  9.69863695E-01
  1.31608740E+00  8.78752195E-01  8.78752195E-01  8.78752195E-01  2.88867189E+00
  2.45133669E+00  1.75342260E+00  1.75342260E+00  1.77468802E+00  1.77468802E+00
  1.77468802E+00  1.77468802E+00  1.77468802E+00  1.77468802E+00  1.77468802E+00
  1.77468802E+00  1.77468802E+00  2.45133669E+00  2.88867189E+00  2.79803416E+00
  2.54292197E+00  1.85411902E+00  1.85411902E+00  1.80349748E+00  1.80349748E+00
  1.80349748E+00  1.80349748E+00  1.80349748E+00  1.80349748E+00  1.80349748E+00
  1.80349748E+00  1.80349748E+00  2.54292197E+00  2.79803416E+00  2.79803416E+00
  2.54292197E+00  1.85411902E+00  1.85411902E+00  1.80349748E+00  1.80349748E+00
  1.80349748E+00  1.80349748E+00  1.80349748E+00  1.80349748E+00  1.80349748E+00
  1.80349748E+00  1.80349748E+00  2.54292197E+00  2.79803416E+00  2.79803416E+00
  2.54292197E+00  1.85411902E+00  1.85411902E+00  1.80349748E+00  1.80349748E+00
  1.80349748E+00  1.80349748E+00  1.80349748E+00  1.80349748E+00  1.80349748E+00
  1.80349748E+00  1.80349748E+00  2.54292197E+00  2.79803416E+00  2.79803416E+00
  2.54292197E+00  1.85411902E+00  1.85411902E+00  1.80349748E+00  1.80349748E+00
  1.80349748E+00  1.80349748E+00  1.80349748E+00  1.80349748E+00  1.80349748E+00
  1.80349748E+00  1.80349748E+00  2.54292197E+00  2.79803416E+00  2.79803416E+00
  2.54292197E+00  1.85411902E+00  1.85411902E+00  1.80349748E+00  1.80349748E+00
  1.80349748E+00  1.80349748E+00  1.80349748E+00  1.80349748E+00  1.80349748E+00
  1.80349748E+00  1.80349748E+00  2.54292197E+00  2.79803416E+00  2.79803416E+00
  2.54292197E+00  1.85411902E+00  1.85411902E+00  1.80349748E+00  1.80349748E+00
  1.80349748E+00  1.80349748E+00  1.80349748E+00  1.80349748E+00  1.80349748E+00
  1.80349748E+00  1.80349748E+00  2.54292197E+00  2.79803416E+00  2.79803416E+00
  2.54292197E+00  1.85411902E+00  1.85411902E+00  1.80349748E+00  1.80349748E+00
  1.80349748E+00  1.80349748E+00  1.80349748E+00  1.80349748E+00  1.80349748E+00
  1.80349748E+00  1.80349748E+00  2.54292197E+00  2.79803416E+00  2.79803416E+00
  2.54292197E+00  1.85411902E+00  1.85411902E+00  1.80349748E+00  1.80349748E+00
  1.80349748E+00  1.80349748E+00  1.80349748E+00  1.80349748E+00  1.80349748E+00
  1.80349748E+00  1.80349748E+00  2.54292197E+00  2.79803416E+00  2.79803416E+00
  2.54292197E+00  1.85411902E+00  1.85411902E+00  1.80349748E+00  1.80349748E+00
  1.80349748E+00  1.80349748E+00  1.80349748E+00  1.80349748E+00  1.80349748E+00
  1.80349748E+00  1.80349748E+00  2.54292197E+00  2.79803416E+00  2.68141145E+00
  2.72696720E+00  2.03816426E+00  2.03816426E+00  1.80127435E+00  1.80127435E+00
  1.80127435E+00  1.80127435E+00  1.80127435E+00  1.80127435E+00  1.80127435E+00
  1.80127435E+00  1.80127435E+00  2.72696720E+00  2.68141145E+00  1.13419240E+00
  1.13419240E+00  1.07238236E+00  1.07238236E+00  9.44826255E-01  9.63048555E-01
  9.63048555E-01  1.01589323E+00  1.01589323E+00  1.19811623E+00  1.01589323E+00
  1.01589323E+00  1.01589323E+00  1.01589323E+00  1.19811623E+00  1.01589323E+00
  1.01589323E+00  1.01589323E+00  1.01589323E+00  1.19811623E+00  1.01589323E+00
  1.01589323E+00  1.01589323E+00  1.01589323E+00  1.19811623E+00  1.01589323E+00
  1.01589323E+00  1.01589323E+00  1.01589323E+00  1.19811623E+00  1.01589323E+00
  1.01589323E+00  1.01589323E+00  1.01589323E+00  1.19811623E+00  1.01589323E+00
  1.01589323E+00  1.01589323E+00  1.01589323E+00  1.19811623E+00  1.01589323E+00
  1.01589323E+00  1.01589323E+00  1.01589323E+00  1.19811623E+00  1.01589323E+00
  1.01589323E+00  1.01589323E+00  1.01589323E+00  1.19811623E+00  1.01589323E+00
  1.01589323E+00  1.01589323E+00  1.01589323E+00  1.19811623E+00  1.01589323E+00
  1.01589323E+00  9.69863695E-01  9.69863695E-01  1.31608740E+00  8.78752195E-01
  8.78752195E-01  8.78752195E-01  2.88867189E+00  2.45133669E+00  1.75342260E+00
  1.75342260E+00  1.77468802E+00  1.77468802E+00  1.77468802E+00  1.77468802E+00
  1.77468802E+00  1.77468802E+00  1.77468802E+00  1.77468802E+00  1.77468802E+00
  2.45133669E+00  2.88867189E+00  2.79803416E+00  2.54292197E+00  1.85411902E+00
  1.85411902E+00  1.80349748E+00  1.80349748E+00  1.80349748E+00  1.80349748E+00
  1.80349748E+00  1.80349748E+00  1.80349748E+00  1.80349748E+00  1.80349748E+00
  2.54292197E+00  2.79803416E+00  2.79803416E+00  2.54292197E+00  1.85411902E+00
  1.85411902E+00  1.80349748E+00  1.80349748E+00  1.80349748E+00  1.80349748E+00
  1.80349748E+00  1.80349748E+00  1.80349748E+00  1.80349748E+00  1.80349748E+00
  2.54292197E+00  2.79803416E+00  2.79803416E+00  2.54292197E+00  1.85411902E+00
  1.85411902E+00  1.80349748E+00  1.80349748E+00  1.80349748E+00  1.80349748E+00
  1.80349748E+00  1.80349748E+00  1.80349748E+00  1.80349748E+00  1.80349748E+00
  2.54292197E+00  2.79803416E+00  2.79803416E+00  2.54292197E+00  1.85411902E+00
  1.85411902E+00  1.80349748E+00  1.80349748E+00  1.80349748E+00  1.80349748E+00
  1.80349748E+00  1.80349748E+00  1.80349748E+00  1.80349748E+00  1.80349748E+00
  2.54292197E+00  2.79803416E+00  2.79803416E+00  2.54292197E+00  1.85411902E+00
  1.85411902E+00  1.80349748E+00  1.80349748E+00  1.80349748E+00  1.80349748E+00
  1.80349748E+00  1.80349748E+00  1.80349748E+00  1.80349748E+00  1.80349748E+00
  2.54292197E+00  2.79803416E+00  2.79803416E+00  2.54292197E+00  1.85411902E+00
  1.85411902E+00  1.80349748E+00  1.80349748E+00  1.80349748E+00  1.80349748E+00
  1.80349748E+00  1.80349748E+00  1.80349748E+00  1.80349748E+00  1.80349748E+00
  2.54292197E+00  2.79803416E+00  2.79803416E+00  2.54292197E+00  1.85411902E+00
  1.85411902E+00  1.80349748E+00  1.80349748E+00  1.80349748E+00  1.80349748E+00
  1.80349748E+00  1.80349748E+00  1.80349748E+00  1.80349748E+00  1.80349748E+00
  2.54292197E+00  2.79803416E+00  2.79803416E+00  2.54292197E+00  1.85411902E+00
  1.85411902E+00  1.80349748E+00  1.80349748E+00  1.80349748E+00  1.80349748E+00
  1.80349748E+00  1.80349748E+00  1.80349748E+00  1.80349748E+00  1.80349748E+00
  2.54292197E+00  2.79803416E+00  2.79803416E+00  2.54292197E+00  1.85411902E+00
  1.85411902E+00  1.80349748E+00  1.80349748E+00  1.80349748E+00  1.80349748E+00
  1.80349748E+00  1.80349748E+00  1.80349748E+00  1.80349748E+00  1.80349748E+00
  2.54292197E+00  2.79803416E+00  2.79803416E+00  2.54292197E+00  1.85411902E+00
  1.85411902E+00  1.80349748E+00  1.80349748E+00  1.80349748E+00  1.80349748E+00
  1.80349748E+00  1.80349748E+00  1.80349748E+00  1.80349748E+00  1.80349748E+00
  2.54292197E+00  2.79803416E+00  2.68141145E+00  2.72696720E+00  2.03816426E+00
  2.03816426E+00  1.80127435E+00  1.80127435E+00  1.80127435E+00  1.80127435E+00
  1.80127435E+00  1.80127435E+00  1.80127435E+00  1.80127435E+00  1.80127435E+00
  2.72696720E+00  2.68141145E+00  2.95050015E+00  2.53138725E+00  1.90636236E+00
  1.90636236E+00  1.81271796E+00  1.81271796E+00  1.81271796E+00  1.81271796E+00
  1.81271796E+00  1.81271796E+00  1.81271796E+00  1.81271796E+00  1.81271796E+00
  2.53138725E+00  2.95050015E+00  2.58149857E+00  2.58149857E+00  2.68141145E+00
  2.72696720E+00  2.03816426E+00  2.03816426E+00  1.80127435E+00  1.80127435E+00
  1.80127435E+00  1.80127435E+00  1.80127435E+00  1.80127435E+00  1.80127435E+00
  1.80127435E+00  1.80127435E+00  2.72696720E+00  2.68141145E+00  2.79803416E+00
  2.54292197E+00  1.85411902E+00  1.85411902E+00  1.80349748E+00  1.80349748E+00
  1.80349748E+00  1.80349748E+00  1.80349748E+00  1.80349748E+00  1.80349748E+00
  1.80349748E+00  1.80349748E+00  2.54292197E+00  2.79803416E+00  2.79803416E+00
  2.54292197E+00  1.85411902E+00  1.85411902E+00  1.80349748E+00  1.80349748E+00
  1.80349748E+00  1.80349748E+00  1.80349748E+00  1.80349748E+00  1.80349748E+00
  1.80349748E+00  1.80349748E+00  2.54292197E+00  2.79803416E+00  2.79803416E+00
  2.54292197E+00  1.85411902E+00  1.85411902E+00  1.80349748E+00  1.80349748E+00
  1.80349748E+00  1.80349748E+00  1.80349748E+00  1.80349748E+00  1.80349748E+00
  1.80349748E+00  1.80349748E+00  2.54292197E+00  2.79803416E+00  2.79803416E+00
  2.54292197E+00  1.85411902E+00  1.85411902E+00  1.80349748E+00  1.80349748E+00
  1.80349748E+00  1.80349748E+00  1.80349748E+00  1.80349748E+00  1.80349748E+00
  1.80349748E+00  1.80349748E+00  2.54292197E+00  2.79803416E+00  2.79803416E+00
  2.54292197E+00  1.85411902E+00  1.85411902E+00  1.80349748E+00  1.80349748E+00
  1.80349748E+00  1.80349748E+00  1.80349748E+00  1.80349748E+00  1.80349748E+00
  1.80349748E+00  1.80349748E+00  2.54292197E+00  2.79803416E+00  2.79803416E+00
  2.54292197E+00  1.85411902E+00  1.85411902E+00  1.80349748E+00  1.80349748E+00
  1.80349748E+00  1.80349748E+00  1.80349748E+00  1.80349748E+00  1.80349748E+00
  1.80349748E+00  1.80349748E+00  2.54292197E+00  2.79803416E+00  2.79803416E+00
  2.54292197E+00  1.85411902E+00  1.85411902E+00  1.80349748E+00  1.80349748E+00
  1.80349748E+00  1.80349748E+00  1.80349748E+00  1.80349748E+00  1.80349748E+00
  1.80349748E+00  1.80349748E+00  2.54292197E+00  2.79803416E+00  2.79803416E+00
  2.54292197E+00  1.85411902E+00  1.85411902E+00  1.80349748E+00  1.80349748E+00
  1.80349748E+00  1.80349748E+00  1.80349748E+00  1.80349748E+00  1.80349748E+00
  1.80349748E+00  1.80349748E+00  2.54292197E+00  2.79803416E+00  2.79803416E+00
  2.54292197E+00  1.85411902E+00  1.85411902E+00  1.80349748E+00  1.80349748E+00
  1.80349748E+00  1.80349748E+00  1.80349748E+00  1.80349748E+00  1.80349748E+00
  1.80349748E+00  1.80349748E+00  2.54292197E+00  2.79803416E+00  2.79803416E+00
  2.54292197E+00  1.85411902E+00  1.85411902E+00  1.80349748E+00  1.80349748E+00
  1.80349748E+00  1.80349748E+00  1.80349748E+00  1.80349748E+00  1.80349748E+00
  1.80349748E+00  1.80349748E+00  2.54292197E+00  2.79803416E+00  2.88867189E+00
  2.45133669E+00  1.75342260E+00  1.75342260E+00  1.77468802E+00  1.77468802E+00
  1.77468802E+00  1.77468802E+00  1.77468802E+00  1.77468802E+00  1.77468802E+00
  1.77468802E+00  1.77468802E+00  2.45133669E+00  2.88867189E+00 -1.82223000E+01
 -1.82223000E+01 -1.82223000E+01 -1.82223000E+01 -1.82223000E+01 -1.82223000E+01
 -1.82223000E+01 -1.82223000E+01 -1.82223000E+01 -1.82223000E+01 -1.82223000E+01
 -1.82223000E+01 -1.82223000E+01 -1.82223000E+01 -1.82223000E+01 -1.82223000E+01
 -1.82223000E+01 -1.82223000E+01 -1.82223000E+01 -1.82223000E+01 -1.82223000E+01
 -1.82223000E+01 -1.82223000E+01 -1.82223000E+01 -1.82223000E+01 -1.82223000E+01
 -1.82223000E+01 -1.82223000E+01 -1.82223000E+01 -1.82223000E+01 -1.82223000E+01
 -1.82223000E+01 -1.82223000E+01 -1.82223000E+01 -1.82223000E+01 -1.82223000E+01
 -1.82223000E+01 -1.82223000E+01 -1.82223000E+01 -1.82223000E+01 -1.82223000E+01
 -1.82223000E+01 -1.82223000E+01 -1.82223000E+01 -1.82223000E+01 -1.82223000E+01
 -1.82223000E+01 -1.82223000E+01 -1.51973982E+01  7.59869910E+00  7.59869910E+00
 -1.51973982E+01  7.59869910E+00  7.59869910E+00 -1.51973982E+01  7.59869910E+00
  7.59869910E+00 -1.51973982E+01  7.59869910E+00  7.59869910E+00 -1.51973982E+01
  7.59869910E+00  7.59869910E+00 -1.51973982E+01  7.59869910E+00  7.59869910E+00
 -1.51973982E+01  7.59869910E+00  7.59869910E+00 -1.51973982E+01  7.59869910E+00
  7.59869910E+00 -1.51973982E+01  7.59869910E+00  7.59869910E+00 -1.51973982E+01
  7.59869910E+00  7.59869910E+00 -1.51973982E+01  7.59869910E+00  7.59869910E+00
 -1.51973982E+01  7.59869910E+00  7.59869910E+00 -1.51973982E+01  7.59869910E+00
  7.59869910E+00 -1.51973982E+01  7.59869910E+00  7.59869910E+00 -1.51973982E+01
  7.59869910E+00  7.59869910E+00 -1.51973982E+01  7.59869910E+00  7.59869910E+00
 -1.51973982E+01  7.59869910E+00  7.59869910E+00 -1.51973982E+01  7.59869910E+00
  7.59869910E+00 -1.51973982E+01  7.59869910E+00  7.59869910E+00 -1.51973982E+01
  7.59869910E+00  7.59869910E+00 -1.51973982E+01  7.59869910E+00  7.59869910E+00
 -1.51973982E+01  7.59869910E+00  7.59869910E+00 -1.51973982E+01  7.59869910E+00
  7.59869910E+00 -1.51973982E+01  7.59869910E+00  7.59869910E+00 -1.51973982E+01
  7.59869910E+00  7.59869910E+00 -1.51973982E+01  7.59869910E+00  7.59869910E+00
 -1.51973982E+01  7.59869910E+00  7.59869910E+00 -1.51973982E+01  7.59869910E+00
  7.59869910E+00 -1.51973982E+01  7.59869910E+00  7.59869910E+00 -1.51973982E+01
  7.59869910E+00  7.59869910E+00 -1.51973982E+01  7.59869910E+00  7.59869910E+00
 -1.51973982E+01  7.59869910E+00  7.59869910E+00 -1.51973982E+01  7.59869910E+00
  7.59869910E+00 -1.51973982E+01  7.59869910E+00  7.59869910E+00 -1.51973982E+01
  7.59869910E+00  7.59869910E+00 -1.51973982E+01  7.59869910E+00  7.59869910E+00
 -1.51973982E+01  7.59869910E+00  7.59869910E+00 -1.51973982E+01  7.59869910E+00
  7.59869910E+00 -1.51973982E+01  7.59869910E+00  7.59869910E+00 -1.51973982E+01
  7.59869910E+00  7.59869910E+00 -1.51973982E+01  7.59869910E+00  7.59869910E+00
 -1.51973982E+01  7.59869910E+00  7.59869910E+00 -1.51973982E+01  7.59869910E+00
  7.59869910E+00 -1.51973982E+01  7.59869910E+00  7.59869910E+00 -1.51973982E+01
  7.59869910E+00  7.59869910E+00 -1.51973982E+01  7.59869910E+00  7.59869910E+00
 -1.51973982E+01  7.59869910E+00  7.59869910E+00 -1.51973982E+01  7.59869910E+00
  7.59869910E+00 -1.51973982E+01  7.59869910E+00  7.59869910E+00 -1.51973982E+01
  7.59869910E+00  7.59869910E+00 -1.51973982E+01  7.59869910E+00  7.59869910E+00
 -1.51973982E+01  7.59869910E+00  7.59869910E+00 -1.51973982E+01  7.59869910E+00
  7.59869910E+00 -1.51973982E+01  7.59869910E+00  7.59869910E+00 -1.51973982E+01
  7.59869910E+00  7.59869910E+00 -1.51973982E+01  7.59869910E+00  7.59869910E+00
 -1.51973982E+01  7.59869910E+00  7.59869910E+00 -1.51973982E+01  7.59869910E+00
  7.59869910E+00 -1.51973982E+01  7.59869910E+00  7.59869910E+00 -1.51973982E+01
  7.59869910E+00  7.59869910E+00 -1.51973982E+01  7.59869910E+00  7.59869910E+00
 -1.51973982E+01  7.59869910E+00  7.59869910E+00 -1.51973982E+01  7.59869910E+00
  7.59869910E+00 -1.51973982E+01  7.59869910E+00  7.59869910E+00 -1.51973982E+01
  7.59869910E+00  7.59869910E+00 -1.51973982E+01  7.59869910E+00  7.59869910E+00
 -1.51973982E+01  7.59869910E+00  7.59869910E+00 -1.51973982E+01  7.59869910E+00
  7.59869910E+00 -1.51973982E+01  7.59869910E+00  7.59869910E+00 -1.51973982E+01
  7.59869910E+00  7.59869910E+00 -1.51973982E+01  7.59869910E+00  7.59869910E+00
 -1.51973982E+01  7.59869910E+00  7.59869910E+00 -1.51973982E+01  7.59869910E+00
  7.59869910E+00 -1.51973982E+01  7.59869910E+00  7.59869910E+00 -1.51973982E+01
  7.59869910E+00  7.59869910E+00 -1.51973982E+01  7.59869910E+00  7.59869910E+00
 -1.51973982E+01  7.59869910E+00  7.59869910E+00 -1.51973982E+01  7.59869910E+00
  7.59869910E+00 -1.51973982E+01  7.59869910E+00  7.59869910E+00 -1.51973982E+01
  7.59869910E+00  7.59869910E+00 -1.51973982E+01  7.59869910E+00  7.59869910E+00
 -1.51973982E+01  7.59869910E+00  7.59869910E+00 -1.51973982E+01  7.59869910E+00
  7.59869910E+00 -1.51973982E+01  7.59869910E+00  7.59869910E+00 -1.51973982E+01
  7.59869910E+00  7.59869910E+00 -1.51973982E+01  7.59869910E+00  7.59869910E+00
 -1.51973982E+01  7.59869910E+00  7.59869910E+00 -1.51973982E+01  7.59869910E+00
  7.59869910E+00 -1.51973982E+01  7.59869910E+00  7.59869910E+00 -1.51973982E+01
  7.59869910E+00  7.59869910E+00 -1.51973982E+01  7.59869910E+00  7.59869910E+00
 -1.51973982E+01  7.59869910E+00  7.59869910E+00 -1.51973982E+01  7.59869910E+00
  7.59869910E+00 -1.51973982E+01  7.59869910E+00  7.59869910E+00 -1.51973982E+01
  7.59869910E+00  7.59869910E+00 -1.51973982E+01  7.59869910E+00  7.59869910E+00
 -1.51973982E+01  7.59869910E+00  7.59869910E+00 -1.51973982E+01  7.59869910E+00
  7.59869910E+00 -1.51973982E+01  7.59869910E+00  7.59869910E+00 -1.51973982E+01
  7.59869910E+00  7.59869910E+00 -1.51973982E+01  7.59869910E+00  7.59869910E+00
 -1.51973982E+01  7.59869910E+00  7.59869910E+00 -1.51973982E+01  7.59869910E+00
  7.59869910E+00 -1.51973982E+01  7.59869910E+00  7.59869910E+00 -1.51973982E+01
  7.59869910E+00  7.59869910E+00 -1.51973982E+01  7.59869910E+00  7.59869910E+00
 -1.51973982E+01  7.59869910E+00  7.59869910E+00 -1.51973982E+01  7.59869910E+00
  7.59869910E+00 -1.51973982E+01  7.59869910E+00  7.59869910E+00 -1.51973982E+01
  7.59869910E+00  7.59869910E+00 -1.51973982E+01  7.59869910E+00  7.59869910E+00
 -1.51973982E+01  7.59869910E+00  7.59869910E+00 -1.51973982E+01  7.59869910E+00
  7.59869910E+00 -1.51973982E+01  7.59869910E+00  7.59869910E+00 -1.51973982E+01
  7.59869910E+00  7.59869910E+00 -1.51973982E+01  7.59869910E+00  7.59869910E+00
 -1.51973982E+01  7.59869910E+00  7.59869910E+00 -1.51973982E+01  7.59869910E+00
  7.59869910E+00 -1.51973982E+01  7.59869910E+00  7.59869910E+00 -1.51973982E+01
  7.59869910E+00  7.59869910E+00 -1.51973982E+01  7.59869910E+00  7.59869910E+00
 -1.51973982E+01  7.59869910E+00  7.59869910E+00 -1.51973982E+01  7.59869910E+00
  7.59869910E+00 -1.51973982E+01  7.59869910E+00  7.59869910E+00 -1.51973982E+01
  7.59869910E+00  7.59869910E+00 -1.51973982E+01  7.59869910E+00  7.59869910E+00
 -1.51973982E+01  7.59869910E+00  7.59869910E+00 -1.51973982E+01  7.59869910E+00
  7.59869910E+00 -1.51973982E+01  7.59869910E+00  7.59869910E+00 -1.51973982E+01
  7.59869910E+00  7.59869910E+00 -1.51973982E+01  7.59869910E+00  7.59869910E+00
 -1.51973982E+01  7.59869910E+00  7.59869910E+00 -1.51973982E+01  7.59869910E+00
  7.59869910E+00 -1.51973982E+01  7.59869910E+00  7.59869910E+00 -1.51973982E+01
  7.59869910E+00  7.59869910E+00 -1.51973982E+01  7.59869910E+00  7.59869910E+00
 -1.51973982E+01  7.59869910E+00  7.59869910E+00 -1.51973982E+01  7.59869910E+00
  7.59869910E+00 -1.51973982E+01  7.59869910E+00  7.59869910E+00 -1.51973982E+01
  7.59869910E+00  7.59869910E+00 -1.51973982E+01  7.59869910E+00  7.59869910E+00
 -1.51973982E+01  7.59869910E+00  7.59869910E+00 -1.51973982E+01  7.59869910E+00
  7.59869910E+00 -1.51973982E+01  7.59869910E+00  7.59869910E+00 -1.51973982E+01
  7.59869910E+00  7.59869910E+00 -1.51973982E+01  7.59869910E+00  7.59869910E+00
 -1.51973982E+01  7.59869910E+00  7.59869910E+00 -1.51973982E+01  7.59869910E+00
  7.59869910E+00 -1.51973982E+01  7.59869910E+00  7.59869910E+00 -1.51973982E+01
  7.59869910E+00  7.59869910E+00 -1.51973982E+01  7.59869910E+00  7.59869910E+00
 -1.51973982E+01  7.59869910E+00  7.59869910E+00 -1.51973982E+01  7.59869910E+00
  7.59869910E+00 -1.51973982E+01  7.59869910E+00  7.59869910E+00 -1.51973982E+01
  7.59869910E+00  7.59869910E+00 -1.51973982E+01  7.59869910E+00  7.59869910E+00
 -1.51973982E+01  7.59869910E+00  7.59869910E+00 -1.51973982E+01  7.59869910E+00
  7.59869910E+00 -1.51973982E+01  7.59869910E+00  7.59869910E+00 -1.51973982E+01
  7.59869910E+00  7.59869910E+00 -1.51973982E+01  7.59869910E+00  7.59869910E+00
 -1.51973982E+01  7.59869910E+00  7.59869910E+00 -1.51973982E+01  7.59869910E+00
  7.59869910E+00 -1.51973982E+01  7.59869910E+00  7.59869910E+00 -1.51973982E+01
  7.59869910E+00  7.59869910E+00 -1.51973982E+01  7.59869910E+00  7.59869910E+00
 -1.51973982E+01  7.59869910E+00  7.59869910E+00 -1.51973982E+01  7.59869910E+00
  7.59869910E+00 -1.51973982E+01  7.59869910E+00  7.59869910E+00 -1.51973982E+01
  7.59869910E+00  7.59869910E+00 -1.51973982E+01  7.59869910E+00  7.59869910E+00
 -1.51973982E+01  7.59869910E+00  7.59869910E+00 -1.51973982E+01  7.59869910E+00
  7.59869910E+00 -1.51973982E+01  7.59869910E+00  7.59869910E+00 -1.51973982E+01
  7.59869910E+00  7.59869910E+00 -1.51973982E+01  7.59869910E+00  7.59869910E+00
 -1.51973982E+01  7.59869910E+00  7.59869910E+00 -1.51973982E+01  7.59869910E+00
  7.59869910E+00 -1.51973982E+01  7.59869910E+00  7.59869910E+00 -1.51973982E+01
  7.59869910E+00  7.59869910E+00 -1.51973982E+01  7.59869910E+00  7.59869910E+00
 -1.51973982E+01  7.59869910E+00  7.59869910E+00 -1.51973982E+01  7.59869910E+00
  7.59869910E+00 -1.51973982E+01  7.59869910E+00  7.59869910E+00 -1.51973982E+01
  7.59869910E+00  7.59869910E+00 -1.51973982E+01  7.59869910E+00  7.59869910E+00
 -1.51973982E+01  7.59869910E+00  7.59869910E+00 -1.51973982E+01  7.59869910E+00
  7.59869910E+00 -1.51973982E+01  7.59869910E+00  7.59869910E+00 -1.51973982E+01
  7.59869910E+00  7.59869910E+00 -1.51973982E+01  7.59869910E+00  7.59869910E+00
 -1.51973982E+01  7.59869910E+00  7.59869910E+00 -1.51973982E+01  7.59869910E+00
  7.59869910E+00 -1.51973982E+01  7.59869910E+00  7.59869910E+00 -1.51973982E+01
  7.59869910E+00  7.59869910E+00 -1.51973982E+01  7.59869910E+00  7.59869910E+00
 -1.51973982E+01  7.59869910E+00  7.59869910E+00 -1.51973982E+01  7.59869910E+00
  7.59869910E+00 -1.51973982E+01  7.59869910E+00  7.59869910E+00 -1.51973982E+01
  7.59869910E+00  7.59869910E+00 -1.51973982E+01  7.59869910E+00  7.59869910E+00
 -1.51973982E+01  7.59869910E+00  7.59869910E+00 -1.51973982E+01  7.59869910E+00
  7.59869910E+00 -1.51973982E+01  7.59869910E+00  7.59869910E+00 -1.51973982E+01
  7.59869910E+00  7.59869910E+00 -1.51973982E+01  7.59869910E+00  7.59869910E+00
 -1.51973982E+01  7.59869910E+00  7.59869910E+00 -1.51973982E+01  7.59869910E+00
  7.59869910E+00 -1.51973982E+01  7.59869910E+00  7.59869910E+00 -1.51973982E+01
  7.59869910E+00  7.59869910E+00 -1.51973982E+01  7.59869910E+00  7.59869910E+00
 -1.51973982E+01  7.59869910E+00  7.59869910E+00 -1.51973982E+01  7.59869910E+00
  7.59869910E+00 -1.51973982E+01  7.59869910E+00  7.59869910E+00 -1.51973982E+01
  7.59869910E+00  7.59869910E+00 -1.51973982E+01  7.59869910E+00  7.59869910E+00
 -1.51973982E+01  7.59869910E+00  7.59869910E+00 -1.51973982E+01  7.59869910E+00
  7.59869910E+00 -1.51973982E+01  7.59869910E+00  7.59869910E+00 -1.51973982E+01
  7.59869910E+00  7.59869910E+00 -1.51973982E+01  7.59869910E+00  7.59869910E+00
 -1.51973982E+01  7.59869910E+00  7.59869910E+00 -1.51973982E+01  7.59869910E+00
  7.59869910E+00 -1.51973982E+01  7.59869910E+00  7.59869910E+00 -1.51973982E+01
  7.59869910E+00  7.59869910E+00 -1.51973982E+01  7.59869910E+00  7.59869910E+00
 -1.51973982E+01  7.59869910E+00  7.59869910E+00 -1.51973982E+01  7.59869910E+00
  7.59869910E+00 -1.51973982E+01  7.59869910E+00  7.59869910E+00 -1.51973982E+01
  7.59869910E+00  7.59869910E+00 -1.51973982E+01  7.59869910E+00  7.59869910E+00
 -1.51973982E+01  7.59869910E+00  7.59869910E+00 -1.51973982E+01  7.59869910E+00
  7.59869910E+00 -1.51973982E+01  7.59869910E+00  7.59869910E+00 -1.51973982E+01
  7.59869910E+00  7.59869910E+00 -1.51973982E+01  7.59869910E+00  7.59869910E+00
 -1.51973982E+01  7.59869910E+00  7.59869910E+00 -1.51973982E+01  7.59869910E+00
  7.59869910E+00 -1.51973982E+01  7.59869910E+00  7.59869910E+00 -1.51973982E+01
  7.59869910E+00  7.59869910E+00 -1.51973982E+01  7.59869910E+00  7.59869910E+00
 -1.51973982E+01  7.59869910E+00  7.59869910E+00 -1.51973982E+01  7.59869910E+00
  7.59869910E+00 -1.51973982E+01  7.59869910E+00  7.59869910E+00 -1.51973982E+01
  7.59869910E+00  7.59869910E+00 -1.51973982E+01  7.59869910E+00  7.59869910E+00
 -1.51973982E+01  7.59869910E+00  7.59869910E+00 -1.51973982E+01  7.59869910E+00
  7.59869910E+00 -1.51973982E+01  7.59869910E+00  7.59869910E+00 -1.51973982E+01
  7.59869910E+00  7.59869910E+00 -1.51973982E+01  7.59869910E+00  7.59869910E+00
 -1.51973982E+01  7.59869910E+00  7.59869910E+00 -1.51973982E+01  7.59869910E+00
  7.59869910E+00 -1.51973982E+01  7.59869910E+00  7.59869910E+00 -1.51973982E+01
  7.59869910E+00  7.59869910E+00 -1.51973982E+01  7.59869910E+00  7.59869910E+00
 -1.51973982E+01  7.59869910E+00  7.59869910E+00 -1.51973982E+01  7.59869910E+00
  7.59869910E+00 -1.51973982E+01  7.59869910E+00  7.59869910E+00 -1.51973982E+01
  7.59869910E+00  7.59869910E+00 -1.51973982E+01  7.59869910E+00  7.59869910E+00
 -1.51973982E+01  7.59869910E+00  7.59869910E+00 -1.51973982E+01  7.59869910E+00
  7.59869910E+00 -1.51973982E+01  7.59869910E+00  7.59869910E+00 -1.51973982E+01
  7.59869910E+00  7.59869910E+00 -1.51973982E+01  7.59869910E+00  7.59869910E+00
 -1.51973982E+01  7.59869910E+00  7.59869910E+00 -1.51973982E+01  7.59869910E+00
  7.59869910E+00 -1.51973982E+01  7.59869910E+00  7.59869910E+00 -1.51973982E+01
  7.59869910E+00  7.59869910E+00 -1.51973982E+01  7.59869910E+00  7.59869910E+00
 -1.51973982E+01  7.59869910E+00  7.59869910E+00 -1.51973982E+01  7.59869910E+00
  7.59869910E+00 -1.51973982E+01  7.59869910E+00  7.59869910E+00 -1.51973982E+01
  7.59869910E+00  7.59869910E+00 -1.51973982E+01  7.59869910E+00  7.59869910E+00
 -1.51973982E+01  7.59869910E+00  7.59869910E+00 -1.51973982E+01  7.59869910E+00
  7.59869910E+00 -1.51973982E+01  7.59869910E+00  7.59869910E+00 -1.51973982E+01
  7.59869910E+00  7.59869910E+00 -1.51973982E+01  7.59869910E+00  7.59869910E+00
 -1.51973982E+01  7.59869910E+00  7.59869910E+00 -1.51973982E+01  7.59869910E+00
  7.59869910E+00 -1.51973982E+01  7.59869910E+00  7.59869910E+00 -1.51973982E+01
  7.59869910E+00  7.59869910E+00 -1.51973982E+01  7.59869910E+00  7.59869910E+00
 -1.51973982E+01  7.59869910E+00  7.59869910E+00 -1.51973982E+01  7.59869910E+00
  7.59869910E+00 -1.51973982E+01  7.59869910E+00  7.59869910E+00 -1.51973982E+01
  7.59869910E+00  7.59869910E+00 -1.51973982E+01  7.59869910E+00  7.59869910E+00
 -1.51973982E+01  7.59869910E+00  7.59869910E+00 -1.51973982E+01  7.59869910E+00
  7.59869910E+00 -1.51973982E+01  7.59869910E+00  7.59869910E+00 -1.51973982E+01
  7.59869910E+00  7.59869910E+00 -1.51973982E+01  7.59869910E+00  7.59869910E+00
 -1.51973982E+01  7.59869910E+00  7.59869910E+00 -1.51973982E+01  7.59869910E+00
  7.59869910E+00 -1.51973982E+01  7.59869910E+00  7.59869910E+00 -1.51973982E+01
  7.59869910E+00  7.59869910E+00 -1.51973982E+01  7.59869910E+00  7.59869910E+00
 -1.51973982E+01  7.59869910E+00  7.59869910E+00 -1.51973982E+01  7.59869910E+00
  7.59869910E+00 -1.51973982E+01  7.59869910E+00  7.59869910E+00 -1.51973982E+01
  7.59869910E+00  7.59869910E+00 -1.51973982E+01  7.59869910E+00  7.59869910E+00
 -1.51973982E+01  7.59869910E+00  7.59869910E+00 -1.51973982E+01  7.59869910E+00
  7.59869910E+00 -1.51973982E+01  7.59869910E+00  7.59869910E+00 -1.51973982E+01
  7.59869910E+00  7.59869910E+00 -1.51973982E+01  7.59869910E+00  7.59869910E+00
 -1.51973982E+01  7.59869910E+00  7.59869910E+00 -1.51973982E+01  7.59869910E+00
  7.59869910E+00 -1.51973982E+01  7.59869910E+00  7.59869910E+00 -1.51973982E+01
  7.59869910E+00  7.59869910E+00 -1.51973982E+01  7.59869910E+00  7.59869910E+00
 -1.51973982E+01  7.59869910E+00  7.59869910E+00 -1.51973982E+01  7.59869910E+00
  7.59869910E+00 -1.51973982E+01  7.59869910E+00  7.59869910E+00 -1.51973982E+01
  7.59869910E+00  7.59869910E+00 -1.51973982E+01  7.59869910E+00  7.59869910E+00
 -1.51973982E+01  7.59869910E+00  7.59869910E+00 -1.51973982E+01  7.59869910E+00
  7.59869910E+00 -1.51973982E+01  7.59869910E+00  7.59869910E+00 -1.51973982E+01
  7.59869910E+00  7.59869910E+00 -1.51973982E+01  7.59869910E+00  7.59869910E+00
 -1.51973982E+01  7.59869910E+00  7.59869910E+00 -1.51973982E+01  7.59869910E+00
  7.59869910E+00 -1.51973982E+01  7.59869910E+00  7.59869910E+00 -1.51973982E+01
  7.59869910E+00  7.59869910E+00 -1.51973982E+01  7.59869910E+00  7.59869910E+00
 -1.51973982E+01  7.59869910E+00  7.59869910E+00 -1.51973982E+01  7.59869910E+00
  7.59869910E+00 -1.51973982E+01  7.59869910E+00  7.59869910E+00 -1.51973982E+01
  7.59869910E+00  7.59869910E+00 -1.51973982E+01  7.59869910E+00  7.59869910E+00
 -1.51973982E+01  7.59869910E+00  7.59869910E+00 -1.51973982E+01  7.59869910E+00
  7.59869910E+00 -1.51973982E+01  7.59869910E+00  7.59869910E+00 -1.51973982E+01
  7.59869910E+00  7.59869910E+00 -1.51973982E+01  7.59869910E+00  7.59869910E+00
 -1.51973982E+01  7.59869910E+00  7.59869910E+00 -1.51973982E+01  7.59869910E+00
  7.59869910E+00 -1.51973982E+01  7.59869910E+00  7.59869910E+00 -1.51973982E+01
  7.59869910E+00  7.59869910E+00 -1.51973982E+01  7.59869910E+00  7.59869910E+00
 -1.51973982E+01  7.59869910E+00  7.59869910E+00 -1.51973982E+01  7.59869910E+00
  7.59869910E+00 -1.51973982E+01  7.59869910E+00  7.59869910E+00 -1.51973982E+01
  7.59869910E+00  7.59869910E+00 -1.51973982E+01  7.59869910E+00  7.59869910E+00
 -1.51973982E+01  7.59869910E+00  7.59869910E+00 -1.51973982E+01  7.59869910E+00
  7.59869910E+00 -1.51973982E+01  7.59869910E+00  7.59869910E+00 -1.51973982E+01
  7.59869910E+00  7.59869910E+00 -1.51973982E+01  7.59869910E+00  7.59869910E+00
 -1.51973982E+01  7.59869910E+00  7.59869910E+00 -1.51973982E+01  7.59869910E+00
  7.59869910E+00 -1.51973982E+01  7.59869910E+00  7.59869910E+00 -1.51973982E+01
  7.59869910E+00  7.59869910E+00 -1.51973982E+01  7.59869910E+00  7.59869910E+00
 -1.51973982E+01  7.59869910E+00  7.59869910E+00 -1.51973982E+01  7.59869910E+00
  7.59869910E+00 -1.51973982E+01  7.59869910E+00  7.59869910E+00 -1.51973982E+01
  7.59869910E+00  7.59869910E+00 -1.51973982E+01  7.59869910E+00  7.59869910E+00
 -1.51973982E+01  7.59869910E+00  7.59869910E+00 -1.51973982E+01  7.59869910E+00
  7.59869910E+00 -1.51973982E+01  7.59869910E+00  7.59869910E+00 -1.51973982E+01
  7.59869910E+00  7.59869910E+00 -1.51973982E+01  7.59869910E+00  7.59869910E+00
 -1.51973982E+01  7.59869910E+00  7.59869910E+00 -1.51973982E+01  7.59869910E+00
  7.59869910E+00 -1.51973982E+01  7.59869910E+00  7.59869910E+00 -1.51973982E+01
  7.59869910E+00  7.59869910E+00 -1.51973982E+01  7.59869910E+00  7.59869910E+00
 -1.51973982E+01  7.59869910E+00  7.59869910E+00 -1.51973982E+01  7.59869910E+00
  7.59869910E+00 -1.51973982E+01  7.59869910E+00  7.59869910E+00 -1.51973982E+01
  7.59869910E+00  7.59869910E+00 -1.51973982E+01  7.59869910E+00  7.59869910E+00
 -1.51973982E+01  7.59869910E+00  7.59869910E+00 -1.51973982E+01  7.59869910E+00
  7.59869910E+00 -1.51973982E+01  7.59869910E+00  7.59869910E+00 -1.51973982E+01
  7.59869910E+00  7.59869910E+00 -1.51973982E+01  7.59869910E+00  7.59869910E+00
 -1.51973982E+01  7.59869910E+00  7.59869910E+00 -1.51973982E+01  7.59869910E+00
  7.59869910E+00 -1.51973982E+01  7.59869910E+00  7.59869910E+00 -1.51973982E+01
  7.59869910E+00  7.59869910E+00 -1.51973982E+01  7.59869910E+00  7.59869910E+00
 -1.51973982E+01  7.59869910E+00  7.59869910E+00 -1.51973982E+01  7.59869910E+00
  7.59869910E+00 -1.51973982E+01  7.59869910E+00  7.59869910E+00 -1.51973982E+01
  7.59869910E+00  7.59869910E+00 -1.51973982E+01  7.59869910E+00  7.59869910E+00
 -1.51973982E+01  7.59869910E+00  7.59869910E+00 -1.51973982E+01  7.59869910E+00
  7.59869910E+00 -1.51973982E+01  7.59869910E+00  7.59869910E+00 -1.51973982E+01
  7.59869910E+00  7.59869910E+00 -1.51973982E+01  7.59869910E+00  7.59869910E+00
 -1.51973982E+01  7.59869910E+00  7.59869910E+00 -1.51973982E+01  7.59869910E+00
  7.59869910E+00 -1.51973982E+01  7.59869910E+00  7.59869910E+00 -1.51973982E+01
  7.59869910E+00  7.59869910E+00 -1.51973982E+01  7.59869910E+00  7.59869910E+00
 -1.51973982E+01  7.59869910E+00  7.59869910E+00 -1.51973982E+01  7.59869910E+00
  7.59869910E+00 -1.51973982E+01  7.59869910E+00  7.59869910E+00 -1.51973982E+01
  7.59869910E+00  7.59869910E+00 -1.51973982E+01  7.59869910E+00  7.59869910E+00
 -1.51973982E+01  7.59869910E+00  7.59869910E+00 -1.51973982E+01  7.59869910E+00
  7.59869910E+00 -1.51973982E+01  7.59869910E+00  7.59869910E+00 -1.51973982E+01
  7.59869910E+00  7.59869910E+00 -1.51973982E+01  7.59869910E+00  7.59869910E+00
 -1.51973982E+01  7.59869910E+00  7.59869910E+00 -1.51973982E+01  7.59869910E+00
  7.59869910E+00 -1.51973982E+01  7.59869910E+00  7.59869910E+00 -1.51973982E+01
  7.59869910E+00  7.59869910E+00 -1.51973982E+01  7.59869910E+00  7.59869910E+00
 -1.51973982E+01  7.59869910E+00  7.59869910E+00 -1.51973982E+01  7.59869910E+00
  7.59869910E+00 -1.51973982E+01  7.59869910E+00  7.59869910E+00 -1.51973982E+01
  7.59869910E+00  7.59869910E+00 -1.51973982E+01  7.59869910E+00  7.59869910E+00
 -1.51973982E+01  7.59869910E+00  7.59869910E+00 -1.51973982E+01  7.59869910E+00
  7.59869910E+00 -1.51973982E+01  7.59869910E+00  7.59869910E+00 -1.51973982E+01
  7.59869910E+00  7.59869910E+00 -1.51973982E+01  7.59869910E+00  7.59869910E+00
 -1.51973982E+01  7.59869910E+00  7.59869910E+00 -1.51973982E+01  7.59869910E+00
  7.59869910E+00 -1.51973982E+01  7.59869910E+00  7.59869910E+00 -1.51973982E+01
  7.59869910E+00  7.59869910E+00 -1.51973982E+01  7.59869910E+00  7.59869910E+00
 -1.51973982E+01  7.59869910E+00  7.59869910E+00 -1.51973982E+01  7.59869910E+00
  7.59869910E+00 -1.51973982E+01  7.59869910E+00  7.59869910E+00 -1.51973982E+01
  7.59869910E+00  7.59869910E+00 -1.51973982E+01  7.59869910E+00  7.59869910E+00
 -1.51973982E+01  7.59869910E+00  7.59869910E+00 -1.51973982E+01  7.59869910E+00
  7.59869910E+00 -1.51973982E+01  7.59869910E+00  7.59869910E+00 -1.51973982E+01
  7.59869910E+00  7.59869910E+00 -1.51973982E+01  7.59869910E+00  7.59869910E+00
 -1.51973982E+01  7.59869910E+00  7.59869910E+00 -1.51973982E+01  7.59869910E+00
  7.59869910E+00 -1.51973982E+01  7.59869910E+00  7.59869910E+00 -1.51973982E+01
  7.59869910E+00  7.59869910E+00 -1.51973982E+01  7.59869910E+00  7.59869910E+00
 -1.51973982E+01  7.59869910E+00  7.59869910E+00 -1.51973982E+01  7.59869910E+00
  7.59869910E+00 -1.51973982E+01  7.59869910E+00  7.59869910E+00 -1.51973982E+01
  7.59869910E+00  7.59869910E+00 -1.51973982E+01  7.59869910E+00  7.59869910E+00
 -1.51973982E+01  7.59869910E+00  7.59869910E+00 -1.51973982E+01  7.59869910E+00
  7.59869910E+00 -1.51973982E+01  7.59869910E+00  7.59869910E+00 -1.51973982E+01
  7.59869910E+00  7.59869910E+00 -1.51973982E+01  7.59869910E+00  7.59869910E+00
 -1.51973982E+01  7.59869910E+00  7.59869910E+00 -1.51973982E+01  7.59869910E+00
  7.59869910E+00 -1.51973982E+01  7.59869910E+00  7.59869910E+00 -1.51973982E+01
  7.59869910E+00  7.59869910E+00 -1.51973982E+01  7.59869910E+00  7.59869910E+00
 -1.51973982E+01  7.59869910E+00  7.59869910E+00 -1.51973982E+01  7.59869910E+00
  7.59869910E+00 -1.51973982E+01  7.59869910E+00  7.59869910E+00 -1.51973982E+01
  7.59869910E+00  7.59869910E+00 -1.51973982E+01  7.59869910E+00  7.59869910E+00
 -1.51973982E+01  7.59869910E+00  7.59869910E+00 -1.51973982E+01  7.59869910E+00
  7.59869910E+00 -1.51973982E+01  7.59869910E+00  7.59869910E+00 -1.51973982E+01
  7.59869910E+00  7.59869910E+00 -1.51973982E+01  7.59869910E+00  7.59869910E+00
 -1.51973982E+01  7.59869910E+00  7.59869910E+00 -1.51973982E+01  7.59869910E+00
  7.59869910E+00 -1.51973982E+01  7.59869910E+00  7.59869910E+00 -1.51973982E+01
  7.59869910E+00  7.59869910E+00 -1.51973982E+01  7.59869910E+00  7.59869910E+00
 -1.51973982E+01  7.59869910E+00  7.59869910E+00 -1.51973982E+01  7.59869910E+00
  7.59869910E+00 -1.51973982E+01  7.59869910E+00  7.59869910E+00 -1.51973982E+01
  7.59869910E+00  7.59869910E+00 -1.51973982E+01  7.59869910E+00  7.59869910E+00
 -1.51973982E+01  7.59869910E+00  7.59869910E+00 -1.51973982E+01  7.59869910E+00
  7.59869910E+00 -1.51973982E+01  7.59869910E+00  7.59869910E+00 -1.51973982E+01
  7.59869910E+00  7.59869910E+00 -1.51973982E+01  7.59869910E+00  7.59869910E+00
 -1.51973982E+01  7.59869910E+00  7.59869910E+00 -1.51973982E+01  7.59869910E+00
  7.59869910E+00 -1.51973982E+01  7.59869910E+00  7.59869910E+00 -1.51973982E+01
  7.59869910E+00  7.59869910E+00 -1.51973982E+01  7.59869910E+00  7.59869910E+00
 -1.51973982E+01  7.59869910E+00  7.59869910E+00 -1.51973982E+01  7.59869910E+00
  7.59869910E+00 -1.51973982E+01  7.59869910E+00  7.59869910E+00 -1.51973982E+01
  7.59869910E+00  7.59869910E+00 -1.51973982E+01  7.59869910E+00  7.59869910E+00
 -1.51973982E+01  7.59869910E+00  7.59869910E+00 -1.51973982E+01  7.59869910E+00
  7.59869910E+00 -1.51973982E+01  7.59869910E+00  7.59869910E+00 -1.51973982E+01
  7.59869910E+00  7.59869910E+00 -1.51973982E+01  7.59869910E+00  7.59869910E+00
 -1.51973982E+01  7.59869910E+00  7.59869910E+00 -1.51973982E+01  7.59869910E+00
  7.59869910E+00 -1.51973982E+01  7.59869910E+00  7.59869910E+00 -1.51973982E+01
  7.59869910E+00  7.59869910E+00 -1.51973982E+01  7.59869910E+00  7.59869910E+00
 -1.51973982E+01  7.59869910E+00  7.59869910E+00 -1.51973982E+01  7.59869910E+00
  7.59869910E+00 -1.51973982E+01  7.59869910E+00  7.59869910E+00 -1.51973982E+01
  7.59869910E+00  7.59869910E+00 -1.51973982E+01  7.59869910E+00  7.59869910E+00
 -1.51973982E+01  7.59869910E+00  7.59869910E+00 -1.51973982E+01  7.59869910E+00
  7.59869910E+00 -1.51973982E+01  7.59869910E+00  7.59869910E+00 -1.51973982E+01
  7.59869910E+00  7.59869910E+00 -1.51973982E+01  7.59869910E+00  7.59869910E+00
 -1.51973982E+01  7.59869910E+00  7.59869910E+00 -1.51973982E+01  7.59869910E+00
  7.59869910E+00 -1.51973982E+01  7.59869910E+00  7.59869910E+00 -1.51973982E+01
  7.59869910E+00  7.59869910E+00 -1.51973982E+01  7.59869910E+00  7.59869910E+00
 -1.51973982E+01  7.59869910E+00  7.59869910E+00 -1.51973982E+01  7.59869910E+00
  7.59869910E+00 -1.51973982E+01  7.59869910E+00  7.59869910E+00 -1.51973982E+01
  7.59869910E+00  7.59869910E+00 -1.51973982E+01  7.59869910E+00  7.59869910E+00
 -1.51973982E+01  7.59869910E+00  7.59869910E+00 -1.51973982E+01  7.59869910E+00
  7.59869910E+00 -1.51973982E+01  7.59869910E+00  7.59869910E+00 -1.51973982E+01
  7.59869910E+00  7.59869910E+00 -1.51973982E+01  7.59869910E+00  7.59869910E+00
 -1.51973982E+01  7.59869910E+00  7.59869910E+00 -1.51973982E+01  7.59869910E+00
  7.59869910E+00 -1.51973982E+01  7.59869910E+00  7.59869910E+00 -1.51973982E+01
  7.59869910E+00  7.59869910E+00 -1.51973982E+01  7.59869910E+00  7.59869910E+00
 -1.51973982E+01  7.59869910E+00  7.59869910E+00 -1.51973982E+01  7.59869910E+00
  7.59869910E+00 -1.51973982E+01  7.59869910E+00  7.59869910E+00 -1.51973982E+01
  7.59869910E+00  7.59869910E+00 -1.51973982E+01  7.59869910E+00  7.59869910E+00
 -1.51973982E+01  7.59869910E+00  7.59869910E+00 -1.51973982E+01  7.59869910E+00
  7.59869910E+00 -1.51973982E+01  7.59869910E+00  7.59869910E+00 -1.51973982E+01
  7.59869910E+00  7.59869910E+00 -1.51973982E+01  7.59869910E+00  7.59869910E+00
 -1.51973982E+01  7.59869910E+00  7.59869910E+00 -1.51973982E+01  7.59869910E+00
  7.59869910E+00 -1.51973982E+01  7.59869910E+00  7.59869910E+00 -1.51973982E+01
  7.59869910E+00  7.59869910E+00 -1.51973982E+01  7.59869910E+00  7.59869910E+00
 -1.51973982E+01  7.59869910E+00  7.59869910E+00 -1.51973982E+01  7.59869910E+00
  7.59869910E+00 -1.51973982E+01  7.59869910E+00  7.59869910E+00 -1.51973982E+01
  7.59869910E+00  7.59869910E+00 -1.51973982E+01  7.59869910E+00  7.59869910E+00
 -1.51973982E+01  7.59869910E+00  7.59869910E+00 -1.51973982E+01  7.59869910E+00
  7.59869910E+00 -1.51973982E+01  7.59869910E+00  7.59869910E+00 -1.51973982E+01
  7.59869910E+00  7.59869910E+00 -1.51973982E+01  7.59869910E+00  7.59869910E+00
 -1.51973982E+01  7.59869910E+00  7.59869910E+00 -1.51973982E+01  7.59869910E+00
  7.59869910E+00 -1.51973982E+01  7.59869910E+00  7.59869910E+00 -1.51973982E+01
  7.59869910E+00  7.59869910E+00 -1.51973982E+01  7.59869910E+00  7.59869910E+00
 -1.51973982E+01  7.59869910E+00  7.59869910E+00 -1.51973982E+01  7.59869910E+00
  7.59869910E+00 -1.51973982E+01  7.59869910E+00  7.59869910E+00 -1.51973982E+01
  7.59869910E+00  7.59869910E+00 -1.51973982E+01  7.59869910E+00  7.59869910E+00
 -1.51973982E+01  7.59869910E+00  7.59869910E+00 -1.51973982E+01  7.59869910E+00
  7.59869910E+00 -1.51973982E+01  7.59869910E+00  7.59869910E+00 -1.51973982E+01
  7.59869910E+00  7.59869910E+00 -1.51973982E+01  7.59869910E+00  7.59869910E+00
 -1.51973982E+01  7.59869910E+00  7.59869910E+00 -1.51973982E+01  7.59869910E+00
  7.59869910E+00 -1.51973982E+01  7.59869910E+00  7.59869910E+00 -1.51973982E+01
  7.59869910E+00  7.59869910E+00 -1.51973982E+01  7.59869910E+00  7.59869910E+00
 -1.51973982E+01  7.59869910E+00  7.59869910E+00 -1.51973982E+01  7.59869910E+00
  7.59869910E+00 -1.51973982E+01  7.59869910E+00  7.59869910E+00 -1.51973982E+01
  7.59869910E+00  7.59869910E+00 -1.51973982E+01  7.59869910E+00  7.59869910E+00
 -1.51973982E+01  7.59869910E+00  7.59869910E+00 -1.51973982E+01  7.59869910E+00
  7.59869910E+00 -1.51973982E+01  7.59869910E+00  7.59869910E+00 -1.51973982E+01
  7.59869910E+00  7.59869910E+00 -1.51973982E+01  7.59869910E+00  7.59869910E+00
 -1.51973982E+01  7.59869910E+00  7.59869910E+00 -1.51973982E+01  7.59869910E+00
  7.59869910E+00 -1.51973982E+01  7.59869910E+00  7.59869910E+00 -1.51973982E+01
  7.59869910E+00  7.59869910E+00 -1.51973982E+01  7.59869910E+00  7.59869910E+00
 -1.51973982E+01  7.59869910E+00  7.59869910E+00 -1.51973982E+01  7.59869910E+00
  7.59869910E+00 -1.51973982E+01  7.59869910E+00  7.59869910E+00 -1.51973982E+01
  7.59869910E+00  7.59869910E+00 -1.51973982E+01  7.59869910E+00  7.59869910E+00
 -1.51973982E+01  7.59869910E+00  7.59869910E+00 -1.51973982E+01  7.59869910E+00
  7.59869910E+00 -1.51973982E+01  7.59869910E+00  7.59869910E+00 -1.51973982E+01
  7.59869910E+00  7.59869910E+00 -1.51973982E+01  7.59869910E+00  7.59869910E+00
 -1.51973982E+01  7.59869910E+00  7.59869910E+00 -1.51973982E+01  7.59869910E+00
  7.59869910E+00 -1.51973982E+01  7.59869910E+00  7.59869910E+00 -1.51973982E+01
  7.59869910E+00  7.59869910E+00 -1.51973982E+01  7.59869910E+00  7.59869910E+00
 -1.51973982E+01  7.59869910E+00  7.59869910E+00 -1.51973982E+01  7.59869910E+00
  7.59869910E+00 -1.51973982E+01  7.59869910E+00  7.59869910E+00 -1.51973982E+01
  7.59869910E+00  7.59869910E+00 -1.51973982E+01  7.59869910E+00  7.59869910E+00
 -1.51973982E+01  7.59869910E+00  7.59869910E+00 -1.51973982E+01  7.59869910E+00
  7.59869910E+00 -1.51973982E+01  7.59869910E+00  7.59869910E+00 -1.51973982E+01
  7.59869910E+00  7.59869910E+00 -1.51973982E+01  7.59869910E+00  7.59869910E+00
 -1.51973982E+01  7.59869910E+00  7.59869910E+00 -1.51973982E+01  7.59869910E+00
  7.59869910E+00 -1.51973982E+01  7.59869910E+00  7.59869910E+00 -1.51973982E+01
  7.59869910E+00  7.59869910E+00 -1.51973982E+01  7.59869910E+00  7.59869910E+00
 -1.51973982E+01  7.59869910E+00  7.59869910E+00 -1.51973982E+01  7.59869910E+00
  7.59869910E+00 -1.51973982E+01  7.59869910E+00  7.59869910E+00 -1.51973982E+01
  7.59869910E+00  7.59869910E+00 -1.51973982E+01  7.59869910E+00  7.59869910E+00
 -1.51973982E+01  7.59869910E+00  7.59869910E+00 -1.51973982E+01  7.59869910E+00
  7.59869910E+00 -1.51973982E+01  7.59869910E+00  7.59869910E+00 -1.51973982E+01
  7.59869910E+00  7.59869910E+00 -1.51973982E+01  7.59869910E+00  7.59869910E+00
 -1.51973982E+01  7.59869910E+00  7.59869910E+00 -1.51973982E+01  7.59869910E+00
  7.59869910E+00 -1.51973982E+01  7.59869910E+00  7.59869910E+00 -1.51973982E+01
  7.59869910E+00  7.59869910E+00 -1.51973982E+01  7.59869910E+00  7.59869910E+00
 -1.51973982E+01  7.59869910E+00  7.59869910E+00 -1.51973982E+01  7.59869910E+00
  7.59869910E+00 -1.51973982E+01  7.59869910E+00  7.59869910E+00 -1.51973982E+01
  7.59869910E+00  7.59869910E+00 -1.51973982E+01  7.59869910E+00  7.59869910E+00
 -1.51973982E+01  7.59869910E+00  7.59869910E+00 -1.51973982E+01  7.59869910E+00
  7.59869910E+00 -1.51973982E+01  7.59869910E+00  7.59869910E+00 -1.51973982E+01
  7.59869910E+00  7.59869910E+00 -1.51973982E+01  7.59869910E+00  7.59869910E+00
 -1.51973982E+01  7.59869910E+00  7.59869910E+00 -1.51973982E+01  7.59869910E+00
  7.59869910E+00 -1.51973982E+01  7.59869910E+00  7.59869910E+00 -1.51973982E+01
  7.59869910E+00  7.59869910E+00 -1.51973982E+01  7.59869910E+00  7.59869910E+00
 -1.51973982E+01  7.59869910E+00  7.59869910E+00 -1.51973982E+01  7.59869910E+00
  7.59869910E+00 -1.51973982E+01  7.59869910E+00  7.59869910E+00 -1.51973982E+01
  7.59869910E+00  7.59869910E+00 -1.51973982E+01  7.59869910E+00  7.59869910E+00
 -1.51973982E+01  7.59869910E+00  7.59869910E+00 -1.51973982E+01  7.59869910E+00
  7.59869910E+00 -1.51973982E+01  7.59869910E+00  7.59869910E+00 -1.51973982E+01
  7.59869910E+00  7.59869910E+00 -1.51973982E+01  7.59869910E+00  7.59869910E+00
 -1.51973982E+01  7.59869910E+00  7.59869910E+00 -1.51973982E+01  7.59869910E+00
  7.59869910E+00 -1.51973982E+01  7.59869910E+00  7.59869910E+00 -1.51973982E+01
  7.59869910E+00  7.59869910E+00 -1.51973982E+01  7.59869910E+00  7.59869910E+00
 -1.51973982E+01  7.59869910E+00  7.59869910E+00 -1.51973982E+01  7.59869910E+00
  7.59869910E+00 -1.51973982E+01  7.59869910E+00  7.59869910E+00 -1.51973982E+01
  7.59869910E+00  7.59869910E+00 -1.51973982E+01  7.59869910E+00  7.59869910E+00
 -1.51973982E+01  7.59869910E+00  7.59869910E+00 -1.51973982E+01  7.59869910E+00
  7.59869910E+00 -1.51973982E+01  7.59869910E+00  7.59869910E+00 -1.51973982E+01
  7.59869910E+00  7.59869910E+00 -1.51973982E+01  7.59869910E+00  7.59869910E+00
 -1.51973982E+01  7.59869910E+00  7.59869910E+00 -1.51973982E+01  7.59869910E+00
  7.59869910E+00 -1.51973982E+01  7.59869910E+00  7.59869910E+00 -1.51973982E+01
  7.59869910E+00  7.59869910E+00 -1.51973982E+01  7.59869910E+00  7.59869910E+00
 -1.51973982E+01  7.59869910E+00  7.59869910E+00 -1.51973982E+01  7.59869910E+00
  7.59869910E+00 -1.51973982E+01  7.59869910E+00  7.59869910E+00 -1.51973982E+01
  7.59869910E+00  7.59869910E+00 -1.51973982E+01  7.59869910E+00  7.59869910E+00
 -1.51973982E+01  7.59869910E+00  7.59869910E+00 -1.51973982E+01  7.59869910E+00
  7.59869910E+00 -1.51973982E+01  7.59869910E+00  7.59869910E+00 -1.51973982E+01
  7.59869910E+00  7.59869910E+00 -1.51973982E+01  7.59869910E+00  7.59869910E+00
 -1.51973982E+01  7.59869910E+00  7.59869910E+00 -1.51973982E+01  7.59869910E+00
  7.59869910E+00 -1.51973982E+01  7.59869910E+00  7.59869910E+00 -1.51973982E+01
  7.59869910E+00  7.59869910E+00 -1.51973982E+01  7.59869910E+00  7.59869910E+00
 -1.51973982E+01  7.59869910E+00  7.59869910E+00 -1.51973982E+01  7.59869910E+00
  7.59869910E+00 -1.51973982E+01  7.59869910E+00  7.59869910E+00 -1.51973982E+01
  7.59869910E+00  7.59869910E+00 -1.51973982E+01  7.59869910E+00  7.59869910E+00
 -1.51973982E+01  7.59869910E+00  7.59869910E+00 -1.51973982E+01  7.59869910E+00
  7.59869910E+00 -1.51973982E+01  7.59869910E+00  7.59869910E+00 -1.51973982E+01
  7.59869910E+00  7.59869910E+00 -1.51973982E+01  7.59869910E+00  7.59869910E+00
 -1.51973982E+01  7.59869910E+00  7.59869910E+00 -1.51973982E+01  7.59869910E+00
  7.59869910E+00 -1.51973982E+01  7.59869910E+00  7.59869910E+00 -1.51973982E+01
  7.59869910E+00  7.59869910E+00 -1.51973982E+01  7.59869910E+00  7.59869910E+00
 -1.51973982E+01  7.59869910E+00  7.59869910E+00 -1.51973982E+01  7.59869910E+00
  7.59869910E+00 -1.51973982E+01  7.59869910E+00  7.59869910E+00 -1.51973982E+01
  7.59869910E+00  7.59869910E+00 -1.51973982E+01  7.59869910E+00  7.59869910E+00
 -1.51973982E+01  7.59869910E+00  7.59869910E+00 -1.51973982E+01  7.59869910E+00
  7.59869910E+00 -1.51973982E+01  7.59869910E+00  7.59869910E+00 -1.51973982E+01
  7.59869910E+00  7.59869910E+00 -1.51973982E+01  7.59869910E+00  7.59869910E+00
 -1.51973982E+01  7.59869910E+00  7.59869910E+00 -1.51973982E+01  7.59869910E+00
  7.59869910E+00 -1.51973982E+01  7.59869910E+00  7.59869910E+00 -1.51973982E+01
  7.59869910E+00  7.59869910E+00 -1.51973982E+01  7.59869910E+00  7.59869910E+00
 -1.51973982E+01  7.59869910E+00  7.59869910E+00 -1.51973982E+01  7.59869910E+00
  7.59869910E+00 -1.51973982E+01  7.59869910E+00  7.59869910E+00 -1.51973982E+01
  7.59869910E+00  7.59869910E+00 -1.51973982E+01  7.59869910E+00  7.59869910E+00
 -1.51973982E+01  7.59869910E+00  7.59869910E+00 -1.51973982E+01  7.59869910E+00
  7.59869910E+00 -1.51973982E+01  7.59869910E+00  7.59869910E+00 -1.51973982E+01
  7.59869910E+00  7.59869910E+00 -1.51973982E+01  7.59869910E+00  7.59869910E+00
 -1.51973982E+01  7.59869910E+00  7.59869910E+00 -1.51973982E+01  7.59869910E+00
  7.59869910E+00 -1.51973982E+01  7.59869910E+00  7.59869910E+00 -1.51973982E+01
  7.59869910E+00  7.59869910E+00 -1.51973982E+01  7.59869910E+00  7.59869910E+00
 -1.51973982E+01  7.59869910E+00  7.59869910E+00 -1.51973982E+01  7.59869910E+00
  7.59869910E+00 -1.51973982E+01  7.59869910E+00  7.59869910E+00 -1.51973982E+01
  7.59869910E+00  7.59869910E+00 -1.51973982E+01  7.59869910E+00  7.59869910E+00
 -1.51973982E+01  7.59869910E+00  7.59869910E+00 -1.51973982E+01  7.59869910E+00
  7.59869910E+00 -1.51973982E+01  7.59869910E+00  7.59869910E+00 -1.51973982E+01
  7.59869910E+00  7.59869910E+00 -1.51973982E+01  7.59869910E+00  7.59869910E+00
 -1.51973982E+01  7.59869910E+00  7.59869910E+00 -1.51973982E+01  7.59869910E+00
  7.59869910E+00 -1.51973982E+01  7.59869910E+00  7.59869910E+00 -1.51973982E+01
  7.59869910E+00  7.59869910E+00 -1.51973982E+01  7.59869910E+00  7.59869910E+00
 -1.51973982E+01  7.59869910E+00  7.59869910E+00 -1.51973982E+01  7.59869910E+00
  7.59869910E+00 -1.51973982E+01  7.59869910E+00  7.59869910E+00 -1.51973982E+01
  7.59869910E+00  7.59869910E+00 -1.51973982E+01  7.59869910E+00  7.59869910E+00
 -1.51973982E+01  7.59869910E+00  7.59869910E+00 -1.51973982E+01  7.59869910E+00
  7.59869910E+00 -1.51973982E+01  7.59869910E+00  7.59869910E+00 -1.51973982E+01
  7.59869910E+00  7.59869910E+00 -1.51973982E+01  7.59869910E+00  7.59869910E+00
 -1.51973982E+01  7.59869910E+00  7.59869910E+00 -1.51973982E+01  7.59869910E+00
  7.59869910E+00 -1.51973982E+01  7.59869910E+00  7.59869910E+00 -1.51973982E+01
  7.59869910E+00  7.59869910E+00 -1.51973982E+01  7.59869910E+00  7.59869910E+00
 -1.51973982E+01  7.59869910E+00  7.59869910E+00 -1.51973982E+01  7.59869910E+00
  7.59869910E+00 -1.51973982E+01  7.59869910E+00  7.59869910E+00 -1.51973982E+01
  7.59869910E+00  7.59869910E+00 -1.51973982E+01  7.59869910E+00  7.59869910E+00
 -1.51973982E+01  7.59869910E+00  7.59869910E+00 -1.51973982E+01  7.59869910E+00
  7.59869910E+00 -1.51973982E+01  7.59869910E+00  7.59869910E+00 -1.51973982E+01
  7.59869910E+00  7.59869910E+00 -1.51973982E+01  7.59869910E+00  7.59869910E+00
 -1.51973982E+01  7.59869910E+00  7.59869910E+00 -1.51973982E+01  7.59869910E+00
  7.59869910E+00 -1.51973982E+01  7.59869910E+00  7.59869910E+00 -1.51973982E+01
  7.59869910E+00  7.59869910E+00 -1.51973982E+01  7.59869910E+00  7.59869910E+00
 -1.51973982E+01  7.59869910E+00  7.59869910E+00 -1.51973982E+01  7.59869910E+00
  7.59869910E+00 -1.51973982E+01  7.59869910E+00  7.59869910E+00 -1.51973982E+01
  7.59869910E+00  7.59869910E+00 -1.51973982E+01  7.59869910E+00  7.59869910E+00
 -1.51973982E+01  7.59869910E+00  7.59869910E+00 -1.51973982E+01  7.59869910E+00
  7.59869910E+00 -1.51973982E+01  7.59869910E+00  7.59869910E+00 -1.51973982E+01
  7.59869910E+00  7.59869910E+00 -1.51973982E+01  7.59869910E+00  7.59869910E+00
 -1.51973982E+01  7.59869910E+00  7.59869910E+00 -1.51973982E+01  7.59869910E+00
  7.59869910E+00 -1.51973982E+01  7.59869910E+00  7.59869910E+00 -1.51973982E+01
  7.59869910E+00  7.59869910E+00 -1.51973982E+01  7.59869910E+00  7.59869910E+00
 -1.51973982E+01  7.59869910E+00  7.59869910E+00 -1.51973982E+01  7.59869910E+00
  7.59869910E+00 -1.51973982E+01  7.59869910E+00  7.59869910E+00 -1.51973982E+01
  7.59869910E+00  7.59869910E+00 -1.51973982E+01  7.59869910E+00  7.59869910E+00
 -1.51973982E+01  7.59869910E+00  7.59869910E+00 -1.51973982E+01  7.59869910E+00
  7.59869910E+00 -1.51973982E+01  7.59869910E+00  7.59869910E+00 -1.51973982E+01
  7.59869910E+00  7.59869910E+00 -1.51973982E+01  7.59869910E+00  7.59869910E+00
 -1.51973982E+01  7.59869910E+00  7.59869910E+00 -1.51973982E+01  7.59869910E+00
  7.59869910E+00 -1.51973982E+01  7.59869910E+00  7.59869910E+00 -1.51973982E+01
  7.59869910E+00  7.59869910E+00 -1.51973982E+01  7.59869910E+00  7.59869910E+00
 -1.51973982E+01  7.59869910E+00  7.59869910E+00 -1.51973982E+01  7.59869910E+00
  7.59869910E+00 -1.51973982E+01  7.59869910E+00  7.59869910E+00 -1.51973982E+01
  7.59869910E+00  7.59869910E+00 -1.51973982E+01  7.59869910E+00  7.59869910E+00
 -1.51973982E+01  7.59869910E+00  7.59869910E+00 -1.51973982E+01  7.59869910E+00
  7.59869910E+00 -1.51973982E+01  7.59869910E+00  7.59869910E+00 -1.51973982E+01
  7.59869910E+00  7.59869910E+00 -1.51973982E+01  7.59869910E+00  7.59869910E+00
 -1.51973982E+01  7.59869910E+00  7.59869910E+00 -1.51973982E+01  7.59869910E+00
  7.59869910E+00 -1.51973982E+01  7.59869910E+00  7.59869910E+00 -1.51973982E+01
  7.59869910E+00  7.59869910E+00 -1.51973982E+01  7.59869910E+00  7.59869910E+00
 -1.51973982E+01  7.59869910E+00  7.59869910E+00 -1.51973982E+01  7.59869910E+00
  7.59869910E+00 -1.51973982E+01  7.59869910E+00  7.59869910E+00 -1.51973982E+01
  7.59869910E+00  7.59869910E+00 -1.51973982E+01  7.59869910E+00  7.59869910E+00
 -1.51973982E+01  7.59869910E+00  7.59869910E+00 -1.51973982E+01  7.59869910E+00
  7.59869910E+00 -1.51973982E+01  7.59869910E+00  7.59869910E+00 -1.51973982E+01
  7.59869910E+00  7.59869910E+00 -1.51973982E+01  7.59869910E+00  7.59869910E+00
 -1.51973982E+01  7.59869910E+00  7.59869910E+00 -1.51973982E+01  7.59869910E+00
  7.59869910E+00 -1.51973982E+01  7.59869910E+00  7.59869910E+00 -1.51973982E+01
  7.59869910E+00  7.59869910E+00 -1.51973982E+01  7.59869910E+00  7.59869910E+00
 -1.51973982E+01  7.59869910E+00  7.59869910E+00 -1.51973982E+01  7.59869910E+00
  7.59869910E+00 -1.51973982E+01  7.59869910E+00  7.59869910E+00 -1.51973982E+01
  7.59869910E+00  7.59869910E+00 -1.51973982E+01  7.59869910E+00  7.59869910E+00
 -1.51973982E+01  7.59869910E+00  7.59869910E+00 -1.51973982E+01  7.59869910E+00
  7.59869910E+00 -1.51973982E+01  7.59869910E+00  7.59869910E+00 -1.51973982E+01
  7.59869910E+00  7.59869910E+00 -1.51973982E+01  7.59869910E+00  7.59869910E+00
 -1.51973982E+01  7.59869910E+00  7.59869910E+00 -1.51973982E+01  7.59869910E+00
  7.59869910E+00 -1.51973982E+01  7.59869910E+00  7.59869910E+00 -1.51973982E+01
  7.59869910E+00  7.59869910E+00 -1.51973982E+01  7.59869910E+00  7.59869910E+00
 -1.51973982E+01  7.59869910E+00  7.59869910E+00 -1.51973982E+01  7.59869910E+00
  7.59869910E+00 -1.51973982E+01  7.59869910E+00  7.59869910E+00 -1.51973982E+01
  7.59869910E+00  7.59869910E+00 -1.51973982E+01  7.59869910E+00  7.59869910E+00
 -1.51973982E+01  7.59869910E+00  7.59869910E+00 -1.51973982E+01  7.59869910E+00
  7.59869910E+00 -1.51973982E+01  7.59869910E+00  7.59869910E+00 -1.51973982E+01
  7.59869910E+00  7.59869910E+00 -1.51973982E+01  7.59869910E+00  7.59869910E+00
 -1.51973982E+01  7.59869910E+00  7.59869910E+00 -1.51973982E+01  7.59869910E+00
  7.59869910E+00 -1.51973982E+01  7.59869910E+00  7.59869910E+00 -1.51973982E+01
  7.59869910E+00  7.59869910E+00 -1.51973982E+01  7.59869910E+00  7.59869910E+00
 -1.51973982E+01  7.59869910E+00  7.59869910E+00 -1.51973982E+01  7.59869910E+00
  7.59869910E+00 -1.51973982E+01  7.59869910E+00  7.59869910E+00 -1.51973982E+01
  7.59869910E+00  7.59869910E+00 -1.51973982E+01  7.59869910E+00  7.59869910E+00
 -1.51973982E+01  7.59869910E+00  7.59869910E+00 -1.51973982E+01  7.59869910E+00
  7.59869910E+00 -1.51973982E+01  7.59869910E+00  7.59869910E+00 -1.51973982E+01
  7.59869910E+00  7.59869910E+00 -1.51973982E+01  7.59869910E+00  7.59869910E+00
 -1.51973982E+01  7.59869910E+00  7.59869910E+00 -1.51973982E+01  7.59869910E+00
  7.59869910E+00 -1.51973982E+01  7.59869910E+00  7.59869910E+00 -1.51973982E+01
  7.59869910E+00  7.59869910E+00 -1.51973982E+01  7.59869910E+00  7.59869910E+00
 -1.51973982E+01  7.59869910E+00  7.59869910E+00 -1.51973982E+01  7.59869910E+00
  7.59869910E+00 -1.51973982E+01  7.59869910E+00  7.59869910E+00 -1.51973982E+01
  7.59869910E+00  7.59869910E+00 -1.51973982E+01  7.59869910E+00  7.59869910E+00
 -1.51973982E+01  7.59869910E+00  7.59869910E+00 -1.51973982E+01  7.59869910E+00
  7.59869910E+00 -1.51973982E+01  7.59869910E+00  7.59869910E+00 -1.51973982E+01
  7.59869910E+00  7.59869910E+00 -1.51973982E+01  7.59869910E+00  7.59869910E+00
 -1.51973982E+01  7.59869910E+00  7.59869910E+00 -1.51973982E+01  7.59869910E+00
  7.59869910E+00 -1.51973982E+01  7.59869910E+00  7.59869910E+00 -1.51973982E+01
  7.59869910E+00  7.59869910E+00 -1.51973982E+01  7.59869910E+00  7.59869910E+00
 -1.51973982E+01  7.59869910E+00  7.59869910E+00 -1.51973982E+01  7.59869910E+00
  7.59869910E+00 -1.51973982E+01  7.59869910E+00  7.59869910E+00 -1.51973982E+01
  7.59869910E+00  7.59869910E+00 -1.51973982E+01  7.59869910E+00  7.59869910E+00
 -1.51973982E+01  7.59869910E+00  7.59869910E+00 -1.51973982E+01  7.59869910E+00
  7.59869910E+00 -1.51973982E+01  7.59869910E+00  7.59869910E+00 -1.51973982E+01
  7.59869910E+00  7.59869910E+00 -1.51973982E+01  7.59869910E+00  7.59869910E+00
 -1.51973982E+01  7.59869910E+00  7.59869910E+00 -1.51973982E+01  7.59869910E+00
  7.59869910E+00 -1.51973982E+01  7.59869910E+00  7.59869910E+00 -1.51973982E+01
  7.59869910E+00  7.59869910E+00 -1.51973982E+01  7.59869910E+00  7.59869910E+00
 -1.51973982E+01  7.59869910E+00  7.59869910E+00 -1.51973982E+01  7.59869910E+00
  7.59869910E+00 -1.51973982E+01  7.59869910E+00  7.59869910E+00 -1.51973982E+01
  7.59869910E+00  7.59869910E+00 -1.51973982E+01  7.59869910E+00  7.59869910E+00
 -1.51973982E+01  7.59869910E+00  7.59869910E+00 -1.51973982E+01  7.59869910E+00
  7.59869910E+00 -1.51973982E+01  7.59869910E+00  7.59869910E+00 -1.51973982E+01
  7.59869910E+00  7.59869910E+00 -1.51973982E+01  7.59869910E+00  7.59869910E+00
 -1.51973982E+01  7.59869910E+00  7.59869910E+00 -1.51973982E+01  7.59869910E+00
  7.59869910E+00 -1.51973982E+01  7.59869910E+00  7.59869910E+00 -1.51973982E+01
  7.59869910E+00  7.59869910E+00 -1.51973982E+01  7.59869910E+00  7.59869910E+00
 -1.51973982E+01  7.59869910E+00  7.59869910E+00 -1.51973982E+01  7.59869910E+00
  7.59869910E+00 -1.51973982E+01  7.59869910E+00  7.59869910E+00 -1.51973982E+01
  7.59869910E+00  7.59869910E+00 -1.51973982E+01  7.59869910E+00  7.59869910E+00
 -1.51973982E+01  7.59869910E+00  7.59869910E+00 -1.51973982E+01  7.59869910E+00
  7.59869910E+00 -1.51973982E+01  7.59869910E+00  7.59869910E+00 -1.51973982E+01
  7.59869910E+00  7.59869910E+00 -1.51973982E+01  7.59869910E+00  7.59869910E+00
 -1.51973982E+01  7.59869910E+00  7.59869910E+00 -1.51973982E+01  7.59869910E+00
  7.59869910E+00 -1.51973982E+01  7.59869910E+00  7.59869910E+00 -1.51973982E+01
  7.59869910E+00  7.59869910E+00 -1.51973982E+01  7.59869910E+00  7.59869910E+00
 -1.51973982E+01  7.59869910E+00  7.59869910E+00 -1.51973982E+01  7.59869910E+00
  7.59869910E+00 -1.51973982E+01  7.59869910E+00  7.59869910E+00 -1.51973982E+01
  7.59869910E+00  7.59869910E+00 -1.51973982E+01  7.59869910E+00  7.59869910E+00
 -1.51973982E+01  7.59869910E+00  7.59869910E+00 -1.51973982E+01  7.59869910E+00
  7.59869910E+00 -1.51973982E+01  7.59869910E+00  7.59869910E+00 -1.51973982E+01
  7.59869910E+00  7.59869910E+00 -1.51973982E+01  7.59869910E+00  7.59869910E+00
 -1.51973982E+01  7.59869910E+00  7.59869910E+00 -1.51973982E+01  7.59869910E+00
  7.59869910E+00 -1.51973982E+01  7.59869910E+00  7.59869910E+00 -1.51973982E+01
  7.59869910E+00  7.59869910E+00 -1.51973982E+01  7.59869910E+00  7.59869910E+00
 -1.51973982E+01  7.59869910E+00  7.59869910E+00 -1.51973982E+01  7.59869910E+00
  7.59869910E+00 -1.51973982E+01  7.59869910E+00  7.59869910E+00 -1.51973982E+01
  7.59869910E+00  7.59869910E+00 -1.51973982E+01  7.59869910E+00  7.59869910E+00
 -1.51973982E+01  7.59869910E+00  7.59869910E+00 -1.51973982E+01  7.59869910E+00
  7.59869910E+00 -1.51973982E+01  7.59869910E+00  7.59869910E+00 -1.51973982E+01
  7.59869910E+00  7.59869910E+00 -1.51973982E+01  7.59869910E+00  7.59869910E+00
 -1.51973982E+01  7.59869910E+00  7.59869910E+00 -1.51973982E+01  7.59869910E+00
  7.59869910E+00 -1.51973982E+01  7.59869910E+00  7.59869910E+00 -1.51973982E+01
  7.59869910E+00  7.59869910E+00 -1.51973982E+01  7.59869910E+00  7.59869910E+00
 -1.51973982E+01  7.59869910E+00  7.59869910E+00 -1.51973982E+01  7.59869910E+00
  7.59869910E+00 -1.51973982E+01  7.59869910E+00  7.59869910E+00 -1.51973982E+01
  7.59869910E+00  7.59869910E+00 -1.51973982E+01  7.59869910E+00  7.59869910E+00
 -1.51973982E+01  7.59869910E+00  7.59869910E+00 -1.51973982E+01  7.59869910E+00
  7.59869910E+00 -1.51973982E+01  7.59869910E+00  7.59869910E+00 -1.51973982E+01
  7.59869910E+00  7.59869910E+00 -1.51973982E+01  7.59869910E+00  7.59869910E+00
 -1.51973982E+01  7.59869910E+00  7.59869910E+00 -1.51973982E+01  7.59869910E+00
  7.59869910E+00 -1.51973982E+01  7.59869910E+00  7.59869910E+00 -1.51973982E+01
  7.59869910E+00  7.59869910E+00 -1.51973982E+01  7.59869910E+00  7.59869910E+00
 -1.51973982E+01  7.59869910E+00  7.59869910E+00 -1.51973982E+01  7.59869910E+00
  7.59869910E+00 -1.51973982E+01  7.59869910E+00  7.59869910E+00 -1.51973982E+01
  7.59869910E+00  7.59869910E+00 -1.51973982E+01  7.59869910E+00  7.59869910E+00
 -1.51973982E+01  7.59869910E+00  7.59869910E+00 -1.51973982E+01  7.59869910E+00
  7.59869910E+00 -1.51973982E+01  7.59869910E+00  7.59869910E+00 -1.51973982E+01
  7.59869910E+00  7.59869910E+00 -1.51973982E+01  7.59869910E+00  7.59869910E+00
 -1.51973982E+01  7.59869910E+00  7.59869910E+00 -1.51973982E+01  7.59869910E+00
  7.59869910E+00 -1.51973982E+01  7.59869910E+00  7.59869910E+00 -1.51973982E+01
  7.59869910E+00  7.59869910E+00 -1.51973982E+01  7.59869910E+00  7.59869910E+00
 -1.51973982E+01  7.59869910E+00  7.59869910E+00 -1.51973982E+01  7.59869910E+00
  7.59869910E+00 -1.51973982E+01  7.59869910E+00  7.59869910E+00 -1.51973982E+01
  7.59869910E+00  7.59869910E+00 -1.51973982E+01  7.59869910E+00  7.59869910E+00
 -1.51973982E+01  7.59869910E+00  7.59869910E+00 -1.51973982E+01  7.59869910E+00
  7.59869910E+00 -1.51973982E+01  7.59869910E+00  7.59869910E+00 -1.51973982E+01
  7.59869910E+00  7.59869910E+00 -1.51973982E+01  7.59869910E+00  7.59869910E+00
 -1.51973982E+01  7.59869910E+00  7.59869910E+00 -1.51973982E+01  7.59869910E+00
  7.59869910E+00 -1.51973982E+01  7.59869910E+00  7.59869910E+00 -1.51973982E+01
  7.59869910E+00  7.59869910E+00 -1.51973982E+01  7.59869910E+00  7.59869910E+00
 -1.51973982E+01  7.59869910E+00  7.59869910E+00 -1.51973982E+01  7.59869910E+00
  7.59869910E+00 -1.51973982E+01  7.59869910E+00  7.59869910E+00 -1.51973982E+01
  7.59869910E+00  7.59869910E+00 -1.51973982E+01  7.59869910E+00  7.59869910E+00
 -1.51973982E+01  7.59869910E+00  7.59869910E+00 -1.51973982E+01  7.59869910E+00
  7.59869910E+00 -1.51973982E+01  7.59869910E+00  7.59869910E+00 -1.51973982E+01
  7.59869910E+00  7.59869910E+00 -1.51973982E+01  7.59869910E+00  7.59869910E+00
 -1.51973982E+01  7.59869910E+00  7.59869910E+00 -1.51973982E+01  7.59869910E+00
  7.59869910E+00 -1.51973982E+01  7.59869910E+00  7.59869910E+00 -1.51973982E+01
  7.59869910E+00  7.59869910E+00 -1.51973982E+01  7.59869910E+00  7.59869910E+00
 -1.51973982E+01  7.59869910E+00  7.59869910E+00 -1.51973982E+01  7.59869910E+00
  7.59869910E+00 -1.51973982E+01  7.59869910E+00  7.59869910E+00 -1.51973982E+01
  7.59869910E+00  7.59869910E+00 -1.51973982E+01  7.59869910E+00  7.59869910E+00
 -1.51973982E+01  7.59869910E+00  7.59869910E+00 -1.51973982E+01  7.59869910E+00
  7.59869910E+00 -1.51973982E+01  7.59869910E+00  7.59869910E+00 -1.51973982E+01
  7.59869910E+00  7.59869910E+00 -1.51973982E+01  7.59869910E+00  7.59869910E+00
 -1.51973982E+01  7.59869910E+00  7.59869910E+00 -1.51973982E+01  7.59869910E+00
  7.59869910E+00 -1.51973982E+01  7.59869910E+00  7.59869910E+00 -1.51973982E+01
  7.59869910E+00  7.59869910E+00 -1.51973982E+01  7.59869910E+00  7.59869910E+00
 -1.51973982E+01  7.59869910E+00  7.59869910E+00 -1.51973982E+01  7.59869910E+00
  7.59869910E+00 -1.51973982E+01  7.59869910E+00  7.59869910E+00 -1.51973982E+01
  7.59869910E+00  7.59869910E+00 -1.51973982E+01  7.59869910E+00  7.59869910E+00
 -1.51973982E+01  7.59869910E+00  7.59869910E+00 -1.51973982E+01  7.59869910E+00
  7.59869910E+00 -1.51973982E+01  7.59869910E+00  7.59869910E+00 -1.51973982E+01
  7.59869910E+00  7.59869910E+00 -1.51973982E+01  7.59869910E+00  7.59869910E+00
 -1.51973982E+01  7.59869910E+00  7.59869910E+00 -1.51973982E+01  7.59869910E+00
  7.59869910E+00 -1.51973982E+01  7.59869910E+00  7.59869910E+00 -1.51973982E+01
  7.59869910E+00  7.59869910E+00 -1.51973982E+01  7.59869910E+00  7.59869910E+00
 -1.51973982E+01  7.59869910E+00  7.59869910E+00 -1.51973982E+01  7.59869910E+00
  7.59869910E+00 -1.51973982E+01  7.59869910E+00  7.59869910E+00 -1.51973982E+01
  7.59869910E+00  7.59869910E+00 -1.51973982E+01  7.59869910E+00  7.59869910E+00
 -1.51973982E+01  7.59869910E+00  7.59869910E+00 -1.51973982E+01  7.59869910E+00
  7.59869910E+00 -1.51973982E+01  7.59869910E+00  7.59869910E+00 -1.51973982E+01
  7.59869910E+00  7.59869910E+00 -1.51973982E+01  7.59869910E+00  7.59869910E+00
 -1.51973982E+01  7.59869910E+00  7.59869910E+00 -1.51973982E+01  7.59869910E+00
  7.59869910E+00 -1.51973982E+01  7.59869910E+00  7.59869910E+00 -1.51973982E+01
  7.59869910E+00  7.59869910E+00 -1.51973982E+01  7.59869910E+00  7.59869910E+00
 -1.51973982E+01  7.59869910E+00  7.59869910E+00 -1.51973982E+01  7.59869910E+00
  7.59869910E+00 -1.51973982E+01  7.59869910E+00  7.59869910E+00 -1.51973982E+01
  7.59869910E+00  7.59869910E+00 -1.51973982E+01  7.59869910E+00  7.59869910E+00
 -1.51973982E+01  7.59869910E+00  7.59869910E+00 -1.51973982E+01  7.59869910E+00
  7.59869910E+00 -1.51973982E+01  7.59869910E+00  7.59869910E+00 -1.51973982E+01
  7.59869910E+00  7.59869910E+00 -1.51973982E+01  7.59869910E+00  7.59869910E+00
 -1.51973982E+01  7.59869910E+00  7.59869910E+00 -1.51973982E+01  7.59869910E+00
  7.59869910E+00 -1.51973982E+01  7.59869910E+00  7.59869910E+00 -1.51973982E+01
  7.59869910E+00  7.59869910E+00 -1.51973982E+01  7.59869910E+00  7.59869910E+00
 -1.51973982E+01  7.59869910E+00  7.59869910E+00 -1.51973982E+01  7.59869910E+00
  7.59869910E+00 -1.51973982E+01  7.59869910E+00  7.59869910E+00 -1.51973982E+01
  7.59869910E+00  7.59869910E+00 -1.51973982E+01  7.59869910E+00  7.59869910E+00
 -1.51973982E+01  7.59869910E+00  7.59869910E+00 -1.51973982E+01  7.59869910E+00
  7.59869910E+00 -1.51973982E+01  7.59869910E+00  7.59869910E+00 -1.51973982E+01
  7.59869910E+00  7.59869910E+00 -1.51973982E+01  7.59869910E+00  7.59869910E+00
 -1.51973982E+01  7.59869910E+00  7.59869910E+00 -1.51973982E+01  7.59869910E+00
  7.59869910E+00 -1.51973982E+01  7.59869910E+00  7.59869910E+00 -1.51973982E+01
  7.59869910E+00  7.59869910E+00 -1.51973982E+01  7.59869910E+00  7.59869910E+00
 -1.51973982E+01  7.59869910E+00  7.59869910E+00 -1.51973982E+01  7.59869910E+00
  7.59869910E+00 -1.51973982E+01  7.59869910E+00  7.59869910E+00 -1.51973982E+01
  7.59869910E+00  7.59869910E+00 -1.51973982E+01  7.59869910E+00  7.59869910E+00
 -1.51973982E+01  7.59869910E+00  7.59869910E+00 -1.51973982E+01  7.59869910E+00
  7.59869910E+00 -1.51973982E+01  7.59869910E+00  7.59869910E+00 -1.51973982E+01
  7.59869910E+00  7.59869910E+00 -1.51973982E+01  7.59869910E+00  7.59869910E+00
 -1.51973982E+01  7.59869910E+00  7.59869910E+00 -1.51973982E+01  7.59869910E+00
  7.59869910E+00 -1.51973982E+01  7.59869910E+00  7.59869910E+00 -1.51973982E+01
  7.59869910E+00  7.59869910E+00 -1.51973982E+01  7.59869910E+00  7.59869910E+00
 -1.51973982E+01  7.59869910E+00  7.59869910E+00 -1.51973982E+01  7.59869910E+00
  7.59869910E+00 -1.51973982E+01  7.59869910E+00  7.59869910E+00 -1.51973982E+01
  7.59869910E+00  7.59869910E+00 -1.51973982E+01  7.59869910E+00  7.59869910E+00
 -1.51973982E+01  7.59869910E+00  7.59869910E+00 -1.51973982E+01  7.59869910E+00
  7.59869910E+00 -1.51973982E+01  7.59869910E+00  7.59869910E+00 -1.51973982E+01
  7.59869910E+00  7.59869910E+00 -1.51973982E+01  7.59869910E+00  7.59869910E+00
 -1.51973982E+01  7.59869910E+00  7.59869910E+00 -1.51973982E+01  7.59869910E+00
  7.59869910E+00 -1.51973982E+01  7.59869910E+00  7.59869910E+00 -1.51973982E+01
  7.59869910E+00  7.59869910E+00 -1.51973982E+01  7.59869910E+00  7.59869910E+00
 -1.51973982E+01  7.59869910E+00  7.59869910E+00 -1.51973982E+01  7.59869910E+00
  7.59869910E+00 -1.51973982E+01  7.59869910E+00  7.59869910E+00 -1.51973982E+01
  7.59869910E+00  7.59869910E+00 -1.51973982E+01  7.59869910E+00  7.59869910E+00
 -1.51973982E+01  7.59869910E+00  7.59869910E+00 -1.51973982E+01  7.59869910E+00
  7.59869910E+00 -1.51973982E+01  7.59869910E+00  7.59869910E+00 -1.51973982E+01
  7.59869910E+00  7.59869910E+00 -1.51973982E+01  7.59869910E+00  7.59869910E+00
 -1.51973982E+01  7.59869910E+00  7.59869910E+00 -1.51973982E+01  7.59869910E+00
  7.59869910E+00 -1.51973982E+01  7.59869910E+00  7.59869910E+00 -1.51973982E+01
  7.59869910E+00  7.59869910E+00 -1.51973982E+01  7.59869910E+00  7.59869910E+00
 -1.51973982E+01  7.59869910E+00  7.59869910E+00 -1.51973982E+01  7.59869910E+00
  7.59869910E+00 -1.51973982E+01  7.59869910E+00  7.59869910E+00 -1.51973982E+01
  7.59869910E+00  7.59869910E+00 -1.51973982E+01  7.59869910E+00  7.59869910E+00
 -1.51973982E+01  7.59869910E+00  7.59869910E+00 -1.51973982E+01  7.59869910E+00
  7.59869910E+00 -1.51973982E+01  7.59869910E+00  7.59869910E+00 -1.51973982E+01
  7.59869910E+00  7.59869910E+00 -1.51973982E+01  7.59869910E+00  7.59869910E+00
 -1.51973982E+01  7.59869910E+00  7.59869910E+00 -1.51973982E+01  7.59869910E+00
  7.59869910E+00 -1.51973982E+01  7.59869910E+00  7.59869910E+00 -1.51973982E+01
  7.59869910E+00  7.59869910E+00 -1.51973982E+01  7.59869910E+00  7.59869910E+00
 -1.51973982E+01  7.59869910E+00  7.59869910E+00 -1.51973982E+01  7.59869910E+00
  7.59869910E+00 -1.51973982E+01  7.59869910E+00  7.59869910E+00 -1.51973982E+01
  7.59869910E+00  7.59869910E+00 -1.51973982E+01  7.59869910E+00  7.59869910E+00
 -1.51973982E+01  7.59869910E+00  7.59869910E+00 -1.51973982E+01  7.59869910E+00
  7.59869910E+00 -1.51973982E+01  7.59869910E+00  7.59869910E+00 -1.51973982E+01
  7.59869910E+00  7.59869910E+00 -1.51973982E+01  7.59869910E+00  7.59869910E+00
 -1.51973982E+01  7.59869910E+00  7.59869910E+00 -1.51973982E+01  7.59869910E+00
  7.59869910E+00 -1.51973982E+01  7.59869910E+00  7.59869910E+00 -1.51973982E+01
  7.59869910E+00  7.59869910E+00 -1.51973982E+01  7.59869910E+00  7.59869910E+00
 -1.51973982E+01  7.59869910E+00  7.59869910E+00 -1.51973982E+01  7.59869910E+00
  7.59869910E+00 -1.51973982E+01  7.59869910E+00  7.59869910E+00 -1.51973982E+01
  7.59869910E+00  7.59869910E+00 -1.51973982E+01  7.59869910E+00  7.59869910E+00
 -1.51973982E+01  7.59869910E+00  7.59869910E+00 -1.51973982E+01  7.59869910E+00
  7.59869910E+00 -1.51973982E+01  7.59869910E+00  7.59869910E+00 -1.51973982E+01
  7.59869910E+00  7.59869910E+00 -1.51973982E+01  7.59869910E+00  7.59869910E+00
 -1.51973982E+01  7.59869910E+00  7.59869910E+00 -1.51973982E+01  7.59869910E+00
  7.59869910E+00 -1.51973982E+01  7.59869910E+00  7.59869910E+00 -1.51973982E+01
  7.59869910E+00  7.59869910E+00 -1.51973982E+01  7.59869910E+00  7.59869910E+00
 -1.51973982E+01  7.59869910E+00  7.59869910E+00 -1.51973982E+01  7.59869910E+00
  7.59869910E+00 -1.51973982E+01  7.59869910E+00  7.59869910E+00 -1.51973982E+01
  7.59869910E+00  7.59869910E+00 -1.51973982E+01  7.59869910E+00  7.59869910E+00
 -1.51973982E+01  7.59869910E+00  7.59869910E+00 -1.51973982E+01  7.59869910E+00
  7.59869910E+00 -1.51973982E+01  7.59869910E+00  7.59869910E+00 -1.51973982E+01
  7.59869910E+00  7.59869910E+00 -1.51973982E+01  7.59869910E+00  7.59869910E+00
 -1.51973982E+01  7.59869910E+00  7.59869910E+00 -1.51973982E+01  7.59869910E+00
  7.59869910E+00 -1.51973982E+01  7.59869910E+00  7.59869910E+00 -1.51973982E+01
  7.59869910E+00  7.59869910E+00 -1.51973982E+01  7.59869910E+00  7.59869910E+00
 -1.51973982E+01  7.59869910E+00  7.59869910E+00 -1.51973982E+01  7.59869910E+00
  7.59869910E+00 -1.51973982E+01  7.59869910E+00  7.59869910E+00 -1.51973982E+01
  7.59869910E+00  7.59869910E+00 -1.51973982E+01  7.59869910E+00  7.59869910E+00
 -1.51973982E+01  7.59869910E+00  7.59869910E+00 -1.51973982E+01  7.59869910E+00
  7.59869910E+00 -1.51973982E+01  7.59869910E+00  7.59869910E+00 -1.51973982E+01
  7.59869910E+00  7.59869910E+00 -1.51973982E+01  7.59869910E+00  7.59869910E+00
 -1.51973982E+01  7.59869910E+00  7.59869910E+00 -1.51973982E+01  7.59869910E+00
  7.59869910E+00 -1.51973982E+01  7.59869910E+00  7.59869910E+00 -1.51973982E+01
  7.59869910E+00  7.59869910E+00 -1.51973982E+01  7.59869910E+00  7.59869910E+00
 -1.51973982E+01  7.59869910E+00  7.59869910E+00 -1.51973982E+01  7.59869910E+00
  7.59869910E+00 -1.51973982E+01  7.59869910E+00  7.59869910E+00 -1.51973982E+01
  7.59869910E+00  7.59869910E+00 -1.51973982E+01  7.59869910E+00  7.59869910E+00
 -1.51973982E+01  7.59869910E+00  7.59869910E+00 -1.51973982E+01  7.59869910E+00
  7.59869910E+00 -1.51973982E+01  7.59869910E+00  7.59869910E+00 -1.51973982E+01
  7.59869910E+00  7.59869910E+00 -1.51973982E+01  7.59869910E+00  7.59869910E+00
 -1.51973982E+01  7.59869910E+00  7.59869910E+00 -1.51973982E+01  7.59869910E+00
  7.59869910E+00 -1.51973982E+01  7.59869910E+00  7.59869910E+00 -1.51973982E+01
  7.59869910E+00  7.59869910E+00 -1.51973982E+01  7.59869910E+00  7.59869910E+00
 -1.51973982E+01  7.59869910E+00  7.59869910E+00 -1.51973982E+01  7.59869910E+00
  7.59869910E+00 -1.51973982E+01  7.59869910E+00  7.59869910E+00 -1.51973982E+01
  7.59869910E+00  7.59869910E+00 -1.51973982E+01  7.59869910E+00  7.59869910E+00
 -1.51973982E+01  7.59869910E+00  7.59869910E+00 -1.51973982E+01  7.59869910E+00
  7.59869910E+00 -1.51973982E+01  7.59869910E+00  7.59869910E+00 -1.51973982E+01
  7.59869910E+00  7.59869910E+00 -1.51973982E+01  7.59869910E+00  7.59869910E+00
 -1.51973982E+01  7.59869910E+00  7.59869910E+00 -1.51973982E+01  7.59869910E+00
  7.59869910E+00 -1.51973982E+01  7.59869910E+00  7.59869910E+00 -1.51973982E+01
  7.59869910E+00  7.59869910E+00 -1.51973982E+01  7.59869910E+00  7.59869910E+00
 -1.51973982E+01  7.59869910E+00  7.59869910E+00 -1.51973982E+01  7.59869910E+00
  7.59869910E+00 -1.51973982E+01  7.59869910E+00  7.59869910E+00 -1.51973982E+01
  7.59869910E+00  7.59869910E+00 -1.51973982E+01  7.59869910E+00  7.59869910E+00
 -1.51973982E+01  7.59869910E+00  7.59869910E+00 -1.51973982E+01  7.59869910E+00
  7.59869910E+00 -1.51973982E+01  7.59869910E+00  7.59869910E+00 -1.51973982E+01
  7.59869910E+00  7.59869910E+00 -1.51973982E+01  7.59869910E+00  7.59869910E+00
 -1.51973982E+01  7.59869910E+00  7.59869910E+00 -1.51973982E+01  7.59869910E+00
  7.59869910E+00 -1.51973982E+01  7.59869910E+00  7.59869910E+00 -1.51973982E+01
  7.59869910E+00  7.59869910E+00 -1.51973982E+01  7.59869910E+00  7.59869910E+00
 -1.51973982E+01  7.59869910E+00  7.59869910E+00 -1.51973982E+01  7.59869910E+00
  7.59869910E+00 -1.51973982E+01  7.59869910E+00  7.59869910E+00 -1.51973982E+01
  7.59869910E+00  7.59869910E+00 -1.51973982E+01  7.59869910E+00  7.59869910E+00
 -1.51973982E+01  7.59869910E+00  7.59869910E+00 -1.51973982E+01  7.59869910E+00
  7.59869910E+00 -1.51973982E+01  7.59869910E+00  7.59869910E+00 -1.51973982E+01
  7.59869910E+00  7.59869910E+00 -1.51973982E+01  7.59869910E+00  7.59869910E+00
 -1.51973982E+01  7.59869910E+00  7.59869910E+00 -1.51973982E+01  7.59869910E+00
  7.59869910E+00 -1.51973982E+01  7.59869910E+00  7.59869910E+00 -1.51973982E+01
  7.59869910E+00  7.59869910E+00 -1.51973982E+01  7.59869910E+00  7.59869910E+00
 -1.51973982E+01  7.59869910E+00  7.59869910E+00 -1.51973982E+01  7.59869910E+00
  7.59869910E+00 -1.51973982E+01  7.59869910E+00  7.59869910E+00 -1.51973982E+01
  7.59869910E+00  7.59869910E+00 -1.51973982E+01  7.59869910E+00  7.59869910E+00
 -1.51973982E+01  7.59869910E+00  7.59869910E+00 -1.51973982E+01  7.59869910E+00
  7.59869910E+00 -1.51973982E+01  7.59869910E+00  7.59869910E+00 -1.51973982E+01
  7.59869910E+00  7.59869910E+00 -1.51973982E+01  7.59869910E+00  7.59869910E+00
 -1.51973982E+01  7.59869910E+00  7.59869910E+00 -1.51973982E+01  7.59869910E+00
  7.59869910E+00 -1.51973982E+01  7.59869910E+00  7.59869910E+00 -1.51973982E+01
  7.59869910E+00  7.59869910E+00 -1.51973982E+01  7.59869910E+00  7.59869910E+00
 -1.51973982E+01  7.59869910E+00  7.59869910E+00 -1.51973982E+01  7.59869910E+00
  7.59869910E+00 -1.51973982E+01  7.59869910E+00  7.59869910E+00 -1.51973982E+01
  7.59869910E+00  7.59869910E+00 -1.51973982E+01  7.59869910E+00  7.59869910E+00
 -1.51973982E+01  7.59869910E+00  7.59869910E+00 -1.51973982E+01  7.59869910E+00
  7.59869910E+00 -1.51973982E+01  7.59869910E+00  7.59869910E+00 -1.51973982E+01
  7.59869910E+00  7.59869910E+00 -1.51973982E+01  7.59869910E+00  7.59869910E+00
 -1.51973982E+01  7.59869910E+00  7.59869910E+00 -1.51973982E+01  7.59869910E+00
  7.59869910E+00 -1.51973982E+01  7.59869910E+00  7.59869910E+00 -1.51973982E+01
  7.59869910E+00  7.59869910E+00 -1.51973982E+01  7.59869910E+00  7.59869910E+00
 -1.51973982E+01  7.59869910E+00  7.59869910E+00 -1.51973982E+01  7.59869910E+00
  7.59869910E+00 -1.51973982E+01  7.59869910E+00  7.59869910E+00 -1.51973982E+01
  7.59869910E+00  7.59869910E+00 -1.51973982E+01  7.59869910E+00  7.59869910E+00
 -1.51973982E+01  7.59869910E+00  7.59869910E+00 -1.51973982E+01  7.59869910E+00
  7.59869910E+00 -1.51973982E+01  7.59869910E+00  7.59869910E+00 -1.51973982E+01
  7.59869910E+00  7.59869910E+00 -1.51973982E+01  7.59869910E+00  7.59869910E+00
 -1.51973982E+01  7.59869910E+00  7.59869910E+00 -1.51973982E+01  7.59869910E+00
  7.59869910E+00 -1.51973982E+01  7.59869910E+00  7.59869910E+00 -1.51973982E+01
  7.59869910E+00  7.59869910E+00 -1.51973982E+01  7.59869910E+00  7.59869910E+00
 -1.51973982E+01  7.59869910E+00  7.59869910E+00 -1.51973982E+01  7.59869910E+00
  7.59869910E+00 -1.51973982E+01  7.59869910E+00  7.59869910E+00 -1.51973982E+01
  7.59869910E+00  7.59869910E+00 -1.51973982E+01  7.59869910E+00  7.59869910E+00
 -1.51973982E+01  7.59869910E+00  7.59869910E+00 -1.51973982E+01  7.59869910E+00
  7.59869910E+00 -1.51973982E+01  7.59869910E+00  7.59869910E+00 -1.51973982E+01
  7.59869910E+00  7.59869910E+00 -1.51973982E+01  7.59869910E+00  7.59869910E+00
 -1.51973982E+01  7.59869910E+00  7.59869910E+00 -1.51973982E+01  7.59869910E+00
  7.59869910E+00 -1.51973982E+01  7.59869910E+00  7.59869910E+00 -1.51973982E+01
  7.59869910E+00  7.59869910E+00 -1.51973982E+01  7.59869910E+00  7.59869910E+00
 -1.51973982E+01  7.59869910E+00  7.59869910E+00 -1.51973982E+01  7.59869910E+00
  7.59869910E+00 -1.51973982E+01  7.59869910E+00  7.59869910E+00 -1.51973982E+01
  7.59869910E+00  7.59869910E+00 -1.51973982E+01  7.59869910E+00  7.59869910E+00
 -1.51973982E+01  7.59869910E+00  7.59869910E+00 -1.51973982E+01  7.59869910E+00
  7.59869910E+00 -1.51973982E+01  7.59869910E+00  7.59869910E+00 -1.51973982E+01
  7.59869910E+00  7.59869910E+00 -1.51973982E+01  7.59869910E+00  7.59869910E+00
 -1.51973982E+01  7.59869910E+00  7.59869910E+00 -1.51973982E+01  7.59869910E+00
  7.59869910E+00 -1.51973982E+01  7.59869910E+00  7.59869910E+00 -1.51973982E+01
  7.59869910E+00  7.59869910E+00 -1.51973982E+01  7.59869910E+00  7.59869910E+00
 -1.51973982E+01  7.59869910E+00  7.59869910E+00 -1.51973982E+01  7.59869910E+00
  7.59869910E+00 -1.51973982E+01  7.59869910E+00  7.59869910E+00 -1.51973982E+01
  7.59869910E+00  7.59869910E+00 -1.51973982E+01  7.59869910E+00  7.59869910E+00
 -1.51973982E+01  7.59869910E+00  7.59869910E+00 -1.51973982E+01  7.59869910E+00
  7.59869910E+00 -1.51973982E+01  7.59869910E+00  7.59869910E+00 -1.51973982E+01
  7.59869910E+00  7.59869910E+00 -1.51973982E+01  7.59869910E+00  7.59869910E+00
 -1.51973982E+01  7.59869910E+00  7.59869910E+00 -1.51973982E+01  7.59869910E+00
  7.59869910E+00 -1.51973982E+01  7.59869910E+00  7.59869910E+00 -1.51973982E+01
  7.59869910E+00  7.59869910E+00 -1.51973982E+01  7.59869910E+00  7.59869910E+00
 -1.51973982E+01  7.59869910E+00  7.59869910E+00 -1.51973982E+01  7.59869910E+00
  7.59869910E+00 -1.51973982E+01  7.59869910E+00  7.59869910E+00 -1.51973982E+01
  7.59869910E+00  7.59869910E+00 -1.51973982E+01  7.59869910E+00  7.59869910E+00
 -1.51973982E+01  7.59869910E+00  7.59869910E+00 -1.51973982E+01  7.59869910E+00
  7.59869910E+00 -1.51973982E+01  7.59869910E+00  7.59869910E+00 -1.51973982E+01
  7.59869910E+00  7.59869910E+00 -1.51973982E+01  7.59869910E+00  7.59869910E+00
 -1.51973982E+01  7.59869910E+00  7.59869910E+00 -1.51973982E+01  7.59869910E+00
  7.59869910E+00 -1.51973982E+01  7.59869910E+00  7.59869910E+00 -1.51973982E+01
  7.59869910E+00  7.59869910E+00 -1.51973982E+01  7.59869910E+00  7.59869910E+00
 -1.51973982E+01  7.59869910E+00  7.59869910E+00 -1.51973982E+01  7.59869910E+00
  7.59869910E+00 -1.51973982E+01  7.59869910E+00  7.59869910E+00 -1.51973982E+01
  7.59869910E+00  7.59869910E+00 -1.51973982E+01  7.59869910E+00  7.59869910E+00
 -1.51973982E+01  7.59869910E+00  7.59869910E+00 -1.51973982E+01  7.59869910E+00
  7.59869910E+00 -1.51973982E+01  7.59869910E+00  7.59869910E+00 -1.51973982E+01
  7.59869910E+00  7.59869910E+00 -1.51973982E+01  7.59869910E+00  7.59869910E+00
 -1.51973982E+01  7.59869910E+00  7.59869910E+00 -1.51973982E+01  7.59869910E+00
  7.59869910E+00 -1.51973982E+01  7.59869910E+00  7.59869910E+00 -1.51973982E+01
  7.59869910E+00  7.59869910E+00 -1.51973982E+01  7.59869910E+00  7.59869910E+00
 -1.51973982E+01  7.59869910E+00  7.59869910E+00 -1.51973982E+01  7.59869910E+00
  7.59869910E+00 -1.51973982E+01  7.59869910E+00  7.59869910E+00 -1.51973982E+01
  7.59869910E+00  7.59869910E+00 -1.51973982E+01  7.59869910E+00  7.59869910E+00
 -1.51973982E+01  7.59869910E+00  7.59869910E+00 -1.51973982E+01  7.59869910E+00
  7.59869910E+00 -1.51973982E+01  7.59869910E+00  7.59869910E+00 -1.51973982E+01
  7.59869910E+00  7.59869910E+00 -1.51973982E+01  7.59869910E+00  7.59869910E+00
 -1.51973982E+01  7.59869910E+00  7.59869910E+00 -1.51973982E+01  7.59869910E+00
  7.59869910E+00 -1.51973982E+01  7.59869910E+00  7.59869910E+00 -1.51973982E+01
  7.59869910E+00  7.59869910E+00 -1.51973982E+01  7.59869910E+00  7.59869910E+00
 -1.51973982E+01  7.59869910E+00  7.59869910E+00 -1.51973982E+01  7.59869910E+00
  7.59869910E+00 -1.51973982E+01  7.59869910E+00  7.59869910E+00 -1.51973982E+01
  7.59869910E+00  7.59869910E+00 -1.51973982E+01  7.59869910E+00  7.59869910E+00
 -1.51973982E+01  7.59869910E+00  7.59869910E+00 -1.51973982E+01  7.59869910E+00
  7.59869910E+00 -1.51973982E+01  7.59869910E+00  7.59869910E+00 -1.51973982E+01
  7.59869910E+00  7.59869910E+00 -1.51973982E+01  7.59869910E+00  7.59869910E+00
 -1.51973982E+01  7.59869910E+00  7.59869910E+00 -1.51973982E+01  7.59869910E+00
  7.59869910E+00 -1.51973982E+01  7.59869910E+00  7.59869910E+00 -1.51973982E+01
  7.59869910E+00  7.59869910E+00 -1.51973982E+01  7.59869910E+00  7.59869910E+00
 -1.51973982E+01  7.59869910E+00  7.59869910E+00 -1.51973982E+01  7.59869910E+00
  7.59869910E+00 -1.51973982E+01  7.59869910E+00  7.59869910E+00 -1.51973982E+01
  7.59869910E+00  7.59869910E+00 -1.51973982E+01  7.59869910E+00  7.59869910E+00
 -1.51973982E+01  7.59869910E+00  7.59869910E+00 -1.51973982E+01  7.59869910E+00
  7.59869910E+00 -1.51973982E+01  7.59869910E+00  7.59869910E+00 -1.51973982E+01
  7.59869910E+00  7.59869910E+00 -1.51973982E+01  7.59869910E+00  7.59869910E+00
 -1.51973982E+01  7.59869910E+00  7.59869910E+00 -1.51973982E+01  7.59869910E+00
  7.59869910E+00 -1.51973982E+01  7.59869910E+00  7.59869910E+00 -1.51973982E+01
  7.59869910E+00  7.59869910E+00 -1.51973982E+01  7.59869910E+00  7.59869910E+00
 -1.51973982E+01  7.59869910E+00  7.59869910E+00 -1.51973982E+01  7.59869910E+00
  7.59869910E+00 -1.51973982E+01  7.59869910E+00  7.59869910E+00 -1.51973982E+01
  7.59869910E+00  7.59869910E+00 -1.51973982E+01  7.59869910E+00  7.59869910E+00
 -1.51973982E+01  7.59869910E+00  7.59869910E+00 -1.51973982E+01  7.59869910E+00
  7.59869910E+00 -1.51973982E+01  7.59869910E+00  7.59869910E+00 -1.51973982E+01
  7.59869910E+00  7.59869910E+00 -1.51973982E+01  7.59869910E+00  7.59869910E+00
 -1.51973982E+01  7.59869910E+00  7.59869910E+00 -1.51973982E+01  7.59869910E+00
  7.59869910E+00 -1.51973982E+01  7.59869910E+00  7.59869910E+00 -1.51973982E+01
  7.59869910E+00  7.59869910E+00 -1.51973982E+01  7.59869910E+00  7.59869910E+00
 -1.51973982E+01  7.59869910E+00  7.59869910E+00 -1.51973982E+01  7.59869910E+00
  7.59869910E+00 -1.51973982E+01  7.59869910E+00  7.59869910E+00 -1.51973982E+01
  7.59869910E+00  7.59869910E+00 -1.51973982E+01  7.59869910E+00  7.59869910E+00
 -1.51973982E+01  7.59869910E+00  7.59869910E+00 -1.51973982E+01  7.59869910E+00
  7.59869910E+00 -1.51973982E+01  7.59869910E+00  7.59869910E+00 -1.51973982E+01
  7.59869910E+00  7.59869910E+00 -1.51973982E+01  7.59869910E+00  7.59869910E+00
 -1.51973982E+01  7.59869910E+00  7.59869910E+00 -1.51973982E+01  7.59869910E+00
  7.59869910E+00 -1.51973982E+01  7.59869910E+00  7.59869910E+00 -1.51973982E+01
  7.59869910E+00  7.59869910E+00 -1.51973982E+01  7.59869910E+00  7.59869910E+00
 -1.51973982E+01  7.59869910E+00  7.59869910E+00 -1.51973982E+01  7.59869910E+00
  7.59869910E+00 -1.51973982E+01  7.59869910E+00  7.59869910E+00 -1.51973982E+01
  7.59869910E+00  7.59869910E+00 -1.51973982E+01  7.59869910E+00  7.59869910E+00
 -1.51973982E+01  7.59869910E+00  7.59869910E+00 -1.51973982E+01  7.59869910E+00
  7.59869910E+00 -1.51973982E+01  7.59869910E+00  7.59869910E+00 -1.51973982E+01
  7.59869910E+00  7.59869910E+00 -1.51973982E+01  7.59869910E+00  7.59869910E+00
 -1.51973982E+01  7.59869910E+00  7.59869910E+00 -1.51973982E+01  7.59869910E+00
  7.59869910E+00 -1.51973982E+01  7.59869910E+00  7.59869910E+00 -1.51973982E+01
  7.59869910E+00  7.59869910E+00 -1.51973982E+01  7.59869910E+00  7.59869910E+00
 -1.51973982E+01  7.59869910E+00  7.59869910E+00 -1.51973982E+01  7.59869910E+00
  7.59869910E+00 -1.51973982E+01  7.59869910E+00  7.59869910E+00 -1.51973982E+01
  7.59869910E+00  7.59869910E+00 -1.51973982E+01  7.59869910E+00  7.59869910E+00
 -1.51973982E+01  7.59869910E+00  7.59869910E+00 -1.51973982E+01  7.59869910E+00
  7.59869910E+00 -1.51973982E+01  7.59869910E+00  7.59869910E+00 -1.51973982E+01
  7.59869910E+00  7.59869910E+00 -1.51973982E+01  7.59869910E+00  7.59869910E+00
 -1.51973982E+01  7.59869910E+00  7.59869910E+00 -1.51973982E+01  7.59869910E+00
  7.59869910E+00 -1.51973982E+01  7.59869910E+00  7.59869910E+00 -1.51973982E+01
  7.59869910E+00  7.59869910E+00 -1.51973982E+01  7.59869910E+00  7.59869910E+00
 -1.51973982E+01  7.59869910E+00  7.59869910E+00 -1.51973982E+01  7.59869910E+00
  7.59869910E+00 -1.51973982E+01  7.59869910E+00  7.59869910E+00 -1.51973982E+01
  7.59869910E+00  7.59869910E+00 -1.51973982E+01  7.59869910E+00  7.59869910E+00
 -1.51973982E+01  7.59869910E+00  7.59869910E+00 -1.51973982E+01  7.59869910E+00
  7.59869910E+00 -1.51973982E+01  7.59869910E+00  7.59869910E+00 -1.51973982E+01
  7.59869910E+00  7.59869910E+00 -1.51973982E+01  7.59869910E+00  7.59869910E+00
 -1.51973982E+01  7.59869910E+00  7.59869910E+00 -1.51973982E+01  7.59869910E+00
  7.59869910E+00 -1.51973982E+01  7.59869910E+00  7.59869910E+00 -1.51973982E+01
  7.59869910E+00  7.59869910E+00 -1.51973982E+01  7.59869910E+00  7.59869910E+00
 -1.51973982E+01  7.59869910E+00  7.59869910E+00 -1.51973982E+01  7.59869910E+00
  7.59869910E+00 -1.51973982E+01  7.59869910E+00  7.59869910E+00 -1.51973982E+01
  7.59869910E+00  7.59869910E+00 -1.51973982E+01  7.59869910E+00  7.59869910E+00
 -1.51973982E+01  7.59869910E+00  7.59869910E+00 -1.51973982E+01  7.59869910E+00
  7.59869910E+00 -1.51973982E+01  7.59869910E+00  7.59869910E+00 -1.51973982E+01
  7.59869910E+00  7.59869910E+00 -1.51973982E+01  7.59869910E+00  7.59869910E+00
 -1.51973982E+01  7.59869910E+00  7.59869910E+00 -1.51973982E+01  7.59869910E+00
  7.59869910E+00 -1.51973982E+01  7.59869910E+00  7.59869910E+00 -1.51973982E+01
  7.59869910E+00  7.59869910E+00 -1.51973982E+01  7.59869910E+00  7.59869910E+00
 -1.51973982E+01  7.59869910E+00  7.59869910E+00 -1.51973982E+01  7.59869910E+00
  7.59869910E+00 -1.51973982E+01  7.59869910E+00  7.59869910E+00 -1.51973982E+01
  7.59869910E+00  7.59869910E+00 -1.51973982E+01  7.59869910E+00  7.59869910E+00
 -1.51973982E+01  7.59869910E+00  7.59869910E+00 -1.51973982E+01  7.59869910E+00
  7.59869910E+00 -1.51973982E+01  7.59869910E+00  7.59869910E+00 -1.51973982E+01
  7.59869910E+00  7.59869910E+00 -1.51973982E+01  7.59869910E+00  7.59869910E+00
 -1.51973982E+01  7.59869910E+00  7.59869910E+00 -1.51973982E+01  7.59869910E+00
  7.59869910E+00 -1.51973982E+01  7.59869910E+00  7.59869910E+00 -1.51973982E+01
  7.59869910E+00  7.59869910E+00 -1.51973982E+01  7.59869910E+00  7.59869910E+00
 -1.51973982E+01  7.59869910E+00  7.59869910E+00 -1.51973982E+01  7.59869910E+00
  7.59869910E+00 -1.51973982E+01  7.59869910E+00  7.59869910E+00 -1.51973982E+01
  7.59869910E+00  7.59869910E+00 -1.51973982E+01  7.59869910E+00  7.59869910E+00
 -1.51973982E+01  7.59869910E+00  7.59869910E+00 -1.51973982E+01  7.59869910E+00
  7.59869910E+00 -1.51973982E+01  7.59869910E+00  7.59869910E+00 -1.51973982E+01
  7.59869910E+00  7.59869910E+00 -1.51973982E+01  7.59869910E+00  7.59869910E+00
 -1.51973982E+01  7.59869910E+00  7.59869910E+00 -1.51973982E+01  7.59869910E+00
  7.59869910E+00 -1.51973982E+01  7.59869910E+00  7.59869910E+00 -1.51973982E+01
  7.59869910E+00  7.59869910E+00 -1.51973982E+01  7.59869910E+00  7.59869910E+00
 -1.51973982E+01  7.59869910E+00  7.59869910E+00 -1.51973982E+01  7.59869910E+00
  7.59869910E+00 -1.51973982E+01  7.59869910E+00  7.59869910E+00 -1.51973982E+01
  7.59869910E+00  7.59869910E+00 -1.51973982E+01  7.59869910E+00  7.59869910E+00
 -1.51973982E+01  7.59869910E+00  7.59869910E+00 -1.51973982E+01  7.59869910E+00
  7.59869910E+00 -1.51973982E+01  7.59869910E+00  7.59869910E+00 -1.51973982E+01
  7.59869910E+00  7.59869910E+00 -1.51973982E+01  7.59869910E+00  7.59869910E+00
 -1.51973982E+01  7.59869910E+00  7.59869910E+00 -1.51973982E+01  7.59869910E+00
  7.59869910E+00 -1.51973982E+01  7.59869910E+00  7.59869910E+00 -1.51973982E+01
  7.59869910E+00  7.59869910E+00 -1.51973982E+01  7.59869910E+00  7.59869910E+00
 -1.51973982E+01  7.59869910E+00  7.59869910E+00 -1.51973982E+01  7.59869910E+00
  7.59869910E+00 -1.51973982E+01  7.59869910E+00  7.59869910E+00 -1.51973982E+01
  7.59869910E+00  7.59869910E+00 -1.51973982E+01  7.59869910E+00  7.59869910E+00
 -1.51973982E+01  7.59869910E+00  7.59869910E+00 -1.51973982E+01  7.59869910E+00
  7.59869910E+00 -1.51973982E+01  7.59869910E+00  7.59869910E+00 -1.51973982E+01
  7.59869910E+00  7.59869910E+00 -1.51973982E+01  7.59869910E+00  7.59869910E+00
 -1.51973982E+01  7.59869910E+00  7.59869910E+00 -1.51973982E+01  7.59869910E+00
  7.59869910E+00 -1.51973982E+01  7.59869910E+00  7.59869910E+00 -1.51973982E+01
  7.59869910E+00  7.59869910E+00 -1.51973982E+01  7.59869910E+00  7.59869910E+00
 -1.51973982E+01  7.59869910E+00  7.59869910E+00 -1.51973982E+01  7.59869910E+00
  7.59869910E+00 -1.51973982E+01  7.59869910E+00  7.59869910E+00 -1.51973982E+01
  7.59869910E+00  7.59869910E+00 -1.51973982E+01  7.59869910E+00  7.59869910E+00
 -1.51973982E+01  7.59869910E+00  7.59869910E+00 -1.51973982E+01  7.59869910E+00
  7.59869910E+00 -1.51973982E+01  7.59869910E+00  7.59869910E+00 -1.51973982E+01
  7.59869910E+00  7.59869910E+00 -1.51973982E+01  7.59869910E+00  7.59869910E+00
 -1.51973982E+01  7.59869910E+00  7.59869910E+00 -1.51973982E+01  7.59869910E+00
  7.59869910E+00 -1.51973982E+01  7.59869910E+00  7.59869910E+00 -1.51973982E+01
  7.59869910E+00  7.59869910E+00 -1.51973982E+01  7.59869910E+00  7.59869910E+00
 -1.51973982E+01  7.59869910E+00  7.59869910E+00 -1.51973982E+01  7.59869910E+00
  7.59869910E+00 -1.51973982E+01  7.59869910E+00  7.59869910E+00 -1.51973982E+01
  7.59869910E+00  7.59869910E+00 -1.51973982E+01  7.59869910E+00  7.59869910E+00
 -1.51973982E+01  7.59869910E+00  7.59869910E+00 -1.51973982E+01  7.59869910E+00
  7.59869910E+00 -1.51973982E+01  7.59869910E+00  7.59869910E+00 -1.51973982E+01
  7.59869910E+00  7.59869910E+00 -1.51973982E+01  7.59869910E+00  7.59869910E+00
 -1.51973982E+01  7.59869910E+00  7.59869910E+00 -1.51973982E+01  7.59869910E+00
  7.59869910E+00 -1.51973982E+01  7.59869910E+00  7.59869910E+00 -1.51973982E+01
  7.59869910E+00  7.59869910E+00 -1.51973982E+01  7.59869910E+00  7.59869910E+00
 -1.51973982E+01  7.59869910E+00  7.59869910E+00 -1.51973982E+01  7.59869910E+00
  7.59869910E+00 -1.51973982E+01  7.59869910E+00  7.59869910E+00 -1.51973982E+01
  7.59869910E+00  7.59869910E+00 -1.51973982E+01  7.59869910E+00  7.59869910E+00
 -1.51973982E+01  7.59869910E+00  7.59869910E+00 -1.51973982E+01  7.59869910E+00
  7.59869910E+00 -1.51973982E+01  7.59869910E+00  7.59869910E+00 -1.51973982E+01
  7.59869910E+00  7.59869910E+00 -1.51973982E+01  7.59869910E+00  7.59869910E+00
 -1.51973982E+01  7.59869910E+00  7.59869910E+00 -1.51973982E+01  7.59869910E+00
  7.59869910E+00 -1.51973982E+01  7.59869910E+00  7.59869910E+00 -1.51973982E+01
  7.59869910E+00  7.59869910E+00 -1.51973982E+01  7.59869910E+00  7.59869910E+00
 -1.51973982E+01  7.59869910E+00  7.59869910E+00 -1.51973982E+01  7.59869910E+00
  7.59869910E+00 -1.51973982E+01  7.59869910E+00  7.59869910E+00 -1.51973982E+01
  7.59869910E+00  7.59869910E+00 -1.51973982E+01  7.59869910E+00  7.59869910E+00
 -1.51973982E+01  7.59869910E+00  7.59869910E+00 -1.51973982E+01  7.59869910E+00
  7.59869910E+00 -1.51973982E+01  7.59869910E+00  7.59869910E+00 -1.51973982E+01
  7.59869910E+00  7.59869910E+00 -1.51973982E+01  7.59869910E+00  7.59869910E+00
 -1.51973982E+01  7.59869910E+00  7.59869910E+00 -1.51973982E+01  7.59869910E+00
  7.59869910E+00 -1.51973982E+01  7.59869910E+00  7.59869910E+00 -1.51973982E+01
  7.59869910E+00  7.59869910E+00 -1.51973982E+01  7.59869910E+00  7.59869910E+00
 -1.51973982E+01  7.59869910E+00  7.59869910E+00 -1.51973982E+01  7.59869910E+00
  7.59869910E+00 -1.51973982E+01  7.59869910E+00  7.59869910E+00 -1.51973982E+01
  7.59869910E+00  7.59869910E+00 -1.51973982E+01  7.59869910E+00  7.59869910E+00
 -1.51973982E+01  7.59869910E+00  7.59869910E+00 -1.51973982E+01  7.59869910E+00
  7.59869910E+00 -1.51973982E+01  7.59869910E+00  7.59869910E+00 -1.51973982E+01
  7.59869910E+00  7.59869910E+00 -1.51973982E+01  7.59869910E+00  7.59869910E+00
 -1.51973982E+01  7.59869910E+00  7.59869910E+00 -1.51973982E+01  7.59869910E+00
  7.59869910E+00 -1.51973982E+01  7.59869910E+00  7.59869910E+00 -1.51973982E+01
  7.59869910E+00  7.59869910E+00 -1.51973982E+01  7.59869910E+00  7.59869910E+00
 -1.51973982E+01  7.59869910E+00  7.59869910E+00 -1.51973982E+01  7.59869910E+00
  7.59869910E+00 -1.51973982E+01  7.59869910E+00  7.59869910E+00 -1.51973982E+01
  7.59869910E+00  7.59869910E+00 -1.51973982E+01  7.59869910E+00  7.59869910E+00
 -1.51973982E+01  7.59869910E+00  7.59869910E+00 -1.51973982E+01  7.59869910E+00
  7.59869910E+00 -1.51973982E+01  7.59869910E+00  7.59869910E+00 -1.51973982E+01
  7.59869910E+00  7.59869910E+00 -1.51973982E+01  7.59869910E+00  7.59869910E+00
 -1.51973982E+01  7.59869910E+00  7.59869910E+00 -1.51973982E+01  7.59869910E+00
  7.59869910E+00 -1.51973982E+01  7.59869910E+00  7.59869910E+00 -1.51973982E+01
  7.59869910E+00  7.59869910E+00 -1.51973982E+01  7.59869910E+00  7.59869910E+00
 -1.51973982E+01  7.59869910E+00  7.59869910E+00 -1.51973982E+01  7.59869910E+00
  7.59869910E+00 -1.51973982E+01  7.59869910E+00  7.59869910E+00 -1.51973982E+01
  7.59869910E+00  7.59869910E+00 -1.51973982E+01  7.59869910E+00  7.59869910E+00
 -1.51973982E+01  7.59869910E+00  7.59869910E+00 -1.51973982E+01  7.59869910E+00
  7.59869910E+00 -1.51973982E+01  7.59869910E+00  7.59869910E+00 -1.51973982E+01
  7.59869910E+00  7.59869910E+00 -1.51973982E+01  7.59869910E+00  7.59869910E+00
 -1.51973982E+01  7.59869910E+00  7.59869910E+00 -1.51973982E+01  7.59869910E+00
  7.59869910E+00 -1.51973982E+01  7.59869910E+00  7.59869910E+00 -1.51973982E+01
  7.59869910E+00  7.59869910E+00 -1.51973982E+01  7.59869910E+00  7.59869910E+00
 -1.51973982E+01  7.59869910E+00  7.59869910E+00 -1.51973982E+01  7.59869910E+00
  7.59869910E+00 -1.51973982E+01  7.59869910E+00  7.59869910E+00 -1.51973982E+01
  7.59869910E+00  7.59869910E+00 -1.51973982E+01  7.59869910E+00  7.59869910E+00
 -1.51973982E+01  7.59869910E+00  7.59869910E+00 -1.51973982E+01  7.59869910E+00
  7.59869910E+00 -1.51973982E+01  7.59869910E+00  7.59869910E+00 -1.51973982E+01
  7.59869910E+00  7.59869910E+00 -1.51973982E+01  7.59869910E+00  7.59869910E+00
 -1.51973982E+01  7.59869910E+00  7.59869910E+00 -1.51973982E+01  7.59869910E+00
  7.59869910E+00 -1.51973982E+01  7.59869910E+00  7.59869910E+00 -1.51973982E+01
  7.59869910E+00  7.59869910E+00 -1.51973982E+01  7.59869910E+00  7.59869910E+00
 -1.51973982E+01  7.59869910E+00  7.59869910E+00 -1.51973982E+01  7.59869910E+00
  7.59869910E+00 -1.51973982E+01  7.59869910E+00  7.59869910E+00 -1.51973982E+01
  7.59869910E+00  7.59869910E+00 -1.51973982E+01  7.59869910E+00  7.59869910E+00
 -1.51973982E+01  7.59869910E+00  7.59869910E+00 -1.51973982E+01  7.59869910E+00
  7.59869910E+00 -1.51973982E+01  7.59869910E+00  7.59869910E+00 -1.51973982E+01
  7.59869910E+00  7.59869910E+00 -1.51973982E+01  7.59869910E+00  7.59869910E+00
 -1.51973982E+01  7.59869910E+00  7.59869910E+00 -1.51973982E+01  7.59869910E+00
  7.59869910E+00 -1.51973982E+01  7.59869910E+00  7.59869910E+00 -1.51973982E+01
  7.59869910E+00  7.59869910E+00 -1.51973982E+01  7.59869910E+00  7.59869910E+00
 -1.51973982E+01  7.59869910E+00  7.59869910E+00 -1.51973982E+01  7.59869910E+00
  7.59869910E+00 -1.51973982E+01  7.59869910E+00  7.59869910E+00 -1.51973982E+01
  7.59869910E+00  7.59869910E+00 -1.51973982E+01  7.59869910E+00  7.59869910E+00
 -1.51973982E+01  7.59869910E+00  7.59869910E+00 -1.51973982E+01  7.59869910E+00
  7.59869910E+00 -1.51973982E+01  7.59869910E+00  7.59869910E+00 -1.51973982E+01
  7.59869910E+00  7.59869910E+00 -1.51973982E+01  7.59869910E+00  7.59869910E+00
 -1.51973982E+01  7.59869910E+00  7.59869910E+00 -1.51973982E+01  7.59869910E+00
  7.59869910E+00 -1.51973982E+01  7.59869910E+00  7.59869910E+00 -1.51973982E+01
  7.59869910E+00  7.59869910E+00 -1.51973982E+01  7.59869910E+00  7.59869910E+00
 -1.51973982E+01  7.59869910E+00  7.59869910E+00 -1.51973982E+01  7.59869910E+00
  7.59869910E+00 -1.51973982E+01  7.59869910E+00  7.59869910E+00 -1.51973982E+01
  7.59869910E+00  7.59869910E+00 -1.51973982E+01  7.59869910E+00  7.59869910E+00
 -1.51973982E+01  7.59869910E+00  7.59869910E+00 -1.51973982E+01  7.59869910E+00
  7.59869910E+00 -1.51973982E+01  7.59869910E+00  7.59869910E+00 -1.51973982E+01
  7.59869910E+00  7.59869910E+00 -1.51973982E+01  7.59869910E+00  7.59869910E+00
 -1.51973982E+01  7.59869910E+00  7.59869910E+00 -1.51973982E+01  7.59869910E+00
  7.59869910E+00 -1.51973982E+01  7.59869910E+00  7.59869910E+00 -1.51973982E+01
  7.59869910E+00  7.59869910E+00 -1.51973982E+01  7.59869910E+00  7.59869910E+00
 -1.51973982E+01  7.59869910E+00  7.59869910E+00 -1.51973982E+01  7.59869910E+00
  7.59869910E+00 -1.51973982E+01  7.59869910E+00  7.59869910E+00 -1.51973982E+01
  7.59869910E+00  7.59869910E+00 -1.51973982E+01  7.59869910E+00  7.59869910E+00
 -1.51973982E+01  7.59869910E+00  7.59869910E+00 -1.51973982E+01  7.59869910E+00
  7.59869910E+00 -1.51973982E+01  7.59869910E+00  7.59869910E+00 -1.51973982E+01
  7.59869910E+00  7.59869910E+00 -1.51973982E+01  7.59869910E+00  7.59869910E+00
 -1.51973982E+01  7.59869910E+00  7.59869910E+00 -1.51973982E+01  7.59869910E+00
  7.59869910E+00 -1.51973982E+01  7.59869910E+00  7.59869910E+00 -1.51973982E+01
  7.59869910E+00  7.59869910E+00 -1.51973982E+01  7.59869910E+00  7.59869910E+00
 -1.51973982E+01  7.59869910E+00  7.59869910E+00 -1.51973982E+01  7.59869910E+00
  7.59869910E+00 -1.51973982E+01  7.59869910E+00  7.59869910E+00 -1.51973982E+01
  7.59869910E+00  7.59869910E+00 -1.51973982E+01  7.59869910E+00  7.59869910E+00
 -1.51973982E+01  7.59869910E+00  7.59869910E+00 -1.51973982E+01  7.59869910E+00
  7.59869910E+00 -1.51973982E+01  7.59869910E+00  7.59869910E+00 -1.51973982E+01
  7.59869910E+00  7.59869910E+00 -1.51973982E+01  7.59869910E+00  7.59869910E+00
 -1.51973982E+01  7.59869910E+00  7.59869910E+00 -1.51973982E+01  7.59869910E+00
  7.59869910E+00 -1.51973982E+01  7.59869910E+00  7.59869910E+00 -1.51973982E+01
  7.59869910E+00  7.59869910E+00 -1.51973982E+01  7.59869910E+00  7.59869910E+00
 -1.51973982E+01  7.59869910E+00  7.59869910E+00 -1.51973982E+01  7.59869910E+00
  7.59869910E+00 -1.51973982E+01  7.59869910E+00  7.59869910E+00 -1.51973982E+01
  7.59869910E+00  7.59869910E+00 -1.51973982E+01  7.59869910E+00  7.59869910E+00
 -1.51973982E+01  7.59869910E+00  7.59869910E+00 -1.51973982E+01  7.59869910E+00
  7.59869910E+00 -1.51973982E+01  7.59869910E+00  7.59869910E+00 -1.51973982E+01
  7.59869910E+00  7.59869910E+00 -1.51973982E+01  7.59869910E+00  7.59869910E+00
 -1.51973982E+01  7.59869910E+00  7.59869910E+00 -1.51973982E+01  7.59869910E+00
  7.59869910E+00 -1.51973982E+01  7.59869910E+00  7.59869910E+00 -1.51973982E+01
  7.59869910E+00  7.59869910E+00 -1.51973982E+01  7.59869910E+00  7.59869910E+00
 -1.51973982E+01  7.59869910E+00  7.59869910E+00 -1.51973982E+01  7.59869910E+00
  7.59869910E+00 -1.51973982E+01  7.59869910E+00  7.59869910E+00 -1.51973982E+01
  7.59869910E+00  7.59869910E+00 -1.51973982E+01  7.59869910E+00  7.59869910E+00
 -1.51973982E+01  7.59869910E+00  7.59869910E+00 -1.51973982E+01  7.59869910E+00
  7.59869910E+00 -1.51973982E+01  7.59869910E+00  7.59869910E+00 -1.51973982E+01
  7.59869910E+00  7.59869910E+00 -1.51973982E+01  7.59869910E+00  7.59869910E+00
 -1.51973982E+01  7.59869910E+00  7.59869910E+00 -1.51973982E+01  7.59869910E+00
  7.59869910E+00 -1.51973982E+01  7.59869910E+00  7.59869910E+00 -1.51973982E+01
  7.59869910E+00  7.59869910E+00 -1.51973982E+01  7.59869910E+00  7.59869910E+00
 -1.51973982E+01  7.59869910E+00  7.59869910E+00 -1.51973982E+01  7.59869910E+00
  7.59869910E+00 -1.51973982E+01  7.59869910E+00  7.59869910E+00 -1.51973982E+01
  7.59869910E+00  7.59869910E+00 -1.51973982E+01  7.59869910E+00  7.59869910E+00
 -1.51973982E+01  7.59869910E+00  7.59869910E+00 -1.51973982E+01  7.59869910E+00
  7.59869910E+00 -1.51973982E+01  7.59869910E+00  7.59869910E+00 -1.51973982E+01
  7.59869910E+00  7.59869910E+00 -1.51973982E+01  7.59869910E+00  7.59869910E+00
 -1.51973982E+01  7.59869910E+00  7.59869910E+00 -1.51973982E+01  7.59869910E+00
  7.59869910E+00 -1.51973982E+01  7.59869910E+00  7.59869910E+00 -1.51973982E+01
  7.59869910E+00  7.59869910E+00 -1.51973982E+01  7.59869910E+00  7.59869910E+00
 -1.51973982E+01  7.59869910E+00  7.59869910E+00 -1.51973982E+01  7.59869910E+00
  7.59869910E+00 -1.51973982E+01  7.59869910E+00  7.59869910E+00 -1.51973982E+01
  7.59869910E+00  7.59869910E+00 -1.51973982E+01  7.59869910E+00  7.59869910E+00
 -1.51973982E+01  7.59869910E+00  7.59869910E+00 -1.51973982E+01  7.59869910E+00
  7.59869910E+00 -1.51973982E+01  7.59869910E+00  7.59869910E+00 -1.51973982E+01
  7.59869910E+00  7.59869910E+00 -1.51973982E+01  7.59869910E+00  7.59869910E+00
 -1.51973982E+01  7.59869910E+00  7.59869910E+00 -1.51973982E+01  7.59869910E+00
  7.59869910E+00 -1.51973982E+01  7.59869910E+00  7.59869910E+00 -1.51973982E+01
  7.59869910E+00  7.59869910E+00 -1.51973982E+01  7.59869910E+00  7.59869910E+00
 -1.51973982E+01  7.59869910E+00  7.59869910E+00 -1.51973982E+01  7.59869910E+00
  7.59869910E+00 -1.51973982E+01  7.59869910E+00  7.59869910E+00 -1.51973982E+01
  7.59869910E+00  7.59869910E+00 -1.51973982E+01  7.59869910E+00  7.59869910E+00
 -1.51973982E+01  7.59869910E+00  7.59869910E+00 -1.51973982E+01  7.59869910E+00
  7.59869910E+00 -1.51973982E+01  7.59869910E+00  7.59869910E+00 -1.51973982E+01
  7.59869910E+00  7.59869910E+00 -1.51973982E+01  7.59869910E+00  7.59869910E+00
 -1.51973982E+01  7.59869910E+00  7.59869910E+00 -1.51973982E+01  7.59869910E+00
  7.59869910E+00 -1.51973982E+01  7.59869910E+00  7.59869910E+00 -1.51973982E+01
  7.59869910E+00  7.59869910E+00 -1.51973982E+01  7.59869910E+00  7.59869910E+00
 -1.51973982E+01  7.59869910E+00  7.59869910E+00 -1.51973982E+01  7.59869910E+00
  7.59869910E+00 -1.51973982E+01  7.59869910E+00  7.59869910E+00 -1.51973982E+01
  7.59869910E+00  7.59869910E+00 -1.51973982E+01  7.59869910E+00  7.59869910E+00
 -1.51973982E+01  7.59869910E+00  7.59869910E+00 -1.51973982E+01  7.59869910E+00
  7.59869910E+00 -1.51973982E+01  7.59869910E+00  7.59869910E+00 -1.51973982E+01
  7.59869910E+00  7.59869910E+00 -1.51973982E+01  7.59869910E+00  7.59869910E+00
 -1.51973982E+01  7.59869910E+00  7.59869910E+00 -1.51973982E+01  7.59869910E+00
  7.59869910E+00 -1.51973982E+01  7.59869910E+00  7.59869910E+00 -1.51973982E+01
  7.59869910E+00  7.59869910E+00 -1.51973982E+01  7.59869910E+00  7.59869910E+00
 -1.51973982E+01  7.59869910E+00  7.59869910E+00 -1.51973982E+01  7.59869910E+00
  7.59869910E+00 -1.51973982E+01  7.59869910E+00  7.59869910E+00 -1.51973982E+01
  7.59869910E+00  7.59869910E+00 -1.51973982E+01  7.59869910E+00  7.59869910E+00
 -1.51973982E+01  7.59869910E+00  7.59869910E+00 -1.51973982E+01  7.59869910E+00
  7.59869910E+00 -1.51973982E+01  7.59869910E+00  7.59869910E+00 -1.51973982E+01
  7.59869910E+00  7.59869910E+00 -1.51973982E+01  7.59869910E+00  7.59869910E+00
 -1.51973982E+01  7.59869910E+00  7.59869910E+00 -1.51973982E+01  7.59869910E+00
  7.59869910E+00 -1.51973982E+01  7.59869910E+00  7.59869910E+00 -1.51973982E+01
  7.59869910E+00  7.59869910E+00 -1.51973982E+01  7.59869910E+00  7.59869910E+00
 -1.51973982E+01  7.59869910E+00  7.59869910E+00 -1.51973982E+01  7.59869910E+00
  7.59869910E+00 -1.51973982E+01  7.59869910E+00  7.59869910E+00 -1.51973982E+01
  7.59869910E+00  7.59869910E+00 -1.51973982E+01  7.59869910E+00  7.59869910E+00
 -1.51973982E+01  7.59869910E+00  7.59869910E+00 -1.51973982E+01  7.59869910E+00
  7.59869910E+00 -1.51973982E+01  7.59869910E+00  7.59869910E+00 -1.51973982E+01
  7.59869910E+00  7.59869910E+00 -1.51973982E+01  7.59869910E+00  7.59869910E+00
 -1.51973982E+01  7.59869910E+00  7.59869910E+00 -1.51973982E+01  7.59869910E+00
  7.59869910E+00 -1.51973982E+01  7.59869910E+00  7.59869910E+00 -1.51973982E+01
  7.59869910E+00  7.59869910E+00 -1.51973982E+01  7.59869910E+00  7.59869910E+00
 -1.51973982E+01  7.59869910E+00  7.59869910E+00 -1.51973982E+01  7.59869910E+00
  7.59869910E+00 -1.51973982E+01  7.59869910E+00  7.59869910E+00 -1.51973982E+01
  7.59869910E+00  7.59869910E+00 -1.51973982E+01  7.59869910E+00  7.59869910E+00
 -1.51973982E+01  7.59869910E+00  7.59869910E+00 -1.51973982E+01  7.59869910E+00
  7.59869910E+00 -1.51973982E+01  7.59869910E+00  7.59869910E+00 -1.51973982E+01
  7.59869910E+00  7.59869910E+00 -1.51973982E+01  7.59869910E+00  7.59869910E+00
 -1.51973982E+01  7.59869910E+00  7.59869910E+00 -1.51973982E+01  7.59869910E+00
  7.59869910E+00 -1.51973982E+01  7.59869910E+00  7.59869910E+00 -1.51973982E+01
  7.59869910E+00  7.59869910E+00 -1.51973982E+01  7.59869910E+00  7.59869910E+00
 -1.51973982E+01  7.59869910E+00  7.59869910E+00 -1.51973982E+01  7.59869910E+00
  7.59869910E+00 -1.51973982E+01  7.59869910E+00  7.59869910E+00 -1.51973982E+01
  7.59869910E+00  7.59869910E+00 -1.51973982E+01  7.59869910E+00  7.59869910E+00
 -1.51973982E+01  7.59869910E+00  7.59869910E+00 -1.51973982E+01  7.59869910E+00
  7.59869910E+00 -1.51973982E+01  7.59869910E+00  7.59869910E+00 -1.51973982E+01
  7.59869910E+00  7.59869910E+00 -1.51973982E+01  7.59869910E+00  7.59869910E+00
 -1.51973982E+01  7.59869910E+00  7.59869910E+00 -1.51973982E+01  7.59869910E+00
  7.59869910E+00 -1.51973982E+01  7.59869910E+00  7.59869910E+00 -1.51973982E+01
  7.59869910E+00  7.59869910E+00 -1.51973982E+01  7.59869910E+00  7.59869910E+00
 -1.51973982E+01  7.59869910E+00  7.59869910E+00 -1.51973982E+01  7.59869910E+00
  7.59869910E+00 -1.51973982E+01  7.59869910E+00  7.59869910E+00 -1.51973982E+01
  7.59869910E+00  7.59869910E+00 -1.51973982E+01  7.59869910E+00  7.59869910E+00
 -1.51973982E+01  7.59869910E+00  7.59869910E+00 -1.51973982E+01  7.59869910E+00
  7.59869910E+00 -1.51973982E+01  7.59869910E+00  7.59869910E+00 -1.51973982E+01
  7.59869910E+00  7.59869910E+00 -1.51973982E+01  7.59869910E+00  7.59869910E+00
 -1.51973982E+01  7.59869910E+00  7.59869910E+00 -1.51973982E+01  7.59869910E+00
  7.59869910E+00 -1.51973982E+01  7.59869910E+00  7.59869910E+00 -1.51973982E+01
  7.59869910E+00  7.59869910E+00 -1.51973982E+01  7.59869910E+00  7.59869910E+00
 -1.51973982E+01  7.59869910E+00  7.59869910E+00 -1.51973982E+01  7.59869910E+00
  7.59869910E+00 -1.51973982E+01  7.59869910E+00  7.59869910E+00 -1.51973982E+01
  7.59869910E+00  7.59869910E+00 -1.51973982E+01  7.59869910E+00  7.59869910E+00
 -1.51973982E+01  7.59869910E+00  7.59869910E+00 -1.51973982E+01  7.59869910E+00
  7.59869910E+00 -1.51973982E+01  7.59869910E+00  7.59869910E+00 -1.51973982E+01
  7.59869910E+00  7.59869910E+00 -1.51973982E+01  7.59869910E+00  7.59869910E+00
 -1.51973982E+01  7.59869910E+00  7.59869910E+00 -1.51973982E+01  7.59869910E+00
  7.59869910E+00 -1.51973982E+01  7.59869910E+00  7.59869910E+00 -1.51973982E+01
  7.59869910E+00  7.59869910E+00 -1.51973982E+01  7.59869910E+00  7.59869910E+00
 -1.51973982E+01  7.59869910E+00  7.59869910E+00 -1.51973982E+01  7.59869910E+00
  7.59869910E+00 -1.51973982E+01  7.59869910E+00  7.59869910E+00 -1.51973982E+01
  7.59869910E+00  7.59869910E+00 -1.51973982E+01  7.59869910E+00  7.59869910E+00
 -1.51973982E+01  7.59869910E+00  7.59869910E+00 -1.51973982E+01  7.59869910E+00
  7.59869910E+00 -1.51973982E+01  7.59869910E+00  7.59869910E+00 -1.51973982E+01
  7.59869910E+00  7.59869910E+00 -1.51973982E+01  7.59869910E+00  7.59869910E+00
 -1.51973982E+01  7.59869910E+00  7.59869910E+00 -1.51973982E+01  7.59869910E+00
  7.59869910E+00 -1.51973982E+01  7.59869910E+00  7.59869910E+00 -1.51973982E+01
  7.59869910E+00  7.59869910E+00 -1.51973982E+01  7.59869910E+00  7.59869910E+00
 -1.51973982E+01  7.59869910E+00  7.59869910E+00 -1.51973982E+01  7.59869910E+00
  7.59869910E+00 -1.51973982E+01  7.59869910E+00  7.59869910E+00 -1.51973982E+01
  7.59869910E+00  7.59869910E+00 -1.51973982E+01  7.59869910E+00  7.59869910E+00
 -1.51973982E+01  7.59869910E+00  7.59869910E+00 -1.51973982E+01  7.59869910E+00
  7.59869910E+00 -1.51973982E+01  7.59869910E+00  7.59869910E+00 -1.51973982E+01
  7.59869910E+00  7.59869910E+00 -1.51973982E+01  7.59869910E+00  7.59869910E+00
 -1.51973982E+01  7.59869910E+00  7.59869910E+00 -1.51973982E+01  7.59869910E+00
  7.59869910E+00 -1.51973982E+01  7.59869910E+00  7.59869910E+00 -1.51973982E+01
  7.59869910E+00  7.59869910E+00 -1.51973982E+01  7.59869910E+00  7.59869910E+00
 -1.51973982E+01  7.59869910E+00  7.59869910E+00 -1.51973982E+01  7.59869910E+00
  7.59869910E+00 -1.51973982E+01  7.59869910E+00  7.59869910E+00 -1.51973982E+01
  7.59869910E+00  7.59869910E+00 -1.51973982E+01  7.59869910E+00  7.59869910E+00
 -1.51973982E+01  7.59869910E+00  7.59869910E+00 -1.51973982E+01  7.59869910E+00
  7.59869910E+00 -1.51973982E+01  7.59869910E+00  7.59869910E+00 -1.51973982E+01
  7.59869910E+00  7.59869910E+00 -1.51973982E+01  7.59869910E+00  7.59869910E+00
 -1.51973982E+01  7.59869910E+00  7.59869910E+00 -1.51973982E+01  7.59869910E+00
  7.59869910E+00 -1.51973982E+01  7.59869910E+00  7.59869910E+00 -1.51973982E+01
  7.59869910E+00  7.59869910E+00 -1.51973982E+01  7.59869910E+00  7.59869910E+00
 -1.51973982E+01  7.59869910E+00  7.59869910E+00 -1.51973982E+01  7.59869910E+00
  7.59869910E+00 -1.51973982E+01  7.59869910E+00  7.59869910E+00 -1.51973982E+01
  7.59869910E+00  7.59869910E+00 -1.51973982E+01  7.59869910E+00  7.59869910E+00
 -1.51973982E+01  7.59869910E+00  7.59869910E+00 -1.51973982E+01  7.59869910E+00
  7.59869910E+00 -1.51973982E+01  7.59869910E+00  7.59869910E+00 -1.51973982E+01
  7.59869910E+00  7.59869910E+00 -1.51973982E+01  7.59869910E+00  7.59869910E+00
 -1.51973982E+01  7.59869910E+00  7.59869910E+00 -1.51973982E+01  7.59869910E+00
  7.59869910E+00 -1.51973982E+01  7.59869910E+00  7.59869910E+00 -1.51973982E+01
  7.59869910E+00  7.59869910E+00 -1.51973982E+01  7.59869910E+00  7.59869910E+00
 -1.51973982E+01  7.59869910E+00  7.59869910E+00 -1.51973982E+01  7.59869910E+00
  7.59869910E+00 -1.51973982E+01  7.59869910E+00  7.59869910E+00 -1.51973982E+01
  7.59869910E+00  7.59869910E+00 -1.51973982E+01  7.59869910E+00  7.59869910E+00
 -1.51973982E+01  7.59869910E+00  7.59869910E+00 -1.51973982E+01  7.59869910E+00
  7.59869910E+00 -1.51973982E+01  7.59869910E+00  7.59869910E+00 -1.51973982E+01
  7.59869910E+00  7.59869910E+00 -1.51973982E+01  7.59869910E+00  7.59869910E+00
 -1.51973982E+01  7.59869910E+00  7.59869910E+00 -1.51973982E+01  7.59869910E+00
  7.59869910E+00 -1.51973982E+01  7.59869910E+00  7.59869910E+00 -1.51973982E+01
  7.59869910E+00  7.59869910E+00 -1.51973982E+01  7.59869910E+00  7.59869910E+00
 -1.51973982E+01  7.59869910E+00  7.59869910E+00 -1.51973982E+01  7.59869910E+00
  7.59869910E+00 -1.51973982E+01  7.59869910E+00  7.59869910E+00 -1.51973982E+01
  7.59869910E+00  7.59869910E+00 -1.51973982E+01  7.59869910E+00  7.59869910E+00
 -1.51973982E+01  7.59869910E+00  7.59869910E+00 -1.51973982E+01  7.59869910E+00
  7.59869910E+00 -1.51973982E+01  7.59869910E+00  7.59869910E+00 -1.51973982E+01
  7.59869910E+00  7.59869910E+00 -1.51973982E+01  7.59869910E+00  7.59869910E+00
 -1.51973982E+01  7.59869910E+00  7.59869910E+00 -1.51973982E+01  7.59869910E+00
  7.59869910E+00 -1.51973982E+01  7.59869910E+00  7.59869910E+00 -1.51973982E+01
  7.59869910E+00  7.59869910E+00 -1.51973982E+01  7.59869910E+00  7.59869910E+00
 -1.51973982E+01  7.59869910E+00  7.59869910E+00 -1.51973982E+01  7.59869910E+00
  7.59869910E+00 -1.51973982E+01  7.59869910E+00  7.59869910E+00 -1.51973982E+01
  7.59869910E+00  7.59869910E+00 -1.51973982E+01  7.59869910E+00  7.59869910E+00
 -1.51973982E+01  7.59869910E+00  7.59869910E+00 -1.51973982E+01  7.59869910E+00
  7.59869910E+00 -1.51973982E+01  7.59869910E+00  7.59869910E+00 -1.51973982E+01
  7.59869910E+00  7.59869910E+00 -1.51973982E+01  7.59869910E+00  7.59869910E+00
 -1.51973982E+01  7.59869910E+00  7.59869910E+00 -1.51973982E+01  7.59869910E+00
  7.59869910E+00 -1.51973982E+01  7.59869910E+00  7.59869910E+00 -1.51973982E+01
  7.59869910E+00  7.59869910E+00 -1.51973982E+01  7.59869910E+00  7.59869910E+00
 -1.51973982E+01  7.59869910E+00  7.59869910E+00 -1.51973982E+01  7.59869910E+00
  7.59869910E+00 -1.51973982E+01  7.59869910E+00  7.59869910E+00 -1.51973982E+01
  7.59869910E+00  7.59869910E+00 -1.51973982E+01  7.59869910E+00  7.59869910E+00
 -1.51973982E+01  7.59869910E+00  7.59869910E+00 -1.51973982E+01  7.59869910E+00
  7.59869910E+00 -1.51973982E+01  7.59869910E+00  7.59869910E+00 -1.51973982E+01
  7.59869910E+00  7.59869910E+00 -1.51973982E+01  7.59869910E+00  7.59869910E+00
 -1.51973982E+01  7.59869910E+00  7.59869910E+00 -1.51973982E+01  7.59869910E+00
  7.59869910E+00 -1.51973982E+01  7.59869910E+00  7.59869910E+00 -1.51973982E+01
  7.59869910E+00  7.59869910E+00 -1.51973982E+01  7.59869910E+00  7.59869910E+00
 -1.51973982E+01  7.59869910E+00  7.59869910E+00 -1.51973982E+01  7.59869910E+00
  7.59869910E+00 -1.51973982E+01  7.59869910E+00  7.59869910E+00 -1.51973982E+01
  7.59869910E+00  7.59869910E+00 -1.51973982E+01  7.59869910E+00  7.59869910E+00
 -1.51973982E+01  7.59869910E+00  7.59869910E+00 -1.51973982E+01  7.59869910E+00
  7.59869910E+00 -1.51973982E+01  7.59869910E+00  7.59869910E+00 -1.51973982E+01
  7.59869910E+00  7.59869910E+00 -1.51973982E+01  7.59869910E+00  7.59869910E+00
 -1.51973982E+01  7.59869910E+00  7.59869910E+00 -1.51973982E+01  7.59869910E+00
  7.59869910E+00 -1.51973982E+01  7.59869910E+00  7.59869910E+00 -1.51973982E+01
  7.59869910E+00  7.59869910E+00 -1.51973982E+01  7.59869910E+00  7.59869910E+00
 -1.51973982E+01  7.59869910E+00  7.59869910E+00 -1.51973982E+01  7.59869910E+00
  7.59869910E+00 -1.51973982E+01  7.59869910E+00  7.59869910E+00 -1.51973982E+01
  7.59869910E+00  7.59869910E+00 -1.51973982E+01  7.59869910E+00  7.59869910E+00
 -1.51973982E+01  7.59869910E+00  7.59869910E+00 -1.51973982E+01  7.59869910E+00
  7.59869910E+00 -1.51973982E+01  7.59869910E+00  7.59869910E+00 -1.51973982E+01
  7.59869910E+00  7.59869910E+00 -1.51973982E+01  7.59869910E+00  7.59869910E+00
 -1.51973982E+01  7.59869910E+00  7.59869910E+00 -1.51973982E+01  7.59869910E+00
  7.59869910E+00 -1.51973982E+01  7.59869910E+00  7.59869910E+00 -1.51973982E+01
  7.59869910E+00  7.59869910E+00 -1.51973982E+01  7.59869910E+00  7.59869910E+00
 -1.51973982E+01  7.59869910E+00  7.59869910E+00 -1.51973982E+01  7.59869910E+00
  7.59869910E+00 -1.51973982E+01  7.59869910E+00  7.59869910E+00 -1.51973982E+01
  7.59869910E+00  7.59869910E+00 -1.51973982E+01  7.59869910E+00  7.59869910E+00
 -1.51973982E+01  7.59869910E+00  7.59869910E+00 -1.51973982E+01  7.59869910E+00
  7.59869910E+00 -1.51973982E+01  7.59869910E+00  7.59869910E+00 -1.51973982E+01
  7.59869910E+00  7.59869910E+00 -1.51973982E+01  7.59869910E+00  7.59869910E+00
 -1.51973982E+01  7.59869910E+00  7.59869910E+00 -1.51973982E+01  7.59869910E+00
  7.59869910E+00 -1.51973982E+01  7.59869910E+00  7.59869910E+00 -1.51973982E+01
  7.59869910E+00  7.59869910E+00 -1.51973982E+01  7.59869910E+00  7.59869910E+00
 -1.51973982E+01  7.59869910E+00  7.59869910E+00 -1.51973982E+01  7.59869910E+00
  7.59869910E+00 -1.51973982E+01  7.59869910E+00  7.59869910E+00 -1.51973982E+01
  7.59869910E+00  7.59869910E+00 -1.51973982E+01  7.59869910E+00  7.59869910E+00
 -1.51973982E+01  7.59869910E+00  7.59869910E+00 -1.51973982E+01  7.59869910E+00
  7.59869910E+00 -1.51973982E+01  7.59869910E+00  7.59869910E+00 -1.51973982E+01
  7.59869910E+00  7.59869910E+00 -1.51973982E+01  7.59869910E+00  7.59869910E+00
 -1.51973982E+01  7.59869910E+00  7.59869910E+00 -1.51973982E+01  7.59869910E+00
  7.59869910E+00 -1.51973982E+01  7.59869910E+00  7.59869910E+00 -1.51973982E+01
  7.59869910E+00  7.59869910E+00 -1.51973982E+01  7.59869910E+00  7.59869910E+00
 -1.51973982E+01  7.59869910E+00  7.59869910E+00 -1.51973982E+01  7.59869910E+00
  7.59869910E+00 -1.51973982E+01  7.59869910E+00  7.59869910E+00 -1.51973982E+01
  7.59869910E+00  7.59869910E+00 -1.51973982E+01  7.59869910E+00  7.59869910E+00
 -1.51973982E+01  7.59869910E+00  7.59869910E+00 -1.51973982E+01  7.59869910E+00
  7.59869910E+00 -1.51973982E+01  7.59869910E+00  7.59869910E+00 -1.51973982E+01
  7.59869910E+00  7.59869910E+00 -1.51973982E+01  7.59869910E+00  7.59869910E+00
 -1.51973982E+01  7.59869910E+00  7.59869910E+00 -1.51973982E+01  7.59869910E+00
  7.59869910E+00 -1.51973982E+01  7.59869910E+00  7.59869910E+00 -1.51973982E+01
  7.59869910E+00  7.59869910E+00 -1.51973982E+01  7.59869910E+00  7.59869910E+00
 -1.51973982E+01  7.59869910E+00  7.59869910E+00 -1.51973982E+01  7.59869910E+00
  7.59869910E+00 -1.51973982E+01  7.59869910E+00  7.59869910E+00 -1.51973982E+01
  7.59869910E+00  7.59869910E+00 -1.51973982E+01  7.59869910E+00  7.59869910E+00
 -1.51973982E+01  7.59869910E+00  7.59869910E+00 -1.51973982E+01  7.59869910E+00
  7.59869910E+00 -1.51973982E+01  7.59869910E+00  7.59869910E+00 -1.51973982E+01
  7.59869910E+00  7.59869910E+00 -1.51973982E+01  7.59869910E+00  7.59869910E+00
 -1.51973982E+01  7.59869910E+00  7.59869910E+00 -1.51973982E+01  7.59869910E+00
  7.59869910E+00 -1.51973982E+01  7.59869910E+00  7.59869910E+00 -1.51973982E+01
  7.59869910E+00  7.59869910E+00 -1.51973982E+01  7.59869910E+00  7.59869910E+00
 -1.51973982E+01  7.59869910E+00  7.59869910E+00 -1.51973982E+01  7.59869910E+00
  7.59869910E+00 -1.51973982E+01  7.59869910E+00  7.59869910E+00 -1.51973982E+01
  7.59869910E+00  7.59869910E+00 -1.51973982E+01  7.59869910E+00  7.59869910E+00
 -1.51973982E+01  7.59869910E+00  7.59869910E+00 -1.51973982E+01  7.59869910E+00
  7.59869910E+00 -1.51973982E+01  7.59869910E+00  7.59869910E+00 -1.51973982E+01
  7.59869910E+00  7.59869910E+00 -1.51973982E+01  7.59869910E+00  7.59869910E+00
 -1.51973982E+01  7.59869910E+00  7.59869910E+00 -1.51973982E+01  7.59869910E+00
  7.59869910E+00 -1.51973982E+01  7.59869910E+00  7.59869910E+00 -1.51973982E+01
  7.59869910E+00  7.59869910E+00 -1.51973982E+01  7.59869910E+00  7.59869910E+00
 -1.51973982E+01  7.59869910E+00  7.59869910E+00 -1.51973982E+01  7.59869910E+00
  7.59869910E+00 -1.51973982E+01  7.59869910E+00  7.59869910E+00 -1.51973982E+01
  7.59869910E+00  7.59869910E+00 -1.51973982E+01  7.59869910E+00  7.59869910E+00
 -1.51973982E+01  7.59869910E+00  7.59869910E+00 -1.51973982E+01  7.59869910E+00
  7.59869910E+00 -1.51973982E+01  7.59869910E+00  7.59869910E+00 -1.51973982E+01
  7.59869910E+00  7.59869910E+00 -1.51973982E+01  7.59869910E+00  7.59869910E+00
 -1.51973982E+01  7.59869910E+00  7.59869910E+00 -1.51973982E+01  7.59869910E+00
  7.59869910E+00 -1.51973982E+01  7.59869910E+00  7.59869910E+00 -1.51973982E+01
  7.59869910E+00  7.59869910E+00 -1.51973982E+01  7.59869910E+00  7.59869910E+00
 -1.51973982E+01  7.59869910E+00  7.59869910E+00 -1.51973982E+01  7.59869910E+00
  7.59869910E+00 -1.51973982E+01  7.59869910E+00  7.59869910E+00 -1.51973982E+01
  7.59869910E+00  7.59869910E+00 -1.51973982E+01  7.59869910E+00  7.59869910E+00
 -1.51973982E+01  7.59869910E+00  7.59869910E+00 -1.51973982E+01  7.59869910E+00
  7.59869910E+00 -1.51973982E+01  7.59869910E+00  7.59869910E+00 -1.51973982E+01
  7.59869910E+00  7.59869910E+00 -1.51973982E+01  7.59869910E+00  7.59869910E+00
 -1.51973982E+01  7.59869910E+00  7.59869910E+00 -1.51973982E+01  7.59869910E+00
  7.59869910E+00 -1.51973982E+01  7.59869910E+00  7.59869910E+00 -1.51973982E+01
  7.59869910E+00  7.59869910E+00 -1.51973982E+01  7.59869910E+00  7.59869910E+00
 -1.51973982E+01  7.59869910E+00  7.59869910E+00 -1.51973982E+01  7.59869910E+00
  7.59869910E+00 -1.51973982E+01  7.59869910E+00  7.59869910E+00 -1.51973982E+01
  7.59869910E+00  7.59869910E+00 -1.51973982E+01  7.59869910E+00  7.59869910E+00
 -1.51973982E+01  7.59869910E+00  7.59869910E+00 -1.51973982E+01  7.59869910E+00
  7.59869910E+00 -1.51973982E+01  7.59869910E+00  7.59869910E+00 -1.51973982E+01
  7.59869910E+00  7.59869910E+00 -1.51973982E+01  7.59869910E+00  7.59869910E+00
 -1.51973982E+01  7.59869910E+00  7.59869910E+00 -1.51973982E+01  7.59869910E+00
  7.59869910E+00 -1.51973982E+01  7.59869910E+00  7.59869910E+00 -1.51973982E+01
  7.59869910E+00  7.59869910E+00 -1.51973982E+01  7.59869910E+00  7.59869910E+00
 -1.51973982E+01  7.59869910E+00  7.59869910E+00 -1.51973982E+01  7.59869910E+00
  7.59869910E+00 -1.51973982E+01  7.59869910E+00  7.59869910E+00 -1.51973982E+01
  7.59869910E+00  7.59869910E+00 -1.51973982E+01  7.59869910E+00  7.59869910E+00
 -1.51973982E+01  7.59869910E+00  7.59869910E+00 -1.51973982E+01  7.59869910E+00
  7.59869910E+00 -1.51973982E+01  7.59869910E+00  7.59869910E+00 -1.51973982E+01
  7.59869910E+00  7.59869910E+00 -1.51973982E+01  7.59869910E+00  7.59869910E+00
 -1.51973982E+01  7.59869910E+00  7.59869910E+00 -1.51973982E+01  7.59869910E+00
  7.59869910E+00 -1.51973982E+01  7.59869910E+00  7.59869910E+00 -1.51973982E+01
  7.59869910E+00  7.59869910E+00 -1.51973982E+01  7.59869910E+00  7.59869910E+00
 -1.51973982E+01  7.59869910E+00  7.59869910E+00 -1.51973982E+01  7.59869910E+00
  7.59869910E+00 -1.51973982E+01  7.59869910E+00  7.59869910E+00 -1.51973982E+01
  7.59869910E+00  7.59869910E+00 -1.51973982E+01  7.59869910E+00  7.59869910E+00
 -1.51973982E+01  7.59869910E+00  7.59869910E+00 -1.51973982E+01  7.59869910E+00
  7.59869910E+00 -1.51973982E+01  7.59869910E+00  7.59869910E+00 -1.51973982E+01
  7.59869910E+00  7.59869910E+00 -1.51973982E+01  7.59869910E+00  7.59869910E+00
 -1.51973982E+01  7.59869910E+00  7.59869910E+00 -1.51973982E+01  7.59869910E+00
  7.59869910E+00 -1.51973982E+01  7.59869910E+00  7.59869910E+00 -1.51973982E+01
  7.59869910E+00  7.59869910E+00 -1.51973982E+01  7.59869910E+00  7.59869910E+00
 -1.51973982E+01  7.59869910E+00  7.59869910E+00 -1.51973982E+01  7.59869910E+00
  7.59869910E+00 -1.51973982E+01  7.59869910E+00  7.59869910E+00 -1.51973982E+01
  7.59869910E+00  7.59869910E+00 -1.51973982E+01  7.59869910E+00  7.59869910E+00
 -1.51973982E+01  7.59869910E+00  7.59869910E+00 -1.51973982E+01  7.59869910E+00
  7.59869910E+00 -1.51973982E+01  7.59869910E+00  7.59869910E+00 -1.51973982E+01
  7.59869910E+00  7.59869910E+00 -1.51973982E+01  7.59869910E+00  7.59869910E+00
 -1.51973982E+01  7.59869910E+00  7.59869910E+00 -1.51973982E+01  7.59869910E+00
  7.59869910E+00 -1.51973982E+01  7.59869910E+00  7.59869910E+00 -1.51973982E+01
  7.59869910E+00  7.59869910E+00 -1.51973982E+01  7.59869910E+00  7.59869910E+00
 -1.51973982E+01  7.59869910E+00  7.59869910E+00 -1.51973982E+01  7.59869910E+00
  7.59869910E+00 -1.51973982E+01  7.59869910E+00  7.59869910E+00 -1.51973982E+01
  7.59869910E+00  7.59869910E+00 -1.51973982E+01  7.59869910E+00  7.59869910E+00
 -1.51973982E+01  7.59869910E+00  7.59869910E+00 -1.51973982E+01  7.59869910E+00
  7.59869910E+00 -1.51973982E+01  7.59869910E+00  7.59869910E+00 -1.51973982E+01
  7.59869910E+00  7.59869910E+00 -1.51973982E+01  7.59869910E+00  7.59869910E+00
 -1.51973982E+01  7.59869910E+00  7.59869910E+00 -1.51973982E+01  7.59869910E+00
  7.59869910E+00 -1.51973982E+01  7.59869910E+00  7.59869910E+00 -1.51973982E+01
  7.59869910E+00  7.59869910E+00 -1.51973982E+01  7.59869910E+00  7.59869910E+00
 -1.51973982E+01  7.59869910E+00  7.59869910E+00 -1.51973982E+01  7.59869910E+00
  7.59869910E+00 -1.51973982E+01  7.59869910E+00  7.59869910E+00 -1.51973982E+01
  7.59869910E+00  7.59869910E+00 -1.51973982E+01  7.59869910E+00  7.59869910E+00
 -1.51973982E+01  7.59869910E+00  7.59869910E+00 -1.51973982E+01  7.59869910E+00
  7.59869910E+00 -1.51973982E+01  7.59869910E+00  7.59869910E+00 -1.51973982E+01
  7.59869910E+00  7.59869910E+00 -1.51973982E+01  7.59869910E+00  7.59869910E+00
 -1.51973982E+01  7.59869910E+00  7.59869910E+00 -1.51973982E+01  7.59869910E+00
  7.59869910E+00 -1.51973982E+01  7.59869910E+00  7.59869910E+00 -1.51973982E+01
  7.59869910E+00  7.59869910E+00 -1.51973982E+01  7.59869910E+00  7.59869910E+00
 -1.51973982E+01  7.59869910E+00  7.59869910E+00 -1.51973982E+01  7.59869910E+00
  7.59869910E+00 -1.51973982E+01  7.59869910E+00  7.59869910E+00 -1.51973982E+01
  7.59869910E+00  7.59869910E+00 -1.51973982E+01  7.59869910E+00  7.59869910E+00
 -1.51973982E+01  7.59869910E+00  7.59869910E+00 -1.51973982E+01  7.59869910E+00
  7.59869910E+00 -1.51973982E+01  7.59869910E+00  7.59869910E+00 -1.51973982E+01
  7.59869910E+00  7.59869910E+00 -1.51973982E+01  7.59869910E+00  7.59869910E+00
 -1.51973982E+01  7.59869910E+00  7.59869910E+00 -1.51973982E+01  7.59869910E+00
  7.59869910E+00 -1.51973982E+01  7.59869910E+00  7.59869910E+00 -1.51973982E+01
  7.59869910E+00  7.59869910E+00 -1.51973982E+01  7.59869910E+00  7.59869910E+00
 -1.51973982E+01  7.59869910E+00  7.59869910E+00 -1.51973982E+01  7.59869910E+00
  7.59869910E+00 -1.51973982E+01  7.59869910E+00  7.59869910E+00 -1.51973982E+01
  7.59869910E+00  7.59869910E+00 -1.51973982E+01  7.59869910E+00  7.59869910E+00
 -1.51973982E+01  7.59869910E+00  7.59869910E+00 -1.51973982E+01  7.59869910E+00
  7.59869910E+00 -1.51973982E+01  7.59869910E+00  7.59869910E+00 -1.51973982E+01
  7.59869910E+00  7.59869910E+00 -1.51973982E+01  7.59869910E+00  7.59869910E+00
 -1.51973982E+01  7.59869910E+00  7.59869910E+00 -1.51973982E+01  7.59869910E+00
  7.59869910E+00 -1.51973982E+01  7.59869910E+00  7.59869910E+00 -1.51973982E+01
  7.59869910E+00  7.59869910E+00 -1.51973982E+01  7.59869910E+00  7.59869910E+00
 -1.51973982E+01  7.59869910E+00  7.59869910E+00 -1.51973982E+01  7.59869910E+00
  7.59869910E+00 -1.51973982E+01  7.59869910E+00  7.59869910E+00 -1.51973982E+01
  7.59869910E+00  7.59869910E+00 -1.51973982E+01  7.59869910E+00  7.59869910E+00
 -1.51973982E+01  7.59869910E+00  7.59869910E+00 -1.51973982E+01  7.59869910E+00
  7.59869910E+00 -1.51973982E+01  7.59869910E+00  7.59869910E+00 -1.51973982E+01
  7.59869910E+00  7.59869910E+00 -1.51973982E+01  7.59869910E+00  7.59869910E+00
 -1.51973982E+01  7.59869910E+00  7.59869910E+00 -1.51973982E+01  7.59869910E+00
  7.59869910E+00 -1.51973982E+01  7.59869910E+00  7.59869910E+00 -1.51973982E+01
  7.59869910E+00  7.59869910E+00 -1.51973982E+01  7.59869910E+00  7.59869910E+00
 -1.51973982E+01  7.59869910E+00  7.59869910E+00 -1.51973982E+01  7.59869910E+00
  7.59869910E+00 -1.51973982E+01  7.59869910E+00  7.59869910E+00 -1.51973982E+01
  7.59869910E+00  7.59869910E+00 -1.51973982E+01  7.59869910E+00  7.59869910E+00
 -1.51973982E+01  7.59869910E+00  7.59869910E+00 -1.51973982E+01  7.59869910E+00
  7.59869910E+00 -1.51973982E+01  7.59869910E+00  7.59869910E+00 -1.51973982E+01
  7.59869910E+00  7.59869910E+00 -1.51973982E+01  7.59869910E+00  7.59869910E+00
 -1.51973982E+01  7.59869910E+00  7.59869910E+00 -1.51973982E+01  7.59869910E+00
  7.59869910E+00 -1.51973982E+01  7.59869910E+00  7.59869910E+00 -1.51973982E+01
  7.59869910E+00  7.59869910E+00 -1.51973982E+01  7.59869910E+00  7.59869910E+00
 -1.51973982E+01  7.59869910E+00  7.59869910E+00 -1.51973982E+01  7.59869910E+00
  7.59869910E+00 -1.51973982E+01  7.59869910E+00  7.59869910E+00 -1.51973982E+01
  7.59869910E+00  7.59869910E+00 -1.51973982E+01  7.59869910E+00  7.59869910E+00
 -1.51973982E+01  7.59869910E+00  7.59869910E+00 -1.51973982E+01  7.59869910E+00
  7.59869910E+00 -1.51973982E+01  7.59869910E+00  7.59869910E+00 -1.51973982E+01
  7.59869910E+00  7.59869910E+00 -1.51973982E+01  7.59869910E+00  7.59869910E+00
 -1.51973982E+01  7.59869910E+00  7.59869910E+00 -1.51973982E+01  7.59869910E+00
  7.59869910E+00 -1.51973982E+01  7.59869910E+00  7.59869910E+00 -1.51973982E+01
  7.59869910E+00  7.59869910E+00 -1.51973982E+01  7.59869910E+00  7.59869910E+00
 -1.51973982E+01  7.59869910E+00  7.59869910E+00 -1.51973982E+01  7.59869910E+00
  7.59869910E+00 -1.51973982E+01  7.59869910E+00  7.59869910E+00 -1.51973982E+01
  7.59869910E+00  7.59869910E+00 -1.51973982E+01  7.59869910E+00  7.59869910E+00
 -1.51973982E+01  7.59869910E+00  7.59869910E+00 -1.51973982E+01  7.59869910E+00
  7.59869910E+00 -1.51973982E+01  7.59869910E+00  7.59869910E+00 -1.51973982E+01
  7.59869910E+00  7.59869910E+00 -1.51973982E+01  7.59869910E+00  7.59869910E+00
 -1.51973982E+01  7.59869910E+00  7.59869910E+00 -1.51973982E+01  7.59869910E+00
  7.59869910E+00 -1.51973982E+01  7.59869910E+00  7.59869910E+00 -1.51973982E+01
  7.59869910E+00  7.59869910E+00 -1.51973982E+01  7.59869910E+00  7.59869910E+00
 -1.51973982E+01  7.59869910E+00  7.59869910E+00 -1.51973982E+01  7.59869910E+00
  7.59869910E+00 -1.51973982E+01  7.59869910E+00  7.59869910E+00 -1.51973982E+01
  7.59869910E+00  7.59869910E+00 -1.51973982E+01  7.59869910E+00  7.59869910E+00
 -1.51973982E+01  7.59869910E+00  7.59869910E+00 -1.51973982E+01  7.59869910E+00
  7.59869910E+00 -1.51973982E+01  7.59869910E+00  7.59869910E+00 -1.51973982E+01
  7.59869910E+00  7.59869910E+00 -1.51973982E+01  7.59869910E+00  7.59869910E+00
 -1.51973982E+01  7.59869910E+00  7.59869910E+00 -1.51973982E+01  7.59869910E+00
  7.59869910E+00 -1.51973982E+01  7.59869910E+00  7.59869910E+00 -1.51973982E+01
  7.59869910E+00  7.59869910E+00 -1.51973982E+01  7.59869910E+00  7.59869910E+00
 -1.51973982E+01  7.59869910E+00  7.59869910E+00 -1.51973982E+01  7.59869910E+00
  7.59869910E+00 -1.51973982E+01  7.59869910E+00  7.59869910E+00 -1.51973982E+01
  7.59869910E+00  7.59869910E+00 -1.51973982E+01  7.59869910E+00  7.59869910E+00
 -1.51973982E+01  7.59869910E+00  7.59869910E+00 -1.51973982E+01  7.59869910E+00
  7.59869910E+00 -1.51973982E+01  7.59869910E+00  7.59869910E+00 -1.51973982E+01
  7.59869910E+00  7.59869910E+00 -1.51973982E+01  7.59869910E+00  7.59869910E+00
 -1.51973982E+01  7.59869910E+00  7.59869910E+00 -1.51973982E+01  7.59869910E+00
  7.59869910E+00 -1.51973982E+01  7.59869910E+00  7.59869910E+00 -1.51973982E+01
  7.59869910E+00  7.59869910E+00 -1.51973982E+01  7.59869910E+00  7.59869910E+00
 -1.51973982E+01  7.59869910E+00  7.59869910E+00 -1.51973982E+01  7.59869910E+00
  7.59869910E+00 -1.51973982E+01  7.59869910E+00  7.59869910E+00 -1.51973982E+01
  7.59869910E+00  7.59869910E+00 -1.51973982E+01  7.59869910E+00  7.59869910E+00
 -1.51973982E+01  7.59869910E+00  7.59869910E+00 -1.51973982E+01  7.59869910E+00
  7.59869910E+00 -1.51973982E+01  7.59869910E+00  7.59869910E+00 -1.51973982E+01
  7.59869910E+00  7.59869910E+00 -1.51973982E+01  7.59869910E+00  7.59869910E+00
 -1.51973982E+01  7.59869910E+00  7.59869910E+00 -1.51973982E+01  7.59869910E+00
  7.59869910E+00 -1.51973982E+01  7.59869910E+00  7.59869910E+00 -1.51973982E+01
  7.59869910E+00  7.59869910E+00 -1.51973982E+01  7.59869910E+00  7.59869910E+00
 -1.51973982E+01  7.59869910E+00  7.59869910E+00 -1.51973982E+01  7.59869910E+00
  7.59869910E+00 -1.51973982E+01  7.59869910E+00  7.59869910E+00 -1.51973982E+01
  7.59869910E+00  7.59869910E+00 -1.51973982E+01  7.59869910E+00  7.59869910E+00
 -1.51973982E+01  7.59869910E+00  7.59869910E+00 -1.51973982E+01  7.59869910E+00
  7.59869910E+00 -1.51973982E+01  7.59869910E+00  7.59869910E+00 -1.51973982E+01
  7.59869910E+00  7.59869910E+00 -1.51973982E+01  7.59869910E+00  7.59869910E+00
 -1.51973982E+01  7.59869910E+00  7.59869910E+00 -1.51973982E+01  7.59869910E+00
  7.59869910E+00 -1.51973982E+01  7.59869910E+00  7.59869910E+00 -1.51973982E+01
  7.59869910E+00  7.59869910E+00 -1.51973982E+01  7.59869910E+00  7.59869910E+00
 -1.51973982E+01  7.59869910E+00  7.59869910E+00 -1.51973982E+01  7.59869910E+00
  7.59869910E+00 -1.51973982E+01  7.59869910E+00  7.59869910E+00 -1.51973982E+01
  7.59869910E+00  7.59869910E+00 -1.51973982E+01  7.59869910E+00  7.59869910E+00
 -1.51973982E+01  7.59869910E+00  7.59869910E+00 -1.51973982E+01  7.59869910E+00
  7.59869910E+00 -1.51973982E+01  7.59869910E+00  7.59869910E+00 -1.51973982E+01
  7.59869910E+00  7.59869910E+00 -1.51973982E+01  7.59869910E+00  7.59869910E+00
 -1.51973982E+01  7.59869910E+00  7.59869910E+00 -1.51973982E+01  7.59869910E+00
  7.59869910E+00 -1.51973982E+01  7.59869910E+00  7.59869910E+00 -1.51973982E+01
  7.59869910E+00  7.59869910E+00 -1.51973982E+01  7.59869910E+00  7.59869910E+00
 -1.51973982E+01  7.59869910E+00  7.59869910E+00 -1.51973982E+01  7.59869910E+00
  7.59869910E+00 -1.51973982E+01  7.59869910E+00  7.59869910E+00 -1.51973982E+01
  7.59869910E+00  7.59869910E+00 -1.51973982E+01  7.59869910E+00  7.59869910E+00
 -1.51973982E+01  7.59869910E+00  7.59869910E+00 -1.51973982E+01  7.59869910E+00
  7.59869910E+00 -1.51973982E+01  7.59869910E+00  7.59869910E+00 -1.51973982E+01
  7.59869910E+00  7.59869910E+00 -1.51973982E+01  7.59869910E+00  7.59869910E+00
 -1.51973982E+01  7.59869910E+00  7.59869910E+00 -1.51973982E+01  7.59869910E+00
  7.59869910E+00 -1.51973982E+01  7.59869910E+00  7.59869910E+00 -1.51973982E+01
  7.59869910E+00  7.59869910E+00 -1.51973982E+01  7.59869910E+00  7.59869910E+00
 -1.51973982E+01  7.59869910E+00  7.59869910E+00 -1.51973982E+01  7.59869910E+00
  7.59869910E+00 -1.51973982E+01  7.59869910E+00  7.59869910E+00 -1.51973982E+01
  7.59869910E+00  7.59869910E+00 -1.51973982E+01  7.59869910E+00  7.59869910E+00
 -1.51973982E+01  7.59869910E+00  7.59869910E+00 -1.51973982E+01  7.59869910E+00
  7.59869910E+00 -1.51973982E+01  7.59869910E+00  7.59869910E+00 -1.51973982E+01
  7.59869910E+00  7.59869910E+00 -1.51973982E+01  7.59869910E+00  7.59869910E+00
 -1.51973982E+01  7.59869910E+00  7.59869910E+00 -1.51973982E+01  7.59869910E+00
  7.59869910E+00 -1.51973982E+01  7.59869910E+00  7.59869910E+00 -1.51973982E+01
  7.59869910E+00  7.59869910E+00 -1.51973982E+01  7.59869910E+00  7.59869910E+00
 -1.51973982E+01  7.59869910E+00  7.59869910E+00 -1.51973982E+01  7.59869910E+00
  7.59869910E+00 -1.51973982E+01  7.59869910E+00  7.59869910E+00 -1.51973982E+01
  7.59869910E+00  7.59869910E+00 -1.51973982E+01  7.59869910E+00  7.59869910E+00
 -1.51973982E+01  7.59869910E+00  7.59869910E+00 -1.51973982E+01  7.59869910E+00
  7.59869910E+00 -1.51973982E+01  7.59869910E+00  7.59869910E+00 -1.51973982E+01
  7.59869910E+00  7.59869910E+00 -1.51973982E+01  7.59869910E+00  7.59869910E+00
 -1.51973982E+01  7.59869910E+00  7.59869910E+00 -1.51973982E+01  7.59869910E+00
  7.59869910E+00 -1.51973982E+01  7.59869910E+00  7.59869910E+00 -1.51973982E+01
  7.59869910E+00  7.59869910E+00 -1.51973982E+01  7.59869910E+00  7.59869910E+00
 -1.51973982E+01  7.59869910E+00  7.59869910E+00 -1.51973982E+01  7.59869910E+00
  7.59869910E+00 -1.51973982E+01  7.59869910E+00  7.59869910E+00 -1.51973982E+01
  7.59869910E+00  7.59869910E+00 -1.51973982E+01  7.59869910E+00  7.59869910E+00
 -1.51973982E+01  7.59869910E+00  7.59869910E+00 -1.51973982E+01  7.59869910E+00
  7.59869910E+00 -1.51973982E+01  7.59869910E+00  7.59869910E+00 -1.51973982E+01
  7.59869910E+00  7.59869910E+00 -1.51973982E+01  7.59869910E+00  7.59869910E+00
 -1.51973982E+01  7.59869910E+00  7.59869910E+00 -1.51973982E+01  7.59869910E+00
  7.59869910E+00 -1.51973982E+01  7.59869910E+00  7.59869910E+00 -1.51973982E+01
  7.59869910E+00  7.59869910E+00 -1.51973982E+01  7.59869910E+00  7.59869910E+00
 -1.51973982E+01  7.59869910E+00  7.59869910E+00 -1.51973982E+01  7.59869910E+00
  7.59869910E+00 -1.51973982E+01  7.59869910E+00  7.59869910E+00 -1.51973982E+01
  7.59869910E+00  7.59869910E+00 -1.51973982E+01  7.59869910E+00  7.59869910E+00
 -1.51973982E+01  7.59869910E+00  7.59869910E+00 -1.51973982E+01  7.59869910E+00
  7.59869910E+00 -1.51973982E+01  7.59869910E+00  7.59869910E+00 -1.51973982E+01
  7.59869910E+00  7.59869910E+00 -1.51973982E+01  7.59869910E+00  7.59869910E+00
 -1.51973982E+01  7.59869910E+00  7.59869910E+00 -1.51973982E+01  7.59869910E+00
  7.59869910E+00 -1.51973982E+01  7.59869910E+00  7.59869910E+00 -1.51973982E+01
  7.59869910E+00  7.59869910E+00 -1.51973982E+01  7.59869910E+00  7.59869910E+00
 -1.51973982E+01  7.59869910E+00  7.59869910E+00 -1.51973982E+01  7.59869910E+00
  7.59869910E+00 -1.51973982E+01  7.59869910E+00  7.59869910E+00 -1.51973982E+01
  7.59869910E+00  7.59869910E+00 -1.51973982E+01  7.59869910E+00  7.59869910E+00
 -1.51973982E+01  7.59869910E+00  7.59869910E+00 -1.51973982E+01  7.59869910E+00
  7.59869910E+00 -1.51973982E+01  7.59869910E+00  7.59869910E+00 -1.51973982E+01
  7.59869910E+00  7.59869910E+00 -1.51973982E+01  7.59869910E+00  7.59869910E+00
 -1.51973982E+01  7.59869910E+00  7.59869910E+00 -1.51973982E+01  7.59869910E+00
  7.59869910E+00 -1.51973982E+01  7.59869910E+00  7.59869910E+00 -1.51973982E+01
  7.59869910E+00  7.59869910E+00 -1.51973982E+01  7.59869910E+00  7.59869910E+00
 -1.51973982E+01  7.59869910E+00  7.59869910E+00 -1.51973982E+01  7.59869910E+00
  7.59869910E+00 -1.51973982E+01  7.59869910E+00  7.59869910E+00 -1.51973982E+01
  7.59869910E+00  7.59869910E+00 -1.51973982E+01  7.59869910E+00  7.59869910E+00
 -1.51973982E+01  7.59869910E+00  7.59869910E+00 -1.51973982E+01  7.59869910E+00
  7.59869910E+00 -1.51973982E+01  7.59869910E+00  7.59869910E+00 -1.51973982E+01
  7.59869910E+00  7.59869910E+00 -1.51973982E+01  7.59869910E+00  7.59869910E+00
 -1.51973982E+01  7.59869910E+00  7.59869910E+00 -1.51973982E+01  7.59869910E+00
  7.59869910E+00 -1.51973982E+01  7.59869910E+00  7.59869910E+00 -1.51973982E+01
  7.59869910E+00  7.59869910E+00 -1.51973982E+01  7.59869910E+00  7.59869910E+00
 -1.51973982E+01  7.59869910E+00  7.59869910E+00 -1.51973982E+01  7.59869910E+00
  7.59869910E+00 -1.51973982E+01  7.59869910E+00  7.59869910E+00 -1.51973982E+01
  7.59869910E+00  7.59869910E+00 -1.51973982E+01  7.59869910E+00  7.59869910E+00
 -1.51973982E+01  7.59869910E+00  7.59869910E+00 -1.51973982E+01  7.59869910E+00
  7.59869910E+00 -1.51973982E+01  7.59869910E+00  7.59869910E+00 -1.51973982E+01
  7.59869910E+00  7.59869910E+00 -1.51973982E+01  7.59869910E+00  7.59869910E+00
 -1.51973982E+01  7.59869910E+00  7.59869910E+00 -1.51973982E+01  7.59869910E+00
  7.59869910E+00 -1.51973982E+01  7.59869910E+00  7.59869910E+00 -1.51973982E+01
  7.59869910E+00  7.59869910E+00 -1.51973982E+01  7.59869910E+00  7.59869910E+00
 -1.51973982E+01  7.59869910E+00  7.59869910E+00 -1.51973982E+01  7.59869910E+00
  7.59869910E+00 -1.51973982E+01  7.59869910E+00  7.59869910E+00 -1.51973982E+01
  7.59869910E+00  7.59869910E+00 -1.51973982E+01  7.59869910E+00  7.59869910E+00
 -1.51973982E+01  7.59869910E+00  7.59869910E+00 -1.51973982E+01  7.59869910E+00
  7.59869910E+00 -1.51973982E+01  7.59869910E+00  7.59869910E+00 -1.51973982E+01
  7.59869910E+00  7.59869910E+00 -1.51973982E+01  7.59869910E+00  7.59869910E+00
 -1.51973982E+01  7.59869910E+00  7.59869910E+00 -1.51973982E+01  7.59869910E+00
  7.59869910E+00 -1.51973982E+01  7.59869910E+00  7.59869910E+00 -1.51973982E+01
  7.59869910E+00  7.59869910E+00 -1.51973982E+01  7.59869910E+00  7.59869910E+00
 -1.51973982E+01  7.59869910E+00  7.59869910E+00 -1.51973982E+01  7.59869910E+00
  7.59869910E+00 -1.51973982E+01  7.59869910E+00  7.59869910E+00 -1.51973982E+01
  7.59869910E+00  7.59869910E+00 -1.51973982E+01  7.59869910E+00  7.59869910E+00
 -1.51973982E+01  7.59869910E+00  7.59869910E+00 -1.51973982E+01  7.59869910E+00
  7.59869910E+00 -1.51973982E+01  7.59869910E+00  7.59869910E+00 -1.51973982E+01
  7.59869910E+00  7.59869910E+00 -1.51973982E+01  7.59869910E+00  7.59869910E+00
 -1.51973982E+01  7.59869910E+00  7.59869910E+00 -1.51973982E+01  7.59869910E+00
  7.59869910E+00 -1.51973982E+01  7.59869910E+00  7.59869910E+00 -1.51973982E+01
  7.59869910E+00  7.59869910E+00 -1.51973982E+01  7.59869910E+00  7.59869910E+00
 -1.51973982E+01  7.59869910E+00  7.59869910E+00 -1.51973982E+01  7.59869910E+00
  7.59869910E+00 -1.51973982E+01  7.59869910E+00  7.59869910E+00 -1.51973982E+01
  7.59869910E+00  7.59869910E+00 -1.51973982E+01  7.59869910E+00  7.59869910E+00
 -1.51973982E+01  7.59869910E+00  7.59869910E+00 -1.51973982E+01  7.59869910E+00
  7.59869910E+00 -1.51973982E+01  7.59869910E+00  7.59869910E+00 -1.51973982E+01
  7.59869910E+00  7.59869910E+00 -1.51973982E+01  7.59869910E+00  7.59869910E+00
 -1.51973982E+01  7.59869910E+00  7.59869910E+00 -1.51973982E+01  7.59869910E+00
  7.59869910E+00 -1.51973982E+01  7.59869910E+00  7.59869910E+00 -1.51973982E+01
  7.59869910E+00  7.59869910E+00 -1.51973982E+01  7.59869910E+00  7.59869910E+00
 -1.51973982E+01  7.59869910E+00  7.59869910E+00 -1.51973982E+01  7.59869910E+00
  7.59869910E+00 -1.51973982E+01  7.59869910E+00  7.59869910E+00 -1.51973982E+01
  7.59869910E+00  7.59869910E+00 -1.51973982E+01  7.59869910E+00  7.59869910E+00
 -1.51973982E+01  7.59869910E+00  7.59869910E+00 -1.51973982E+01  7.59869910E+00
  7.59869910E+00 -1.51973982E+01  7.59869910E+00  7.59869910E+00 -1.51973982E+01
  7.59869910E+00  7.59869910E+00 -1.51973982E+01  7.59869910E+00  7.59869910E+00
 -1.51973982E+01  7.59869910E+00  7.59869910E+00 -1.51973982E+01  7.59869910E+00
  7.59869910E+00 -1.51973982E+01  7.59869910E+00  7.59869910E+00 -1.51973982E+01
  7.59869910E+00  7.59869910E+00 -1.51973982E+01  7.59869910E+00  7.59869910E+00
 -1.51973982E+01  7.59869910E+00  7.59869910E+00 -1.51973982E+01  7.59869910E+00
  7.59869910E+00 -1.51973982E+01  7.59869910E+00  7.59869910E+00 -1.51973982E+01
  7.59869910E+00  7.59869910E+00 -1.51973982E+01  7.59869910E+00  7.59869910E+00
 -1.51973982E+01  7.59869910E+00  7.59869910E+00 -1.51973982E+01  7.59869910E+00
  7.59869910E+00 -1.51973982E+01  7.59869910E+00  7.59869910E+00 -1.51973982E+01
  7.59869910E+00  7.59869910E+00 -1.51973982E+01  7.59869910E+00  7.59869910E+00
 -1.51973982E+01  7.59869910E+00  7.59869910E+00 -1.51973982E+01  7.59869910E+00
  7.59869910E+00 -1.51973982E+01  7.59869910E+00  7.59869910E+00 -1.51973982E+01
  7.59869910E+00  7.59869910E+00 -1.51973982E+01  7.59869910E+00  7.59869910E+00
 -1.51973982E+01  7.59869910E+00  7.59869910E+00 -1.51973982E+01  7.59869910E+00
  7.59869910E+00 -1.51973982E+01  7.59869910E+00  7.59869910E+00 -1.51973982E+01
  7.59869910E+00  7.59869910E+00 -1.51973982E+01  7.59869910E+00  7.59869910E+00
 -1.51973982E+01  7.59869910E+00  7.59869910E+00 -1.51973982E+01  7.59869910E+00
  7.59869910E+00 -1.51973982E+01  7.59869910E+00  7.59869910E+00 -1.51973982E+01
  7.59869910E+00  7.59869910E+00 -1.51973982E+01  7.59869910E+00  7.59869910E+00
 -1.51973982E+01  7.59869910E+00  7.59869910E+00 -1.51973982E+01  7.59869910E+00
  7.59869910E+00 -1.51973982E+01  7.59869910E+00  7.59869910E+00 -1.51973982E+01
  7.59869910E+00  7.59869910E+00 -1.51973982E+01  7.59869910E+00  7.59869910E+00
 -1.51973982E+01  7.59869910E+00  7.59869910E+00 -1.51973982E+01  7.59869910E+00
  7.59869910E+00 -1.51973982E+01  7.59869910E+00  7.59869910E+00 -1.51973982E+01
  7.59869910E+00  7.59869910E+00 -1.51973982E+01  7.59869910E+00  7.59869910E+00
 -1.51973982E+01  7.59869910E+00  7.59869910E+00 -1.51973982E+01  7.59869910E+00
  7.59869910E+00 -1.51973982E+01  7.59869910E+00  7.59869910E+00 -1.51973982E+01
  7.59869910E+00  7.59869910E+00 -1.51973982E+01  7.59869910E+00  7.59869910E+00
 -1.51973982E+01  7.59869910E+00  7.59869910E+00 -1.51973982E+01  7.59869910E+00
  7.59869910E+00 -1.51973982E+01  7.59869910E+00  7.59869910E+00 -1.51973982E+01
  7.59869910E+00  7.59869910E+00 -1.51973982E+01  7.59869910E+00  7.59869910E+00
 -1.51973982E+01  7.59869910E+00  7.59869910E+00 -1.51973982E+01  7.59869910E+00
  7.59869910E+00 -1.51973982E+01  7.59869910E+00  7.59869910E+00 -1.51973982E+01
  7.59869910E+00  7.59869910E+00 -1.51973982E+01  7.59869910E+00  7.59869910E+00
 -1.51973982E+01  7.59869910E+00  7.59869910E+00 -1.51973982E+01  7.59869910E+00
  7.59869910E+00 -1.51973982E+01  7.59869910E+00  7.59869910E+00 -1.51973982E+01
  7.59869910E+00  7.59869910E+00 -1.51973982E+01  7.59869910E+00  7.59869910E+00
 -1.51973982E+01  7.59869910E+00  7.59869910E+00 -1.51973982E+01  7.59869910E+00
  7.59869910E+00 -1.51973982E+01  7.59869910E+00  7.59869910E+00 -1.51973982E+01
  7.59869910E+00  7.59869910E+00 -1.51973982E+01  7.59869910E+00  7.59869910E+00
 -1.51973982E+01  7.59869910E+00  7.59869910E+00 -1.51973982E+01  7.59869910E+00
  7.59869910E+00 -1.51973982E+01  7.59869910E+00  7.59869910E+00 -1.51973982E+01
  7.59869910E+00  7.59869910E+00 -1.51973982E+01  7.59869910E+00  7.59869910E+00
 -1.51973982E+01  7.59869910E+00  7.59869910E+00 -1.51973982E+01  7.59869910E+00
  7.59869910E+00 -1.51973982E+01  7.59869910E+00  7.59869910E+00 -1.51973982E+01
  7.59869910E+00  7.59869910E+00 -1.51973982E+01  7.59869910E+00  7.59869910E+00
 -1.51973982E+01  7.59869910E+00  7.59869910E+00 -1.51973982E+01  7.59869910E+00
  7.59869910E+00 -1.51973982E+01  7.59869910E+00  7.59869910E+00 -1.51973982E+01
  7.59869910E+00  7.59869910E+00 -1.51973982E+01  7.59869910E+00  7.59869910E+00
 -1.51973982E+01  7.59869910E+00  7.59869910E+00 -1.51973982E+01  7.59869910E+00
  7.59869910E+00 -1.51973982E+01  7.59869910E+00  7.59869910E+00 -1.51973982E+01
  7.59869910E+00  7.59869910E+00 -1.51973982E+01  7.59869910E+00  7.59869910E+00
 -1.51973982E+01  7.59869910E+00  7.59869910E+00 -1.51973982E+01  7.59869910E+00
  7.59869910E+00 -1.51973982E+01  7.59869910E+00  7.59869910E+00 -1.51973982E+01
  7.59869910E+00  7.59869910E+00 -1.51973982E+01  7.59869910E+00  7.59869910E+00
 -1.51973982E+01  7.59869910E+00  7.59869910E+00 -1.51973982E+01  7.59869910E+00
  7.59869910E+00 -1.51973982E+01  7.59869910E+00  7.59869910E+00 -1.51973982E+01
  7.59869910E+00  7.59869910E+00 -1.51973982E+01  7.59869910E+00  7.59869910E+00
 -1.51973982E+01  7.59869910E+00  7.59869910E+00 -1.51973982E+01  7.59869910E+00
  7.59869910E+00 -1.51973982E+01  7.59869910E+00  7.59869910E+00 -1.51973982E+01
  7.59869910E+00  7.59869910E+00 -1.51973982E+01  7.59869910E+00  7.59869910E+00
 -1.51973982E+01  7.59869910E+00  7.59869910E+00 -1.51973982E+01  7.59869910E+00
  7.59869910E+00 -1.51973982E+01  7.59869910E+00  7.59869910E+00 -1.51973982E+01
  7.59869910E+00  7.59869910E+00 -1.51973982E+01  7.59869910E+00  7.59869910E+00
 -1.51973982E+01  7.59869910E+00  7.59869910E+00 -1.51973982E+01  7.59869910E+00
  7.59869910E+00 -1.51973982E+01  7.59869910E+00  7.59869910E+00 -1.51973982E+01
  7.59869910E+00  7.59869910E+00 -1.51973982E+01  7.59869910E+00  7.59869910E+00
 -1.51973982E+01  7.59869910E+00  7.59869910E+00 -1.51973982E+01  7.59869910E+00
  7.59869910E+00 -1.51973982E+01  7.59869910E+00  7.59869910E+00 -1.51973982E+01
  7.59869910E+00  7.59869910E+00 -1.51973982E+01  7.59869910E+00  7.59869910E+00
 -1.51973982E+01  7.59869910E+00  7.59869910E+00 -1.51973982E+01  7.59869910E+00
  7.59869910E+00 -1.51973982E+01  7.59869910E+00  7.59869910E+00 -1.51973982E+01
  7.59869910E+00  7.59869910E+00 -1.51973982E+01  7.59869910E+00  7.59869910E+00
 -1.51973982E+01  7.59869910E+00  7.59869910E+00 -1.51973982E+01  7.59869910E+00
  7.59869910E+00 -1.51973982E+01  7.59869910E+00  7.59869910E+00 -1.51973982E+01
  7.59869910E+00  7.59869910E+00 -1.51973982E+01  7.59869910E+00  7.59869910E+00
 -1.51973982E+01  7.59869910E+00  7.59869910E+00 -1.51973982E+01  7.59869910E+00
  7.59869910E+00 -1.51973982E+01  7.59869910E+00  7.59869910E+00 -1.51973982E+01
  7.59869910E+00  7.59869910E+00 -1.51973982E+01  7.59869910E+00  7.59869910E+00
 -1.51973982E+01  7.59869910E+00  7.59869910E+00 -1.51973982E+01  7.59869910E+00
  7.59869910E+00 -1.51973982E+01  7.59869910E+00  7.59869910E+00 -1.51973982E+01
  7.59869910E+00  7.59869910E+00 -1.51973982E+01  7.59869910E+00  7.59869910E+00
 -1.51973982E+01  7.59869910E+00  7.59869910E+00 -1.51973982E+01  7.59869910E+00
  7.59869910E+00 -1.51973982E+01  7.59869910E+00  7.59869910E+00 -1.51973982E+01
  7.59869910E+00  7.59869910E+00 -1.51973982E+01  7.59869910E+00  7.59869910E+00
 -1.51973982E+01  7.59869910E+00  7.59869910E+00 -1.51973982E+01  7.59869910E+00
  7.59869910E+00 -1.51973982E+01  7.59869910E+00  7.59869910E+00 -1.51973982E+01
  7.59869910E+00  7.59869910E+00 -1.51973982E+01  7.59869910E+00  7.59869910E+00
 -1.51973982E+01  7.59869910E+00  7.59869910E+00 -1.51973982E+01  7.59869910E+00
  7.59869910E+00 -1.51973982E+01  7.59869910E+00  7.59869910E+00 -1.51973982E+01
  7.59869910E+00  7.59869910E+00 -1.51973982E+01  7.59869910E+00  7.59869910E+00
 -1.51973982E+01  7.59869910E+00  7.59869910E+00 -1.51973982E+01  7.59869910E+00
  7.59869910E+00 -1.51973982E+01  7.59869910E+00  7.59869910E+00 -1.51973982E+01
  7.59869910E+00  7.59869910E+00 -1.51973982E+01  7.59869910E+00  7.59869910E+00
 -1.51973982E+01  7.59869910E+00  7.59869910E+00 -1.51973982E+01  7.59869910E+00
  7.59869910E+00 -1.51973982E+01  7.59869910E+00  7.59869910E+00 -1.51973982E+01
  7.59869910E+00  7.59869910E+00 -1.51973982E+01  7.59869910E+00  7.59869910E+00
 -1.51973982E+01  7.59869910E+00  7.59869910E+00 -1.51973982E+01  7.59869910E+00
  7.59869910E+00 -1.51973982E+01  7.59869910E+00  7.59869910E+00 -1.51973982E+01
  7.59869910E+00  7.59869910E+00 -1.51973982E+01  7.59869910E+00  7.59869910E+00
 -1.51973982E+01  7.59869910E+00  7.59869910E+00 -1.51973982E+01  7.59869910E+00
  7.59869910E+00 -1.51973982E+01  7.59869910E+00  7.59869910E+00 -1.51973982E+01
  7.59869910E+00  7.59869910E+00 -1.51973982E+01  7.59869910E+00  7.59869910E+00
 -1.51973982E+01  7.59869910E+00  7.59869910E+00 -1.51973982E+01  7.59869910E+00
  7.59869910E+00 -1.51973982E+01  7.59869910E+00  7.59869910E+00 -1.51973982E+01
  7.59869910E+00  7.59869910E+00 -1.51973982E+01  7.59869910E+00  7.59869910E+00
 -1.51973982E+01  7.59869910E+00  7.59869910E+00 -1.51973982E+01  7.59869910E+00
  7.59869910E+00 -1.51973982E+01  7.59869910E+00  7.59869910E+00 -1.51973982E+01
  7.59869910E+00  7.59869910E+00 -1.51973982E+01  7.59869910E+00  7.59869910E+00
 -1.51973982E+01  7.59869910E+00  7.59869910E+00 -1.51973982E+01  7.59869910E+00
  7.59869910E+00 -1.51973982E+01  7.59869910E+00  7.59869910E+00 -1.51973982E+01
  7.59869910E+00  7.59869910E+00 -1.51973982E+01  7.59869910E+00  7.59869910E+00
 -1.51973982E+01  7.59869910E+00  7.59869910E+00 -1.51973982E+01  7.59869910E+00
  7.59869910E+00 -1.51973982E+01  7.59869910E+00  7.59869910E+00 -1.51973982E+01
  7.59869910E+00  7.59869910E+00 -1.51973982E+01  7.59869910E+00  7.59869910E+00
 -1.51973982E+01  7.59869910E+00  7.59869910E+00 -1.51973982E+01  7.59869910E+00
  7.59869910E+00 -1.51973982E+01  7.59869910E+00  7.59869910E+00 -1.51973982E+01
  7.59869910E+00  7.59869910E+00 -1.51973982E+01  7.59869910E+00  7.59869910E+00
 -1.51973982E+01  7.59869910E+00  7.59869910E+00 -1.51973982E+01  7.59869910E+00
  7.59869910E+00 -1.51973982E+01  7.59869910E+00  7.59869910E+00 -1.51973982E+01
  7.59869910E+00  7.59869910E+00 -1.51973982E+01  7.59869910E+00  7.59869910E+00
 -1.51973982E+01  7.59869910E+00  7.59869910E+00 -1.51973982E+01  7.59869910E+00
  7.59869910E+00 -1.51973982E+01  7.59869910E+00  7.59869910E+00 -1.51973982E+01
  7.59869910E+00  7.59869910E+00 -1.51973982E+01  7.59869910E+00  7.59869910E+00
 -1.51973982E+01  7.59869910E+00  7.59869910E+00 -1.51973982E+01  7.59869910E+00
  7.59869910E+00 -1.51973982E+01  7.59869910E+00  7.59869910E+00 -1.51973982E+01
  7.59869910E+00  7.59869910E+00 -1.51973982E+01  7.59869910E+00  7.59869910E+00
 -1.51973982E+01  7.59869910E+00  7.59869910E+00 -1.51973982E+01  7.59869910E+00
  7.59869910E+00 -1.51973982E+01  7.59869910E+00  7.59869910E+00 -1.51973982E+01
  7.59869910E+00  7.59869910E+00 -1.51973982E+01  7.59869910E+00  7.59869910E+00
 -1.51973982E+01  7.59869910E+00  7.59869910E+00 -1.51973982E+01  7.59869910E+00
  7.59869910E+00 -1.51973982E+01  7.59869910E+00  7.59869910E+00 -1.51973982E+01
  7.59869910E+00  7.59869910E+00 -1.51973982E+01  7.59869910E+00  7.59869910E+00
 -1.51973982E+01  7.59869910E+00  7.59869910E+00 -1.51973982E+01  7.59869910E+00
  7.59869910E+00 -1.51973982E+01  7.59869910E+00  7.59869910E+00 -1.51973982E+01
  7.59869910E+00  7.59869910E+00 -1.51973982E+01  7.59869910E+00  7.59869910E+00
 -1.51973982E+01  7.59869910E+00  7.59869910E+00 -1.51973982E+01  7.59869910E+00
  7.59869910E+00 -1.51973982E+01  7.59869910E+00  7.59869910E+00 -1.51973982E+01
  7.59869910E+00  7.59869910E+00 -1.51973982E+01  7.59869910E+00  7.59869910E+00
 -1.51973982E+01  7.59869910E+00  7.59869910E+00 -1.51973982E+01  7.59869910E+00
  7.59869910E+00 -1.51973982E+01  7.59869910E+00  7.59869910E+00 -1.51973982E+01
  7.59869910E+00  7.59869910E+00 -1.51973982E+01  7.59869910E+00  7.59869910E+00
 -1.51973982E+01  7.59869910E+00  7.59869910E+00 -1.51973982E+01  7.59869910E+00
  7.59869910E+00 -1.51973982E+01  7.59869910E+00  7.59869910E+00 -1.51973982E+01
  7.59869910E+00  7.59869910E+00 -1.51973982E+01  7.59869910E+00  7.59869910E+00
 -1.51973982E+01  7.59869910E+00  7.59869910E+00 -1.51973982E+01  7.59869910E+00
  7.59869910E+00 -1.51973982E+01  7.59869910E+00  7.59869910E+00 -1.51973982E+01
  7.59869910E+00  7.59869910E+00 -1.51973982E+01  7.59869910E+00  7.59869910E+00
 -1.51973982E+01  7.59869910E+00  7.59869910E+00 -1.51973982E+01  7.59869910E+00
  7.59869910E+00 -1.51973982E+01  7.59869910E+00  7.59869910E+00 -1.51973982E+01
  7.59869910E+00  7.59869910E+00 -1.51973982E+01  7.59869910E+00  7.59869910E+00
 -1.51973982E+01  7.59869910E+00  7.59869910E+00 -1.51973982E+01  7.59869910E+00
  7.59869910E+00 -1.51973982E+01  7.59869910E+00  7.59869910E+00 -1.51973982E+01
  7.59869910E+00  7.59869910E+00 -1.51973982E+01  7.59869910E+00  7.59869910E+00
 -1.51973982E+01  7.59869910E+00  7.59869910E+00 -1.51973982E+01  7.59869910E+00
  7.59869910E+00 -1.51973982E+01  7.59869910E+00  7.59869910E+00 -1.51973982E+01
  7.59869910E+00  7.59869910E+00 -1.51973982E+01  7.59869910E+00  7.59869910E+00
 -1.51973982E+01  7.59869910E+00  7.59869910E+00 -1.51973982E+01  7.59869910E+00
  7.59869910E+00 -1.51973982E+01  7.59869910E+00  7.59869910E+00 -1.51973982E+01
  7.59869910E+00  7.59869910E+00 -1.51973982E+01  7.59869910E+00  7.59869910E+00
 -1.51973982E+01  7.59869910E+00  7.59869910E+00 -1.51973982E+01  7.59869910E+00
  7.59869910E+00 -1.51973982E+01  7.59869910E+00  7.59869910E+00 -1.51973982E+01
  7.59869910E+00  7.59869910E+00 -1.51973982E+01  7.59869910E+00  7.59869910E+00
 -1.51973982E+01  7.59869910E+00  7.59869910E+00 -1.51973982E+01  7.59869910E+00
  7.59869910E+00 -1.51973982E+01  7.59869910E+00  7.59869910E+00 -1.51973982E+01
  7.59869910E+00  7.59869910E+00 -1.51973982E+01  7.59869910E+00  7.59869910E+00
 -1.51973982E+01  7.59869910E+00  7.59869910E+00 -1.51973982E+01  7.59869910E+00
  7.59869910E+00 -1.51973982E+01  7.59869910E+00  7.59869910E+00 -1.51973982E+01
  7.59869910E+00  7.59869910E+00 -1.51973982E+01  7.59869910E+00  7.59869910E+00
 -1.51973982E+01  7.59869910E+00  7.59869910E+00 -1.51973982E+01  7.59869910E+00
  7.59869910E+00 -1.51973982E+01  7.59869910E+00  7.59869910E+00 -1.51973982E+01
  7.59869910E+00  7.59869910E+00 -1.51973982E+01  7.59869910E+00  7.59869910E+00
 -1.51973982E+01  7.59869910E+00  7.59869910E+00 -1.51973982E+01  7.59869910E+00
  7.59869910E+00 -1.51973982E+01  7.59869910E+00  7.59869910E+00 -1.51973982E+01
  7.59869910E+00  7.59869910E+00 -1.51973982E+01  7.59869910E+00  7.59869910E+00
 -1.51973982E+01  7.59869910E+00  7.59869910E+00 -1.51973982E+01  7.59869910E+00
  7.59869910E+00 -1.51973982E+01  7.59869910E+00  7.59869910E+00 -1.51973982E+01
  7.59869910E+00  7.59869910E+00 -1.51973982E+01  7.59869910E+00  7.59869910E+00
 -1.51973982E+01  7.59869910E+00  7.59869910E+00 -1.51973982E+01  7.59869910E+00
  7.59869910E+00 -1.51973982E+01  7.59869910E+00  7.59869910E+00 -1.51973982E+01
  7.59869910E+00  7.59869910E+00 -1.51973982E+01  7.59869910E+00  7.59869910E+00
 -1.51973982E+01  7.59869910E+00  7.59869910E+00 -1.51973982E+01  7.59869910E+00
  7.59869910E+00 -1.51973982E+01  7.59869910E+00  7.59869910E+00 -1.51973982E+01
  7.59869910E+00  7.59869910E+00 -1.51973982E+01  7.59869910E+00  7.59869910E+00
 -1.51973982E+01  7.59869910E+00  7.59869910E+00 -1.51973982E+01  7.59869910E+00
  7.59869910E+00 -1.51973982E+01  7.59869910E+00  7.59869910E+00 -1.51973982E+01
  7.59869910E+00  7.59869910E+00 -1.51973982E+01  7.59869910E+00  7.59869910E+00
 -1.51973982E+01  7.59869910E+00  7.59869910E+00 -1.51973982E+01  7.59869910E+00
  7.59869910E+00 -1.51973982E+01  7.59869910E+00  7.59869910E+00 -1.51973982E+01
  7.59869910E+00  7.59869910E+00 -1.51973982E+01  7.59869910E+00  7.59869910E+00
 -1.51973982E+01  7.59869910E+00  7.59869910E+00 -1.51973982E+01  7.59869910E+00
  7.59869910E+00 -1.51973982E+01  7.59869910E+00  7.59869910E+00 -1.51973982E+01
  7.59869910E+00  7.59869910E+00 -1.51973982E+01  7.59869910E+00  7.59869910E+00
 -1.51973982E+01  7.59869910E+00  7.59869910E+00 -1.51973982E+01  7.59869910E+00
  7.59869910E+00 -1.51973982E+01  7.59869910E+00  7.59869910E+00 -1.51973982E+01
  7.59869910E+00  7.59869910E+00 -1.51973982E+01  7.59869910E+00  7.59869910E+00
 -1.51973982E+01  7.59869910E+00  7.59869910E+00 -1.51973982E+01  7.59869910E+00
  7.59869910E+00 -1.51973982E+01  7.59869910E+00  7.59869910E+00 -1.51973982E+01
  7.59869910E+00  7.59869910E+00 -1.51973982E+01  7.59869910E+00  7.59869910E+00
 -1.51973982E+01  7.59869910E+00  7.59869910E+00 -1.51973982E+01  7.59869910E+00
  7.59869910E+00 -1.51973982E+01  7.59869910E+00  7.59869910E+00 -1.51973982E+01
  7.59869910E+00  7.59869910E+00 -1.51973982E+01  7.59869910E+00  7.59869910E+00
 -1.51973982E+01  7.59869910E+00  7.59869910E+00 -1.51973982E+01  7.59869910E+00
  7.59869910E+00 -1.51973982E+01  7.59869910E+00  7.59869910E+00 -1.51973982E+01
  7.59869910E+00  7.59869910E+00 -1.51973982E+01  7.59869910E+00  7.59869910E+00
 -1.51973982E+01  7.59869910E+00  7.59869910E+00 -1.51973982E+01  7.59869910E+00
  7.59869910E+00 -1.51973982E+01  7.59869910E+00  7.59869910E+00 -1.51973982E+01
  7.59869910E+00  7.59869910E+00 -1.51973982E+01  7.59869910E+00  7.59869910E+00
 -1.51973982E+01  7.59869910E+00  7.59869910E+00 -1.51973982E+01  7.59869910E+00
  7.59869910E+00 -1.51973982E+01  7.59869910E+00  7.59869910E+00 -1.51973982E+01
  7.59869910E+00  7.59869910E+00 -1.51973982E+01  7.59869910E+00  7.59869910E+00
 -1.51973982E+01  7.59869910E+00  7.59869910E+00 -1.51973982E+01  7.59869910E+00
  7.59869910E+00 -1.51973982E+01  7.59869910E+00  7.59869910E+00 -1.51973982E+01
  7.59869910E+00  7.59869910E+00 -1.51973982E+01  7.59869910E+00  7.59869910E+00
 -1.51973982E+01  7.59869910E+00  7.59869910E+00 -1.51973982E+01  7.59869910E+00
  7.59869910E+00 -1.51973982E+01  7.59869910E+00  7.59869910E+00 -1.51973982E+01
  7.59869910E+00  7.59869910E+00 -1.51973982E+01  7.59869910E+00  7.59869910E+00
 -1.51973982E+01  7.59869910E+00  7.59869910E+00 -1.51973982E+01  7.59869910E+00
  7.59869910E+00 -1.51973982E+01  7.59869910E+00  7.59869910E+00 -1.51973982E+01
  7.59869910E+00  7.59869910E+00 -1.51973982E+01  7.59869910E+00  7.59869910E+00
 -1.51973982E+01  7.59869910E+00  7.59869910E+00 -1.51973982E+01  7.59869910E+00
  7.59869910E+00 -1.51973982E+01  7.59869910E+00  7.59869910E+00 -1.51973982E+01
  7.59869910E+00  7.59869910E+00 -1.51973982E+01  7.59869910E+00  7.59869910E+00
 -1.51973982E+01  7.59869910E+00  7.59869910E+00 -1.51973982E+01  7.59869910E+00
  7.59869910E+00 -1.51973982E+01  7.59869910E+00  7.59869910E+00 -1.51973982E+01
  7.59869910E+00  7.59869910E+00 -1.51973982E+01  7.59869910E+00  7.59869910E+00
 -1.51973982E+01  7.59869910E+00  7.59869910E+00 -1.51973982E+01  7.59869910E+00
  7.59869910E+00 -1.51973982E+01  7.59869910E+00  7.59869910E+00 -1.51973982E+01
  7.59869910E+00  7.59869910E+00 -1.51973982E+01  7.59869910E+00  7.59869910E+00
 -1.51973982E+01  7.59869910E+00  7.59869910E+00 -1.51973982E+01  7.59869910E+00
  7.59869910E+00 -1.51973982E+01  7.59869910E+00  7.59869910E+00 -1.51973982E+01
  7.59869910E+00  7.59869910E+00 -1.51973982E+01  7.59869910E+00  7.59869910E+00
 -1.51973982E+01  7.59869910E+00  7.59869910E+00 -1.51973982E+01  7.59869910E+00
  7.59869910E+00 -1.51973982E+01  7.59869910E+00  7.59869910E+00 -1.51973982E+01
  7.59869910E+00  7.59869910E+00 -1.51973982E+01  7.59869910E+00  7.59869910E+00
 -1.51973982E+01  7.59869910E+00  7.59869910E+00 -1.51973982E+01  7.59869910E+00
  7.59869910E+00 -1.51973982E+01  7.59869910E+00  7.59869910E+00 -1.51973982E+01
  7.59869910E+00  7.59869910E+00 -1.51973982E+01  7.59869910E+00  7.59869910E+00
 -1.51973982E+01  7.59869910E+00  7.59869910E+00 -1.51973982E+01  7.59869910E+00
  7.59869910E+00 -1.51973982E+01  7.59869910E+00  7.59869910E+00 -1.51973982E+01
  7.59869910E+00  7.59869910E+00 -1.51973982E+01  7.59869910E+00  7.59869910E+00
 -1.51973982E+01  7.59869910E+00  7.59869910E+00 -1.51973982E+01  7.59869910E+00
  7.59869910E+00 -1.51973982E+01  7.59869910E+00  7.59869910E+00 -1.51973982E+01
  7.59869910E+00  7.59869910E+00 -1.51973982E+01  7.59869910E+00  7.59869910E+00
 -1.51973982E+01  7.59869910E+00  7.59869910E+00 -1.51973982E+01  7.59869910E+00
  7.59869910E+00 -1.51973982E+01  7.59869910E+00  7.59869910E+00 -1.51973982E+01
  7.59869910E+00  7.59869910E+00 -1.51973982E+01  7.59869910E+00  7.59869910E+00
 -1.51973982E+01  7.59869910E+00  7.59869910E+00 -1.51973982E+01  7.59869910E+00
  7.59869910E+00 -1.51973982E+01  7.59869910E+00  7.59869910E+00 -1.51973982E+01
  7.59869910E+00  7.59869910E+00 -1.51973982E+01  7.59869910E+00  7.59869910E+00
 -1.51973982E+01  7.59869910E+00  7.59869910E+00 -1.51973982E+01  7.59869910E+00
  7.59869910E+00 -1.51973982E+01  7.59869910E+00  7.59869910E+00 -1.51973982E+01
  7.59869910E+00  7.59869910E+00 -1.51973982E+01  7.59869910E+00  7.59869910E+00
 -1.51973982E+01  7.59869910E+00  7.59869910E+00 -1.51973982E+01  7.59869910E+00
  7.59869910E+00 -1.51973982E+01  7.59869910E+00  7.59869910E+00 -1.51973982E+01
  7.59869910E+00  7.59869910E+00 -1.51973982E+01  7.59869910E+00  7.59869910E+00
 -1.51973982E+01  7.59869910E+00  7.59869910E+00 -1.51973982E+01  7.59869910E+00
  7.59869910E+00 -1.51973982E+01  7.59869910E+00  7.59869910E+00 -1.51973982E+01
  7.59869910E+00  7.59869910E+00 -1.51973982E+01  7.59869910E+00  7.59869910E+00
 -1.51973982E+01  7.59869910E+00  7.59869910E+00 -1.51973982E+01  7.59869910E+00
  7.59869910E+00 -1.51973982E+01  7.59869910E+00  7.59869910E+00 -1.51973982E+01
  7.59869910E+00  7.59869910E+00 -1.51973982E+01  7.59869910E+00  7.59869910E+00
 -1.51973982E+01  7.59869910E+00  7.59869910E+00 -1.51973982E+01  7.59869910E+00
  7.59869910E+00 -1.51973982E+01  7.59869910E+00  7.59869910E+00 -1.51973982E+01
  7.59869910E+00  7.59869910E+00 -1.51973982E+01  7.59869910E+00  7.59869910E+00
 -1.51973982E+01  7.59869910E+00  7.59869910E+00 -1.51973982E+01  7.59869910E+00
  7.59869910E+00 -1.51973982E+01  7.59869910E+00  7.59869910E+00 -1.51973982E+01
  7.59869910E+00  7.59869910E+00 -1.51973982E+01  7.59869910E+00  7.59869910E+00
 -1.51973982E+01  7.59869910E+00  7.59869910E+00 -1.51973982E+01  7.59869910E+00
  7.59869910E+00 -1.51973982E+01  7.59869910E+00  7.59869910E+00 -1.51973982E+01
  7.59869910E+00  7.59869910E+00 -1.51973982E+01  7.59869910E+00  7.59869910E+00
 -1.51973982E+01  7.59869910E+00  7.59869910E+00 -1.51973982E+01  7.59869910E+00
  7.59869910E+00 -1.51973982E+01  7.59869910E+00  7.59869910E+00 -1.51973982E+01
  7.59869910E+00  7.59869910E+00 -1.51973982E+01  7.59869910E+00  7.59869910E+00
 -1.51973982E+01  7.59869910E+00  7.59869910E+00 -1.51973982E+01  7.59869910E+00
  7.59869910E+00 -1.51973982E+01  7.59869910E+00  7.59869910E+00 -1.51973982E+01
  7.59869910E+00  7.59869910E+00 -1.51973982E+01  7.59869910E+00  7.59869910E+00
 -1.51973982E+01  7.59869910E+00  7.59869910E+00 -1.51973982E+01  7.59869910E+00
  7.59869910E+00 -1.51973982E+01  7.59869910E+00  7.59869910E+00 -1.51973982E+01
  7.59869910E+00  7.59869910E+00 -1.51973982E+01  7.59869910E+00  7.59869910E+00
 -1.51973982E+01  7.59869910E+00  7.59869910E+00 -1.51973982E+01  7.59869910E+00
  7.59869910E+00 -1.51973982E+01  7.59869910E+00  7.59869910E+00 -1.51973982E+01
  7.59869910E+00  7.59869910E+00 -1.51973982E+01  7.59869910E+00  7.59869910E+00
 -1.51973982E+01  7.59869910E+00  7.59869910E+00 -1.51973982E+01  7.59869910E+00
  7.59869910E+00 -1.51973982E+01  7.59869910E+00  7.59869910E+00 -1.51973982E+01
  7.59869910E+00  7.59869910E+00 -1.51973982E+01  7.59869910E+00  7.59869910E+00
 -1.51973982E+01  7.59869910E+00  7.59869910E+00 -1.51973982E+01  7.59869910E+00
  7.59869910E+00 -1.51973982E+01  7.59869910E+00  7.59869910E+00 -1.51973982E+01
  7.59869910E+00  7.59869910E+00 -1.51973982E+01  7.59869910E+00  7.59869910E+00
 -1.51973982E+01  7.59869910E+00  7.59869910E+00 -1.51973982E+01  7.59869910E+00
  7.59869910E+00 -1.51973982E+01  7.59869910E+00  7.59869910E+00 -1.51973982E+01
  7.59869910E+00  7.59869910E+00 -1.51973982E+01  7.59869910E+00  7.59869910E+00
 -1.51973982E+01  7.59869910E+00  7.59869910E+00 -1.51973982E+01  7.59869910E+00
  7.59869910E+00 -1.51973982E+01  7.59869910E+00  7.59869910E+00 -1.51973982E+01
  7.59869910E+00  7.59869910E+00 -1.51973982E+01  7.59869910E+00  7.59869910E+00
 -1.51973982E+01  7.59869910E+00  7.59869910E+00 -1.51973982E+01  7.59869910E+00
  7.59869910E+00 -1.51973982E+01  7.59869910E+00  7.59869910E+00 -1.51973982E+01
  7.59869910E+00  7.59869910E+00 -1.51973982E+01  7.59869910E+00  7.59869910E+00
 -1.51973982E+01  7.59869910E+00  7.59869910E+00 -1.51973982E+01  7.59869910E+00
  7.59869910E+00 -1.51973982E+01  7.59869910E+00  7.59869910E+00 -1.51973982E+01
  7.59869910E+00  7.59869910E+00 -1.51973982E+01  7.59869910E+00  7.59869910E+00
 -1.51973982E+01  7.59869910E+00  7.59869910E+00 -1.51973982E+01  7.59869910E+00
  7.59869910E+00 -1.51973982E+01  7.59869910E+00  7.59869910E+00 -1.51973982E+01
  7.59869910E+00  7.59869910E+00 -1.51973982E+01  7.59869910E+00  7.59869910E+00
 -1.51973982E+01  7.59869910E+00  7.59869910E+00 -1.51973982E+01  7.59869910E+00
  7.59869910E+00 -1.51973982E+01  7.59869910E+00  7.59869910E+00 -1.51973982E+01
  7.59869910E+00  7.59869910E+00 -1.51973982E+01  7.59869910E+00  7.59869910E+00
 -1.51973982E+01  7.59869910E+00  7.59869910E+00 -1.51973982E+01  7.59869910E+00
  7.59869910E+00 -1.51973982E+01  7.59869910E+00  7.59869910E+00 -1.51973982E+01
  7.59869910E+00  7.59869910E+00 -1.51973982E+01  7.59869910E+00  7.59869910E+00
 -1.51973982E+01  7.59869910E+00  7.59869910E+00 -1.51973982E+01  7.59869910E+00
  7.59869910E+00 -1.51973982E+01  7.59869910E+00  7.59869910E+00 -1.51973982E+01
  7.59869910E+00  7.59869910E+00 -1.51973982E+01  7.59869910E+00  7.59869910E+00
 -1.51973982E+01  7.59869910E+00  7.59869910E+00 -1.51973982E+01  7.59869910E+00
  7.59869910E+00 -1.51973982E+01  7.59869910E+00  7.59869910E+00 -1.51973982E+01
  7.59869910E+00  7.59869910E+00 -1.51973982E+01  7.59869910E+00  7.59869910E+00
 -1.51973982E+01  7.59869910E+00  7.59869910E+00 -1.51973982E+01  7.59869910E+00
  7.59869910E+00 -1.51973982E+01  7.59869910E+00  7.59869910E+00 -1.51973982E+01
  7.59869910E+00  7.59869910E+00 -1.51973982E+01  7.59869910E+00  7.59869910E+00
 -1.51973982E+01  7.59869910E+00  7.59869910E+00 -1.51973982E+01  7.59869910E+00
  7.59869910E+00 -1.51973982E+01  7.59869910E+00  7.59869910E+00 -1.51973982E+01
  7.59869910E+00  7.59869910E+00 -1.51973982E+01  7.59869910E+00  7.59869910E+00
 -1.51973982E+01  7.59869910E+00  7.59869910E+00 -1.51973982E+01  7.59869910E+00
  7.59869910E+00 -1.51973982E+01  7.59869910E+00  7.59869910E+00 -1.51973982E+01
  7.59869910E+00  7.59869910E+00 -1.51973982E+01  7.59869910E+00  7.59869910E+00
 -1.51973982E+01  7.59869910E+00  7.59869910E+00 -1.51973982E+01  7.59869910E+00
  7.59869910E+00 -1.51973982E+01  7.59869910E+00  7.59869910E+00 -1.51973982E+01
  7.59869910E+00  7.59869910E+00 -1.51973982E+01  7.59869910E+00  7.59869910E+00
 -1.51973982E+01  7.59869910E+00  7.59869910E+00 -1.51973982E+01  7.59869910E+00
  7.59869910E+00 -1.51973982E+01  7.59869910E+00  7.59869910E+00 -1.51973982E+01
  7.59869910E+00  7.59869910E+00 -1.51973982E+01  7.59869910E+00  7.59869910E+00
 -1.51973982E+01  7.59869910E+00  7.59869910E+00 -1.51973982E+01  7.59869910E+00
  7.59869910E+00 -1.51973982E+01  7.59869910E+00  7.59869910E+00 -1.51973982E+01
  7.59869910E+00  7.59869910E+00 -1.51973982E+01  7.59869910E+00  7.59869910E+00
 -1.51973982E+01  7.59869910E+00  7.59869910E+00 -1.51973982E+01  7.59869910E+00
  7.59869910E+00 -1.51973982E+01  7.59869910E+00  7.59869910E+00 -1.51973982E+01
  7.59869910E+00  7.59869910E+00 -1.51973982E+01  7.59869910E+00  7.59869910E+00
 -1.51973982E+01  7.59869910E+00  7.59869910E+00 -1.51973982E+01  7.59869910E+00
  7.59869910E+00 -1.51973982E+01  7.59869910E+00  7.59869910E+00 -1.51973982E+01
  7.59869910E+00  7.59869910E+00 -1.51973982E+01  7.59869910E+00  7.59869910E+00
 -1.51973982E+01  7.59869910E+00  7.59869910E+00 -1.51973982E+01  7.59869910E+00
  7.59869910E+00 -1.51973982E+01  7.59869910E+00  7.59869910E+00 -1.51973982E+01
  7.59869910E+00  7.59869910E+00 -1.51973982E+01  7.59869910E+00  7.59869910E+00
 -1.51973982E+01  7.59869910E+00  7.59869910E+00 -1.51973982E+01  7.59869910E+00
  7.59869910E+00 -1.51973982E+01  7.59869910E+00  7.59869910E+00 -1.51973982E+01
  7.59869910E+00  7.59869910E+00 -1.51973982E+01  7.59869910E+00  7.59869910E+00
 -1.51973982E+01  7.59869910E+00  7.59869910E+00 -1.51973982E+01  7.59869910E+00
  7.59869910E+00 -1.51973982E+01  7.59869910E+00  7.59869910E+00 -1.51973982E+01
  7.59869910E+00  7.59869910E+00 -1.51973982E+01  7.59869910E+00  7.59869910E+00
 -1.51973982E+01  7.59869910E+00  7.59869910E+00 -1.51973982E+01  7.59869910E+00
  7.59869910E+00 -1.51973982E+01  7.59869910E+00  7.59869910E+00 -1.51973982E+01
  7.59869910E+00  7.59869910E+00 -1.51973982E+01  7.59869910E+00  7.59869910E+00
 -1.51973982E+01  7.59869910E+00  7.59869910E+00 -1.51973982E+01  7.59869910E+00
  7.59869910E+00 -1.51973982E+01  7.59869910E+00  7.59869910E+00 -1.51973982E+01
  7.59869910E+00  7.59869910E+00 -1.51973982E+01  7.59869910E+00  7.59869910E+00
 -1.51973982E+01  7.59869910E+00  7.59869910E+00 -1.51973982E+01  7.59869910E+00
  7.59869910E+00 -1.51973982E+01  7.59869910E+00  7.59869910E+00 -1.51973982E+01
  7.59869910E+00  7.59869910E+00 -1.51973982E+01  7.59869910E+00  7.59869910E+00
 -1.51973982E+01  7.59869910E+00  7.59869910E+00 -1.51973982E+01  7.59869910E+00
  7.59869910E+00 -1.51973982E+01  7.59869910E+00  7.59869910E+00 -1.51973982E+01
  7.59869910E+00  7.59869910E+00 -1.51973982E+01  7.59869910E+00  7.59869910E+00
 -1.51973982E+01  7.59869910E+00  7.59869910E+00 -1.51973982E+01  7.59869910E+00
  7.59869910E+00 -1.51973982E+01  7.59869910E+00  7.59869910E+00 -1.51973982E+01
  7.59869910E+00  7.59869910E+00 -1.51973982E+01  7.59869910E+00  7.59869910E+00
 -1.51973982E+01  7.59869910E+00  7.59869910E+00 -1.51973982E+01  7.59869910E+00
  7.59869910E+00 -1.51973982E+01  7.59869910E+00  7.59869910E+00 -1.51973982E+01
  7.59869910E+00  7.59869910E+00 -1.51973982E+01  7.59869910E+00  7.59869910E+00
 -1.51973982E+01  7.59869910E+00  7.59869910E+00 -1.51973982E+01  7.59869910E+00
  7.59869910E+00 -1.51973982E+01  7.59869910E+00  7.59869910E+00 -1.51973982E+01
  7.59869910E+00  7.59869910E+00 -1.51973982E+01  7.59869910E+00  7.59869910E+00
 -1.51973982E+01  7.59869910E+00  7.59869910E+00 -1.51973982E+01  7.59869910E+00
  7.59869910E+00 -1.51973982E+01  7.59869910E+00  7.59869910E+00 -1.51973982E+01
  7.59869910E+00  7.59869910E+00 -1.51973982E+01  7.59869910E+00  7.59869910E+00
 -1.51973982E+01  7.59869910E+00  7.59869910E+00 -1.51973982E+01  7.59869910E+00
  7.59869910E+00 -1.51973982E+01  7.59869910E+00  7.59869910E+00 -1.51973982E+01
  7.59869910E+00  7.59869910E+00 -1.51973982E+01  7.59869910E+00  7.59869910E+00
 -1.51973982E+01  7.59869910E+00  7.59869910E+00 -1.51973982E+01  7.59869910E+00
  7.59869910E+00 -1.51973982E+01  7.59869910E+00  7.59869910E+00 -1.51973982E+01
  7.59869910E+00  7.59869910E+00 -1.51973982E+01  7.59869910E+00  7.59869910E+00
 -1.51973982E+01  7.59869910E+00  7.59869910E+00 -1.51973982E+01  7.59869910E+00
  7.59869910E+00 -1.51973982E+01  7.59869910E+00  7.59869910E+00 -1.51973982E+01
  7.59869910E+00  7.59869910E+00 -1.51973982E+01  7.59869910E+00  7.59869910E+00
 -1.51973982E+01  7.59869910E+00  7.59869910E+00 -1.51973982E+01  7.59869910E+00
  7.59869910E+00 -1.51973982E+01  7.59869910E+00  7.59869910E+00 -1.51973982E+01
  7.59869910E+00  7.59869910E+00 -1.51973982E+01  7.59869910E+00  7.59869910E+00
 -1.51973982E+01  7.59869910E+00  7.59869910E+00 -1.51973982E+01  7.59869910E+00
  7.59869910E+00 -1.51973982E+01  7.59869910E+00  7.59869910E+00 -1.51973982E+01
  7.59869910E+00  7.59869910E+00 -1.51973982E+01  7.59869910E+00  7.59869910E+00
 -1.51973982E+01  7.59869910E+00  7.59869910E+00 -1.51973982E+01  7.59869910E+00
  7.59869910E+00 -1.51973982E+01  7.59869910E+00  7.59869910E+00 -1.51973982E+01
  7.59869910E+00  7.59869910E+00 -1.51973982E+01  7.59869910E+00  7.59869910E+00
 -1.51973982E+01  7.59869910E+00  7.59869910E+00 -1.51973982E+01  7.59869910E+00
  7.59869910E+00 -1.51973982E+01  7.59869910E+00  7.59869910E+00 -1.51973982E+01
  7.59869910E+00  7.59869910E+00 -1.51973982E+01  7.59869910E+00  7.59869910E+00
 -1.51973982E+01  7.59869910E+00  7.59869910E+00 -1.51973982E+01  7.59869910E+00
  7.59869910E+00 -1.51973982E+01  7.59869910E+00  7.59869910E+00 -1.51973982E+01
  7.59869910E+00  7.59869910E+00 -1.51973982E+01  7.59869910E+00  7.59869910E+00
 -1.51973982E+01  7.59869910E+00  7.59869910E+00 -1.51973982E+01  7.59869910E+00
  7.59869910E+00 -1.51973982E+01  7.59869910E+00  7.59869910E+00 -1.51973982E+01
  7.59869910E+00  7.59869910E+00 -1.51973982E+01  7.59869910E+00  7.59869910E+00
 -1.51973982E+01  7.59869910E+00  7.59869910E+00 -1.51973982E+01  7.59869910E+00
  7.59869910E+00 -1.51973982E+01  7.59869910E+00  7.59869910E+00 -1.51973982E+01
  7.59869910E+00  7.59869910E+00 -1.51973982E+01  7.59869910E+00  7.59869910E+00
 -1.51973982E+01  7.59869910E+00  7.59869910E+00 -1.51973982E+01  7.59869910E+00
  7.59869910E+00 -1.51973982E+01  7.59869910E+00  7.59869910E+00 -1.51973982E+01
  7.59869910E+00  7.59869910E+00 -1.51973982E+01  7.59869910E+00  7.59869910E+00
 -1.51973982E+01  7.59869910E+00  7.59869910E+00 -1.51973982E+01  7.59869910E+00
  7.59869910E+00 -1.51973982E+01  7.59869910E+00  7.59869910E+00 -1.51973982E+01
  7.59869910E+00  7.59869910E+00 -1.51973982E+01  7.59869910E+00  7.59869910E+00
 -1.51973982E+01  7.59869910E+00  7.59869910E+00 -1.51973982E+01  7.59869910E+00
  7.59869910E+00 -1.51973982E+01  7.59869910E+00  7.59869910E+00 -1.51973982E+01
  7.59869910E+00  7.59869910E+00 -1.51973982E+01  7.59869910E+00  7.59869910E+00
 -1.51973982E+01  7.59869910E+00  7.59869910E+00 -1.51973982E+01  7.59869910E+00
  7.59869910E+00 -1.51973982E+01  7.59869910E+00  7.59869910E+00 -1.51973982E+01
  7.59869910E+00  7.59869910E+00 -1.51973982E+01  7.59869910E+00  7.59869910E+00
 -1.51973982E+01  7.59869910E+00  7.59869910E+00 -1.51973982E+01  7.59869910E+00
  7.59869910E+00 -1.51973982E+01  7.59869910E+00  7.59869910E+00 -1.51973982E+01
  7.59869910E+00  7.59869910E+00 -1.51973982E+01  7.59869910E+00  7.59869910E+00
 -1.51973982E+01  7.59869910E+00  7.59869910E+00 -1.51973982E+01  7.59869910E+00
  7.59869910E+00 -1.51973982E+01  7.59869910E+00  7.59869910E+00 -1.51973982E+01
  7.59869910E+00  7.59869910E+00 -1.51973982E+01  7.59869910E+00  7.59869910E+00
 -1.51973982E+01  7.59869910E+00  7.59869910E+00 -1.51973982E+01  7.59869910E+00
  7.59869910E+00 -1.51973982E+01  7.59869910E+00  7.59869910E+00 -1.51973982E+01
  7.59869910E+00  7.59869910E+00 -1.51973982E+01  7.59869910E+00  7.59869910E+00
 -1.51973982E+01  7.59869910E+00  7.59869910E+00 -1.51973982E+01  7.59869910E+00
  7.59869910E+00 -1.51973982E+01  7.59869910E+00  7.59869910E+00 -1.51973982E+01
  7.59869910E+00  7.59869910E+00 -1.51973982E+01  7.59869910E+00  7.59869910E+00
 -1.51973982E+01  7.59869910E+00  7.59869910E+00 -1.51973982E+01  7.59869910E+00
  7.59869910E+00 -1.51973982E+01  7.59869910E+00  7.59869910E+00 -1.51973982E+01
  7.59869910E+00  7.59869910E+00 -1.51973982E+01  7.59869910E+00  7.59869910E+00
 -1.51973982E+01  7.59869910E+00  7.59869910E+00 -1.51973982E+01  7.59869910E+00
  7.59869910E+00 -1.51973982E+01  7.59869910E+00  7.59869910E+00 -1.51973982E+01
  7.59869910E+00  7.59869910E+00 -1.51973982E+01  7.59869910E+00  7.59869910E+00
 -1.51973982E+01  7.59869910E+00  7.59869910E+00 -1.51973982E+01  7.59869910E+00
  7.59869910E+00 -1.51973982E+01  7.59869910E+00  7.59869910E+00 -1.51973982E+01
  7.59869910E+00  7.59869910E+00 -1.51973982E+01  7.59869910E+00  7.59869910E+00
 -1.51973982E+01  7.59869910E+00  7.59869910E+00 -1.51973982E+01  7.59869910E+00
  7.59869910E+00 -1.51973982E+01  7.59869910E+00  7.59869910E+00 -1.51973982E+01
  7.59869910E+00  7.59869910E+00 -1.51973982E+01  7.59869910E+00  7.59869910E+00
 -1.51973982E+01  7.59869910E+00  7.59869910E+00 -1.51973982E+01  7.59869910E+00
  7.59869910E+00 -1.51973982E+01  7.59869910E+00  7.59869910E+00 -1.51973982E+01
  7.59869910E+00  7.59869910E+00 -1.51973982E+01  7.59869910E+00  7.59869910E+00
 -1.51973982E+01  7.59869910E+00  7.59869910E+00 -1.51973982E+01  7.59869910E+00
  7.59869910E+00 -1.51973982E+01  7.59869910E+00  7.59869910E+00 -1.51973982E+01
  7.59869910E+00  7.59869910E+00 -1.51973982E+01  7.59869910E+00  7.59869910E+00
 -1.51973982E+01  7.59869910E+00  7.59869910E+00 -1.51973982E+01  7.59869910E+00
  7.59869910E+00 -1.51973982E+01  7.59869910E+00  7.59869910E+00 -1.51973982E+01
  7.59869910E+00  7.59869910E+00 -1.51973982E+01  7.59869910E+00  7.59869910E+00
 -1.51973982E+01  7.59869910E+00  7.59869910E+00 -1.51973982E+01  7.59869910E+00
  7.59869910E+00 -1.51973982E+01  7.59869910E+00  7.59869910E+00 -1.51973982E+01
  7.59869910E+00  7.59869910E+00 -1.51973982E+01  7.59869910E+00  7.59869910E+00
 -1.51973982E+01  7.59869910E+00  7.59869910E+00 -1.51973982E+01  7.59869910E+00
  7.59869910E+00 -1.51973982E+01  7.59869910E+00  7.59869910E+00 -1.51973982E+01
  7.59869910E+00  7.59869910E+00 -1.51973982E+01  7.59869910E+00  7.59869910E+00
 -1.51973982E+01  7.59869910E+00  7.59869910E+00 -1.51973982E+01  7.59869910E+00
  7.59869910E+00 -1.51973982E+01  7.59869910E+00  7.59869910E+00 -1.51973982E+01
  7.59869910E+00  7.59869910E+00 -1.51973982E+01  7.59869910E+00  7.59869910E+00
 -1.51973982E+01  7.59869910E+00  7.59869910E+00 -1.51973982E+01  7.59869910E+00
  7.59869910E+00 -1.51973982E+01  7.59869910E+00  7.59869910E+00 -1.51973982E+01
  7.59869910E+00  7.59869910E+00 -1.51973982E+01  7.59869910E+00  7.59869910E+00
 -1.51973982E+01  7.59869910E+00  7.59869910E+00 -1.51973982E+01  7.59869910E+00
  7.59869910E+00 -1.51973982E+01  7.59869910E+00  7.59869910E+00 -1.51973982E+01
  7.59869910E+00  7.59869910E+00 -1.51973982E+01  7.59869910E+00  7.59869910E+00
 -1.51973982E+01  7.59869910E+00  7.59869910E+00 -1.51973982E+01  7.59869910E+00
  7.59869910E+00 -1.51973982E+01  7.59869910E+00  7.59869910E+00 -1.51973982E+01
  7.59869910E+00  7.59869910E+00 -1.51973982E+01  7.59869910E+00  7.59869910E+00
 -1.51973982E+01  7.59869910E+00  7.59869910E+00 -1.51973982E+01  7.59869910E+00
  7.59869910E+00 -1.51973982E+01  7.59869910E+00  7.59869910E+00 -1.51973982E+01
  7.59869910E+00  7.59869910E+00 -1.51973982E+01  7.59869910E+00  7.59869910E+00
 -1.51973982E+01  7.59869910E+00  7.59869910E+00 -1.51973982E+01  7.59869910E+00
  7.59869910E+00 -1.51973982E+01  7.59869910E+00  7.59869910E+00 -1.51973982E+01
  7.59869910E+00  7.59869910E+00 -1.51973982E+01  7.59869910E+00  7.59869910E+00
 -1.51973982E+01  7.59869910E+00  7.59869910E+00 -1.51973982E+01  7.59869910E+00
  7.59869910E+00 -1.51973982E+01  7.59869910E+00  7.59869910E+00 -1.51973982E+01
  7.59869910E+00  7.59869910E+00 -1.51973982E+01  7.59869910E+00  7.59869910E+00
 -1.51973982E+01  7.59869910E+00  7.59869910E+00 -1.51973982E+01  7.59869910E+00
  7.59869910E+00 -1.51973982E+01  7.59869910E+00  7.59869910E+00 -1.51973982E+01
  7.59869910E+00  7.59869910E+00 -1.51973982E+01  7.59869910E+00  7.59869910E+00
 -1.51973982E+01  7.59869910E+00  7.59869910E+00 -1.51973982E+01  7.59869910E+00
  7.59869910E+00 -1.51973982E+01  7.59869910E+00  7.59869910E+00 -1.51973982E+01
  7.59869910E+00  7.59869910E+00 -1.51973982E+01  7.59869910E+00  7.59869910E+00
 -1.51973982E+01  7.59869910E+00  7.59869910E+00 -1.51973982E+01  7.59869910E+00
  7.59869910E+00 -1.51973982E+01  7.59869910E+00  7.59869910E+00 -1.51973982E+01
  7.59869910E+00  7.59869910E+00 -1.51973982E+01  7.59869910E+00  7.59869910E+00
 -1.51973982E+01  7.59869910E+00  7.59869910E+00 -1.51973982E+01  7.59869910E+00
  7.59869910E+00 -1.51973982E+01  7.59869910E+00  7.59869910E+00 -1.51973982E+01
  7.59869910E+00  7.59869910E+00 -1.51973982E+01  7.59869910E+00  7.59869910E+00
 -1.51973982E+01  7.59869910E+00  7.59869910E+00 -1.51973982E+01  7.59869910E+00
  7.59869910E+00 -1.51973982E+01  7.59869910E+00  7.59869910E+00 -1.51973982E+01
  7.59869910E+00  7.59869910E+00 -1.51973982E+01  7.59869910E+00  7.59869910E+00
 -1.51973982E+01  7.59869910E+00  7.59869910E+00 -1.51973982E+01  7.59869910E+00
  7.59869910E+00 -1.51973982E+01  7.59869910E+00  7.59869910E+00 -1.51973982E+01
  7.59869910E+00  7.59869910E+00 -1.51973982E+01  7.59869910E+00  7.59869910E+00
 -1.51973982E+01  7.59869910E+00  7.59869910E+00 -1.51973982E+01  7.59869910E+00
  7.59869910E+00 -1.51973982E+01  7.59869910E+00  7.59869910E+00 -1.51973982E+01
  7.59869910E+00  7.59869910E+00 -1.51973982E+01  7.59869910E+00  7.59869910E+00
 -1.51973982E+01  7.59869910E+00  7.59869910E+00 -1.51973982E+01  7.59869910E+00
  7.59869910E+00 -1.51973982E+01  7.59869910E+00  7.59869910E+00 -1.51973982E+01
  7.59869910E+00  7.59869910E+00 -1.51973982E+01  7.59869910E+00  7.59869910E+00
 -1.51973982E+01  7.59869910E+00  7.59869910E+00 -1.51973982E+01  7.59869910E+00
  7.59869910E+00 -1.51973982E+01  7.59869910E+00  7.59869910E+00 -1.51973982E+01
  7.59869910E+00  7.59869910E+00 -1.51973982E+01  7.59869910E+00  7.59869910E+00
 -1.51973982E+01  7.59869910E+00  7.59869910E+00 -1.51973982E+01  7.59869910E+00
  7.59869910E+00 -1.51973982E+01  7.59869910E+00  7.59869910E+00 -1.51973982E+01
  7.59869910E+00  7.59869910E+00 -1.51973982E+01  7.59869910E+00  7.59869910E+00
 -1.51973982E+01  7.59869910E+00  7.59869910E+00 -1.51973982E+01  7.59869910E+00
  7.59869910E+00 -1.51973982E+01  7.59869910E+00  7.59869910E+00 -1.51973982E+01
  7.59869910E+00  7.59869910E+00 -1.51973982E+01  7.59869910E+00  7.59869910E+00
 -1.51973982E+01  7.59869910E+00  7.59869910E+00 -1.51973982E+01  7.59869910E+00
  7.59869910E+00 -1.51973982E+01  7.59869910E+00  7.59869910E+00 -1.51973982E+01
  7.59869910E+00  7.59869910E+00 -1.51973982E+01  7.59869910E+00  7.59869910E+00
 -1.51973982E+01  7.59869910E+00  7.59869910E+00 -1.51973982E+01  7.59869910E+00
  7.59869910E+00 -1.51973982E+01  7.59869910E+00  7.59869910E+00 -1.51973982E+01
  7.59869910E+00  7.59869910E+00 -1.51973982E+01  7.59869910E+00  7.59869910E+00
 -1.51973982E+01  7.59869910E+00  7.59869910E+00 -1.51973982E+01  7.59869910E+00
  7.59869910E+00 -1.51973982E+01  7.59869910E+00  7.59869910E+00 -1.51973982E+01
  7.59869910E+00  7.59869910E+00 -1.51973982E+01  7.59869910E+00  7.59869910E+00
 -1.51973982E+01  7.59869910E+00  7.59869910E+00 -1.51973982E+01  7.59869910E+00
  7.59869910E+00 -1.51973982E+01  7.59869910E+00  7.59869910E+00 -1.51973982E+01
  7.59869910E+00  7.59869910E+00 -1.51973982E+01  7.59869910E+00  7.59869910E+00
 -1.51973982E+01  7.59869910E+00  7.59869910E+00 -1.51973982E+01  7.59869910E+00
  7.59869910E+00 -1.51973982E+01  7.59869910E+00  7.59869910E+00 -1.51973982E+01
  7.59869910E+00  7.59869910E+00 -1.51973982E+01  7.59869910E+00  7.59869910E+00
 -1.51973982E+01  7.59869910E+00  7.59869910E+00 -1.51973982E+01  7.59869910E+00
  7.59869910E+00 -1.51973982E+01  7.59869910E+00  7.59869910E+00 -1.51973982E+01
  7.59869910E+00  7.59869910E+00 -1.51973982E+01  7.59869910E+00  7.59869910E+00
 -1.51973982E+01  7.59869910E+00  7.59869910E+00 -1.51973982E+01  7.59869910E+00
  7.59869910E+00 -1.51973982E+01  7.59869910E+00  7.59869910E+00 -1.51973982E+01
  7.59869910E+00  7.59869910E+00 -1.51973982E+01  7.59869910E+00  7.59869910E+00
 -1.51973982E+01  7.59869910E+00  7.59869910E+00 -1.51973982E+01  7.59869910E+00
  7.59869910E+00 -1.51973982E+01  7.59869910E+00  7.59869910E+00 -1.51973982E+01
  7.59869910E+00  7.59869910E+00 -1.51973982E+01  7.59869910E+00  7.59869910E+00
 -1.51973982E+01  7.59869910E+00  7.59869910E+00 -1.51973982E+01  7.59869910E+00
  7.59869910E+00 -1.51973982E+01  7.59869910E+00  7.59869910E+00 -1.51973982E+01
  7.59869910E+00  7.59869910E+00 -1.51973982E+01  7.59869910E+00  7.59869910E+00
 -1.51973982E+01  7.59869910E+00  7.59869910E+00 -1.51973982E+01  7.59869910E+00
  7.59869910E+00 -1.51973982E+01  7.59869910E+00  7.59869910E+00 -1.51973982E+01
  7.59869910E+00  7.59869910E+00 -1.51973982E+01  7.59869910E+00  7.59869910E+00
 -1.51973982E+01  7.59869910E+00  7.59869910E+00 -1.51973982E+01  7.59869910E+00
  7.59869910E+00 -1.51973982E+01  7.59869910E+00  7.59869910E+00 -1.51973982E+01
  7.59869910E+00  7.59869910E+00 -1.51973982E+01  7.59869910E+00  7.59869910E+00
 -1.51973982E+01  7.59869910E+00  7.59869910E+00 -1.51973982E+01  7.59869910E+00
  7.59869910E+00 -1.51973982E+01  7.59869910E+00  7.59869910E+00 -1.51973982E+01
  7.59869910E+00  7.59869910E+00 -1.51973982E+01  7.59869910E+00  7.59869910E+00
 -1.51973982E+01  7.59869910E+00  7.59869910E+00 -1.51973982E+01  7.59869910E+00
  7.59869910E+00 -1.51973982E+01  7.59869910E+00  7.59869910E+00 -1.51973982E+01
  7.59869910E+00  7.59869910E+00 -1.51973982E+01  7.59869910E+00  7.59869910E+00
 -1.51973982E+01  7.59869910E+00  7.59869910E+00 -1.51973982E+01  7.59869910E+00
  7.59869910E+00 -1.51973982E+01  7.59869910E+00  7.59869910E+00 -1.51973982E+01
  7.59869910E+00  7.59869910E+00 -1.51973982E+01  7.59869910E+00  7.59869910E+00
 -1.51973982E+01  7.59869910E+00  7.59869910E+00 -1.51973982E+01  7.59869910E+00
  7.59869910E+00 -1.51973982E+01  7.59869910E+00  7.59869910E+00 -1.51973982E+01
  7.59869910E+00  7.59869910E+00 -1.51973982E+01  7.59869910E+00  7.59869910E+00
 -1.51973982E+01  7.59869910E+00  7.59869910E+00 -1.51973982E+01  7.59869910E+00
  7.59869910E+00 -1.51973982E+01  7.59869910E+00  7.59869910E+00 -1.51973982E+01
  7.59869910E+00  7.59869910E+00 -1.51973982E+01  7.59869910E+00  7.59869910E+00
 -1.51973982E+01  7.59869910E+00  7.59869910E+00 -1.51973982E+01  7.59869910E+00
  7.59869910E+00 -1.51973982E+01  7.59869910E+00  7.59869910E+00 -1.51973982E+01
  7.59869910E+00  7.59869910E+00 -1.51973982E+01  7.59869910E+00  7.59869910E+00
 -1.51973982E+01  7.59869910E+00  7.59869910E+00 -1.51973982E+01  7.59869910E+00
  7.59869910E+00 -1.51973982E+01  7.59869910E+00  7.59869910E+00 -1.51973982E+01
  7.59869910E+00  7.59869910E+00 -1.51973982E+01  7.59869910E+00  7.59869910E+00
 -1.51973982E+01  7.59869910E+00  7.59869910E+00 -1.51973982E+01  7.59869910E+00
  7.59869910E+00 -1.51973982E+01  7.59869910E+00  7.59869910E+00 -1.51973982E+01
  7.59869910E+00  7.59869910E+00 -1.51973982E+01  7.59869910E+00  7.59869910E+00
 -1.51973982E+01  7.59869910E+00  7.59869910E+00 -1.51973982E+01  7.59869910E+00
  7.59869910E+00 -1.51973982E+01  7.59869910E+00  7.59869910E+00 -1.51973982E+01
  7.59869910E+00  7.59869910E+00 -1.51973982E+01  7.59869910E+00  7.59869910E+00
 -1.51973982E+01  7.59869910E+00  7.59869910E+00 -1.51973982E+01  7.59869910E+00
  7.59869910E+00 -1.51973982E+01  7.59869910E+00  7.59869910E+00 -1.51973982E+01
  7.59869910E+00  7.59869910E+00 -1.51973982E+01  7.59869910E+00  7.59869910E+00
 -1.51973982E+01  7.59869910E+00  7.59869910E+00 -1.51973982E+01  7.59869910E+00
  7.59869910E+00 -1.51973982E+01  7.59869910E+00  7.59869910E+00 -1.51973982E+01
  7.59869910E+00  7.59869910E+00 -1.51973982E+01  7.59869910E+00  7.59869910E+00
 -1.51973982E+01  7.59869910E+00  7.59869910E+00 -1.51973982E+01  7.59869910E+00
  7.59869910E+00 -1.51973982E+01  7.59869910E+00  7.59869910E+00 -1.51973982E+01
  7.59869910E+00  7.59869910E+00 -1.51973982E+01  7.59869910E+00  7.59869910E+00
 -1.51973982E+01  7.59869910E+00  7.59869910E+00 -1.51973982E+01  7.59869910E+00
  7.59869910E+00 -1.51973982E+01  7.59869910E+00  7.59869910E+00 -1.51973982E+01
  7.59869910E+00  7.59869910E+00 -1.51973982E+01  7.59869910E+00  7.59869910E+00
 -1.51973982E+01  7.59869910E+00  7.59869910E+00 -1.51973982E+01  7.59869910E+00
  7.59869910E+00 -1.51973982E+01  7.59869910E+00  7.59869910E+00 -1.51973982E+01
  7.59869910E+00  7.59869910E+00 -1.51973982E+01  7.59869910E+00  7.59869910E+00
 -1.51973982E+01  7.59869910E+00  7.59869910E+00 -1.51973982E+01  7.59869910E+00
  7.59869910E+00 -1.51973982E+01  7.59869910E+00  7.59869910E+00 -1.51973982E+01
  7.59869910E+00  7.59869910E+00 -1.51973982E+01  7.59869910E+00  7.59869910E+00
 -1.51973982E+01  7.59869910E+00  7.59869910E+00 -1.51973982E+01  7.59869910E+00
  7.59869910E+00 -1.51973982E+01  7.59869910E+00  7.59869910E+00 -1.51973982E+01
  7.59869910E+00  7.59869910E+00 -1.51973982E+01  7.59869910E+00  7.59869910E+00
 -1.51973982E+01  7.59869910E+00  7.59869910E+00 -1.51973982E+01  7.59869910E+00
  7.59869910E+00 -1.51973982E+01  7.59869910E+00  7.59869910E+00 -1.51973982E+01
  7.59869910E+00  7.59869910E+00 -1.51973982E+01  7.59869910E+00  7.59869910E+00
 -1.51973982E+01  7.59869910E+00  7.59869910E+00 -1.51973982E+01  7.59869910E+00
  7.59869910E+00 -1.51973982E+01  7.59869910E+00  7.59869910E+00 -1.51973982E+01
  7.59869910E+00  7.59869910E+00 -1.51973982E+01  7.59869910E+00  7.59869910E+00
 -1.51973982E+01  7.59869910E+00  7.59869910E+00 -1.51973982E+01  7.59869910E+00
  7.59869910E+00 -1.51973982E+01  7.59869910E+00  7.59869910E+00 -1.51973982E+01
  7.59869910E+00  7.59869910E+00 -1.51973982E+01  7.59869910E+00  7.59869910E+00
 -1.51973982E+01  7.59869910E+00  7.59869910E+00 -1.51973982E+01  7.59869910E+00
  7.59869910E+00 -1.51973982E+01  7.59869910E+00  7.59869910E+00 -1.51973982E+01
  7.59869910E+00  7.59869910E+00 -1.51973982E+01  7.59869910E+00  7.59869910E+00
 -1.51973982E+01  7.59869910E+00  7.59869910E+00 -1.51973982E+01  7.59869910E+00
  7.59869910E+00 -1.51973982E+01  7.59869910E+00  7.59869910E+00 -1.51973982E+01
  7.59869910E+00  7.59869910E+00 -1.51973982E+01  7.59869910E+00  7.59869910E+00
 -1.51973982E+01  7.59869910E+00  7.59869910E+00 -1.51973982E+01  7.59869910E+00
  7.59869910E+00 -1.51973982E+01  7.59869910E+00  7.59869910E+00 -1.51973982E+01
  7.59869910E+00  7.59869910E+00 -1.51973982E+01  7.59869910E+00  7.59869910E+00
 -1.51973982E+01  7.59869910E+00  7.59869910E+00 -1.51973982E+01  7.59869910E+00
  7.59869910E+00 -1.51973982E+01  7.59869910E+00  7.59869910E+00 -1.51973982E+01
  7.59869910E+00  7.59869910E+00 -1.51973982E+01  7.59869910E+00  7.59869910E+00
 -1.51973982E+01  7.59869910E+00  7.59869910E+00 -1.51973982E+01  7.59869910E+00
  7.59869910E+00 -1.51973982E+01  7.59869910E+00  7.59869910E+00 -1.51973982E+01
  7.59869910E+00  7.59869910E+00 -1.51973982E+01  7.59869910E+00  7.59869910E+00
 -1.51973982E+01  7.59869910E+00  7.59869910E+00 -1.51973982E+01  7.59869910E+00
  7.59869910E+00 -1.51973982E+01  7.59869910E+00  7.59869910E+00 -1.51973982E+01
  7.59869910E+00  7.59869910E+00 -1.51973982E+01  7.59869910E+00  7.59869910E+00
 -1.51973982E+01  7.59869910E+00  7.59869910E+00 -1.51973982E+01  7.59869910E+00
  7.59869910E+00 -1.51973982E+01  7.59869910E+00  7.59869910E+00 -1.51973982E+01
  7.59869910E+00  7.59869910E+00 -1.51973982E+01  7.59869910E+00  7.59869910E+00
 -1.51973982E+01  7.59869910E+00  7.59869910E+00 -1.51973982E+01  7.59869910E+00
  7.59869910E+00 -1.51973982E+01  7.59869910E+00  7.59869910E+00 -1.51973982E+01
  7.59869910E+00  7.59869910E+00 -1.51973982E+01  7.59869910E+00  7.59869910E+00
 -1.51973982E+01  7.59869910E+00  7.59869910E+00 -1.51973982E+01  7.59869910E+00
  7.59869910E+00 -1.51973982E+01  7.59869910E+00  7.59869910E+00 -1.51973982E+01
  7.59869910E+00  7.59869910E+00 -1.51973982E+01  7.59869910E+00  7.59869910E+00
 -1.51973982E+01  7.59869910E+00  7.59869910E+00 -1.51973982E+01  7.59869910E+00
  7.59869910E+00 -1.51973982E+01  7.59869910E+00  7.59869910E+00 -1.51973982E+01
  7.59869910E+00  7.59869910E+00 -1.51973982E+01  7.59869910E+00  7.59869910E+00
 -1.51973982E+01  7.59869910E+00  7.59869910E+00 -1.51973982E+01  7.59869910E+00
  7.59869910E+00 -1.51973982E+01  7.59869910E+00  7.59869910E+00 -1.51973982E+01
  7.59869910E+00  7.59869910E+00 -1.51973982E+01  7.59869910E+00  7.59869910E+00
 -1.51973982E+01  7.59869910E+00  7.59869910E+00 -1.51973982E+01  7.59869910E+00
  7.59869910E+00 -1.51973982E+01  7.59869910E+00  7.59869910E+00 -1.51973982E+01
  7.59869910E+00  7.59869910E+00 -1.51973982E+01  7.59869910E+00  7.59869910E+00
 -1.51973982E+01  7.59869910E+00  7.59869910E+00 -1.51973982E+01  7.59869910E+00
  7.59869910E+00 -1.51973982E+01  7.59869910E+00  7.59869910E+00 -1.51973982E+01
  7.59869910E+00  7.59869910E+00 -1.51973982E+01  7.59869910E+00  7.59869910E+00
 -1.51973982E+01  7.59869910E+00  7.59869910E+00 -1.51973982E+01  7.59869910E+00
  7.59869910E+00 -1.51973982E+01  7.59869910E+00  7.59869910E+00 -1.51973982E+01
  7.59869910E+00  7.59869910E+00 -1.51973982E+01  7.59869910E+00  7.59869910E+00
 -1.51973982E+01  7.59869910E+00  7.59869910E+00 -1.51973982E+01  7.59869910E+00
  7.59869910E+00 -1.51973982E+01  7.59869910E+00  7.59869910E+00 -1.51973982E+01
  7.59869910E+00  7.59869910E+00 -1.51973982E+01  7.59869910E+00  7.59869910E+00
 -1.51973982E+01  7.59869910E+00  7.59869910E+00 -1.51973982E+01  7.59869910E+00
  7.59869910E+00 -1.51973982E+01  7.59869910E+00  7.59869910E+00 -1.51973982E+01
  7.59869910E+00  7.59869910E+00 -1.51973982E+01  7.59869910E+00  7.59869910E+00
 -1.51973982E+01  7.59869910E+00  7.59869910E+00 -1.51973982E+01  7.59869910E+00
  7.59869910E+00 -1.51973982E+01  7.59869910E+00  7.59869910E+00 -1.51973982E+01
  7.59869910E+00  7.59869910E+00 -1.51973982E+01  7.59869910E+00  7.59869910E+00
 -1.51973982E+01  7.59869910E+00  7.59869910E+00 -1.51973982E+01  7.59869910E+00
  7.59869910E+00 -1.51973982E+01  7.59869910E+00  7.59869910E+00 -1.51973982E+01
  7.59869910E+00  7.59869910E+00 -1.51973982E+01  7.59869910E+00  7.59869910E+00
 -1.51973982E+01  7.59869910E+00  7.59869910E+00 -1.51973982E+01  7.59869910E+00
  7.59869910E+00 -1.51973982E+01  7.59869910E+00  7.59869910E+00 -1.51973982E+01
  7.59869910E+00  7.59869910E+00 -1.51973982E+01  7.59869910E+00  7.59869910E+00
 -1.51973982E+01  7.59869910E+00  7.59869910E+00 -1.51973982E+01  7.59869910E+00
  7.59869910E+00 -1.51973982E+01  7.59869910E+00  7.59869910E+00 -1.51973982E+01
  7.59869910E+00  7.59869910E+00 -1.51973982E+01  7.59869910E+00  7.59869910E+00
 -1.51973982E+01  7.59869910E+00  7.59869910E+00 -1.51973982E+01  7.59869910E+00
  7.59869910E+00 -1.51973982E+01  7.59869910E+00  7.59869910E+00 -1.51973982E+01
  7.59869910E+00  7.59869910E+00 -1.51973982E+01  7.59869910E+00  7.59869910E+00
 -1.51973982E+01  7.59869910E+00  7.59869910E+00 -1.51973982E+01  7.59869910E+00
  7.59869910E+00 -1.51973982E+01  7.59869910E+00  7.59869910E+00 -1.51973982E+01
  7.59869910E+00  7.59869910E+00 -1.51973982E+01  7.59869910E+00  7.59869910E+00
 -1.51973982E+01  7.59869910E+00  7.59869910E+00 -1.51973982E+01  7.59869910E+00
  7.59869910E+00 -1.51973982E+01  7.59869910E+00  7.59869910E+00 -1.51973982E+01
  7.59869910E+00  7.59869910E+00 -1.51973982E+01  7.59869910E+00  7.59869910E+00
 -1.51973982E+01  7.59869910E+00  7.59869910E+00 -1.51973982E+01  7.59869910E+00
  7.59869910E+00 -1.51973982E+01  7.59869910E+00  7.59869910E+00 -1.51973982E+01
  7.59869910E+00  7.59869910E+00 -1.51973982E+01  7.59869910E+00  7.59869910E+00
 -1.51973982E+01  7.59869910E+00  7.59869910E+00 -1.51973982E+01  7.59869910E+00
  7.59869910E+00 -1.51973982E+01  7.59869910E+00  7.59869910E+00 -1.51973982E+01
  7.59869910E+00  7.59869910E+00 -1.51973982E+01  7.59869910E+00  7.59869910E+00
 -1.51973982E+01  7.59869910E+00  7.59869910E+00 -1.51973982E+01  7.59869910E+00
  7.59869910E+00 -1.51973982E+01  7.59869910E+00  7.59869910E+00 -1.51973982E+01
  7.59869910E+00  7.59869910E+00 -1.51973982E+01  7.59869910E+00  7.59869910E+00
 -1.51973982E+01  7.59869910E+00  7.59869910E+00 -1.51973982E+01  7.59869910E+00
  7.59869910E+00 -1.51973982E+01  7.59869910E+00  7.59869910E+00 -1.51973982E+01
  7.59869910E+00  7.59869910E+00 -1.51973982E+01  7.59869910E+00  7.59869910E+00
 -1.51973982E+01  7.59869910E+00  7.59869910E+00 -1.51973982E+01  7.59869910E+00
  7.59869910E+00 -1.51973982E+01  7.59869910E+00  7.59869910E+00 -1.51973982E+01
  7.59869910E+00  7.59869910E+00 -1.51973982E+01  7.59869910E+00  7.59869910E+00
 -1.51973982E+01  7.59869910E+00  7.59869910E+00 -1.51973982E+01  7.59869910E+00
  7.59869910E+00 -1.51973982E+01  7.59869910E+00  7.59869910E+00 -1.51973982E+01
  7.59869910E+00  7.59869910E+00 -1.51973982E+01  7.59869910E+00  7.59869910E+00
 -1.51973982E+01  7.59869910E+00  7.59869910E+00 -1.51973982E+01  7.59869910E+00
  7.59869910E+00 -1.51973982E+01  7.59869910E+00  7.59869910E+00 -1.51973982E+01
  7.59869910E+00  7.59869910E+00 -1.51973982E+01  7.59869910E+00  7.59869910E+00
 -1.51973982E+01  7.59869910E+00  7.59869910E+00 -1.51973982E+01  7.59869910E+00
  7.59869910E+00 -1.51973982E+01  7.59869910E+00  7.59869910E+00 -1.51973982E+01
  7.59869910E+00  7.59869910E+00 -1.51973982E+01  7.59869910E+00  7.59869910E+00
 -1.51973982E+01  7.59869910E+00  7.59869910E+00 -1.51973982E+01  7.59869910E+00
  7.59869910E+00 -1.51973982E+01  7.59869910E+00  7.59869910E+00 -1.51973982E+01
  7.59869910E+00  7.59869910E+00 -1.51973982E+01  7.59869910E+00  7.59869910E+00
 -1.51973982E+01  7.59869910E+00  7.59869910E+00 -1.51973982E+01  7.59869910E+00
  7.59869910E+00 -1.51973982E+01  7.59869910E+00  7.59869910E+00 -1.51973982E+01
  7.59869910E+00  7.59869910E+00 -1.51973982E+01  7.59869910E+00  7.59869910E+00
 -1.51973982E+01  7.59869910E+00  7.59869910E+00 -1.51973982E+01  7.59869910E+00
  7.59869910E+00 -1.51973982E+01  7.59869910E+00  7.59869910E+00 -1.51973982E+01
  7.59869910E+00  7.59869910E+00 -1.51973982E+01  7.59869910E+00  7.59869910E+00
 -1.51973982E+01  7.59869910E+00  7.59869910E+00 -1.51973982E+01  7.59869910E+00
  7.59869910E+00 -1.51973982E+01  7.59869910E+00  7.59869910E+00 -1.51973982E+01
  7.59869910E+00  7.59869910E+00 -1.51973982E+01  7.59869910E+00  7.59869910E+00
 -1.51973982E+01  7.59869910E+00  7.59869910E+00 -1.51973982E+01  7.59869910E+00
  7.59869910E+00 -1.51973982E+01  7.59869910E+00  7.59869910E+00 -1.51973982E+01
  7.59869910E+00  7.59869910E+00 -1.51973982E+01  7.59869910E+00  7.59869910E+00
 -1.51973982E+01  7.59869910E+00  7.59869910E+00 -1.51973982E+01  7.59869910E+00
  7.59869910E+00 -1.51973982E+01  7.59869910E+00  7.59869910E+00 -1.51973982E+01
  7.59869910E+00  7.59869910E+00 -1.51973982E+01  7.59869910E+00  7.59869910E+00
 -1.51973982E+01  7.59869910E+00  7.59869910E+00 -1.51973982E+01  7.59869910E+00
  7.59869910E+00 -1.51973982E+01  7.59869910E+00  7.59869910E+00 -1.51973982E+01
  7.59869910E+00  7.59869910E+00 -1.51973982E+01  7.59869910E+00  7.59869910E+00
 -1.51973982E+01  7.59869910E+00  7.59869910E+00 -1.51973982E+01  7.59869910E+00
  7.59869910E+00 -1.51973982E+01  7.59869910E+00  7.59869910E+00 -1.51973982E+01
  7.59869910E+00  7.59869910E+00 -1.51973982E+01  7.59869910E+00  7.59869910E+00
 -1.51973982E+01  7.59869910E+00  7.59869910E+00 -1.51973982E+01  7.59869910E+00
  7.59869910E+00 -1.51973982E+01  7.59869910E+00  7.59869910E+00 -1.51973982E+01
  7.59869910E+00  7.59869910E+00 -1.51973982E+01  7.59869910E+00  7.59869910E+00
 -1.51973982E+01  7.59869910E+00  7.59869910E+00 -1.51973982E+01  7.59869910E+00
  7.59869910E+00 -1.51973982E+01  7.59869910E+00  7.59869910E+00 -1.51973982E+01
  7.59869910E+00  7.59869910E+00 -1.51973982E+01  7.59869910E+00  7.59869910E+00
 -1.51973982E+01  7.59869910E+00  7.59869910E+00 -1.51973982E+01  7.59869910E+00
  7.59869910E+00 -1.51973982E+01  7.59869910E+00  7.59869910E+00 -1.51973982E+01
  7.59869910E+00  7.59869910E+00 -1.51973982E+01  7.59869910E+00  7.59869910E+00
 -1.51973982E+01  7.59869910E+00  7.59869910E+00 -1.51973982E+01  7.59869910E+00
  7.59869910E+00 -1.51973982E+01  7.59869910E+00  7.59869910E+00 -1.51973982E+01
  7.59869910E+00  7.59869910E+00 -1.51973982E+01  7.59869910E+00  7.59869910E+00
 -1.51973982E+01  7.59869910E+00  7.59869910E+00 -1.51973982E+01  7.59869910E+00
  7.59869910E+00 -1.51973982E+01  7.59869910E+00  7.59869910E+00 -1.51973982E+01
  7.59869910E+00  7.59869910E+00 -1.51973982E+01  7.59869910E+00  7.59869910E+00
 -1.51973982E+01  7.59869910E+00  7.59869910E+00 -1.51973982E+01  7.59869910E+00
  7.59869910E+00 -1.51973982E+01  7.59869910E+00  7.59869910E+00 -1.51973982E+01
  7.59869910E+00  7.59869910E+00 -1.51973982E+01  7.59869910E+00  7.59869910E+00
 -1.51973982E+01  7.59869910E+00  7.59869910E+00 -1.51973982E+01  7.59869910E+00
  7.59869910E+00 -1.51973982E+01  7.59869910E+00  7.59869910E+00 -1.51973982E+01
  7.59869910E+00  7.59869910E+00 -1.51973982E+01  7.59869910E+00  7.59869910E+00
 -1.51973982E+01  7.59869910E+00  7.59869910E+00 -1.51973982E+01  7.59869910E+00
  7.59869910E+00 -1.51973982E+01  7.59869910E+00  7.59869910E+00 -1.51973982E+01
  7.59869910E+00  7.59869910E+00 -1.51973982E+01  7.59869910E+00  7.59869910E+00
 -1.51973982E+01  7.59869910E+00  7.59869910E+00 -1.51973982E+01  7.59869910E+00
  7.59869910E+00 -1.51973982E+01  7.59869910E+00  7.59869910E+00 -1.51973982E+01
  7.59869910E+00  7.59869910E+00 -1.51973982E+01  7.59869910E+00  7.59869910E+00
 -1.51973982E+01  7.59869910E+00  7.59869910E+00 -1.51973982E+01  7.59869910E+00
  7.59869910E+00 -1.51973982E+01  7.59869910E+00  7.59869910E+00 -1.51973982E+01
  7.59869910E+00  7.59869910E+00 -1.51973982E+01  7.59869910E+00  7.59869910E+00
 -1.51973982E+01  7.59869910E+00  7.59869910E+00 -1.51973982E+01  7.59869910E+00
  7.59869910E+00 -1.51973982E+01  7.59869910E+00  7.59869910E+00 -1.51973982E+01
  7.59869910E+00  7.59869910E+00 -1.51973982E+01  7.59869910E+00  7.59869910E+00
 -1.51973982E+01  7.59869910E+00  7.59869910E+00 -1.51973982E+01  7.59869910E+00
  7.59869910E+00 -1.51973982E+01  7.59869910E+00  7.59869910E+00 -1.51973982E+01
  7.59869910E+00  7.59869910E+00 -1.51973982E+01  7.59869910E+00  7.59869910E+00
 -1.51973982E+01  7.59869910E+00  7.59869910E+00 -1.51973982E+01  7.59869910E+00
  7.59869910E+00 -1.51973982E+01  7.59869910E+00  7.59869910E+00 -1.51973982E+01
  7.59869910E+00  7.59869910E+00 -1.51973982E+01  7.59869910E+00  7.59869910E+00
 -1.51973982E+01  7.59869910E+00  7.59869910E+00 -1.51973982E+01  7.59869910E+00
  7.59869910E+00 -1.51973982E+01  7.59869910E+00  7.59869910E+00 -1.51973982E+01
  7.59869910E+00  7.59869910E+00 -1.51973982E+01  7.59869910E+00  7.59869910E+00
 -1.51973982E+01  7.59869910E+00  7.59869910E+00 -1.51973982E+01  7.59869910E+00
  7.59869910E+00 -1.51973982E+01  7.59869910E+00  7.59869910E+00 -1.51973982E+01
  7.59869910E+00  7.59869910E+00 -1.51973982E+01  7.59869910E+00  7.59869910E+00
 -1.51973982E+01  7.59869910E+00  7.59869910E+00 -1.51973982E+01  7.59869910E+00
  7.59869910E+00 -1.51973982E+01  7.59869910E+00  7.59869910E+00 -1.51973982E+01
  7.59869910E+00  7.59869910E+00 -1.51973982E+01  7.59869910E+00  7.59869910E+00
 -1.51973982E+01  7.59869910E+00  7.59869910E+00 -1.51973982E+01  7.59869910E+00
  7.59869910E+00 -1.51973982E+01  7.59869910E+00  7.59869910E+00 -1.51973982E+01
  7.59869910E+00  7.59869910E+00 -1.51973982E+01  7.59869910E+00  7.59869910E+00
 -1.51973982E+01  7.59869910E+00  7.59869910E+00 -1.51973982E+01  7.59869910E+00
  7.59869910E+00 -1.51973982E+01  7.59869910E+00  7.59869910E+00 -1.51973982E+01
  7.59869910E+00  7.59869910E+00 -1.51973982E+01  7.59869910E+00  7.59869910E+00
 -1.51973982E+01  7.59869910E+00  7.59869910E+00 -1.51973982E+01  7.59869910E+00
  7.59869910E+00 -1.51973982E+01  7.59869910E+00  7.59869910E+00 -1.51973982E+01
  7.59869910E+00  7.59869910E+00 -1.51973982E+01  7.59869910E+00  7.59869910E+00
 -1.51973982E+01  7.59869910E+00  7.59869910E+00 -1.51973982E+01  7.59869910E+00
  7.59869910E+00 -1.51973982E+01  7.59869910E+00  7.59869910E+00 -1.51973982E+01
  7.59869910E+00  7.59869910E+00 -1.51973982E+01  7.59869910E+00  7.59869910E+00
 -1.51973982E+01  7.59869910E+00  7.59869910E+00 -1.51973982E+01  7.59869910E+00
  7.59869910E+00 -1.51973982E+01  7.59869910E+00  7.59869910E+00 -1.51973982E+01
  7.59869910E+00  7.59869910E+00 -1.51973982E+01  7.59869910E+00  7.59869910E+00
 -1.51973982E+01  7.59869910E+00  7.59869910E+00 -1.51973982E+01  7.59869910E+00
  7.59869910E+00 -1.51973982E+01  7.59869910E+00  7.59869910E+00 -1.51973982E+01
  7.59869910E+00  7.59869910E+00 -1.51973982E+01  7.59869910E+00  7.59869910E+00
 -1.51973982E+01  7.59869910E+00  7.59869910E+00 -1.51973982E+01  7.59869910E+00
  7.59869910E+00 -1.51973982E+01  7.59869910E+00  7.59869910E+00 -1.51973982E+01
  7.59869910E+00  7.59869910E+00 -1.51973982E+01  7.59869910E+00  7.59869910E+00
 -1.51973982E+01  7.59869910E+00  7.59869910E+00 -1.51973982E+01  7.59869910E+00
  7.59869910E+00 -1.51973982E+01  7.59869910E+00  7.59869910E+00 -1.51973982E+01
  7.59869910E+00  7.59869910E+00 -1.51973982E+01  7.59869910E+00  7.59869910E+00
 -1.51973982E+01  7.59869910E+00  7.59869910E+00 -1.51973982E+01  7.59869910E+00
  7.59869910E+00 -1.51973982E+01  7.59869910E+00  7.59869910E+00 -1.51973982E+01
  7.59869910E+00  7.59869910E+00 -1.51973982E+01  7.59869910E+00  7.59869910E+00
 -1.51973982E+01  7.59869910E+00  7.59869910E+00 -1.51973982E+01  7.59869910E+00
  7.59869910E+00 -1.51973982E+01  7.59869910E+00  7.59869910E+00 -1.51973982E+01
  7.59869910E+00  7.59869910E+00 -1.51973982E+01  7.59869910E+00  7.59869910E+00
 -1.51973982E+01  7.59869910E+00  7.59869910E+00 -1.51973982E+01  7.59869910E+00
  7.59869910E+00 -1.51973982E+01  7.59869910E+00  7.59869910E+00 -1.51973982E+01
  7.59869910E+00  7.59869910E+00 -1.51973982E+01  7.59869910E+00  7.59869910E+00
 -1.51973982E+01  7.59869910E+00  7.59869910E+00 -1.51973982E+01  7.59869910E+00
  7.59869910E+00 -1.51973982E+01  7.59869910E+00  7.59869910E+00 -1.51973982E+01
  7.59869910E+00  7.59869910E+00 -1.51973982E+01  7.59869910E+00  7.59869910E+00
 -1.51973982E+01  7.59869910E+00  7.59869910E+00 -1.51973982E+01  7.59869910E+00
  7.59869910E+00 -1.51973982E+01  7.59869910E+00  7.59869910E+00 -1.51973982E+01
  7.59869910E+00  7.59869910E+00 -1.51973982E+01  7.59869910E+00  7.59869910E+00
 -1.51973982E+01  7.59869910E+00  7.59869910E+00 -1.51973982E+01  7.59869910E+00
  7.59869910E+00 -1.51973982E+01  7.59869910E+00  7.59869910E+00 -1.51973982E+01
  7.59869910E+00  7.59869910E+00 -1.51973982E+01  7.59869910E+00  7.59869910E+00
 -1.51973982E+01  7.59869910E+00  7.59869910E+00 -1.51973982E+01  7.59869910E+00
  7.59869910E+00 -1.51973982E+01  7.59869910E+00  7.59869910E+00 -1.51973982E+01
  7.59869910E+00  7.59869910E+00 -1.51973982E+01  7.59869910E+00  7.59869910E+00
 -1.51973982E+01  7.59869910E+00  7.59869910E+00 -1.51973982E+01  7.59869910E+00
  7.59869910E+00 -1.51973982E+01  7.59869910E+00  7.59869910E+00 -1.51973982E+01
  7.59869910E+00  7.59869910E+00 -1.51973982E+01  7.59869910E+00  7.59869910E+00
 -1.51973982E+01  7.59869910E+00  7.59869910E+00 -1.51973982E+01  7.59869910E+00
  7.59869910E+00 -1.51973982E+01  7.59869910E+00  7.59869910E+00 -1.51973982E+01
  7.59869910E+00  7.59869910E+00 -1.51973982E+01  7.59869910E+00  7.59869910E+00
 -1.51973982E+01  7.59869910E+00  7.59869910E+00 -1.51973982E+01  7.59869910E+00
  7.59869910E+00 -1.51973982E+01  7.59869910E+00  7.59869910E+00 -1.51973982E+01
  7.59869910E+00  7.59869910E+00 -1.51973982E+01  7.59869910E+00  7.59869910E+00
 -1.51973982E+01  7.59869910E+00  7.59869910E+00 -1.51973982E+01  7.59869910E+00
  7.59869910E+00 -1.51973982E+01  7.59869910E+00  7.59869910E+00 -1.51973982E+01
  7.59869910E+00  7.59869910E+00 -1.51973982E+01  7.59869910E+00  7.59869910E+00
 -1.51973982E+01  7.59869910E+00  7.59869910E+00 -1.51973982E+01  7.59869910E+00
  7.59869910E+00 -1.51973982E+01  7.59869910E+00  7.59869910E+00 -1.51973982E+01
  7.59869910E+00  7.59869910E+00 -1.51973982E+01  7.59869910E+00  7.59869910E+00
 -1.51973982E+01  7.59869910E+00  7.59869910E+00 -1.51973982E+01  7.59869910E+00
  7.59869910E+00 -1.51973982E+01  7.59869910E+00  7.59869910E+00 -1.51973982E+01
  7.59869910E+00  7.59869910E+00 -1.51973982E+01  7.59869910E+00  7.59869910E+00
 -1.51973982E+01  7.59869910E+00  7.59869910E+00 -1.51973982E+01  7.59869910E+00
  7.59869910E+00 -1.51973982E+01  7.59869910E+00  7.59869910E+00 -1.51973982E+01
  7.59869910E+00  7.59869910E+00 -1.51973982E+01  7.59869910E+00  7.59869910E+00
 -1.51973982E+01  7.59869910E+00  7.59869910E+00 -1.51973982E+01  7.59869910E+00
  7.59869910E+00 -1.51973982E+01  7.59869910E+00  7.59869910E+00 -1.51973982E+01
  7.59869910E+00  7.59869910E+00 -1.51973982E+01  7.59869910E+00  7.59869910E+00
 -1.51973982E+01  7.59869910E+00  7.59869910E+00 -1.51973982E+01  7.59869910E+00
  7.59869910E+00 -1.51973982E+01  7.59869910E+00  7.59869910E+00 -1.51973982E+01
  7.59869910E+00  7.59869910E+00 -1.51973982E+01  7.59869910E+00  7.59869910E+00
 -1.51973982E+01  7.59869910E+00  7.59869910E+00 -1.51973982E+01  7.59869910E+00
  7.59869910E+00 -1.51973982E+01  7.59869910E+00  7.59869910E+00 -1.51973982E+01
  7.59869910E+00  7.59869910E+00 -1.51973982E+01  7.59869910E+00  7.59869910E+00
 -1.51973982E+01  7.59869910E+00  7.59869910E+00 -1.51973982E+01  7.59869910E+00
  7.59869910E+00 -1.51973982E+01  7.59869910E+00  7.59869910E+00 -1.51973982E+01
  7.59869910E+00  7.59869910E+00 -1.51973982E+01  7.59869910E+00  7.59869910E+00
 -1.51973982E+01  7.59869910E+00  7.59869910E+00 -1.51973982E+01  7.59869910E+00
  7.59869910E+00 -1.51973982E+01  7.59869910E+00  7.59869910E+00 -1.51973982E+01
  7.59869910E+00  7.59869910E+00 -1.51973982E+01  7.59869910E+00  7.59869910E+00
 -1.51973982E+01  7.59869910E+00  7.59869910E+00 -1.51973982E+01  7.59869910E+00
  7.59869910E+00 -1.51973982E+01  7.59869910E+00  7.59869910E+00 -1.51973982E+01
  7.59869910E+00  7.59869910E+00 -1.51973982E+01  7.59869910E+00  7.59869910E+00
 -1.51973982E+01  7.59869910E+00  7.59869910E+00 -1.51973982E+01  7.59869910E+00
  7.59869910E+00 -1.51973982E+01  7.59869910E+00  7.59869910E+00 -1.51973982E+01
  7.59869910E+00  7.59869910E+00 -1.51973982E+01  7.59869910E+00  7.59869910E+00
 -1.51973982E+01  7.59869910E+00  7.59869910E+00 -1.51973982E+01  7.59869910E+00
  7.59869910E+00 -1.51973982E+01  7.59869910E+00  7.59869910E+00 -1.51973982E+01
  7.59869910E+00  7.59869910E+00 -1.51973982E+01  7.59869910E+00  7.59869910E+00
 -1.51973982E+01  7.59869910E+00  7.59869910E+00 -1.51973982E+01  7.59869910E+00
  7.59869910E+00 -1.51973982E+01  7.59869910E+00  7.59869910E+00 -1.51973982E+01
  7.59869910E+00  7.59869910E+00 -1.51973982E+01  7.59869910E+00  7.59869910E+00
 -1.51973982E+01  7.59869910E+00  7.59869910E+00 -1.51973982E+01  7.59869910E+00
  7.59869910E+00 -1.51973982E+01  7.59869910E+00  7.59869910E+00 -1.51973982E+01
  7.59869910E+00  7.59869910E+00 -1.51973982E+01  7.59869910E+00  7.59869910E+00
 -1.51973982E+01  7.59869910E+00  7.59869910E+00 -1.51973982E+01  7.59869910E+00
  7.59869910E+00 -1.51973982E+01  7.59869910E+00  7.59869910E+00 -1.51973982E+01
  7.59869910E+00  7.59869910E+00 -1.51973982E+01  7.59869910E+00  7.59869910E+00
 -1.51973982E+01  7.59869910E+00  7.59869910E+00 -1.51973982E+01  7.59869910E+00
  7.59869910E+00 -1.51973982E+01  7.59869910E+00  7.59869910E+00 -1.51973982E+01
  7.59869910E+00  7.59869910E+00 -1.51973982E+01  7.59869910E+00  7.59869910E+00
 -1.51973982E+01  7.59869910E+00  7.59869910E+00 -1.51973982E+01  7.59869910E+00
  7.59869910E+00 -1.51973982E+01  7.59869910E+00  7.59869910E+00 -1.51973982E+01
  7.59869910E+00  7.59869910E+00 -1.51973982E+01  7.59869910E+00  7.59869910E+00
 -1.51973982E+01  7.59869910E+00  7.59869910E+00 -1.51973982E+01  7.59869910E+00
  7.59869910E+00 -1.51973982E+01  7.59869910E+00  7.59869910E+00 -1.51973982E+01
  7.59869910E+00  7.59869910E+00 -1.51973982E+01  7.59869910E+00  7.59869910E+00
 -1.51973982E+01  7.59869910E+00  7.59869910E+00 -1.51973982E+01  7.59869910E+00
  7.59869910E+00 -1.51973982E+01  7.59869910E+00  7.59869910E+00 -1.51973982E+01
  7.59869910E+00  7.59869910E+00 -1.51973982E+01  7.59869910E+00  7.59869910E+00
 -1.51973982E+01  7.59869910E+00  7.59869910E+00 -1.51973982E+01  7.59869910E+00
  7.59869910E+00 -1.51973982E+01  7.59869910E+00  7.59869910E+00 -1.51973982E+01
  7.59869910E+00  7.59869910E+00 -1.51973982E+01  7.59869910E+00  7.59869910E+00
 -1.51973982E+01  7.59869910E+00  7.59869910E+00 -1.51973982E+01  7.59869910E+00
  7.59869910E+00 -1.51973982E+01  7.59869910E+00  7.59869910E+00 -1.51973982E+01
  7.59869910E+00  7.59869910E+00 -1.51973982E+01  7.59869910E+00  7.59869910E+00
 -1.51973982E+01  7.59869910E+00  7.59869910E+00 -1.51973982E+01  7.59869910E+00
  7.59869910E+00 -1.51973982E+01  7.59869910E+00  7.59869910E+00 -1.51973982E+01
  7.59869910E+00  7.59869910E+00 -1.51973982E+01  7.59869910E+00  7.59869910E+00
 -1.51973982E+01  7.59869910E+00  7.59869910E+00 -1.51973982E+01  7.59869910E+00
  7.59869910E+00 -1.51973982E+01  7.59869910E+00  7.59869910E+00 -1.51973982E+01
  7.59869910E+00  7.59869910E+00 -1.51973982E+01  7.59869910E+00  7.59869910E+00
 -1.51973982E+01  7.59869910E+00  7.59869910E+00 -1.51973982E+01  7.59869910E+00
  7.59869910E+00 -1.51973982E+01  7.59869910E+00  7.59869910E+00 -1.51973982E+01
  7.59869910E+00  7.59869910E+00 -1.51973982E+01  7.59869910E+00  7.59869910E+00
 -1.51973982E+01  7.59869910E+00  7.59869910E+00 -1.51973982E+01  7.59869910E+00
  7.59869910E+00 -1.51973982E+01  7.59869910E+00  7.59869910E+00 -1.51973982E+01
  7.59869910E+00  7.59869910E+00 -1.51973982E+01  7.59869910E+00  7.59869910E+00
 -1.51973982E+01  7.59869910E+00  7.59869910E+00 -1.51973982E+01  7.59869910E+00
  7.59869910E+00 -1.51973982E+01  7.59869910E+00  7.59869910E+00 -1.51973982E+01
  7.59869910E+00  7.59869910E+00 -1.51973982E+01  7.59869910E+00  7.59869910E+00
 -1.51973982E+01  7.59869910E+00  7.59869910E+00 -1.51973982E+01  7.59869910E+00
  7.59869910E+00 -1.51973982E+01  7.59869910E+00  7.59869910E+00 -1.51973982E+01
  7.59869910E+00  7.59869910E+00 -1.51973982E+01  7.59869910E+00  7.59869910E+00
 -1.51973982E+01  7.59869910E+00  7.59869910E+00 -1.51973982E+01  7.59869910E+00
  7.59869910E+00 -1.51973982E+01  7.59869910E+00  7.59869910E+00 -1.51973982E+01
  7.59869910E+00  7.59869910E+00 -1.51973982E+01  7.59869910E+00  7.59869910E+00
 -1.51973982E+01  7.59869910E+00  7.59869910E+00 -1.51973982E+01  7.59869910E+00
  7.59869910E+00 -1.51973982E+01  7.59869910E+00  7.59869910E+00 -1.51973982E+01
  7.59869910E+00  7.59869910E+00 -1.51973982E+01  7.59869910E+00  7.59869910E+00
 -1.51973982E+01  7.59869910E+00  7.59869910E+00 -1.51973982E+01  7.59869910E+00
  7.59869910E+00 -1.51973982E+01  7.59869910E+00  7.59869910E+00 -1.51973982E+01
  7.59869910E+00  7.59869910E+00 -1.51973982E+01  7.59869910E+00  7.59869910E+00
 -1.51973982E+01  7.59869910E+00  7.59869910E+00 -1.51973982E+01  7.59869910E+00
  7.59869910E+00 -1.51973982E+01  7.59869910E+00  7.59869910E+00 -1.51973982E+01
  7.59869910E+00  7.59869910E+00 -1.51973982E+01  7.59869910E+00  7.59869910E+00
 -1.51973982E+01  7.59869910E+00  7.59869910E+00 -1.51973982E+01  7.59869910E+00
  7.59869910E+00 -1.51973982E+01  7.59869910E+00  7.59869910E+00 -1.51973982E+01
  7.59869910E+00  7.59869910E+00 -1.51973982E+01  7.59869910E+00  7.59869910E+00
 -1.51973982E+01  7.59869910E+00  7.59869910E+00 -1.51973982E+01  7.59869910E+00
  7.59869910E+00 -1.51973982E+01  7.59869910E+00  7.59869910E+00 -1.51973982E+01
  7.59869910E+00  7.59869910E+00 -1.51973982E+01  7.59869910E+00  7.59869910E+00
 -1.51973982E+01  7.59869910E+00  7.59869910E+00 -1.51973982E+01  7.59869910E+00
  7.59869910E+00 -1.51973982E+01  7.59869910E+00  7.59869910E+00 -1.51973982E+01
  7.59869910E+00  7.59869910E+00 -1.51973982E+01  7.59869910E+00  7.59869910E+00
 -1.51973982E+01  7.59869910E+00  7.59869910E+00 -1.51973982E+01  7.59869910E+00
  7.59869910E+00 -1.51973982E+01  7.59869910E+00  7.59869910E+00 -1.51973982E+01
  7.59869910E+00  7.59869910E+00 -1.51973982E+01  7.59869910E+00  7.59869910E+00
 -1.51973982E+01  7.59869910E+00  7.59869910E+00 -1.51973982E+01  7.59869910E+00
  7.59869910E+00 -1.51973982E+01  7.59869910E+00  7.59869910E+00 -1.51973982E+01
  7.59869910E+00  7.59869910E+00 -1.51973982E+01  7.59869910E+00  7.59869910E+00
 -1.51973982E+01  7.59869910E+00  7.59869910E+00 -1.51973982E+01  7.59869910E+00
  7.59869910E+00 -1.51973982E+01  7.59869910E+00  7.59869910E+00 -1.51973982E+01
  7.59869910E+00  7.59869910E+00 -1.51973982E+01  7.59869910E+00  7.59869910E+00
 -1.51973982E+01  7.59869910E+00  7.59869910E+00 -1.51973982E+01  7.59869910E+00
  7.59869910E+00 -1.51973982E+01  7.59869910E+00  7.59869910E+00 -1.51973982E+01
  7.59869910E+00  7.59869910E+00 -1.51973982E+01  7.59869910E+00  7.59869910E+00
 -1.51973982E+01  7.59869910E+00  7.59869910E+00 -1.51973982E+01  7.59869910E+00
  7.59869910E+00 -1.51973982E+01  7.59869910E+00  7.59869910E+00 -1.51973982E+01
  7.59869910E+00  7.59869910E+00 -1.51973982E+01  7.59869910E+00  7.59869910E+00
 -1.51973982E+01  7.59869910E+00  7.59869910E+00 -1.51973982E+01  7.59869910E+00
  7.59869910E+00 -1.51973982E+01  7.59869910E+00  7.59869910E+00 -1.51973982E+01
  7.59869910E+00  7.59869910E+00 -1.51973982E+01  7.59869910E+00  7.59869910E+00
 -1.51973982E+01  7.59869910E+00  7.59869910E+00 -1.51973982E+01  7.59869910E+00
  7.59869910E+00 -1.51973982E+01  7.59869910E+00  7.59869910E+00 -1.51973982E+01
  7.59869910E+00  7.59869910E+00 -1.51973982E+01  7.59869910E+00  7.59869910E+00
 -1.51973982E+01  7.59869910E+00  7.59869910E+00 -1.51973982E+01  7.59869910E+00
  7.59869910E+00 -1.51973982E+01  7.59869910E+00  7.59869910E+00 -1.51973982E+01
  7.59869910E+00  7.59869910E+00 -1.51973982E+01  7.59869910E+00  7.59869910E+00
 -1.51973982E+01  7.59869910E+00  7.59869910E+00 -1.51973982E+01  7.59869910E+00
  7.59869910E+00 -1.51973982E+01  7.59869910E+00  7.59869910E+00 -1.51973982E+01
  7.59869910E+00  7.59869910E+00 -1.51973982E+01  7.59869910E+00  7.59869910E+00
 -1.51973982E+01  7.59869910E+00  7.59869910E+00 -1.51973982E+01  7.59869910E+00
  7.59869910E+00 -1.51973982E+01  7.59869910E+00  7.59869910E+00 -1.51973982E+01
  7.59869910E+00  7.59869910E+00 -1.51973982E+01  7.59869910E+00  7.59869910E+00
 -1.51973982E+01  7.59869910E+00  7.59869910E+00 -1.51973982E+01  7.59869910E+00
  7.59869910E+00 -1.51973982E+01  7.59869910E+00  7.59869910E+00 -1.51973982E+01
  7.59869910E+00  7.59869910E+00 -1.51973982E+01  7.59869910E+00  7.59869910E+00
 -1.51973982E+01  7.59869910E+00  7.59869910E+00 -1.51973982E+01  7.59869910E+00
  7.59869910E+00 -1.51973982E+01  7.59869910E+00  7.59869910E+00 -1.51973982E+01
  7.59869910E+00  7.59869910E+00 -1.51973982E+01  7.59869910E+00  7.59869910E+00
 -1.51973982E+01  7.59869910E+00  7.59869910E+00 -1.51973982E+01  7.59869910E+00
  7.59869910E+00 -1.51973982E+01  7.59869910E+00  7.59869910E+00 -1.51973982E+01
  7.59869910E+00  7.59869910E+00 -1.51973982E+01  7.59869910E+00  7.59869910E+00
 -1.51973982E+01  7.59869910E+00  7.59869910E+00 -1.51973982E+01  7.59869910E+00
  7.59869910E+00 -1.51973982E+01  7.59869910E+00  7.59869910E+00 -1.51973982E+01
  7.59869910E+00  7.59869910E+00 -1.51973982E+01  7.59869910E+00  7.59869910E+00
 -1.51973982E+01  7.59869910E+00  7.59869910E+00 -1.51973982E+01  7.59869910E+00
  7.59869910E+00 -1.51973982E+01  7.59869910E+00  7.59869910E+00 -1.51973982E+01
  7.59869910E+00  7.59869910E+00 -1.51973982E+01  7.59869910E+00  7.59869910E+00
 -1.51973982E+01  7.59869910E+00  7.59869910E+00 -1.51973982E+01  7.59869910E+00
  7.59869910E+00 -1.51973982E+01  7.59869910E+00  7.59869910E+00 -1.51973982E+01
  7.59869910E+00  7.59869910E+00 -1.51973982E+01  7.59869910E+00  7.59869910E+00
 -1.51973982E+01  7.59869910E+00  7.59869910E+00 -1.51973982E+01  7.59869910E+00
  7.59869910E+00 -1.51973982E+01  7.59869910E+00  7.59869910E+00 -1.51973982E+01
  7.59869910E+00  7.59869910E+00 -1.51973982E+01  7.59869910E+00  7.59869910E+00
 -1.51973982E+01  7.59869910E+00  7.59869910E+00 -1.51973982E+01  7.59869910E+00
  7.59869910E+00 -1.51973982E+01  7.59869910E+00  7.59869910E+00 -1.51973982E+01
  7.59869910E+00  7.59869910E+00 -1.51973982E+01  7.59869910E+00  7.59869910E+00
 -1.51973982E+01  7.59869910E+00  7.59869910E+00 -1.51973982E+01  7.59869910E+00
  7.59869910E+00 -1.51973982E+01  7.59869910E+00  7.59869910E+00 -1.51973982E+01
  7.59869910E+00  7.59869910E+00 -1.51973982E+01  7.59869910E+00  7.59869910E+00
 -1.51973982E+01  7.59869910E+00  7.59869910E+00 -1.51973982E+01  7.59869910E+00
  7.59869910E+00 -1.51973982E+01  7.59869910E+00  7.59869910E+00 -1.51973982E+01
  7.59869910E+00  7.59869910E+00 -1.51973982E+01  7.59869910E+00  7.59869910E+00
 -1.51973982E+01  7.59869910E+00  7.59869910E+00 -1.51973982E+01  7.59869910E+00
  7.59869910E+00 -1.51973982E+01  7.59869910E+00  7.59869910E+00 -1.51973982E+01
  7.59869910E+00  7.59869910E+00 -1.51973982E+01  7.59869910E+00  7.59869910E+00
 -1.51973982E+01  7.59869910E+00  7.59869910E+00 -1.51973982E+01  7.59869910E+00
  7.59869910E+00 -1.51973982E+01  7.59869910E+00  7.59869910E+00 -1.51973982E+01
  7.59869910E+00  7.59869910E+00 -1.51973982E+01  7.59869910E+00  7.59869910E+00
 -1.51973982E+01  7.59869910E+00  7.59869910E+00 -1.51973982E+01  7.59869910E+00
  7.59869910E+00 -1.51973982E+01  7.59869910E+00  7.59869910E+00 -1.51973982E+01
  7.59869910E+00  7.59869910E+00 -1.51973982E+01  7.59869910E+00  7.59869910E+00
 -1.51973982E+01  7.59869910E+00  7.59869910E+00 -1.51973982E+01  7.59869910E+00
  7.59869910E+00 -1.51973982E+01  7.59869910E+00  7.59869910E+00 -1.51973982E+01
  7.59869910E+00  7.59869910E+00 -1.51973982E+01  7.59869910E+00  7.59869910E+00
 -1.51973982E+01  7.59869910E+00  7.59869910E+00 -1.51973982E+01  7.59869910E+00
  7.59869910E+00 -1.51973982E+01  7.59869910E+00  7.59869910E+00 -1.51973982E+01
  7.59869910E+00  7.59869910E+00 -1.51973982E+01  7.59869910E+00  7.59869910E+00
 -1.51973982E+01  7.59869910E+00  7.59869910E+00 -1.51973982E+01  7.59869910E+00
  7.59869910E+00 -1.51973982E+01  7.59869910E+00  7.59869910E+00 -1.51973982E+01
  7.59869910E+00  7.59869910E+00 -1.51973982E+01  7.59869910E+00  7.59869910E+00
 -1.51973982E+01  7.59869910E+00  7.59869910E+00 -1.51973982E+01  7.59869910E+00
  7.59869910E+00 -1.51973982E+01  7.59869910E+00  7.59869910E+00 -1.51973982E+01
  7.59869910E+00  7.59869910E+00 -1.51973982E+01  7.59869910E+00  7.59869910E+00
 -1.51973982E+01  7.59869910E+00  7.59869910E+00 -1.51973982E+01  7.59869910E+00
  7.59869910E+00 -1.51973982E+01  7.59869910E+00  7.59869910E+00 -1.51973982E+01
  7.59869910E+00  7.59869910E+00 -1.51973982E+01  7.59869910E+00  7.59869910E+00
 -1.51973982E+01  7.59869910E+00  7.59869910E+00 -1.51973982E+01  7.59869910E+00
  7.59869910E+00 -1.51973982E+01  7.59869910E+00  7.59869910E+00 -1.51973982E+01
  7.59869910E+00  7.59869910E+00 -1.51973982E+01  7.59869910E+00  7.59869910E+00
 -1.51973982E+01  7.59869910E+00  7.59869910E+00 -1.51973982E+01  7.59869910E+00
  7.59869910E+00 -1.51973982E+01  7.59869910E+00  7.59869910E+00 -1.51973982E+01
  7.59869910E+00  7.59869910E+00 -1.51973982E+01  7.59869910E+00  7.59869910E+00
 -1.51973982E+01  7.59869910E+00  7.59869910E+00 -1.51973982E+01  7.59869910E+00
  7.59869910E+00 -1.51973982E+01  7.59869910E+00  7.59869910E+00 -1.51973982E+01
  7.59869910E+00  7.59869910E+00 -1.51973982E+01  7.59869910E+00  7.59869910E+00
 -1.51973982E+01  7.59869910E+00  7.59869910E+00 -1.51973982E+01  7.59869910E+00
  7.59869910E+00 -1.51973982E+01  7.59869910E+00  7.59869910E+00 -1.51973982E+01
  7.59869910E+00  7.59869910E+00 -1.51973982E+01  7.59869910E+00  7.59869910E+00
 -1.51973982E+01  7.59869910E+00  7.59869910E+00 -1.51973982E+01  7.59869910E+00
  7.59869910E+00 -1.51973982E+01  7.59869910E+00  7.59869910E+00 -1.51973982E+01
  7.59869910E+00  7.59869910E+00 -1.51973982E+01  7.59869910E+00  7.59869910E+00
 -1.51973982E+01  7.59869910E+00  7.59869910E+00 -1.51973982E+01  7.59869910E+00
  7.59869910E+00 -1.51973982E+01  7.59869910E+00  7.59869910E+00 -1.51973982E+01
  7.59869910E+00  7.59869910E+00 -1.51973982E+01  7.59869910E+00  7.59869910E+00
 -1.51973982E+01  7.59869910E+00  7.59869910E+00 -1.51973982E+01  7.59869910E+00
  7.59869910E+00 -1.51973982E+01  7.59869910E+00  7.59869910E+00 -1.51973982E+01
  7.59869910E+00  7.59869910E+00 -1.51973982E+01  7.59869910E+00  7.59869910E+00
 -1.51973982E+01  7.59869910E+00  7.59869910E+00 -1.51973982E+01  7.59869910E+00
  7.59869910E+00 -1.51973982E+01  7.59869910E+00  7.59869910E+00 -1.51973982E+01
  7.59869910E+00  7.59869910E+00 -1.51973982E+01  7.59869910E+00  7.59869910E+00
 -1.51973982E+01  7.59869910E+00  7.59869910E+00 -1.51973982E+01  7.59869910E+00
  7.59869910E+00 -1.51973982E+01  7.59869910E+00  7.59869910E+00 -1.51973982E+01
  7.59869910E+00  7.59869910E+00 -1.51973982E+01  7.59869910E+00  7.59869910E+00
 -1.51973982E+01  7.59869910E+00  7.59869910E+00 -1.51973982E+01  7.59869910E+00
  7.59869910E+00 -1.51973982E+01  7.59869910E+00  7.59869910E+00 -1.51973982E+01
  7.59869910E+00  7.59869910E+00 -1.51973982E+01  7.59869910E+00  7.59869910E+00
 -1.51973982E+01  7.59869910E+00  7.59869910E+00 -1.51973982E+01  7.59869910E+00
  7.59869910E+00 -1.51973982E+01  7.59869910E+00  7.59869910E+00 -1.51973982E+01
  7.59869910E+00  7.59869910E+00 -1.51973982E+01  7.59869910E+00  7.59869910E+00
 -1.51973982E+01  7.59869910E+00  7.59869910E+00 -1.51973982E+01  7.59869910E+00
  7.59869910E+00 -1.51973982E+01  7.59869910E+00  7.59869910E+00 -1.51973982E+01
  7.59869910E+00  7.59869910E+00 -1.51973982E+01  7.59869910E+00  7.59869910E+00
 -1.51973982E+01  7.59869910E+00  7.59869910E+00 -1.51973982E+01  7.59869910E+00
  7.59869910E+00 -1.51973982E+01  7.59869910E+00  7.59869910E+00 -1.51973982E+01
  7.59869910E+00  7.59869910E+00 -1.51973982E+01  7.59869910E+00  7.59869910E+00
 -1.51973982E+01  7.59869910E+00  7.59869910E+00 -1.51973982E+01  7.59869910E+00
  7.59869910E+00 -1.51973982E+01  7.59869910E+00  7.59869910E+00 -1.51973982E+01
  7.59869910E+00  7.59869910E+00 -1.51973982E+01  7.59869910E+00  7.59869910E+00
 -1.51973982E+01  7.59869910E+00  7.59869910E+00 -1.51973982E+01  7.59869910E+00
  7.59869910E+00 -1.51973982E+01  7.59869910E+00  7.59869910E+00 -1.51973982E+01
  7.59869910E+00  7.59869910E+00 -1.51973982E+01  7.59869910E+00  7.59869910E+00
 -1.51973982E+01  7.59869910E+00  7.59869910E+00 -1.51973982E+01  7.59869910E+00
  7.59869910E+00 -1.51973982E+01  7.59869910E+00  7.59869910E+00 -1.51973982E+01
  7.59869910E+00  7.59869910E+00 -1.51973982E+01  7.59869910E+00  7.59869910E+00
 -1.51973982E+01  7.59869910E+00  7.59869910E+00 -1.51973982E+01  7.59869910E+00
  7.59869910E+00 -1.51973982E+01  7.59869910E+00  7.59869910E+00 -1.51973982E+01
  7.59869910E+00  7.59869910E+00 -1.51973982E+01  7.59869910E+00  7.59869910E+00
 -1.51973982E+01  7.59869910E+00  7.59869910E+00 -1.51973982E+01  7.59869910E+00
  7.59869910E+00 -1.51973982E+01  7.59869910E+00  7.59869910E+00 -1.51973982E+01
  7.59869910E+00  7.59869910E+00 -1.51973982E+01  7.59869910E+00  7.59869910E+00
 -1.51973982E+01  7.59869910E+00  7.59869910E+00 -1.51973982E+01  7.59869910E+00
  7.59869910E+00 -1.51973982E+01  7.59869910E+00  7.59869910E+00 -1.51973982E+01
  7.59869910E+00  7.59869910E+00 -1.51973982E+01  7.59869910E+00  7.59869910E+00
 -1.51973982E+01  7.59869910E+00  7.59869910E+00 -1.51973982E+01  7.59869910E+00
  7.59869910E+00 -1.51973982E+01  7.59869910E+00  7.59869910E+00 -1.51973982E+01
  7.59869910E+00  7.59869910E+00 -1.51973982E+01  7.59869910E+00  7.59869910E+00
 -1.51973982E+01  7.59869910E+00  7.59869910E+00 -1.51973982E+01  7.59869910E+00
  7.59869910E+00 -1.51973982E+01  7.59869910E+00  7.59869910E+00 -1.51973982E+01
  7.59869910E+00  7.59869910E+00 -1.51973982E+01  7.59869910E+00  7.59869910E+00
 -1.51973982E+01  7.59869910E+00  7.59869910E+00 -1.51973982E+01  7.59869910E+00
  7.59869910E+00 -1.51973982E+01  7.59869910E+00  7.59869910E+00 -1.51973982E+01
  7.59869910E+00  7.59869910E+00 -1.51973982E+01  7.59869910E+00  7.59869910E+00
 -1.51973982E+01  7.59869910E+00  7.59869910E+00 -1.51973982E+01  7.59869910E+00
  7.59869910E+00 -1.51973982E+01  7.59869910E+00  7.59869910E+00 -1.51973982E+01
  7.59869910E+00  7.59869910E+00 -1.51973982E+01  7.59869910E+00  7.59869910E+00
 -1.51973982E+01  7.59869910E+00  7.59869910E+00 -1.51973982E+01  7.59869910E+00
  7.59869910E+00 -1.51973982E+01  7.59869910E+00  7.59869910E+00 -1.51973982E+01
  7.59869910E+00  7.59869910E+00 -1.51973982E+01  7.59869910E+00  7.59869910E+00
 -1.51973982E+01  7.59869910E+00  7.59869910E+00 -1.51973982E+01  7.59869910E+00
  7.59869910E+00 -1.51973982E+01  7.59869910E+00  7.59869910E+00 -1.51973982E+01
  7.59869910E+00  7.59869910E+00 -1.51973982E+01  7.59869910E+00  7.59869910E+00
 -1.51973982E+01  7.59869910E+00  7.59869910E+00 -1.51973982E+01  7.59869910E+00
  7.59869910E+00 -1.51973982E+01  7.59869910E+00  7.59869910E+00 -1.51973982E+01
  7.59869910E+00  7.59869910E+00 -1.51973982E+01  7.59869910E+00  7.59869910E+00
 -1.51973982E+01  7.59869910E+00  7.59869910E+00 -1.51973982E+01  7.59869910E+00
  7.59869910E+00 -1.51973982E+01  7.59869910E+00  7.59869910E+00 -1.51973982E+01
  7.59869910E+00  7.59869910E+00 -1.51973982E+01  7.59869910E+00  7.59869910E+00
 -1.51973982E+01  7.59869910E+00  7.59869910E+00 -1.51973982E+01  7.59869910E+00
  7.59869910E+00 -1.51973982E+01  7.59869910E+00  7.59869910E+00 -1.51973982E+01
  7.59869910E+00  7.59869910E+00 -1.51973982E+01  7.59869910E+00  7.59869910E+00
 -1.51973982E+01  7.59869910E+00  7.59869910E+00 -1.51973982E+01  7.59869910E+00
  7.59869910E+00 -1.51973982E+01  7.59869910E+00  7.59869910E+00 -1.51973982E+01
  7.59869910E+00  7.59869910E+00 -1.51973982E+01  7.59869910E+00  7.59869910E+00
 -1.51973982E+01  7.59869910E+00  7.59869910E+00 -1.51973982E+01  7.59869910E+00
  7.59869910E+00 -1.51973982E+01  7.59869910E+00  7.59869910E+00 -1.51973982E+01
  7.59869910E+00  7.59869910E+00 -1.51973982E+01  7.59869910E+00  7.59869910E+00
 -1.51973982E+01  7.59869910E+00  7.59869910E+00 -1.51973982E+01  7.59869910E+00
  7.59869910E+00 -1.51973982E+01  7.59869910E+00  7.59869910E+00 -1.51973982E+01
  7.59869910E+00  7.59869910E+00 -1.51973982E+01  7.59869910E+00  7.59869910E+00
 -1.51973982E+01  7.59869910E+00  7.59869910E+00 -1.51973982E+01  7.59869910E+00
  7.59869910E+00 -1.51973982E+01  7.59869910E+00  7.59869910E+00 -1.51973982E+01
  7.59869910E+00  7.59869910E+00 -1.51973982E+01  7.59869910E+00  7.59869910E+00
 -1.51973982E+01  7.59869910E+00  7.59869910E+00 -1.51973982E+01  7.59869910E+00
  7.59869910E+00 -1.51973982E+01  7.59869910E+00  7.59869910E+00 -1.51973982E+01
  7.59869910E+00  7.59869910E+00 -1.51973982E+01  7.59869910E+00  7.59869910E+00
 -1.51973982E+01  7.59869910E+00  7.59869910E+00 -1.51973982E+01  7.59869910E+00
  7.59869910E+00 -1.51973982E+01  7.59869910E+00  7.59869910E+00 -1.51973982E+01
  7.59869910E+00  7.59869910E+00 -1.51973982E+01  7.59869910E+00  7.59869910E+00
 -1.51973982E+01  7.59869910E+00  7.59869910E+00 -1.51973982E+01  7.59869910E+00
  7.59869910E+00 -1.51973982E+01  7.59869910E+00  7.59869910E+00 -1.51973982E+01
  7.59869910E+00  7.59869910E+00 -1.51973982E+01  7.59869910E+00  7.59869910E+00
 -1.51973982E+01  7.59869910E+00  7.59869910E+00 -1.51973982E+01  7.59869910E+00
  7.59869910E+00 -1.51973982E+01  7.59869910E+00  7.59869910E+00 -1.51973982E+01
  7.59869910E+00  7.59869910E+00 -1.51973982E+01  7.59869910E+00  7.59869910E+00
 -1.51973982E+01  7.59869910E+00  7.59869910E+00 -1.51973982E+01  7.59869910E+00
  7.59869910E+00 -1.51973982E+01  7.59869910E+00  7.59869910E+00 -1.51973982E+01
  7.59869910E+00  7.59869910E+00 -1.51973982E+01  7.59869910E+00  7.59869910E+00
 -1.51973982E+01  7.59869910E+00  7.59869910E+00 -1.51973982E+01  7.59869910E+00
  7.59869910E+00 -1.51973982E+01  7.59869910E+00  7.59869910E+00 -1.51973982E+01
  7.59869910E+00  7.59869910E+00 -1.51973982E+01  7.59869910E+00  7.59869910E+00
 -1.51973982E+01  7.59869910E+00  7.59869910E+00 -1.51973982E+01  7.59869910E+00
  7.59869910E+00 -1.51973982E+01  7.59869910E+00  7.59869910E+00 -1.51973982E+01
  7.59869910E+00  7.59869910E+00 -1.51973982E+01  7.59869910E+00  7.59869910E+00
 -1.51973982E+01  7.59869910E+00  7.59869910E+00 -1.51973982E+01  7.59869910E+00
  7.59869910E+00 -1.51973982E+01  7.59869910E+00  7.59869910E+00 -1.51973982E+01
  7.59869910E+00  7.59869910E+00 -1.51973982E+01  7.59869910E+00  7.59869910E+00
 -1.51973982E+01  7.59869910E+00  7.59869910E+00 -1.51973982E+01  7.59869910E+00
  7.59869910E+00 -1.51973982E+01  7.59869910E+00  7.59869910E+00 -1.51973982E+01
  7.59869910E+00  7.59869910E+00 -1.51973982E+01  7.59869910E+00  7.59869910E+00
 -1.51973982E+01  7.59869910E+00  7.59869910E+00 -1.51973982E+01  7.59869910E+00
  7.59869910E+00 -1.51973982E+01  7.59869910E+00  7.59869910E+00 -1.51973982E+01
  7.59869910E+00  7.59869910E+00 -1.51973982E+01  7.59869910E+00  7.59869910E+00
 -1.51973982E+01  7.59869910E+00  7.59869910E+00 -1.51973982E+01  7.59869910E+00
  7.59869910E+00 -1.51973982E+01  7.59869910E+00  7.59869910E+00 -1.51973982E+01
  7.59869910E+00  7.59869910E+00 -1.51973982E+01  7.59869910E+00  7.59869910E+00
 -1.51973982E+01  7.59869910E+00  7.59869910E+00 -1.51973982E+01  7.59869910E+00
  7.59869910E+00 -1.51973982E+01  7.59869910E+00  7.59869910E+00 -1.51973982E+01
  7.59869910E+00  7.59869910E+00 -1.51973982E+01  7.59869910E+00  7.59869910E+00
 -1.51973982E+01  7.59869910E+00  7.59869910E+00 -1.51973982E+01  7.59869910E+00
  7.59869910E+00 -1.51973982E+01  7.59869910E+00  7.59869910E+00 -1.51973982E+01
  7.59869910E+00  7.59869910E+00 -1.51973982E+01  7.59869910E+00  7.59869910E+00
 -1.51973982E+01  7.59869910E+00  7.59869910E+00 -1.51973982E+01  7.59869910E+00
  7.59869910E+00 -1.51973982E+01  7.59869910E+00  7.59869910E+00 -1.51973982E+01
  7.59869910E+00  7.59869910E+00 -1.51973982E+01  7.59869910E+00  7.59869910E+00
 -1.51973982E+01  7.59869910E+00  7.59869910E+00 -1.51973982E+01  7.59869910E+00
  7.59869910E+00 -1.51973982E+01  7.59869910E+00  7.59869910E+00 -1.51973982E+01
  7.59869910E+00  7.59869910E+00 -1.51973982E+01  7.59869910E+00  7.59869910E+00
 -1.51973982E+01  7.59869910E+00  7.59869910E+00 -1.51973982E+01  7.59869910E+00
  7.59869910E+00 -1.51973982E+01  7.59869910E+00  7.59869910E+00 -1.51973982E+01
  7.59869910E+00  7.59869910E+00 -1.51973982E+01  7.59869910E+00  7.59869910E+00
 -1.51973982E+01  7.59869910E+00  7.59869910E+00 -1.51973982E+01  7.59869910E+00
  7.59869910E+00 -1.51973982E+01  7.59869910E+00  7.59869910E+00 -1.51973982E+01
  7.59869910E+00  7.59869910E+00 -1.51973982E+01  7.59869910E+00  7.59869910E+00
 -1.51973982E+01  7.59869910E+00  7.59869910E+00 -1.51973982E+01  7.59869910E+00
  7.59869910E+00 -1.51973982E+01  7.59869910E+00  7.59869910E+00 -1.51973982E+01
  7.59869910E+00  7.59869910E+00 -1.51973982E+01  7.59869910E+00  7.59869910E+00
 -1.51973982E+01  7.59869910E+00  7.59869910E+00 -1.51973982E+01  7.59869910E+00
  7.59869910E+00 -1.51973982E+01  7.59869910E+00  7.59869910E+00 -1.51973982E+01
  7.59869910E+00  7.59869910E+00 -1.51973982E+01  7.59869910E+00  7.59869910E+00
 -1.51973982E+01  7.59869910E+00  7.59869910E+00 -1.51973982E+01  7.59869910E+00
  7.59869910E+00 -1.51973982E+01  7.59869910E+00  7.59869910E+00 -1.51973982E+01
  7.59869910E+00  7.59869910E+00 -1.51973982E+01  7.59869910E+00  7.59869910E+00
 -1.51973982E+01  7.59869910E+00  7.59869910E+00 -1.51973982E+01  7.59869910E+00
  7.59869910E+00 -1.51973982E+01  7.59869910E+00  7.59869910E+00 -1.51973982E+01
  7.59869910E+00  7.59869910E+00 -1.51973982E+01  7.59869910E+00  7.59869910E+00
 -1.51973982E+01  7.59869910E+00  7.59869910E+00 -1.51973982E+01  7.59869910E+00
  7.59869910E+00 -1.51973982E+01  7.59869910E+00  7.59869910E+00 -1.51973982E+01
  7.59869910E+00  7.59869910E+00 -1.51973982E+01  7.59869910E+00  7.59869910E+00
 -1.51973982E+01  7.59869910E+00  7.59869910E+00 -1.51973982E+01  7.59869910E+00
  7.59869910E+00 -1.51973982E+01  7.59869910E+00  7.59869910E+00 -1.51973982E+01
  7.59869910E+00  7.59869910E+00 -1.51973982E+01  7.59869910E+00  7.59869910E+00
 -1.51973982E+01  7.59869910E+00  7.59869910E+00 -1.51973982E+01  7.59869910E+00
  7.59869910E+00 -1.51973982E+01  7.59869910E+00  7.59869910E+00 -1.51973982E+01
  7.59869910E+00  7.59869910E+00 -1.51973982E+01  7.59869910E+00  7.59869910E+00
 -1.51973982E+01  7.59869910E+00  7.59869910E+00 -1.51973982E+01  7.59869910E+00
  7.59869910E+00 -1.51973982E+01  7.59869910E+00  7.59869910E+00 -1.51973982E+01
  7.59869910E+00  7.59869910E+00 -1.51973982E+01  7.59869910E+00  7.59869910E+00
 -1.51973982E+01  7.59869910E+00  7.59869910E+00 -1.51973982E+01  7.59869910E+00
  7.59869910E+00 -1.51973982E+01  7.59869910E+00  7.59869910E+00 -1.51973982E+01
  7.59869910E+00  7.59869910E+00 -1.51973982E+01  7.59869910E+00  7.59869910E+00
 -1.51973982E+01  7.59869910E+00  7.59869910E+00 -1.51973982E+01  7.59869910E+00
  7.59869910E+00 -1.51973982E+01  7.59869910E+00  7.59869910E+00 -1.51973982E+01
  7.59869910E+00  7.59869910E+00 -1.51973982E+01  7.59869910E+00  7.59869910E+00
 -1.51973982E+01  7.59869910E+00  7.59869910E+00 -1.51973982E+01  7.59869910E+00
  7.59869910E+00 -1.51973982E+01  7.59869910E+00  7.59869910E+00 -1.51973982E+01
  7.59869910E+00  7.59869910E+00 -1.51973982E+01  7.59869910E+00  7.59869910E+00
 -1.51973982E+01  7.59869910E+00  7.59869910E+00 -1.51973982E+01  7.59869910E+00
  7.59869910E+00 -1.51973982E+01  7.59869910E+00  7.59869910E+00 -1.51973982E+01
  7.59869910E+00  7.59869910E+00 -1.51973982E+01  7.59869910E+00  7.59869910E+00
 -1.51973982E+01  7.59869910E+00  7.59869910E+00 -1.51973982E+01  7.59869910E+00
  7.59869910E+00 -1.51973982E+01  7.59869910E+00  7.59869910E+00 -1.51973982E+01
  7.59869910E+00  7.59869910E+00 -1.51973982E+01  7.59869910E+00  7.59869910E+00
 -1.51973982E+01  7.59869910E+00  7.59869910E+00 -1.51973982E+01  7.59869910E+00
  7.59869910E+00 -1.51973982E+01  7.59869910E+00  7.59869910E+00 -1.51973982E+01
  7.59869910E+00  7.59869910E+00 -1.51973982E+01  7.59869910E+00  7.59869910E+00
 -1.51973982E+01  7.59869910E+00  7.59869910E+00 -1.51973982E+01  7.59869910E+00
  7.59869910E+00 -1.51973982E+01  7.59869910E+00  7.59869910E+00 -1.51973982E+01
  7.59869910E+00  7.59869910E+00 -1.51973982E+01  7.59869910E+00  7.59869910E+00
 -1.51973982E+01  7.59869910E+00  7.59869910E+00 -1.51973982E+01  7.59869910E+00
  7.59869910E+00 -1.51973982E+01  7.59869910E+00  7.59869910E+00 -1.51973982E+01
  7.59869910E+00  7.59869910E+00 -1.51973982E+01  7.59869910E+00  7.59869910E+00
 -1.51973982E+01  7.59869910E+00  7.59869910E+00 -1.51973982E+01  7.59869910E+00
  7.59869910E+00 -1.51973982E+01  7.59869910E+00  7.59869910E+00 -1.51973982E+01
  7.59869910E+00  7.59869910E+00 -1.51973982E+01  7.59869910E+00  7.59869910E+00
 -1.51973982E+01  7.59869910E+00  7.59869910E+00 -1.51973982E+01  7.59869910E+00
  7.59869910E+00 -1.51973982E+01  7.59869910E+00  7.59869910E+00 -1.51973982E+01
  7.59869910E+00  7.59869910E+00 -1.51973982E+01  7.59869910E+00  7.59869910E+00
 -1.51973982E+01  7.59869910E+00  7.59869910E+00 -1.51973982E+01  7.59869910E+00
  7.59869910E+00 -1.51973982E+01  7.59869910E+00  7.59869910E+00 -1.51973982E+01
  7.59869910E+00  7.59869910E+00 -1.51973982E+01  7.59869910E+00  7.59869910E+00
 -1.51973982E+01  7.59869910E+00  7.59869910E+00 -1.51973982E+01  7.59869910E+00
  7.59869910E+00 -1.51973982E+01  7.59869910E+00  7.59869910E+00 -1.51973982E+01
  7.59869910E+00  7.59869910E+00 -1.51973982E+01  7.59869910E+00  7.59869910E+00
 -1.51973982E+01  7.59869910E+00  7.59869910E+00 -1.51973982E+01  7.59869910E+00
  7.59869910E+00 -1.51973982E+01  7.59869910E+00  7.59869910E+00 -1.51973982E+01
  7.59869910E+00  7.59869910E+00 -1.51973982E+01  7.59869910E+00  7.59869910E+00
 -1.51973982E+01  7.59869910E+00  7.59869910E+00 -1.51973982E+01  7.59869910E+00
  7.59869910E+00 -1.51973982E+01  7.59869910E+00  7.59869910E+00 -1.51973982E+01
  7.59869910E+00  7.59869910E+00 -1.51973982E+01  7.59869910E+00  7.59869910E+00
 -1.51973982E+01  7.59869910E+00  7.59869910E+00 -1.51973982E+01  7.59869910E+00
  7.59869910E+00 -1.51973982E+01  7.59869910E+00  7.59869910E+00 -1.51973982E+01
  7.59869910E+00  7.59869910E+00 -1.51973982E+01  7.59869910E+00  7.59869910E+00
 -1.51973982E+01  7.59869910E+00  7.59869910E+00 -1.51973982E+01  7.59869910E+00
  7.59869910E+00 -1.51973982E+01  7.59869910E+00  7.59869910E+00 -1.51973982E+01
  7.59869910E+00  7.59869910E+00 -1.51973982E+01  7.59869910E+00  7.59869910E+00
 -1.51973982E+01  7.59869910E+00  7.59869910E+00 -1.51973982E+01  7.59869910E+00
  7.59869910E+00 -1.51973982E+01  7.59869910E+00  7.59869910E+00 -1.51973982E+01
  7.59869910E+00  7.59869910E+00 -1.51973982E+01  7.59869910E+00  7.59869910E+00
 -1.51973982E+01  7.59869910E+00  7.59869910E+00 -1.51973982E+01  7.59869910E+00
  7.59869910E+00 -1.51973982E+01  7.59869910E+00  7.59869910E+00 -1.51973982E+01
  7.59869910E+00  7.59869910E+00 -1.51973982E+01  7.59869910E+00  7.59869910E+00
 -1.51973982E+01  7.59869910E+00  7.59869910E+00 -1.51973982E+01  7.59869910E+00
  7.59869910E+00 -1.51973982E+01  7.59869910E+00  7.59869910E+00 -1.51973982E+01
  7.59869910E+00  7.59869910E+00 -1.51973982E+01  7.59869910E+00  7.59869910E+00
 -1.51973982E+01  7.59869910E+00  7.59869910E+00 -1.51973982E+01  7.59869910E+00
  7.59869910E+00 -1.51973982E+01  7.59869910E+00  7.59869910E+00 -1.51973982E+01
  7.59869910E+00  7.59869910E+00 -1.51973982E+01  7.59869910E+00  7.59869910E+00
 -1.51973982E+01  7.59869910E+00  7.59869910E+00 -1.51973982E+01  7.59869910E+00
  7.59869910E+00 -1.51973982E+01  7.59869910E+00  7.59869910E+00 -1.51973982E+01
  7.59869910E+00  7.59869910E+00 -1.51973982E+01  7.59869910E+00  7.59869910E+00
 -1.51973982E+01  7.59869910E+00  7.59869910E+00 -1.51973982E+01  7.59869910E+00
  7.59869910E+00 -1.51973982E+01  7.59869910E+00  7.59869910E+00 -1.51973982E+01
  7.59869910E+00  7.59869910E+00 -1.51973982E+01  7.59869910E+00  7.59869910E+00
 -1.51973982E+01  7.59869910E+00  7.59869910E+00 -1.51973982E+01  7.59869910E+00
  7.59869910E+00 -1.51973982E+01  7.59869910E+00  7.59869910E+00 -1.51973982E+01
  7.59869910E+00  7.59869910E+00 -1.51973982E+01  7.59869910E+00  7.59869910E+00
 -1.51973982E+01  7.59869910E+00  7.59869910E+00 -1.51973982E+01  7.59869910E+00
  7.59869910E+00 -1.51973982E+01  7.59869910E+00  7.59869910E+00 -1.51973982E+01
  7.59869910E+00  7.59869910E+00 -1.51973982E+01  7.59869910E+00  7.59869910E+00
 -1.51973982E+01  7.59869910E+00  7.59869910E+00 -1.51973982E+01  7.59869910E+00
  7.59869910E+00 -1.51973982E+01  7.59869910E+00  7.59869910E+00 -1.51973982E+01
  7.59869910E+00  7.59869910E+00 -1.51973982E+01  7.59869910E+00  7.59869910E+00
 -1.51973982E+01  7.59869910E+00  7.59869910E+00 -1.51973982E+01  7.59869910E+00
  7.59869910E+00 -1.51973982E+01  7.59869910E+00  7.59869910E+00 -1.51973982E+01
  7.59869910E+00  7.59869910E+00 -1.51973982E+01  7.59869910E+00  7.59869910E+00
 -1.51973982E+01  7.59869910E+00  7.59869910E+00 -1.51973982E+01  7.59869910E+00
  7.59869910E+00 -1.51973982E+01  7.59869910E+00  7.59869910E+00 -1.51973982E+01
  7.59869910E+00  7.59869910E+00 -1.51973982E+01  7.59869910E+00  7.59869910E+00
 -1.51973982E+01  7.59869910E+00  7.59869910E+00 -1.51973982E+01  7.59869910E+00
  7.59869910E+00 -1.51973982E+01  7.59869910E+00  7.59869910E+00 -1.51973982E+01
  7.59869910E+00  7.59869910E+00 -1.51973982E+01  7.59869910E+00  7.59869910E+00
 -1.51973982E+01  7.59869910E+00  7.59869910E+00 -1.51973982E+01  7.59869910E+00
  7.59869910E+00 -1.51973982E+01  7.59869910E+00  7.59869910E+00 -1.51973982E+01
  7.59869910E+00  7.59869910E+00 -1.51973982E+01  7.59869910E+00  7.59869910E+00
 -1.51973982E+01  7.59869910E+00  7.59869910E+00 -1.51973982E+01  7.59869910E+00
  7.59869910E+00 -1.51973982E+01  7.59869910E+00  7.59869910E+00 -1.51973982E+01
  7.59869910E+00  7.59869910E+00 -1.51973982E+01  7.59869910E+00  7.59869910E+00
 -1.51973982E+01  7.59869910E+00  7.59869910E+00 -1.51973982E+01  7.59869910E+00
  7.59869910E+00 -1.51973982E+01  7.59869910E+00  7.59869910E+00 -1.51973982E+01
  7.59869910E+00  7.59869910E+00 -1.51973982E+01  7.59869910E+00  7.59869910E+00
 -1.51973982E+01  7.59869910E+00  7.59869910E+00 -1.51973982E+01  7.59869910E+00
  7.59869910E+00 -1.51973982E+01  7.59869910E+00  7.59869910E+00 -1.51973982E+01
  7.59869910E+00  7.59869910E+00 -1.51973982E+01  7.59869910E+00  7.59869910E+00
 -1.51973982E+01  7.59869910E+00  7.59869910E+00 -1.51973982E+01  7.59869910E+00
  7.59869910E+00 -1.51973982E+01  7.59869910E+00  7.59869910E+00 -1.51973982E+01
  7.59869910E+00  7.59869910E+00 -1.51973982E+01  7.59869910E+00  7.59869910E+00
 -1.51973982E+01  7.59869910E+00  7.59869910E+00 -1.51973982E+01  7.59869910E+00
  7.59869910E+00 -1.51973982E+01  7.59869910E+00  7.59869910E+00 -1.51973982E+01
  7.59869910E+00  7.59869910E+00 -1.51973982E+01  7.59869910E+00  7.59869910E+00
 -1.51973982E+01  7.59869910E+00  7.59869910E+00 -1.51973982E+01  7.59869910E+00
  7.59869910E+00 -1.51973982E+01  7.59869910E+00  7.59869910E+00 -1.51973982E+01
  7.59869910E+00  7.59869910E+00 -1.51973982E+01  7.59869910E+00  7.59869910E+00
 -1.51973982E+01  7.59869910E+00  7.59869910E+00 -1.51973982E+01  7.59869910E+00
  7.59869910E+00 -1.51973982E+01  7.59869910E+00  7.59869910E+00 -1.51973982E+01
  7.59869910E+00  7.59869910E+00 -1.51973982E+01  7.59869910E+00  7.59869910E+00
 -1.51973982E+01  7.59869910E+00  7.59869910E+00 -1.51973982E+01  7.59869910E+00
  7.59869910E+00 -1.51973982E+01  7.59869910E+00  7.59869910E+00 -1.51973982E+01
  7.59869910E+00  7.59869910E+00 -1.51973982E+01  7.59869910E+00  7.59869910E+00
 -1.51973982E+01  7.59869910E+00  7.59869910E+00 -1.51973982E+01  7.59869910E+00
  7.59869910E+00 -1.51973982E+01  7.59869910E+00  7.59869910E+00 -1.51973982E+01
  7.59869910E+00  7.59869910E+00 -1.51973982E+01  7.59869910E+00  7.59869910E+00
 -1.51973982E+01  7.59869910E+00  7.59869910E+00 -1.51973982E+01  7.59869910E+00
  7.59869910E+00 -1.51973982E+01  7.59869910E+00  7.59869910E+00 -1.51973982E+01
  7.59869910E+00  7.59869910E+00 -1.51973982E+01  7.59869910E+00  7.59869910E+00
 -1.51973982E+01  7.59869910E+00  7.59869910E+00 -1.51973982E+01  7.59869910E+00
  7.59869910E+00 -1.51973982E+01  7.59869910E+00  7.59869910E+00 -1.51973982E+01
  7.59869910E+00  7.59869910E+00 -1.51973982E+01  7.59869910E+00  7.59869910E+00
 -1.51973982E+01  7.59869910E+00  7.59869910E+00 -1.51973982E+01  7.59869910E+00
  7.59869910E+00 -1.51973982E+01  7.59869910E+00  7.59869910E+00 -1.51973982E+01
  7.59869910E+00  7.59869910E+00 -1.51973982E+01  7.59869910E+00  7.59869910E+00
 -1.51973982E+01  7.59869910E+00  7.59869910E+00 -1.51973982E+01  7.59869910E+00
  7.59869910E+00 -1.51973982E+01  7.59869910E+00  7.59869910E+00 -1.51973982E+01
  7.59869910E+00  7.59869910E+00 -1.51973982E+01  7.59869910E+00  7.59869910E+00
 -1.51973982E+01  7.59869910E+00  7.59869910E+00 -1.51973982E+01  7.59869910E+00
  7.59869910E+00 -1.51973982E+01  7.59869910E+00  7.59869910E+00 -1.51973982E+01
  7.59869910E+00  7.59869910E+00 -1.51973982E+01  7.59869910E+00  7.59869910E+00
 -1.51973982E+01  7.59869910E+00  7.59869910E+00 -1.51973982E+01  7.59869910E+00
  7.59869910E+00 -1.51973982E+01  7.59869910E+00  7.59869910E+00 -1.51973982E+01
  7.59869910E+00  7.59869910E+00 -1.51973982E+01  7.59869910E+00  7.59869910E+00
 -1.51973982E+01  7.59869910E+00  7.59869910E+00 -1.51973982E+01  7.59869910E+00
  7.59869910E+00 -1.51973982E+01  7.59869910E+00  7.59869910E+00 -1.51973982E+01
  7.59869910E+00  7.59869910E+00 -1.51973982E+01  7.59869910E+00  7.59869910E+00
 -1.51973982E+01  7.59869910E+00  7.59869910E+00 -1.51973982E+01  7.59869910E+00
  7.59869910E+00 -1.51973982E+01  7.59869910E+00  7.59869910E+00 -1.51973982E+01
  7.59869910E+00  7.59869910E+00 -1.51973982E+01  7.59869910E+00  7.59869910E+00
 -1.51973982E+01  7.59869910E+00  7.59869910E+00 -1.51973982E+01  7.59869910E+00
  7.59869910E+00 -1.51973982E+01  7.59869910E+00  7.59869910E+00 -1.51973982E+01
  7.59869910E+00  7.59869910E+00 -1.51973982E+01  7.59869910E+00  7.59869910E+00
 -1.51973982E+01  7.59869910E+00  7.59869910E+00 -1.51973982E+01  7.59869910E+00
  7.59869910E+00 -1.51973982E+01  7.59869910E+00  7.59869910E+00 -1.51973982E+01
  7.59869910E+00  7.59869910E+00 -1.51973982E+01  7.59869910E+00  7.59869910E+00
 -1.51973982E+01  7.59869910E+00  7.59869910E+00 -1.51973982E+01  7.59869910E+00
  7.59869910E+00 -1.51973982E+01  7.59869910E+00  7.59869910E+00 -1.51973982E+01
  7.59869910E+00  7.59869910E+00 -1.51973982E+01  7.59869910E+00  7.59869910E+00
 -1.51973982E+01  7.59869910E+00  7.59869910E+00 -1.51973982E+01  7.59869910E+00
  7.59869910E+00 -1.51973982E+01  7.59869910E+00  7.59869910E+00 -1.51973982E+01
  7.59869910E+00  7.59869910E+00 -1.51973982E+01  7.59869910E+00  7.59869910E+00
 -1.51973982E+01  7.59869910E+00  7.59869910E+00 -1.51973982E+01  7.59869910E+00
  7.59869910E+00 -1.51973982E+01  7.59869910E+00  7.59869910E+00 -1.51973982E+01
  7.59869910E+00  7.59869910E+00 -1.51973982E+01  7.59869910E+00  7.59869910E+00
 -1.51973982E+01  7.59869910E+00  7.59869910E+00 -1.51973982E+01  7.59869910E+00
  7.59869910E+00 -1.51973982E+01  7.59869910E+00  7.59869910E+00 -1.51973982E+01
  7.59869910E+00  7.59869910E+00 -1.51973982E+01  7.59869910E+00  7.59869910E+00
 -1.51973982E+01  7.59869910E+00  7.59869910E+00 -1.51973982E+01  7.59869910E+00
  7.59869910E+00 -1.51973982E+01  7.59869910E+00  7.59869910E+00 -1.51973982E+01
  7.59869910E+00  7.59869910E+00 -1.51973982E+01  7.59869910E+00  7.59869910E+00
 -1.51973982E+01  7.59869910E+00  7.59869910E+00 -1.51973982E+01  7.59869910E+00
  7.59869910E+00 -1.51973982E+01  7.59869910E+00  7.59869910E+00 -1.51973982E+01
  7.59869910E+00  7.59869910E+00 -1.51973982E+01  7.59869910E+00  7.59869910E+00
 -1.51973982E+01  7.59869910E+00  7.59869910E+00 -1.51973982E+01  7.59869910E+00
  7.59869910E+00 -1.51973982E+01  7.59869910E+00  7.59869910E+00 -1.51973982E+01
  7.59869910E+00  7.59869910E+00 -1.51973982E+01  7.59869910E+00  7.59869910E+00
 -1.51973982E+01  7.59869910E+00  7.59869910E+00 -1.51973982E+01  7.59869910E+00
  7.59869910E+00 -1.51973982E+01  7.59869910E+00  7.59869910E+00 -1.51973982E+01
  7.59869910E+00  7.59869910E+00 -1.51973982E+01  7.59869910E+00  7.59869910E+00
 -1.51973982E+01  7.59869910E+00  7.59869910E+00 -1.51973982E+01  7.59869910E+00
  7.59869910E+00 -1.51973982E+01  7.59869910E+00  7.59869910E+00 -1.51973982E+01
  7.59869910E+00  7.59869910E+00 -1.51973982E+01  7.59869910E+00  7.59869910E+00
 -1.51973982E+01  7.59869910E+00  7.59869910E+00 -1.51973982E+01  7.59869910E+00
  7.59869910E+00 -1.51973982E+01  7.59869910E+00  7.59869910E+00 -1.51973982E+01
  7.59869910E+00  7.59869910E+00 -1.51973982E+01  7.59869910E+00  7.59869910E+00
 -1.51973982E+01  7.59869910E+00  7.59869910E+00 -1.51973982E+01  7.59869910E+00
  7.59869910E+00 -1.51973982E+01  7.59869910E+00  7.59869910E+00 -1.51973982E+01
  7.59869910E+00  7.59869910E+00 -1.51973982E+01  7.59869910E+00  7.59869910E+00
 -1.51973982E+01  7.59869910E+00  7.59869910E+00 -1.51973982E+01  7.59869910E+00
  7.59869910E+00 -1.51973982E+01  7.59869910E+00  7.59869910E+00 -1.51973982E+01
  7.59869910E+00  7.59869910E+00 -1.51973982E+01  7.59869910E+00  7.59869910E+00
 -1.51973982E+01  7.59869910E+00  7.59869910E+00 -1.51973982E+01  7.59869910E+00
  7.59869910E+00 -1.51973982E+01  7.59869910E+00  7.59869910E+00 -1.51973982E+01
  7.59869910E+00  7.59869910E+00 -1.51973982E+01  7.59869910E+00  7.59869910E+00
 -1.51973982E+01  7.59869910E+00  7.59869910E+00 -1.51973982E+01  7.59869910E+00
  7.59869910E+00 -1.51973982E+01  7.59869910E+00  7.59869910E+00 -1.51973982E+01
  7.59869910E+00  7.59869910E+00 -1.51973982E+01  7.59869910E+00  7.59869910E+00
 -1.51973982E+01  7.59869910E+00  7.59869910E+00 -1.51973982E+01  7.59869910E+00
  7.59869910E+00 -1.51973982E+01  7.59869910E+00  7.59869910E+00 -1.51973982E+01
  7.59869910E+00  7.59869910E+00 -1.51973982E+01  7.59869910E+00  7.59869910E+00
 -1.51973982E+01  7.59869910E+00  7.59869910E+00 -1.51973982E+01  7.59869910E+00
  7.59869910E+00 -1.51973982E+01  7.59869910E+00  7.59869910E+00 -1.51973982E+01
  7.59869910E+00  7.59869910E+00 -1.51973982E+01  7.59869910E+00  7.59869910E+00
 -1.51973982E+01  7.59869910E+00  7.59869910E+00 -1.51973982E+01  7.59869910E+00
  7.59869910E+00 -1.51973982E+01  7.59869910E+00  7.59869910E+00 -1.51973982E+01
  7.59869910E+00  7.59869910E+00 -1.51973982E+01  7.59869910E+00  7.59869910E+00
 -1.51973982E+01  7.59869910E+00  7.59869910E+00 -1.51973982E+01  7.59869910E+00
  7.59869910E+00 -1.51973982E+01  7.59869910E+00  7.59869910E+00 -1.51973982E+01
  7.59869910E+00  7.59869910E+00 -1.51973982E+01  7.59869910E+00  7.59869910E+00
 -1.51973982E+01  7.59869910E+00  7.59869910E+00 -1.51973982E+01  7.59869910E+00
  7.59869910E+00 -1.51973982E+01  7.59869910E+00  7.59869910E+00 -1.51973982E+01
  7.59869910E+00  7.59869910E+00 -1.51973982E+01  7.59869910E+00  7.59869910E+00
 -1.51973982E+01  7.59869910E+00  7.59869910E+00 -1.51973982E+01  7.59869910E+00
  7.59869910E+00 -1.51973982E+01  7.59869910E+00  7.59869910E+00 -1.51973982E+01
  7.59869910E+00  7.59869910E+00 -1.51973982E+01  7.59869910E+00  7.59869910E+00
 -1.51973982E+01  7.59869910E+00  7.59869910E+00 -1.51973982E+01  7.59869910E+00
  7.59869910E+00 -1.51973982E+01  7.59869910E+00  7.59869910E+00 -1.51973982E+01
  7.59869910E+00  7.59869910E+00 -1.51973982E+01  7.59869910E+00  7.59869910E+00
 -1.51973982E+01  7.59869910E+00  7.59869910E+00 -1.51973982E+01  7.59869910E+00
  7.59869910E+00 -1.51973982E+01  7.59869910E+00  7.59869910E+00 -1.51973982E+01
  7.59869910E+00  7.59869910E+00 -1.51973982E+01  7.59869910E+00  7.59869910E+00
 -1.51973982E+01  7.59869910E+00  7.59869910E+00 -1.51973982E+01  7.59869910E+00
  7.59869910E+00 -1.51973982E+01  7.59869910E+00  7.59869910E+00 -1.51973982E+01
  7.59869910E+00  7.59869910E+00 -1.51973982E+01  7.59869910E+00  7.59869910E+00
 -1.51973982E+01  7.59869910E+00  7.59869910E+00 -1.51973982E+01  7.59869910E+00
  7.59869910E+00 -1.51973982E+01  7.59869910E+00  7.59869910E+00 -1.51973982E+01
  7.59869910E+00  7.59869910E+00 -1.51973982E+01  7.59869910E+00  7.59869910E+00
 -1.51973982E+01  7.59869910E+00  7.59869910E+00 -1.51973982E+01  7.59869910E+00
  7.59869910E+00 -1.51973982E+01  7.59869910E+00  7.59869910E+00 -1.51973982E+01
  7.59869910E+00  7.59869910E+00 -1.51973982E+01  7.59869910E+00  7.59869910E+00
 -1.51973982E+01  7.59869910E+00  7.59869910E+00 -1.51973982E+01  7.59869910E+00
  7.59869910E+00 -1.51973982E+01  7.59869910E+00  7.59869910E+00 -1.51973982E+01
  7.59869910E+00  7.59869910E+00 -1.51973982E+01  7.59869910E+00  7.59869910E+00
 -1.51973982E+01  7.59869910E+00  7.59869910E+00 -1.51973982E+01  7.59869910E+00
  7.59869910E+00 -1.51973982E+01  7.59869910E+00  7.59869910E+00 -1.51973982E+01
  7.59869910E+00  7.59869910E+00 -1.51973982E+01  7.59869910E+00  7.59869910E+00
 -1.51973982E+01  7.59869910E+00  7.59869910E+00 -1.51973982E+01  7.59869910E+00
  7.59869910E+00 -1.51973982E+01  7.59869910E+00  7.59869910E+00 -1.51973982E+01
  7.59869910E+00  7.59869910E+00 -1.51973982E+01  7.59869910E+00  7.59869910E+00
 -1.51973982E+01  7.59869910E+00  7.59869910E+00 -1.51973982E+01  7.59869910E+00
  7.59869910E+00 -1.51973982E+01  7.59869910E+00  7.59869910E+00 -1.51973982E+01
  7.59869910E+00  7.59869910E+00 -1.51973982E+01  7.59869910E+00  7.59869910E+00
 -1.51973982E+01  7.59869910E+00  7.59869910E+00 -1.51973982E+01  7.59869910E+00
  7.59869910E+00 -1.51973982E+01  7.59869910E+00  7.59869910E+00 -1.51973982E+01
  7.59869910E+00  7.59869910E+00 -1.51973982E+01  7.59869910E+00  7.59869910E+00
 -1.51973982E+01  7.59869910E+00  7.59869910E+00 -1.51973982E+01  7.59869910E+00
  7.59869910E+00 -1.51973982E+01  7.59869910E+00  7.59869910E+00 -1.51973982E+01
  7.59869910E+00  7.59869910E+00 -1.51973982E+01  7.59869910E+00  7.59869910E+00
 -1.51973982E+01  7.59869910E+00  7.59869910E+00 -1.51973982E+01  7.59869910E+00
  7.59869910E+00 -1.51973982E+01  7.59869910E+00  7.59869910E+00 -1.51973982E+01
  7.59869910E+00  7.59869910E+00 -1.51973982E+01  7.59869910E+00  7.59869910E+00
 -1.51973982E+01  7.59869910E+00  7.59869910E+00 -1.51973982E+01  7.59869910E+00
  7.59869910E+00 -1.51973982E+01  7.59869910E+00  7.59869910E+00 -1.51973982E+01
  7.59869910E+00  7.59869910E+00 -1.51973982E+01  7.59869910E+00  7.59869910E+00
 -1.51973982E+01  7.59869910E+00  7.59869910E+00 -1.51973982E+01  7.59869910E+00
  7.59869910E+00 -1.51973982E+01  7.59869910E+00  7.59869910E+00 -1.51973982E+01
  7.59869910E+00  7.59869910E+00 -1.51973982E+01  7.59869910E+00  7.59869910E+00
 -1.51973982E+01  7.59869910E+00  7.59869910E+00 -1.51973982E+01  7.59869910E+00
  7.59869910E+00 -1.51973982E+01  7.59869910E+00  7.59869910E+00 -1.51973982E+01
  7.59869910E+00  7.59869910E+00 -1.51973982E+01  7.59869910E+00  7.59869910E+00
 -1.51973982E+01  7.59869910E+00  7.59869910E+00 -1.51973982E+01  7.59869910E+00
  7.59869910E+00 -1.51973982E+01  7.59869910E+00  7.59869910E+00 -1.51973982E+01
  7.59869910E+00  7.59869910E+00 -1.51973982E+01  7.59869910E+00  7.59869910E+00
 -1.51973982E+01  7.59869910E+00  7.59869910E+00 -1.51973982E+01  7.59869910E+00
  7.59869910E+00 -1.51973982E+01  7.59869910E+00  7.59869910E+00 -1.51973982E+01
  7.59869910E+00  7.59869910E+00 -1.51973982E+01  7.59869910E+00  7.59869910E+00
 -1.51973982E+01  7.59869910E+00  7.59869910E+00 -1.51973982E+01  7.59869910E+00
  7.59869910E+00 -1.51973982E+01  7.59869910E+00  7.59869910E+00 -1.51973982E+01
  7.59869910E+00  7.59869910E+00 -1.51973982E+01  7.59869910E+00  7.59869910E+00
 -1.51973982E+01  7.59869910E+00  7.59869910E+00 -1.51973982E+01  7.59869910E+00
  7.59869910E+00 -1.51973982E+01  7.59869910E+00  7.59869910E+00 -1.51973982E+01
  7.59869910E+00  7.59869910E+00 -1.51973982E+01  7.59869910E+00  7.59869910E+00
 -1.51973982E+01  7.59869910E+00  7.59869910E+00 -1.51973982E+01  7.59869910E+00
  7.59869910E+00 -1.51973982E+01  7.59869910E+00  7.59869910E+00 -1.51973982E+01
  7.59869910E+00  7.59869910E+00 -1.51973982E+01  7.59869910E+00  7.59869910E+00
 -1.51973982E+01  7.59869910E+00  7.59869910E+00 -1.51973982E+01  7.59869910E+00
  7.59869910E+00 -1.51973982E+01  7.59869910E+00  7.59869910E+00 -1.51973982E+01
  7.59869910E+00  7.59869910E+00 -1.51973982E+01  7.59869910E+00  7.59869910E+00
 -1.51973982E+01  7.59869910E+00  7.59869910E+00 -1.51973982E+01  7.59869910E+00
  7.59869910E+00 -1.51973982E+01  7.59869910E+00  7.59869910E+00 -1.51973982E+01
  7.59869910E+00  7.59869910E+00 -1.51973982E+01  7.59869910E+00  7.59869910E+00
 -1.51973982E+01  7.59869910E+00  7.59869910E+00 -1.51973982E+01  7.59869910E+00
  7.59869910E+00 -1.51973982E+01  7.59869910E+00  7.59869910E+00 -1.51973982E+01
  7.59869910E+00  7.59869910E+00 -1.51973982E+01  7.59869910E+00  7.59869910E+00
 -1.51973982E+01  7.59869910E+00  7.59869910E+00 -1.51973982E+01  7.59869910E+00
  7.59869910E+00 -1.51973982E+01  7.59869910E+00  7.59869910E+00 -1.51973982E+01
  7.59869910E+00  7.59869910E+00 -1.51973982E+01  7.59869910E+00  7.59869910E+00
 -1.51973982E+01  7.59869910E+00  7.59869910E+00 -1.51973982E+01  7.59869910E+00
  7.59869910E+00 -1.51973982E+01  7.59869910E+00  7.59869910E+00 -1.51973982E+01
  7.59869910E+00  7.59869910E+00 -1.51973982E+01  7.59869910E+00  7.59869910E+00
 -1.51973982E+01  7.59869910E+00  7.59869910E+00 -1.51973982E+01  7.59869910E+00
  7.59869910E+00 -1.51973982E+01  7.59869910E+00  7.59869910E+00 -1.51973982E+01
  7.59869910E+00  7.59869910E+00 -1.51973982E+01  7.59869910E+00  7.59869910E+00
 -1.51973982E+01  7.59869910E+00  7.59869910E+00 -1.51973982E+01  7.59869910E+00
  7.59869910E+00 -1.51973982E+01  7.59869910E+00  7.59869910E+00 -1.51973982E+01
  7.59869910E+00  7.59869910E+00 -1.51973982E+01  7.59869910E+00  7.59869910E+00
 -1.51973982E+01  7.59869910E+00  7.59869910E+00 -1.51973982E+01  7.59869910E+00
  7.59869910E+00 -1.51973982E+01  7.59869910E+00  7.59869910E+00 -1.51973982E+01
  7.59869910E+00  7.59869910E+00 -1.51973982E+01  7.59869910E+00  7.59869910E+00
 -1.51973982E+01  7.59869910E+00  7.59869910E+00 -1.51973982E+01  7.59869910E+00
  7.59869910E+00 -1.51973982E+01  7.59869910E+00  7.59869910E+00 -1.51973982E+01
  7.59869910E+00  7.59869910E+00 -1.51973982E+01  7.59869910E+00  7.59869910E+00
 -1.51973982E+01  7.59869910E+00  7.59869910E+00 -1.51973982E+01  7.59869910E+00
  7.59869910E+00 -1.51973982E+01  7.59869910E+00  7.59869910E+00 -1.51973982E+01
  7.59869910E+00  7.59869910E+00 -1.51973982E+01  7.59869910E+00  7.59869910E+00
 -1.51973982E+01  7.59869910E+00  7.59869910E+00 -1.51973982E+01  7.59869910E+00
  7.59869910E+00 -1.51973982E+01  7.59869910E+00  7.59869910E+00 -1.51973982E+01
  7.59869910E+00  7.59869910E+00 -1.51973982E+01  7.59869910E+00  7.59869910E+00
 -1.51973982E+01  7.59869910E+00  7.59869910E+00 -1.51973982E+01  7.59869910E+00
  7.59869910E+00 -1.51973982E+01  7.59869910E+00  7.59869910E+00 -1.51973982E+01
  7.59869910E+00  7.59869910E+00 -1.51973982E+01  7.59869910E+00  7.59869910E+00
 -1.51973982E+01  7.59869910E+00  7.59869910E+00 -1.51973982E+01  7.59869910E+00
  7.59869910E+00 -1.51973982E+01  7.59869910E+00  7.59869910E+00 -1.51973982E+01
  7.59869910E+00  7.59869910E+00 -1.51973982E+01  7.59869910E+00  7.59869910E+00
 -1.51973982E+01  7.59869910E+00  7.59869910E+00 -1.51973982E+01  7.59869910E+00
  7.59869910E+00 -1.51973982E+01  7.59869910E+00  7.59869910E+00 -1.51973982E+01
  7.59869910E+00  7.59869910E+00 -1.51973982E+01  7.59869910E+00  7.59869910E+00
 -1.51973982E+01  7.59869910E+00  7.59869910E+00 -1.51973982E+01  7.59869910E+00
  7.59869910E+00 -1.51973982E+01  7.59869910E+00  7.59869910E+00 -1.51973982E+01
  7.59869910E+00  7.59869910E+00 -1.51973982E+01  7.59869910E+00  7.59869910E+00
 -1.51973982E+01  7.59869910E+00  7.59869910E+00 -1.51973982E+01  7.59869910E+00
  7.59869910E+00 -1.51973982E+01  7.59869910E+00  7.59869910E+00 -1.51973982E+01
  7.59869910E+00  7.59869910E+00 -1.51973982E+01  7.59869910E+00  7.59869910E+00
 -1.51973982E+01  7.59869910E+00  7.59869910E+00 -1.51973982E+01  7.59869910E+00
  7.59869910E+00 -1.51973982E+01  7.59869910E+00  7.59869910E+00 -1.51973982E+01
  7.59869910E+00  7.59869910E+00 -1.51973982E+01  7.59869910E+00  7.59869910E+00
 -1.51973982E+01  7.59869910E+00  7.59869910E+00 -1.51973982E+01  7.59869910E+00
  7.59869910E+00 -1.51973982E+01  7.59869910E+00  7.59869910E+00 -1.51973982E+01
  7.59869910E+00  7.59869910E+00 -1.51973982E+01  7.59869910E+00  7.59869910E+00
 -1.51973982E+01  7.59869910E+00  7.59869910E+00 -1.51973982E+01  7.59869910E+00
  7.59869910E+00 -1.51973982E+01  7.59869910E+00  7.59869910E+00 -1.51973982E+01
  7.59869910E+00  7.59869910E+00 -1.51973982E+01  7.59869910E+00  7.59869910E+00
 -1.51973982E+01  7.59869910E+00  7.59869910E+00 -1.51973982E+01  7.59869910E+00
  7.59869910E+00 -1.51973982E+01  7.59869910E+00  7.59869910E+00 -1.51973982E+01
  7.59869910E+00  7.59869910E+00 -1.51973982E+01  7.59869910E+00  7.59869910E+00
 -1.51973982E+01  7.59869910E+00  7.59869910E+00 -1.51973982E+01  7.59869910E+00
  7.59869910E+00 -1.51973982E+01  7.59869910E+00  7.59869910E+00 -1.51973982E+01
  7.59869910E+00  7.59869910E+00 -1.51973982E+01  7.59869910E+00  7.59869910E+00
 -1.51973982E+01  7.59869910E+00  7.59869910E+00 -1.51973982E+01  7.59869910E+00
  7.59869910E+00 -1.51973982E+01  7.59869910E+00  7.59869910E+00 -1.51973982E+01
  7.59869910E+00  7.59869910E+00 -1.51973982E+01  7.59869910E+00  7.59869910E+00
 -1.51973982E+01  7.59869910E+00  7.59869910E+00 -1.51973982E+01  7.59869910E+00
  7.59869910E+00 -1.51973982E+01  7.59869910E+00  7.59869910E+00 -1.51973982E+01
  7.59869910E+00  7.59869910E+00 -1.51973982E+01  7.59869910E+00  7.59869910E+00
 -1.51973982E+01  7.59869910E+00  7.59869910E+00 -1.51973982E+01  7.59869910E+00
  7.59869910E+00 -1.51973982E+01  7.59869910E+00  7.59869910E+00 -1.51973982E+01
  7.59869910E+00  7.59869910E+00 -1.51973982E+01  7.59869910E+00  7.59869910E+00
 -1.51973982E+01  7.59869910E+00  7.59869910E+00 -1.51973982E+01  7.59869910E+00
  7.59869910E+00 -1.51973982E+01  7.59869910E+00  7.59869910E+00 -1.51973982E+01
  7.59869910E+00  7.59869910E+00 -1.51973982E+01  7.59869910E+00  7.59869910E+00
 -1.51973982E+01  7.59869910E+00  7.59869910E+00 -1.51973982E+01  7.59869910E+00
  7.59869910E+00 -1.51973982E+01  7.59869910E+00  7.59869910E+00 -1.51973982E+01
  7.59869910E+00  7.59869910E+00 -1.51973982E+01  7.59869910E+00  7.59869910E+00
 -1.51973982E+01  7.59869910E+00  7.59869910E+00 -1.51973982E+01  7.59869910E+00
  7.59869910E+00 -1.51973982E+01  7.59869910E+00  7.59869910E+00 -1.51973982E+01
  7.59869910E+00  7.59869910E+00 -1.51973982E+01  7.59869910E+00  7.59869910E+00
 -1.51973982E+01  7.59869910E+00  7.59869910E+00 -1.51973982E+01  7.59869910E+00
  7.59869910E+00 -1.51973982E+01  7.59869910E+00  7.59869910E+00 -1.51973982E+01
  7.59869910E+00  7.59869910E+00 -1.51973982E+01  7.59869910E+00  7.59869910E+00
 -1.51973982E+01  7.59869910E+00  7.59869910E+00 -1.51973982E+01  7.59869910E+00
  7.59869910E+00 -1.51973982E+01  7.59869910E+00  7.59869910E+00 -1.51973982E+01
  7.59869910E+00  7.59869910E+00 -1.51973982E+01  7.59869910E+00  7.59869910E+00
 -1.51973982E+01  7.59869910E+00  7.59869910E+00 -1.51973982E+01  7.59869910E+00
  7.59869910E+00 -1.51973982E+01  7.59869910E+00  7.59869910E+00 -1.51973982E+01
  7.59869910E+00  7.59869910E+00 -1.51973982E+01  7.59869910E+00  7.59869910E+00
 -1.51973982E+01  7.59869910E+00  7.59869910E+00 -1.51973982E+01  7.59869910E+00
  7.59869910E+00 -1.51973982E+01  7.59869910E+00  7.59869910E+00 -1.51973982E+01
  7.59869910E+00  7.59869910E+00 -1.51973982E+01  7.59869910E+00  7.59869910E+00
 -1.51973982E+01  7.59869910E+00  7.59869910E+00 -1.51973982E+01  7.59869910E+00
  7.59869910E+00 -1.51973982E+01  7.59869910E+00  7.59869910E+00 -1.51973982E+01
  7.59869910E+00  7.59869910E+00 -1.51973982E+01  7.59869910E+00  7.59869910E+00
 -1.51973982E+01  7.59869910E+00  7.59869910E+00 -1.51973982E+01  7.59869910E+00
  7.59869910E+00 -1.51973982E+01  7.59869910E+00  7.59869910E+00 -1.51973982E+01
  7.59869910E+00  7.59869910E+00 -1.51973982E+01  7.59869910E+00  7.59869910E+00
 -1.51973982E+01  7.59869910E+00  7.59869910E+00 -1.51973982E+01  7.59869910E+00
  7.59869910E+00 -1.51973982E+01  7.59869910E+00  7.59869910E+00 -1.51973982E+01
  7.59869910E+00  7.59869910E+00 -1.51973982E+01  7.59869910E+00  7.59869910E+00
 -1.51973982E+01  7.59869910E+00  7.59869910E+00 -1.51973982E+01  7.59869910E+00
  7.59869910E+00 -1.51973982E+01  7.59869910E+00  7.59869910E+00 -1.51973982E+01
  7.59869910E+00  7.59869910E+00 -1.51973982E+01  7.59869910E+00  7.59869910E+00
 -1.51973982E+01  7.59869910E+00  7.59869910E+00 -1.51973982E+01  7.59869910E+00
  7.59869910E+00 -1.51973982E+01  7.59869910E+00  7.59869910E+00 -1.51973982E+01
  7.59869910E+00  7.59869910E+00 -1.51973982E+01  7.59869910E+00  7.59869910E+00
 -1.51973982E+01  7.59869910E+00  7.59869910E+00 -1.51973982E+01  7.59869910E+00
  7.59869910E+00 -1.51973982E+01  7.59869910E+00  7.59869910E+00 -1.51973982E+01
  7.59869910E+00  7.59869910E+00 -1.51973982E+01  7.59869910E+00  7.59869910E+00
 -1.51973982E+01  7.59869910E+00  7.59869910E+00 -1.51973982E+01  7.59869910E+00
  7.59869910E+00 -1.51973982E+01  7.59869910E+00  7.59869910E+00 -1.51973982E+01
  7.59869910E+00  7.59869910E+00 -1.51973982E+01  7.59869910E+00  7.59869910E+00
 -1.51973982E+01  7.59869910E+00  7.59869910E+00 -1.51973982E+01  7.59869910E+00
  7.59869910E+00 -1.51973982E+01  7.59869910E+00  7.59869910E+00 -1.51973982E+01
  7.59869910E+00  7.59869910E+00 -1.51973982E+01  7.59869910E+00  7.59869910E+00
 -1.51973982E+01  7.59869910E+00  7.59869910E+00 -1.51973982E+01  7.59869910E+00
  7.59869910E+00 -1.51973982E+01  7.59869910E+00  7.59869910E+00 -1.51973982E+01
  7.59869910E+00  7.59869910E+00 -1.51973982E+01  7.59869910E+00  7.59869910E+00
 -1.51973982E+01  7.59869910E+00  7.59869910E+00 -1.51973982E+01  7.59869910E+00
  7.59869910E+00 -1.51973982E+01  7.59869910E+00  7.59869910E+00 -1.51973982E+01
  7.59869910E+00  7.59869910E+00 -1.51973982E+01  7.59869910E+00  7.59869910E+00
 -1.51973982E+01  7.59869910E+00  7.59869910E+00 -1.51973982E+01  7.59869910E+00
  7.59869910E+00 -1.51973982E+01  7.59869910E+00  7.59869910E+00 -1.51973982E+01
  7.59869910E+00  7.59869910E+00 -1.51973982E+01  7.59869910E+00  7.59869910E+00
 -1.51973982E+01  7.59869910E+00  7.59869910E+00 -1.51973982E+01  7.59869910E+00
  7.59869910E+00 -1.51973982E+01  7.59869910E+00  7.59869910E+00 -1.51973982E+01
  7.59869910E+00  7.59869910E+00 -1.51973982E+01  7.59869910E+00  7.59869910E+00
 -1.51973982E+01  7.59869910E+00  7.59869910E+00 -1.51973982E+01  7.59869910E+00
  7.59869910E+00 -1.51973982E+01  7.59869910E+00  7.59869910E+00 -1.51973982E+01
  7.59869910E+00  7.59869910E+00 -1.51973982E+01  7.59869910E+00  7.59869910E+00
 -1.51973982E+01  7.59869910E+00  7.59869910E+00 -1.51973982E+01  7.59869910E+00
  7.59869910E+00 -1.51973982E+01  7.59869910E+00  7.59869910E+00 -1.51973982E+01
  7.59869910E+00  7.59869910E+00 -1.51973982E+01  7.59869910E+00  7.59869910E+00
 -1.51973982E+01  7.59869910E+00  7.59869910E+00 -1.51973982E+01  7.59869910E+00
  7.59869910E+00 -1.51973982E+01  7.59869910E+00  7.59869910E+00 -1.51973982E+01
  7.59869910E+00  7.59869910E+00 -1.51973982E+01  7.59869910E+00  7.59869910E+00
 -1.51973982E+01  7.59869910E+00  7.59869910E+00 -1.51973982E+01  7.59869910E+00
  7.59869910E+00 -1.51973982E+01  7.59869910E+00  7.59869910E+00 -1.51973982E+01
  7.59869910E+00  7.59869910E+00 -1.51973982E+01  7.59869910E+00  7.59869910E+00
 -1.51973982E+01  7.59869910E+00  7.59869910E+00 -1.51973982E+01  7.59869910E+00
  7.59869910E+00 -1.51973982E+01  7.59869910E+00  7.59869910E+00 -1.51973982E+01
  7.59869910E+00  7.59869910E+00 -1.51973982E+01  7.59869910E+00  7.59869910E+00
 -1.51973982E+01  7.59869910E+00  7.59869910E+00 -1.51973982E+01  7.59869910E+00
  7.59869910E+00 -1.51973982E+01  7.59869910E+00  7.59869910E+00 -1.51973982E+01
  7.59869910E+00  7.59869910E+00 -1.51973982E+01  7.59869910E+00  7.59869910E+00
 -1.51973982E+01  7.59869910E+00  7.59869910E+00 -1.51973982E+01  7.59869910E+00
  7.59869910E+00 -1.51973982E+01  7.59869910E+00  7.59869910E+00 -1.51973982E+01
  7.59869910E+00  7.59869910E+00 -1.51973982E+01  7.59869910E+00  7.59869910E+00
 -1.51973982E+01  7.59869910E+00  7.59869910E+00 -1.51973982E+01  7.59869910E+00
  7.59869910E+00 -1.51973982E+01  7.59869910E+00  7.59869910E+00 -1.51973982E+01
  7.59869910E+00  7.59869910E+00 -1.51973982E+01  7.59869910E+00  7.59869910E+00
 -1.51973982E+01  7.59869910E+00  7.59869910E+00 -1.51973982E+01  7.59869910E+00
  7.59869910E+00 -1.51973982E+01  7.59869910E+00  7.59869910E+00 -1.51973982E+01
  7.59869910E+00  7.59869910E+00 -1.51973982E+01  7.59869910E+00  7.59869910E+00
 -1.51973982E+01  7.59869910E+00  7.59869910E+00 -1.51973982E+01  7.59869910E+00
  7.59869910E+00 -1.51973982E+01  7.59869910E+00  7.59869910E+00 -1.51973982E+01
  7.59869910E+00  7.59869910E+00 -1.51973982E+01  7.59869910E+00  7.59869910E+00
 -1.51973982E+01  7.59869910E+00  7.59869910E+00 -1.51973982E+01  7.59869910E+00
  7.59869910E+00 -1.51973982E+01  7.59869910E+00  7.59869910E+00 -1.51973982E+01
  7.59869910E+00  7.59869910E+00 -1.51973982E+01  7.59869910E+00  7.59869910E+00
 -1.51973982E+01  7.59869910E+00  7.59869910E+00 -1.51973982E+01  7.59869910E+00
  7.59869910E+00 -1.51973982E+01  7.59869910E+00  7.59869910E+00 -1.51973982E+01
  7.59869910E+00  7.59869910E+00 -1.51973982E+01  7.59869910E+00  7.59869910E+00
 -1.51973982E+01  7.59869910E+00  7.59869910E+00 -1.51973982E+01  7.59869910E+00
  7.59869910E+00 -1.51973982E+01  7.59869910E+00  7.59869910E+00 -1.51973982E+01
  7.59869910E+00  7.59869910E+00 -1.51973982E+01  7.59869910E+00  7.59869910E+00
 -1.51973982E+01  7.59869910E+00  7.59869910E+00 -1.51973982E+01  7.59869910E+00
  7.59869910E+00 -1.51973982E+01  7.59869910E+00  7.59869910E+00 -1.51973982E+01
  7.59869910E+00  7.59869910E+00 -1.51973982E+01  7.59869910E+00  7.59869910E+00
 -1.51973982E+01  7.59869910E+00  7.59869910E+00 -1.51973982E+01  7.59869910E+00
  7.59869910E+00 -1.51973982E+01  7.59869910E+00  7.59869910E+00 -1.51973982E+01
  7.59869910E+00  7.59869910E+00 -1.51973982E+01  7.59869910E+00  7.59869910E+00
 -1.51973982E+01  7.59869910E+00  7.59869910E+00 -1.51973982E+01  7.59869910E+00
  7.59869910E+00 -1.51973982E+01  7.59869910E+00  7.59869910E+00 -1.51973982E+01
  7.59869910E+00  7.59869910E+00 -1.51973982E+01  7.59869910E+00  7.59869910E+00
 -1.51973982E+01  7.59869910E+00  7.59869910E+00 -1.51973982E+01  7.59869910E+00
  7.59869910E+00 -1.51973982E+01  7.59869910E+00  7.59869910E+00 -1.51973982E+01
  7.59869910E+00  7.59869910E+00 -1.51973982E+01  7.59869910E+00  7.59869910E+00
 -1.51973982E+01  7.59869910E+00  7.59869910E+00 -1.51973982E+01  7.59869910E+00
  7.59869910E+00 -1.51973982E+01  7.59869910E+00  7.59869910E+00 -1.51973982E+01
  7.59869910E+00  7.59869910E+00 -1.51973982E+01  7.59869910E+00  7.59869910E+00
 -1.51973982E+01  7.59869910E+00  7.59869910E+00 -1.51973982E+01  7.59869910E+00
  7.59869910E+00 -1.51973982E+01  7.59869910E+00  7.59869910E+00 -1.51973982E+01
  7.59869910E+00  7.59869910E+00 -1.51973982E+01  7.59869910E+00  7.59869910E+00
 -1.51973982E+01  7.59869910E+00  7.59869910E+00 -1.51973982E+01  7.59869910E+00
  7.59869910E+00 -1.51973982E+01  7.59869910E+00  7.59869910E+00 -1.51973982E+01
  7.59869910E+00  7.59869910E+00 -1.51973982E+01  7.59869910E+00  7.59869910E+00
 -1.51973982E+01  7.59869910E+00  7.59869910E+00 -1.51973982E+01  7.59869910E+00
  7.59869910E+00 -1.51973982E+01  7.59869910E+00  7.59869910E+00 -1.51973982E+01
  7.59869910E+00  7.59869910E+00 -1.51973982E+01  7.59869910E+00  7.59869910E+00
 -1.51973982E+01  7.59869910E+00  7.59869910E+00 -1.51973982E+01  7.59869910E+00
  7.59869910E+00 -1.51973982E+01  7.59869910E+00  7.59869910E+00 -1.51973982E+01
  7.59869910E+00  7.59869910E+00 -1.51973982E+01  7.59869910E+00  7.59869910E+00
 -1.51973982E+01  7.59869910E+00  7.59869910E+00 -1.51973982E+01  7.59869910E+00
  7.59869910E+00 -1.51973982E+01  7.59869910E+00  7.59869910E+00 -1.51973982E+01
  7.59869910E+00  7.59869910E+00 -1.51973982E+01  7.59869910E+00  7.59869910E+00
 -1.51973982E+01  7.59869910E+00  7.59869910E+00 -1.51973982E+01  7.59869910E+00
  7.59869910E+00 -1.51973982E+01  7.59869910E+00  7.59869910E+00 -1.51973982E+01
  7.59869910E+00  7.59869910E+00 -1.51973982E+01  7.59869910E+00  7.59869910E+00
 -1.51973982E+01  7.59869910E+00  7.59869910E+00 -1.51973982E+01  7.59869910E+00
  7.59869910E+00 -1.51973982E+01  7.59869910E+00  7.59869910E+00 -1.51973982E+01
  7.59869910E+00  7.59869910E+00 -1.51973982E+01  7.59869910E+00  7.59869910E+00
 -1.51973982E+01  7.59869910E+00  7.59869910E+00 -1.51973982E+01  7.59869910E+00
  7.59869910E+00 -1.51973982E+01  7.59869910E+00  7.59869910E+00 -1.51973982E+01
  7.59869910E+00  7.59869910E+00 -1.51973982E+01  7.59869910E+00  7.59869910E+00
 -1.51973982E+01  7.59869910E+00  7.59869910E+00 -1.51973982E+01  7.59869910E+00
  7.59869910E+00 -1.51973982E+01  7.59869910E+00  7.59869910E+00 -1.51973982E+01
  7.59869910E+00  7.59869910E+00 -1.51973982E+01  7.59869910E+00  7.59869910E+00
 -1.51973982E+01  7.59869910E+00  7.59869910E+00 -1.51973982E+01  7.59869910E+00
  7.59869910E+00 -1.51973982E+01  7.59869910E+00  7.59869910E+00 -1.51973982E+01
  7.59869910E+00  7.59869910E+00 -1.51973982E+01  7.59869910E+00  7.59869910E+00
 -1.51973982E+01  7.59869910E+00  7.59869910E+00 -1.51973982E+01  7.59869910E+00
  7.59869910E+00 -1.51973982E+01  7.59869910E+00  7.59869910E+00 -1.51973982E+01
  7.59869910E+00  7.59869910E+00 -1.51973982E+01  7.59869910E+00  7.59869910E+00
 -1.51973982E+01  7.59869910E+00  7.59869910E+00 -1.51973982E+01  7.59869910E+00
  7.59869910E+00 -1.51973982E+01  7.59869910E+00  7.59869910E+00 -1.51973982E+01
  7.59869910E+00  7.59869910E+00 -1.51973982E+01  7.59869910E+00  7.59869910E+00
 -1.51973982E+01  7.59869910E+00  7.59869910E+00 -1.51973982E+01  7.59869910E+00
  7.59869910E+00 -1.51973982E+01  7.59869910E+00  7.59869910E+00 -1.51973982E+01
  7.59869910E+00  7.59869910E+00 -1.51973982E+01  7.59869910E+00  7.59869910E+00
 -1.51973982E+01  7.59869910E+00  7.59869910E+00 -1.51973982E+01  7.59869910E+00
  7.59869910E+00 -1.51973982E+01  7.59869910E+00  7.59869910E+00 -1.51973982E+01
  7.59869910E+00  7.59869910E+00 -1.51973982E+01  7.59869910E+00  7.59869910E+00
 -1.51973982E+01  7.59869910E+00  7.59869910E+00 -1.51973982E+01  7.59869910E+00
  7.59869910E+00 -1.51973982E+01  7.59869910E+00  7.59869910E+00 -1.51973982E+01
  7.59869910E+00  7.59869910E+00 -1.51973982E+01  7.59869910E+00  7.59869910E+00
 -1.51973982E+01  7.59869910E+00  7.59869910E+00 -1.51973982E+01  7.59869910E+00
  7.59869910E+00 -1.51973982E+01  7.59869910E+00  7.59869910E+00 -1.51973982E+01
  7.59869910E+00  7.59869910E+00 -1.51973982E+01  7.59869910E+00  7.59869910E+00
 -1.51973982E+01  7.59869910E+00  7.59869910E+00 -1.51973982E+01  7.59869910E+00
  7.59869910E+00 -1.51973982E+01  7.59869910E+00  7.59869910E+00 -1.51973982E+01
  7.59869910E+00  7.59869910E+00 -1.51973982E+01  7.59869910E+00  7.59869910E+00
 -1.51973982E+01  7.59869910E+00  7.59869910E+00 -1.51973982E+01  7.59869910E+00
  7.59869910E+00 -1.51973982E+01  7.59869910E+00  7.59869910E+00 -1.51973982E+01
  7.59869910E+00  7.59869910E+00 -1.51973982E+01  7.59869910E+00  7.59869910E+00
 -1.51973982E+01  7.59869910E+00  7.59869910E+00 -1.51973982E+01  7.59869910E+00
  7.59869910E+00 -1.51973982E+01  7.59869910E+00  7.59869910E+00 -1.51973982E+01
  7.59869910E+00  7.59869910E+00 -1.51973982E+01  7.59869910E+00  7.59869910E+00
 -1.51973982E+01  7.59869910E+00  7.59869910E+00 -1.51973982E+01  7.59869910E+00
  7.59869910E+00 -1.51973982E+01  7.59869910E+00  7.59869910E+00 -1.51973982E+01
  7.59869910E+00  7.59869910E+00 -1.51973982E+01  7.59869910E+00  7.59869910E+00
 -1.51973982E+01  7.59869910E+00  7.59869910E+00 -1.51973982E+01  7.59869910E+00
  7.59869910E+00 -1.51973982E+01  7.59869910E+00  7.59869910E+00 -1.51973982E+01
  7.59869910E+00  7.59869910E+00 -1.51973982E+01  7.59869910E+00  7.59869910E+00
 -1.51973982E+01  7.59869910E+00  7.59869910E+00 -1.51973982E+01  7.59869910E+00
  7.59869910E+00 -1.51973982E+01  7.59869910E+00  7.59869910E+00 -1.51973982E+01
  7.59869910E+00  7.59869910E+00 -1.51973982E+01  7.59869910E+00  7.59869910E+00
 -1.51973982E+01  7.59869910E+00  7.59869910E+00 -1.51973982E+01  7.59869910E+00
  7.59869910E+00 -1.51973982E+01  7.59869910E+00  7.59869910E+00 -1.51973982E+01
  7.59869910E+00  7.59869910E+00 -1.51973982E+01  7.59869910E+00  7.59869910E+00
 -1.51973982E+01  7.59869910E+00  7.59869910E+00 -1.51973982E+01  7.59869910E+00
  7.59869910E+00 -1.51973982E+01  7.59869910E+00  7.59869910E+00 -1.51973982E+01
  7.59869910E+00  7.59869910E+00 -1.51973982E+01  7.59869910E+00  7.59869910E+00
 -1.51973982E+01  7.59869910E+00  7.59869910E+00 -1.51973982E+01  7.59869910E+00
  7.59869910E+00 -1.51973982E+01  7.59869910E+00  7.59869910E+00 -1.51973982E+01
  7.59869910E+00  7.59869910E+00 -1.51973982E+01  7.59869910E+00  7.59869910E+00
 -1.51973982E+01  7.59869910E+00  7.59869910E+00 -1.51973982E+01  7.59869910E+00
  7.59869910E+00 -1.51973982E+01  7.59869910E+00  7.59869910E+00 -1.51973982E+01
  7.59869910E+00  7.59869910E+00 -1.51973982E+01  7.59869910E+00  7.59869910E+00
 -1.51973982E+01  7.59869910E+00  7.59869910E+00 -1.51973982E+01  7.59869910E+00
  7.59869910E+00 -1.51973982E+01  7.59869910E+00  7.59869910E+00 -1.51973982E+01
  7.59869910E+00  7.59869910E+00 -1.51973982E+01  7.59869910E+00  7.59869910E+00
 -1.51973982E+01  7.59869910E+00  7.59869910E+00 -1.51973982E+01  7.59869910E+00
  7.59869910E+00 -1.51973982E+01  7.59869910E+00  7.59869910E+00 -1.51973982E+01
  7.59869910E+00  7.59869910E+00 -1.51973982E+01  7.59869910E+00  7.59869910E+00
 -1.51973982E+01  7.59869910E+00  7.59869910E+00 -1.51973982E+01  7.59869910E+00
  7.59869910E+00 -1.51973982E+01  7.59869910E+00  7.59869910E+00 -1.51973982E+01
  7.59869910E+00  7.59869910E+00 -1.51973982E+01  7.59869910E+00  7.59869910E+00
 -1.51973982E+01  7.59869910E+00  7.59869910E+00 -1.51973982E+01  7.59869910E+00
  7.59869910E+00 -1.51973982E+01  7.59869910E+00  7.59869910E+00 -1.51973982E+01
  7.59869910E+00  7.59869910E+00 -1.51973982E+01  7.59869910E+00  7.59869910E+00
 -1.51973982E+01  7.59869910E+00  7.59869910E+00 -1.51973982E+01  7.59869910E+00
  7.59869910E+00 -1.51973982E+01  7.59869910E+00  7.59869910E+00 -1.51973982E+01
  7.59869910E+00  7.59869910E+00 -1.51973982E+01  7.59869910E+00  7.59869910E+00
 -1.51973982E+01  7.59869910E+00  7.59869910E+00 -1.51973982E+01  7.59869910E+00
  7.59869910E+00 -1.51973982E+01  7.59869910E+00  7.59869910E+00 -1.51973982E+01
  7.59869910E+00  7.59869910E+00 -1.51973982E+01  7.59869910E+00  7.59869910E+00
 -1.51973982E+01  7.59869910E+00  7.59869910E+00 -1.51973982E+01  7.59869910E+00
  7.59869910E+00 -1.51973982E+01  7.59869910E+00  7.59869910E+00 -1.51973982E+01
  7.59869910E+00  7.59869910E+00 -1.51973982E+01  7.59869910E+00  7.59869910E+00
 -1.51973982E+01  7.59869910E+00  7.59869910E+00 -1.51973982E+01  7.59869910E+00
  7.59869910E+00 -1.51973982E+01  7.59869910E+00  7.59869910E+00 -1.51973982E+01
  7.59869910E+00  7.59869910E+00 -1.51973982E+01  7.59869910E+00  7.59869910E+00
 -1.51973982E+01  7.59869910E+00  7.59869910E+00 -1.51973982E+01  7.59869910E+00
  7.59869910E+00 -1.51973982E+01  7.59869910E+00  7.59869910E+00 -1.51973982E+01
  7.59869910E+00  7.59869910E+00 -1.51973982E+01  7.59869910E+00  7.59869910E+00
 -1.51973982E+01  7.59869910E+00  7.59869910E+00 -1.51973982E+01  7.59869910E+00
  7.59869910E+00 -1.51973982E+01  7.59869910E+00  7.59869910E+00 -1.51973982E+01
  7.59869910E+00  7.59869910E+00 -1.51973982E+01  7.59869910E+00  7.59869910E+00
 -1.51973982E+01  7.59869910E+00  7.59869910E+00 -1.51973982E+01  7.59869910E+00
  7.59869910E+00 -1.51973982E+01  7.59869910E+00  7.59869910E+00 -1.51973982E+01
  7.59869910E+00  7.59869910E+00 -1.51973982E+01  7.59869910E+00  7.59869910E+00
 -1.51973982E+01  7.59869910E+00  7.59869910E+00 -1.51973982E+01  7.59869910E+00
  7.59869910E+00 -1.51973982E+01  7.59869910E+00  7.59869910E+00 -1.51973982E+01
  7.59869910E+00  7.59869910E+00 -1.51973982E+01  7.59869910E+00  7.59869910E+00
 -1.51973982E+01  7.59869910E+00  7.59869910E+00 -1.51973982E+01  7.59869910E+00
  7.59869910E+00 -1.51973982E+01  7.59869910E+00  7.59869910E+00 -1.51973982E+01
  7.59869910E+00  7.59869910E+00 -1.51973982E+01  7.59869910E+00  7.59869910E+00
 -1.51973982E+01  7.59869910E+00  7.59869910E+00 -1.51973982E+01  7.59869910E+00
  7.59869910E+00 -1.51973982E+01  7.59869910E+00  7.59869910E+00 -1.51973982E+01
  7.59869910E+00  7.59869910E+00 -1.51973982E+01  7.59869910E+00  7.59869910E+00
 -1.51973982E+01  7.59869910E+00  7.59869910E+00 -1.51973982E+01  7.59869910E+00
  7.59869910E+00 -1.51973982E+01  7.59869910E+00  7.59869910E+00 -1.51973982E+01
  7.59869910E+00  7.59869910E+00 -1.51973982E+01  7.59869910E+00  7.59869910E+00
 -1.51973982E+01  7.59869910E+00  7.59869910E+00 -1.51973982E+01  7.59869910E+00
  7.59869910E+00 -1.51973982E+01  7.59869910E+00  7.59869910E+00 -1.51973982E+01
  7.59869910E+00  7.59869910E+00 -1.51973982E+01  7.59869910E+00  7.59869910E+00
 -1.51973982E+01  7.59869910E+00  7.59869910E+00 -1.51973982E+01  7.59869910E+00
  7.59869910E+00 -1.51973982E+01  7.59869910E+00  7.59869910E+00 -1.51973982E+01
  7.59869910E+00  7.59869910E+00 -1.51973982E+01  7.59869910E+00  7.59869910E+00
 -1.51973982E+01  7.59869910E+00  7.59869910E+00 -1.51973982E+01  7.59869910E+00
  7.59869910E+00 -1.51973982E+01  7.59869910E+00  7.59869910E+00 -1.51973982E+01
  7.59869910E+00  7.59869910E+00 -1.51973982E+01  7.59869910E+00  7.59869910E+00
 -1.51973982E+01  7.59869910E+00  7.59869910E+00 -1.51973982E+01  7.59869910E+00
  7.59869910E+00 -1.51973982E+01  7.59869910E+00  7.59869910E+00 -1.51973982E+01
  7.59869910E+00  7.59869910E+00 -1.51973982E+01  7.59869910E+00  7.59869910E+00
 -1.51973982E+01  7.59869910E+00  7.59869910E+00 -1.51973982E+01  7.59869910E+00
  7.59869910E+00 -1.51973982E+01  7.59869910E+00  7.59869910E+00 -1.51973982E+01
  7.59869910E+00  7.59869910E+00 -1.51973982E+01  7.59869910E+00  7.59869910E+00
 -1.51973982E+01  7.59869910E+00  7.59869910E+00 -1.51973982E+01  7.59869910E+00
  7.59869910E+00 -1.51973982E+01  7.59869910E+00  7.59869910E+00 -1.51973982E+01
  7.59869910E+00  7.59869910E+00 -1.51973982E+01  7.59869910E+00  7.59869910E+00
 -1.51973982E+01  7.59869910E+00  7.59869910E+00 -1.51973982E+01  7.59869910E+00
  7.59869910E+00 -1.51973982E+01  7.59869910E+00  7.59869910E+00 -1.51973982E+01
  7.59869910E+00  7.59869910E+00 -1.51973982E+01  7.59869910E+00  7.59869910E+00
 -1.51973982E+01  7.59869910E+00  7.59869910E+00 -1.51973982E+01  7.59869910E+00
  7.59869910E+00 -1.51973982E+01  7.59869910E+00  7.59869910E+00 -1.51973982E+01
  7.59869910E+00  7.59869910E+00 -1.51973982E+01  7.59869910E+00  7.59869910E+00
 -1.51973982E+01  7.59869910E+00  7.59869910E+00 -1.51973982E+01  7.59869910E+00
  7.59869910E+00 -1.51973982E+01  7.59869910E+00  7.59869910E+00 -1.51973982E+01
  7.59869910E+00  7.59869910E+00 -1.51973982E+01  7.59869910E+00  7.59869910E+00
 -1.51973982E+01  7.59869910E+00  7.59869910E+00 -1.51973982E+01  7.59869910E+00
  7.59869910E+00 -1.51973982E+01  7.59869910E+00  7.59869910E+00 -1.51973982E+01
  7.59869910E+00  7.59869910E+00 -1.51973982E+01  7.59869910E+00  7.59869910E+00
 -1.51973982E+01  7.59869910E+00  7.59869910E+00 -1.51973982E+01  7.59869910E+00
  7.59869910E+00 -1.51973982E+01  7.59869910E+00  7.59869910E+00 -1.51973982E+01
  7.59869910E+00  7.59869910E+00 -1.51973982E+01  7.59869910E+00  7.59869910E+00
 -1.51973982E+01  7.59869910E+00  7.59869910E+00 -1.51973982E+01  7.59869910E+00
  7.59869910E+00 -1.51973982E+01  7.59869910E+00  7.59869910E+00 -1.51973982E+01
  7.59869910E+00  7.59869910E+00 -1.51973982E+01  7.59869910E+00  7.59869910E+00
 -1.51973982E+01  7.59869910E+00  7.59869910E+00 -1.51973982E+01  7.59869910E+00
  7.59869910E+00 -1.51973982E+01  7.59869910E+00  7.59869910E+00 -1.51973982E+01
  7.59869910E+00  7.59869910E+00 -1.51973982E+01  7.59869910E+00  7.59869910E+00
 -1.51973982E+01  7.59869910E+00  7.59869910E+00 -1.51973982E+01  7.59869910E+00
  7.59869910E+00 -1.51973982E+01  7.59869910E+00  7.59869910E+00 -1.51973982E+01
  7.59869910E+00  7.59869910E+00 -1.51973982E+01  7.59869910E+00  7.59869910E+00
 -1.51973982E+01  7.59869910E+00  7.59869910E+00 -1.51973982E+01  7.59869910E+00
  7.59869910E+00 -1.51973982E+01  7.59869910E+00  7.59869910E+00 -1.51973982E+01
  7.59869910E+00  7.59869910E+00 -1.51973982E+01  7.59869910E+00  7.59869910E+00
 -1.51973982E+01  7.59869910E+00  7.59869910E+00 -1.51973982E+01  7.59869910E+00
  7.59869910E+00 -1.51973982E+01  7.59869910E+00  7.59869910E+00 -1.51973982E+01
  7.59869910E+00  7.59869910E+00 -1.51973982E+01  7.59869910E+00  7.59869910E+00
 -1.51973982E+01  7.59869910E+00  7.59869910E+00 -1.51973982E+01  7.59869910E+00
  7.59869910E+00 -1.51973982E+01  7.59869910E+00  7.59869910E+00 -1.51973982E+01
  7.59869910E+00  7.59869910E+00 -1.51973982E+01  7.59869910E+00  7.59869910E+00
 -1.51973982E+01  7.59869910E+00  7.59869910E+00 -1.51973982E+01  7.59869910E+00
  7.59869910E+00 -1.51973982E+01  7.59869910E+00  7.59869910E+00 -1.51973982E+01
  7.59869910E+00  7.59869910E+00 -1.51973982E+01  7.59869910E+00  7.59869910E+00
 -1.51973982E+01  7.59869910E+00  7.59869910E+00 -1.51973982E+01  7.59869910E+00
  7.59869910E+00 -1.51973982E+01  7.59869910E+00  7.59869910E+00 -1.51973982E+01
  7.59869910E+00  7.59869910E+00 -1.51973982E+01  7.59869910E+00  7.59869910E+00
 -1.51973982E+01  7.59869910E+00  7.59869910E+00 -1.51973982E+01  7.59869910E+00
  7.59869910E+00 -1.51973982E+01  7.59869910E+00  7.59869910E+00 -1.51973982E+01
  7.59869910E+00  7.59869910E+00 -1.51973982E+01  7.59869910E+00  7.59869910E+00
 -1.51973982E+01  7.59869910E+00  7.59869910E+00 -1.51973982E+01  7.59869910E+00
  7.59869910E+00 -1.51973982E+01  7.59869910E+00  7.59869910E+00 -1.51973982E+01
  7.59869910E+00  7.59869910E+00 -1.51973982E+01  7.59869910E+00  7.59869910E+00
 -1.51973982E+01  7.59869910E+00  7.59869910E+00 -1.51973982E+01  7.59869910E+00
  7.59869910E+00 -1.51973982E+01  7.59869910E+00  7.59869910E+00 -1.51973982E+01
  7.59869910E+00  7.59869910E+00 -1.51973982E+01  7.59869910E+00  7.59869910E+00
 -1.51973982E+01  7.59869910E+00  7.59869910E+00 -1.51973982E+01  7.59869910E+00
  7.59869910E+00 -1.51973982E+01  7.59869910E+00  7.59869910E+00 -1.51973982E+01
  7.59869910E+00  7.59869910E+00 -1.51973982E+01  7.59869910E+00  7.59869910E+00
 -1.51973982E+01  7.59869910E+00  7.59869910E+00 -1.51973982E+01  7.59869910E+00
  7.59869910E+00 -1.51973982E+01  7.59869910E+00  7.59869910E+00 -1.51973982E+01
  7.59869910E+00  7.59869910E+00 -1.51973982E+01  7.59869910E+00  7.59869910E+00
 -1.51973982E+01  7.59869910E+00  7.59869910E+00 -1.51973982E+01  7.59869910E+00
  7.59869910E+00 -1.51973982E+01  7.59869910E+00  7.59869910E+00 -1.51973982E+01
  7.59869910E+00  7.59869910E+00 -1.51973982E+01  7.59869910E+00  7.59869910E+00
 -1.51973982E+01  7.59869910E+00  7.59869910E+00 -1.51973982E+01  7.59869910E+00
  7.59869910E+00 -1.51973982E+01  7.59869910E+00  7.59869910E+00 -1.51973982E+01
  7.59869910E+00  7.59869910E+00 -1.51973982E+01  7.59869910E+00  7.59869910E+00
 -1.51973982E+01  7.59869910E+00  7.59869910E+00 -1.51973982E+01  7.59869910E+00
  7.59869910E+00 -1.51973982E+01  7.59869910E+00  7.59869910E+00 -1.51973982E+01
  7.59869910E+00  7.59869910E+00 -1.51973982E+01  7.59869910E+00  7.59869910E+00
 -1.51973982E+01  7.59869910E+00  7.59869910E+00 -1.51973982E+01  7.59869910E+00
  7.59869910E+00 -1.51973982E+01  7.59869910E+00  7.59869910E+00 -1.51973982E+01
  7.59869910E+00  7.59869910E+00 -1.51973982E+01  7.59869910E+00  7.59869910E+00
 -1.51973982E+01  7.59869910E+00  7.59869910E+00 -1.51973982E+01  7.59869910E+00
  7.59869910E+00 -1.51973982E+01  7.59869910E+00  7.59869910E+00 -1.51973982E+01
  7.59869910E+00  7.59869910E+00 -1.51973982E+01  7.59869910E+00  7.59869910E+00
 -1.51973982E+01  7.59869910E+00  7.59869910E+00 -1.51973982E+01  7.59869910E+00
  7.59869910E+00 -1.51973982E+01  7.59869910E+00  7.59869910E+00 -1.51973982E+01
  7.59869910E+00  7.59869910E+00 -1.51973982E+01  7.59869910E+00  7.59869910E+00
 -1.51973982E+01  7.59869910E+00  7.59869910E+00 -1.51973982E+01  7.59869910E+00
  7.59869910E+00 -1.51973982E+01  7.59869910E+00  7.59869910E+00 -1.51973982E+01
  7.59869910E+00  7.59869910E+00 -1.51973982E+01  7.59869910E+00  7.59869910E+00
 -1.51973982E+01  7.59869910E+00  7.59869910E+00 -1.51973982E+01  7.59869910E+00
  7.59869910E+00 -1.51973982E+01  7.59869910E+00  7.59869910E+00 -1.51973982E+01
  7.59869910E+00  7.59869910E+00 -1.51973982E+01  7.59869910E+00  7.59869910E+00
 -1.51973982E+01  7.59869910E+00  7.59869910E+00 -1.51973982E+01  7.59869910E+00
  7.59869910E+00 -1.51973982E+01  7.59869910E+00  7.59869910E+00 -1.51973982E+01
  7.59869910E+00  7.59869910E+00 -1.51973982E+01  7.59869910E+00  7.59869910E+00
 -1.51973982E+01  7.59869910E+00  7.59869910E+00 -1.51973982E+01  7.59869910E+00
  7.59869910E+00 -1.51973982E+01  7.59869910E+00  7.59869910E+00 -1.51973982E+01
  7.59869910E+00  7.59869910E+00 -1.51973982E+01  7.59869910E+00  7.59869910E+00
 -1.51973982E+01  7.59869910E+00  7.59869910E+00 -1.51973982E+01  7.59869910E+00
  7.59869910E+00 -1.51973982E+01  7.59869910E+00  7.59869910E+00 -1.51973982E+01
  7.59869910E+00  7.59869910E+00 -1.51973982E+01  7.59869910E+00  7.59869910E+00
 -1.51973982E+01  7.59869910E+00  7.59869910E+00 -1.51973982E+01  7.59869910E+00
  7.59869910E+00 -1.51973982E+01  7.59869910E+00  7.59869910E+00 -1.51973982E+01
  7.59869910E+00  7.59869910E+00 -1.51973982E+01  7.59869910E+00  7.59869910E+00
 -1.51973982E+01  7.59869910E+00  7.59869910E+00 -1.51973982E+01  7.59869910E+00
  7.59869910E+00 -1.51973982E+01  7.59869910E+00  7.59869910E+00 -1.51973982E+01
  7.59869910E+00  7.59869910E+00 -1.51973982E+01  7.59869910E+00  7.59869910E+00
 -1.51973982E+01  7.59869910E+00  7.59869910E+00 -1.51973982E+01  7.59869910E+00
  7.59869910E+00 -1.51973982E+01  7.59869910E+00  7.59869910E+00 -1.51973982E+01
  7.59869910E+00  7.59869910E+00 -1.51973982E+01  7.59869910E+00  7.59869910E+00
 -1.51973982E+01  7.59869910E+00  7.59869910E+00 -1.51973982E+01  7.59869910E+00
  7.59869910E+00 -1.51973982E+01  7.59869910E+00  7.59869910E+00 -1.51973982E+01
  7.59869910E+00  7.59869910E+00 -1.51973982E+01  7.59869910E+00  7.59869910E+00
 -1.51973982E+01  7.59869910E+00  7.59869910E+00 -1.51973982E+01  7.59869910E+00
  7.59869910E+00 -1.51973982E+01  7.59869910E+00  7.59869910E+00 -1.51973982E+01
  7.59869910E+00  7.59869910E+00 -1.51973982E+01  7.59869910E+00  7.59869910E+00
 -1.51973982E+01  7.59869910E+00  7.59869910E+00 -1.51973982E+01  7.59869910E+00
  7.59869910E+00 -1.51973982E+01  7.59869910E+00  7.59869910E+00 -1.51973982E+01
  7.59869910E+00  7.59869910E+00 -1.51973982E+01  7.59869910E+00  7.59869910E+00
 -1.51973982E+01  7.59869910E+00  7.59869910E+00 -1.51973982E+01  7.59869910E+00
  7.59869910E+00 -1.51973982E+01  7.59869910E+00  7.59869910E+00 -1.51973982E+01
  7.59869910E+00  7.59869910E+00 -1.51973982E+01  7.59869910E+00  7.59869910E+00
 -1.51973982E+01  7.59869910E+00  7.59869910E+00 -1.51973982E+01  7.59869910E+00
  7.59869910E+00 -1.51973982E+01  7.59869910E+00  7.59869910E+00 -1.51973982E+01
  7.59869910E+00  7.59869910E+00 -1.51973982E+01  7.59869910E+00  7.59869910E+00
 -1.51973982E+01  7.59869910E+00  7.59869910E+00 -1.51973982E+01  7.59869910E+00
  7.59869910E+00 -1.51973982E+01  7.59869910E+00  7.59869910E+00 -1.51973982E+01
  7.59869910E+00  7.59869910E+00 -1.51973982E+01  7.59869910E+00  7.59869910E+00
 -1.51973982E+01  7.59869910E+00  7.59869910E+00 -1.51973982E+01  7.59869910E+00
  7.59869910E+00 -1.51973982E+01  7.59869910E+00  7.59869910E+00 -1.51973982E+01
  7.59869910E+00  7.59869910E+00 -1.51973982E+01  7.59869910E+00  7.59869910E+00
 -1.51973982E+01  7.59869910E+00  7.59869910E+00 -1.51973982E+01  7.59869910E+00
  7.59869910E+00 -1.51973982E+01  7.59869910E+00  7.59869910E+00 -1.51973982E+01
  7.59869910E+00  7.59869910E+00 -1.51973982E+01  7.59869910E+00  7.59869910E+00
 -1.51973982E+01  7.59869910E+00  7.59869910E+00 -1.51973982E+01  7.59869910E+00
  7.59869910E+00 -1.51973982E+01  7.59869910E+00  7.59869910E+00 -1.51973982E+01
  7.59869910E+00  7.59869910E+00 -1.51973982E+01  7.59869910E+00  7.59869910E+00
 -1.51973982E+01  7.59869910E+00  7.59869910E+00 -1.51973982E+01  7.59869910E+00
  7.59869910E+00 -1.51973982E+01  7.59869910E+00  7.59869910E+00 -1.51973982E+01
  7.59869910E+00  7.59869910E+00 -1.51973982E+01  7.59869910E+00  7.59869910E+00
 -1.51973982E+01  7.59869910E+00  7.59869910E+00 -1.51973982E+01  7.59869910E+00
  7.59869910E+00 -1.51973982E+01  7.59869910E+00  7.59869910E+00 -1.51973982E+01
  7.59869910E+00  7.59869910E+00 -1.51973982E+01  7.59869910E+00  7.59869910E+00
 -1.51973982E+01  7.59869910E+00  7.59869910E+00 -1.51973982E+01  7.59869910E+00
  7.59869910E+00 -1.51973982E+01  7.59869910E+00  7.59869910E+00 -1.51973982E+01
  7.59869910E+00  7.59869910E+00 -1.51973982E+01  7.59869910E+00  7.59869910E+00
 -1.51973982E+01  7.59869910E+00  7.59869910E+00 -1.51973982E+01  7.59869910E+00
  7.59869910E+00 -1.51973982E+01  7.59869910E+00  7.59869910E+00 -1.51973982E+01
  7.59869910E+00  7.59869910E+00 -1.51973982E+01  7.59869910E+00  7.59869910E+00
 -1.51973982E+01  7.59869910E+00  7.59869910E+00 -1.51973982E+01  7.59869910E+00
  7.59869910E+00 -1.51973982E+01  7.59869910E+00  7.59869910E+00 -1.51973982E+01
  7.59869910E+00  7.59869910E+00 -1.51973982E+01  7.59869910E+00  7.59869910E+00
 -1.51973982E+01  7.59869910E+00  7.59869910E+00 -1.51973982E+01  7.59869910E+00
  7.59869910E+00 -1.51973982E+01  7.59869910E+00  7.59869910E+00 -1.51973982E+01
  7.59869910E+00  7.59869910E+00 -1.51973982E+01  7.59869910E+00  7.59869910E+00
 -1.51973982E+01  7.59869910E+00  7.59869910E+00 -1.51973982E+01  7.59869910E+00
  7.59869910E+00 -1.51973982E+01  7.59869910E+00  7.59869910E+00 -1.51973982E+01
  7.59869910E+00  7.59869910E+00 -1.51973982E+01  7.59869910E+00  7.59869910E+00
 -1.51973982E+01  7.59869910E+00  7.59869910E+00 -1.51973982E+01  7.59869910E+00
  7.59869910E+00 -1.51973982E+01  7.59869910E+00  7.59869910E+00 -1.51973982E+01
  7.59869910E+00  7.59869910E+00 -1.51973982E+01  7.59869910E+00  7.59869910E+00
 -1.51973982E+01  7.59869910E+00  7.59869910E+00 -1.51973982E+01  7.59869910E+00
  7.59869910E+00 -1.51973982E+01  7.59869910E+00  7.59869910E+00 -1.51973982E+01
  7.59869910E+00  7.59869910E+00 -1.51973982E+01  7.59869910E+00  7.59869910E+00
 -1.51973982E+01  7.59869910E+00  7.59869910E+00 -1.51973982E+01  7.59869910E+00
  7.59869910E+00 -1.51973982E+01  7.59869910E+00  7.59869910E+00 -1.51973982E+01
  7.59869910E+00  7.59869910E+00 -1.51973982E+01  7.59869910E+00  7.59869910E+00
 -1.51973982E+01  7.59869910E+00  7.59869910E+00 -1.51973982E+01  7.59869910E+00
  7.59869910E+00 -1.51973982E+01  7.59869910E+00  7.59869910E+00 -1.51973982E+01
  7.59869910E+00  7.59869910E+00 -1.51973982E+01  7.59869910E+00  7.59869910E+00
 -1.51973982E+01  7.59869910E+00  7.59869910E+00 -1.51973982E+01  7.59869910E+00
  7.59869910E+00 -1.51973982E+01  7.59869910E+00  7.59869910E+00 -1.51973982E+01
  7.59869910E+00  7.59869910E+00 -1.51973982E+01  7.59869910E+00  7.59869910E+00
 -1.51973982E+01  7.59869910E+00  7.59869910E+00 -1.51973982E+01  7.59869910E+00
  7.59869910E+00 -1.51973982E+01  7.59869910E+00  7.59869910E+00 -1.51973982E+01
  7.59869910E+00  7.59869910E+00 -1.51973982E+01  7.59869910E+00  7.59869910E+00
 -1.51973982E+01  7.59869910E+00  7.59869910E+00 -1.51973982E+01  7.59869910E+00
  7.59869910E+00 -1.51973982E+01  7.59869910E+00  7.59869910E+00 -1.51973982E+01
  7.59869910E+00  7.59869910E+00 -1.51973982E+01  7.59869910E+00  7.59869910E+00
 -1.51973982E+01  7.59869910E+00  7.59869910E+00 -1.51973982E+01  7.59869910E+00
  7.59869910E+00 -1.51973982E+01  7.59869910E+00  7.59869910E+00 -1.51973982E+01
  7.59869910E+00  7.59869910E+00 -1.51973982E+01  7.59869910E+00  7.59869910E+00
 -1.51973982E+01  7.59869910E+00  7.59869910E+00 -1.51973982E+01  7.59869910E+00
  7.59869910E+00 -1.51973982E+01  7.59869910E+00  7.59869910E+00 -1.51973982E+01
  7.59869910E+00  7.59869910E+00 -1.51973982E+01  7.59869910E+00  7.59869910E+00
 -1.51973982E+01  7.59869910E+00  7.59869910E+00 -1.51973982E+01  7.59869910E+00
  7.59869910E+00 -1.51973982E+01  7.59869910E+00  7.59869910E+00 -1.51973982E+01
  7.59869910E+00  7.59869910E+00 -1.51973982E+01  7.59869910E+00  7.59869910E+00
 -1.51973982E+01  7.59869910E+00  7.59869910E+00 -1.51973982E+01  7.59869910E+00
  7.59869910E+00 -1.51973982E+01  7.59869910E+00  7.59869910E+00 -1.51973982E+01
  7.59869910E+00  7.59869910E+00 -1.51973982E+01  7.59869910E+00  7.59869910E+00
 -1.51973982E+01  7.59869910E+00  7.59869910E+00 -1.51973982E+01  7.59869910E+00
  7.59869910E+00 -1.51973982E+01  7.59869910E+00  7.59869910E+00 -1.51973982E+01
  7.59869910E+00  7.59869910E+00 -1.51973982E+01  7.59869910E+00  7.59869910E+00
 -1.51973982E+01  7.59869910E+00  7.59869910E+00 -1.51973982E+01  7.59869910E+00
  7.59869910E+00 -1.51973982E+01  7.59869910E+00  7.59869910E+00 -1.51973982E+01
  7.59869910E+00  7.59869910E+00 -1.51973982E+01  7.59869910E+00  7.59869910E+00
 -1.51973982E+01  7.59869910E+00  7.59869910E+00 -1.51973982E+01  7.59869910E+00
  7.59869910E+00 -1.51973982E+01  7.59869910E+00  7.59869910E+00 -1.51973982E+01
  7.59869910E+00  7.59869910E+00 -1.51973982E+01  7.59869910E+00  7.59869910E+00
 -1.51973982E+01  7.59869910E+00  7.59869910E+00 -1.51973982E+01  7.59869910E+00
  7.59869910E+00 -1.51973982E+01  7.59869910E+00  7.59869910E+00 -1.51973982E+01
  7.59869910E+00  7.59869910E+00 -1.51973982E+01  7.59869910E+00  7.59869910E+00
 -1.51973982E+01  7.59869910E+00  7.59869910E+00 -1.51973982E+01  7.59869910E+00
  7.59869910E+00 -1.51973982E+01  7.59869910E+00  7.59869910E+00 -1.51973982E+01
  7.59869910E+00  7.59869910E+00 -1.51973982E+01  7.59869910E+00  7.59869910E+00
 -1.51973982E+01  7.59869910E+00  7.59869910E+00 -1.51973982E+01  7.59869910E+00
  7.59869910E+00 -1.51973982E+01  7.59869910E+00  7.59869910E+00 -1.51973982E+01
  7.59869910E+00  7.59869910E+00 -1.51973982E+01  7.59869910E+00  7.59869910E+00
 -1.51973982E+01  7.59869910E+00  7.59869910E+00 -1.51973982E+01  7.59869910E+00
  7.59869910E+00 -1.51973982E+01  7.59869910E+00  7.59869910E+00 -1.51973982E+01
  7.59869910E+00  7.59869910E+00 -1.51973982E+01  7.59869910E+00  7.59869910E+00
 -1.51973982E+01  7.59869910E+00  7.59869910E+00 -1.51973982E+01  7.59869910E+00
  7.59869910E+00 -1.51973982E+01  7.59869910E+00  7.59869910E+00 -1.51973982E+01
  7.59869910E+00  7.59869910E+00 -1.51973982E+01  7.59869910E+00  7.59869910E+00
 -1.51973982E+01  7.59869910E+00  7.59869910E+00 -1.51973982E+01  7.59869910E+00
  7.59869910E+00 -1.51973982E+01  7.59869910E+00  7.59869910E+00 -1.51973982E+01
  7.59869910E+00  7.59869910E+00 -1.51973982E+01  7.59869910E+00  7.59869910E+00
 -1.51973982E+01  7.59869910E+00  7.59869910E+00 -1.51973982E+01  7.59869910E+00
  7.59869910E+00 -1.51973982E+01  7.59869910E+00  7.59869910E+00 -1.51973982E+01
  7.59869910E+00  7.59869910E+00 -1.51973982E+01  7.59869910E+00  7.59869910E+00
 -1.51973982E+01  7.59869910E+00  7.59869910E+00 -1.51973982E+01  7.59869910E+00
  7.59869910E+00 -1.51973982E+01  7.59869910E+00  7.59869910E+00 -1.51973982E+01
  7.59869910E+00  7.59869910E+00 -1.51973982E+01  7.59869910E+00  7.59869910E+00
 -1.51973982E+01  7.59869910E+00  7.59869910E+00 -1.51973982E+01  7.59869910E+00
  7.59869910E+00 -1.51973982E+01  7.59869910E+00  7.59869910E+00 -1.51973982E+01
  7.59869910E+00  7.59869910E+00 -1.51973982E+01  7.59869910E+00  7.59869910E+00
 -1.51973982E+01  7.59869910E+00  7.59869910E+00 -1.51973982E+01  7.59869910E+00
  7.59869910E+00 -1.51973982E+01  7.59869910E+00  7.59869910E+00 -1.51973982E+01
  7.59869910E+00  7.59869910E+00 -1.51973982E+01  7.59869910E+00  7.59869910E+00
 -1.51973982E+01  7.59869910E+00  7.59869910E+00 -1.51973982E+01  7.59869910E+00
  7.59869910E+00 -1.51973982E+01  7.59869910E+00  7.59869910E+00 -1.51973982E+01
  7.59869910E+00  7.59869910E+00 -1.51973982E+01  7.59869910E+00  7.59869910E+00
 -1.51973982E+01  7.59869910E+00  7.59869910E+00 -1.51973982E+01  7.59869910E+00
  7.59869910E+00 -1.51973982E+01  7.59869910E+00  7.59869910E+00 -1.51973982E+01
  7.59869910E+00  7.59869910E+00 -1.51973982E+01  7.59869910E+00  7.59869910E+00
 -1.51973982E+01  7.59869910E+00  7.59869910E+00 -1.51973982E+01  7.59869910E+00
  7.59869910E+00 -1.51973982E+01  7.59869910E+00  7.59869910E+00 -1.51973982E+01
  7.59869910E+00  7.59869910E+00 -1.51973982E+01  7.59869910E+00  7.59869910E+00
 -1.51973982E+01  7.59869910E+00  7.59869910E+00 -1.51973982E+01  7.59869910E+00
  7.59869910E+00 -1.51973982E+01  7.59869910E+00  7.59869910E+00 -1.51973982E+01
  7.59869910E+00  7.59869910E+00 -1.51973982E+01  7.59869910E+00  7.59869910E+00
 -1.51973982E+01  7.59869910E+00  7.59869910E+00 -1.51973982E+01  7.59869910E+00
  7.59869910E+00 -1.51973982E+01  7.59869910E+00  7.59869910E+00 -1.51973982E+01
  7.59869910E+00  7.59869910E+00 -1.51973982E+01  7.59869910E+00  7.59869910E+00
 -1.51973982E+01  7.59869910E+00  7.59869910E+00 -1.51973982E+01  7.59869910E+00
  7.59869910E+00 -1.51973982E+01  7.59869910E+00  7.59869910E+00 -1.51973982E+01
  7.59869910E+00  7.59869910E+00 -1.51973982E+01  7.59869910E+00  7.59869910E+00
 -1.51973982E+01  7.59869910E+00  7.59869910E+00 -1.51973982E+01  7.59869910E+00
  7.59869910E+00 -1.51973982E+01  7.59869910E+00  7.59869910E+00 -1.51973982E+01
  7.59869910E+00  7.59869910E+00 -1.51973982E+01  7.59869910E+00  7.59869910E+00
 -1.51973982E+01  7.59869910E+00  7.59869910E+00 -1.51973982E+01  7.59869910E+00
  7.59869910E+00 -1.51973982E+01  7.59869910E+00  7.59869910E+00 -1.51973982E+01
  7.59869910E+00  7.59869910E+00 -1.51973982E+01  7.59869910E+00  7.59869910E+00
 -1.51973982E+01  7.59869910E+00  7.59869910E+00 -1.51973982E+01  7.59869910E+00
  7.59869910E+00 -1.51973982E+01  7.59869910E+00  7.59869910E+00 -1.51973982E+01
  7.59869910E+00  7.59869910E+00 -1.51973982E+01  7.59869910E+00  7.59869910E+00
 -1.51973982E+01  7.59869910E+00  7.59869910E+00 -1.51973982E+01  7.59869910E+00
  7.59869910E+00 -1.51973982E+01  7.59869910E+00  7.59869910E+00 -1.51973982E+01
  7.59869910E+00  7.59869910E+00 -1.51973982E+01  7.59869910E+00  7.59869910E+00
 -1.51973982E+01  7.59869910E+00  7.59869910E+00 -1.51973982E+01  7.59869910E+00
  7.59869910E+00 -1.51973982E+01  7.59869910E+00  7.59869910E+00 -1.51973982E+01
  7.59869910E+00  7.59869910E+00 -1.51973982E+01  7.59869910E+00  7.59869910E+00
 -1.51973982E+01  7.59869910E+00  7.59869910E+00 -1.51973982E+01  7.59869910E+00
  7.59869910E+00 -1.51973982E+01  7.59869910E+00  7.59869910E+00 -1.51973982E+01
  7.59869910E+00  7.59869910E+00 -1.51973982E+01  7.59869910E+00  7.59869910E+00
 -1.51973982E+01  7.59869910E+00  7.59869910E+00 -1.51973982E+01  7.59869910E+00
  7.59869910E+00 -1.51973982E+01  7.59869910E+00  7.59869910E+00 -1.51973982E+01
  7.59869910E+00  7.59869910E+00 -1.51973982E+01  7.59869910E+00  7.59869910E+00
 -1.51973982E+01  7.59869910E+00  7.59869910E+00 -1.51973982E+01  7.59869910E+00
  7.59869910E+00 -1.51973982E+01  7.59869910E+00  7.59869910E+00 -1.51973982E+01
  7.59869910E+00  7.59869910E+00 -1.51973982E+01  7.59869910E+00  7.59869910E+00
 -1.51973982E+01  7.59869910E+00  7.59869910E+00 -1.51973982E+01  7.59869910E+00
  7.59869910E+00 -1.51973982E+01  7.59869910E+00  7.59869910E+00 -1.51973982E+01
  7.59869910E+00  7.59869910E+00 -1.51973982E+01  7.59869910E+00  7.59869910E+00
 -1.51973982E+01  7.59869910E+00  7.59869910E+00 -1.51973982E+01  7.59869910E+00
  7.59869910E+00 -1.51973982E+01  7.59869910E+00  7.59869910E+00 -1.51973982E+01
  7.59869910E+00  7.59869910E+00 -1.51973982E+01  7.59869910E+00  7.59869910E+00
 -1.51973982E+01  7.59869910E+00  7.59869910E+00 -1.51973982E+01  7.59869910E+00
  7.59869910E+00 -1.51973982E+01  7.59869910E+00  7.59869910E+00 -1.51973982E+01
  7.59869910E+00  7.59869910E+00 -1.51973982E+01  7.59869910E+00  7.59869910E+00
 -1.51973982E+01  7.59869910E+00  7.59869910E+00 -1.51973982E+01  7.59869910E+00
  7.59869910E+00 -1.51973982E+01  7.59869910E+00  7.59869910E+00 -1.51973982E+01
  7.59869910E+00  7.59869910E+00 -1.51973982E+01  7.59869910E+00  7.59869910E+00
 -1.51973982E+01  7.59869910E+00  7.59869910E+00 -1.51973982E+01  7.59869910E+00
  7.59869910E+00 -1.51973982E+01  7.59869910E+00  7.59869910E+00 -1.51973982E+01
  7.59869910E+00  7.59869910E+00 -1.51973982E+01  7.59869910E+00  7.59869910E+00
 -1.51973982E+01  7.59869910E+00  7.59869910E+00 -1.51973982E+01  7.59869910E+00
  7.59869910E+00 -1.51973982E+01  7.59869910E+00  7.59869910E+00 -1.51973982E+01
  7.59869910E+00  7.59869910E+00 -1.51973982E+01  7.59869910E+00  7.59869910E+00
 -1.51973982E+01  7.59869910E+00  7.59869910E+00 -1.51973982E+01  7.59869910E+00
  7.59869910E+00 -1.51973982E+01  7.59869910E+00  7.59869910E+00 -1.51973982E+01
  7.59869910E+00  7.59869910E+00 -1.51973982E+01  7.59869910E+00  7.59869910E+00
 -1.51973982E+01  7.59869910E+00  7.59869910E+00 -1.51973982E+01  7.59869910E+00
  7.59869910E+00 -1.51973982E+01  7.59869910E+00  7.59869910E+00 -1.51973982E+01
  7.59869910E+00  7.59869910E+00 -1.51973982E+01  7.59869910E+00  7.59869910E+00
 -1.51973982E+01  7.59869910E+00  7.59869910E+00 -1.51973982E+01  7.59869910E+00
  7.59869910E+00 -1.51973982E+01  7.59869910E+00  7.59869910E+00 -1.51973982E+01
  7.59869910E+00  7.59869910E+00 -1.51973982E+01  7.59869910E+00  7.59869910E+00
 -1.51973982E+01  7.59869910E+00  7.59869910E+00 -1.51973982E+01  7.59869910E+00
  7.59869910E+00 -1.51973982E+01  7.59869910E+00  7.59869910E+00 -1.51973982E+01
  7.59869910E+00  7.59869910E+00 -1.51973982E+01  7.59869910E+00  7.59869910E+00
 -1.51973982E+01  7.59869910E+00  7.59869910E+00 -1.51973982E+01  7.59869910E+00
  7.59869910E+00 -1.51973982E+01  7.59869910E+00  7.59869910E+00 -1.51973982E+01
  7.59869910E+00  7.59869910E+00 -1.51973982E+01  7.59869910E+00  7.59869910E+00
 -1.51973982E+01  7.59869910E+00  7.59869910E+00 -1.51973982E+01  7.59869910E+00
  7.59869910E+00 -1.51973982E+01  7.59869910E+00  7.59869910E+00 -1.51973982E+01
  7.59869910E+00  7.59869910E+00 -1.51973982E+01  7.59869910E+00  7.59869910E+00
 -1.51973982E+01  7.59869910E+00  7.59869910E+00 -1.51973982E+01  7.59869910E+00
  7.59869910E+00 -1.51973982E+01  7.59869910E+00  7.59869910E+00 -1.51973982E+01
  7.59869910E+00  7.59869910E+00 -1.51973982E+01  7.59869910E+00  7.59869910E+00
 -1.51973982E+01  7.59869910E+00  7.59869910E+00 -1.51973982E+01  7.59869910E+00
  7.59869910E+00 -1.51973982E+01  7.59869910E+00  7.59869910E+00 -1.51973982E+01
  7.59869910E+00  7.59869910E+00 -1.51973982E+01  7.59869910E+00  7.59869910E+00
 -1.51973982E+01  7.59869910E+00  7.59869910E+00 -1.51973982E+01  7.59869910E+00
  7.59869910E+00 -1.51973982E+01  7.59869910E+00  7.59869910E+00 -1.51973982E+01
  7.59869910E+00  7.59869910E+00 -1.51973982E+01  7.59869910E+00  7.59869910E+00
 -1.51973982E+01  7.59869910E+00  7.59869910E+00 -1.51973982E+01  7.59869910E+00
  7.59869910E+00 -1.51973982E+01  7.59869910E+00  7.59869910E+00 -1.51973982E+01
  7.59869910E+00  7.59869910E+00 -1.51973982E+01  7.59869910E+00  7.59869910E+00
 -1.51973982E+01  7.59869910E+00  7.59869910E+00 -1.51973982E+01  7.59869910E+00
  7.59869910E+00 -1.51973982E+01  7.59869910E+00  7.59869910E+00 -1.51973982E+01
  7.59869910E+00  7.59869910E+00 -1.51973982E+01  7.59869910E+00  7.59869910E+00
 -1.51973982E+01  7.59869910E+00  7.59869910E+00 -1.51973982E+01  7.59869910E+00
  7.59869910E+00 -1.51973982E+01  7.59869910E+00  7.59869910E+00 -1.51973982E+01
  7.59869910E+00  7.59869910E+00 -1.51973982E+01  7.59869910E+00  7.59869910E+00
 -1.51973982E+01  7.59869910E+00  7.59869910E+00 -1.51973982E+01  7.59869910E+00
  7.59869910E+00 -1.51973982E+01  7.59869910E+00  7.59869910E+00 -1.51973982E+01
  7.59869910E+00  7.59869910E+00 -1.51973982E+01  7.59869910E+00  7.59869910E+00
 -1.51973982E+01  7.59869910E+00  7.59869910E+00 -1.51973982E+01  7.59869910E+00
  7.59869910E+00 -1.51973982E+01  7.59869910E+00  7.59869910E+00 -1.51973982E+01
  7.59869910E+00  7.59869910E+00 -1.51973982E+01  7.59869910E+00  7.59869910E+00
 -1.51973982E+01  7.59869910E+00  7.59869910E+00 -1.51973982E+01  7.59869910E+00
  7.59869910E+00 -1.51973982E+01  7.59869910E+00  7.59869910E+00 -1.51973982E+01
  7.59869910E+00  7.59869910E+00 -1.51973982E+01  7.59869910E+00  7.59869910E+00
 -1.51973982E+01  7.59869910E+00  7.59869910E+00 -1.51973982E+01  7.59869910E+00
  7.59869910E+00 -1.51973982E+01  7.59869910E+00  7.59869910E+00 -1.51973982E+01
  7.59869910E+00  7.59869910E+00 -1.51973982E+01  7.59869910E+00  7.59869910E+00
 -1.51973982E+01  7.59869910E+00  7.59869910E+00 -1.51973982E+01  7.59869910E+00
  7.59869910E+00 -1.51973982E+01  7.59869910E+00  7.59869910E+00 -1.51973982E+01
  7.59869910E+00  7.59869910E+00 -1.51973982E+01  7.59869910E+00  7.59869910E+00
 -1.51973982E+01  7.59869910E+00  7.59869910E+00 -1.51973982E+01  7.59869910E+00
  7.59869910E+00 -1.51973982E+01  7.59869910E+00  7.59869910E+00 -1.51973982E+01
  7.59869910E+00  7.59869910E+00 -1.51973982E+01  7.59869910E+00  7.59869910E+00
 -1.51973982E+01  7.59869910E+00  7.59869910E+00 -1.51973982E+01  7.59869910E+00
  7.59869910E+00 -1.51973982E+01  7.59869910E+00  7.59869910E+00 -1.51973982E+01
  7.59869910E+00  7.59869910E+00 -1.51973982E+01  7.59869910E+00  7.59869910E+00
 -1.51973982E+01  7.59869910E+00  7.59869910E+00 -1.51973982E+01  7.59869910E+00
  7.59869910E+00 -1.51973982E+01  7.59869910E+00  7.59869910E+00 -1.51973982E+01
  7.59869910E+00  7.59869910E+00 -1.51973982E+01  7.59869910E+00  7.59869910E+00
 -1.51973982E+01  7.59869910E+00  7.59869910E+00 -1.51973982E+01  7.59869910E+00
  7.59869910E+00 -1.51973982E+01  7.59869910E+00  7.59869910E+00 -1.51973982E+01
  7.59869910E+00  7.59869910E+00 -1.51973982E+01  7.59869910E+00  7.59869910E+00
 -1.51973982E+01  7.59869910E+00  7.59869910E+00 -1.51973982E+01  7.59869910E+00
  7.59869910E+00 -1.51973982E+01  7.59869910E+00  7.59869910E+00 -1.51973982E+01
  7.59869910E+00  7.59869910E+00 -1.51973982E+01  7.59869910E+00  7.59869910E+00
 -1.51973982E+01  7.59869910E+00  7.59869910E+00 -1.51973982E+01  7.59869910E+00
  7.59869910E+00 -1.51973982E+01  7.59869910E+00  7.59869910E+00 -1.51973982E+01
  7.59869910E+00  7.59869910E+00 -1.51973982E+01  7.59869910E+00  7.59869910E+00
 -1.51973982E+01  7.59869910E+00  7.59869910E+00 -1.51973982E+01  7.59869910E+00
  7.59869910E+00 -1.51973982E+01  7.59869910E+00  7.59869910E+00 -1.51973982E+01
  7.59869910E+00  7.59869910E+00 -1.51973982E+01  7.59869910E+00  7.59869910E+00
 -1.51973982E+01  7.59869910E+00  7.59869910E+00 -1.51973982E+01  7.59869910E+00
  7.59869910E+00 -1.51973982E+01  7.59869910E+00  7.59869910E+00 -1.51973982E+01
  7.59869910E+00  7.59869910E+00 -1.51973982E+01  7.59869910E+00  7.59869910E+00
 -1.51973982E+01  7.59869910E+00  7.59869910E+00 -1.51973982E+01  7.59869910E+00
  7.59869910E+00 -1.51973982E+01  7.59869910E+00  7.59869910E+00 -1.51973982E+01
  7.59869910E+00  7.59869910E+00 -1.51973982E+01  7.59869910E+00  7.59869910E+00
 -1.51973982E+01  7.59869910E+00  7.59869910E+00 -1.51973982E+01  7.59869910E+00
  7.59869910E+00 -1.51973982E+01  7.59869910E+00  7.59869910E+00 -1.51973982E+01
  7.59869910E+00  7.59869910E+00 -1.51973982E+01  7.59869910E+00  7.59869910E+00
 -1.51973982E+01  7.59869910E+00  7.59869910E+00 -1.51973982E+01  7.59869910E+00
  7.59869910E+00 -1.51973982E+01  7.59869910E+00  7.59869910E+00 -1.51973982E+01
  7.59869910E+00  7.59869910E+00 -1.51973982E+01  7.59869910E+00  7.59869910E+00
 -1.51973982E+01  7.59869910E+00  7.59869910E+00 -1.51973982E+01  7.59869910E+00
  7.59869910E+00 -1.51973982E+01  7.59869910E+00  7.59869910E+00 -1.51973982E+01
  7.59869910E+00  7.59869910E+00 -1.51973982E+01  7.59869910E+00  7.59869910E+00
 -1.51973982E+01  7.59869910E+00  7.59869910E+00 -1.51973982E+01  7.59869910E+00
  7.59869910E+00 -1.51973982E+01  7.59869910E+00  7.59869910E+00 -1.51973982E+01
  7.59869910E+00  7.59869910E+00 -1.51973982E+01  7.59869910E+00  7.59869910E+00
 -1.51973982E+01  7.59869910E+00  7.59869910E+00 -1.51973982E+01  7.59869910E+00
  7.59869910E+00 -1.51973982E+01  7.59869910E+00  7.59869910E+00 -1.51973982E+01
  7.59869910E+00  7.59869910E+00 -1.51973982E+01  7.59869910E+00  7.59869910E+00
 -1.51973982E+01  7.59869910E+00  7.59869910E+00 -1.51973982E+01  7.59869910E+00
  7.59869910E+00 -1.51973982E+01  7.59869910E+00  7.59869910E+00 -1.51973982E+01
  7.59869910E+00  7.59869910E+00 -1.51973982E+01  7.59869910E+00  7.59869910E+00
 -1.51973982E+01  7.59869910E+00  7.59869910E+00 -1.51973982E+01  7.59869910E+00
  7.59869910E+00 -1.51973982E+01  7.59869910E+00  7.59869910E+00 -1.51973982E+01
  7.59869910E+00  7.59869910E+00 -1.51973982E+01  7.59869910E+00  7.59869910E+00
 -1.51973982E+01  7.59869910E+00  7.59869910E+00 -1.51973982E+01  7.59869910E+00
  7.59869910E+00 -1.51973982E+01  7.59869910E+00  7.59869910E+00 -1.51973982E+01
  7.59869910E+00  7.59869910E+00 -1.51973982E+01  7.59869910E+00  7.59869910E+00
 -1.51973982E+01  7.59869910E+00  7.59869910E+00 -1.51973982E+01  7.59869910E+00
  7.59869910E+00 -1.51973982E+01  7.59869910E+00  7.59869910E+00 -1.51973982E+01
  7.59869910E+00  7.59869910E+00 -1.51973982E+01  7.59869910E+00  7.59869910E+00
 -1.51973982E+01  7.59869910E+00  7.59869910E+00 -1.51973982E+01  7.59869910E+00
  7.59869910E+00 -1.51973982E+01  7.59869910E+00  7.59869910E+00 -1.51973982E+01
  7.59869910E+00  7.59869910E+00 -1.51973982E+01  7.59869910E+00  7.59869910E+00
 -1.51973982E+01  7.59869910E+00  7.59869910E+00 -1.51973982E+01  7.59869910E+00
  7.59869910E+00 -1.51973982E+01  7.59869910E+00  7.59869910E+00 -1.51973982E+01
  7.59869910E+00  7.59869910E+00 -1.51973982E+01  7.59869910E+00  7.59869910E+00
 -1.51973982E+01  7.59869910E+00  7.59869910E+00 -1.51973982E+01  7.59869910E+00
  7.59869910E+00 -1.51973982E+01  7.59869910E+00  7.59869910E+00 -1.51973982E+01
  7.59869910E+00  7.59869910E+00 -1.51973982E+01  7.59869910E+00  7.59869910E+00
 -1.51973982E+01  7.59869910E+00  7.59869910E+00 -1.51973982E+01  7.59869910E+00
  7.59869910E+00 -1.51973982E+01  7.59869910E+00  7.59869910E+00 -1.51973982E+01
  7.59869910E+00  7.59869910E+00 -1.51973982E+01  7.59869910E+00  7.59869910E+00
 -1.51973982E+01  7.59869910E+00  7.59869910E+00 -1.51973982E+01  7.59869910E+00
  7.59869910E+00 -1.51973982E+01  7.59869910E+00  7.59869910E+00 -1.51973982E+01
  7.59869910E+00  7.59869910E+00 -1.51973982E+01  7.59869910E+00  7.59869910E+00
 -1.51973982E+01  7.59869910E+00  7.59869910E+00 -1.51973982E+01  7.59869910E+00
  7.59869910E+00 -1.51973982E+01  7.59869910E+00  7.59869910E+00 -1.51973982E+01
  7.59869910E+00  7.59869910E+00 -1.51973982E+01  7.59869910E+00  7.59869910E+00
 -1.51973982E+01  7.59869910E+00  7.59869910E+00 -1.51973982E+01  7.59869910E+00
  7.59869910E+00 -1.51973982E+01  7.59869910E+00  7.59869910E+00 -1.51973982E+01
  7.59869910E+00  7.59869910E+00 -1.51973982E+01  7.59869910E+00  7.59869910E+00
 -1.51973982E+01  7.59869910E+00  7.59869910E+00 -1.51973982E+01  7.59869910E+00
  7.59869910E+00 -1.51973982E+01  7.59869910E+00  7.59869910E+00 -1.51973982E+01
  7.59869910E+00  7.59869910E+00 -1.51973982E+01  7.59869910E+00  7.59869910E+00
 -1.51973982E+01  7.59869910E+00  7.59869910E+00 -1.51973982E+01  7.59869910E+00
  7.59869910E+00 -1.51973982E+01  7.59869910E+00  7.59869910E+00 -1.51973982E+01
  7.59869910E+00  7.59869910E+00 -1.51973982E+01  7.59869910E+00  7.59869910E+00
 -1.51973982E+01  7.59869910E+00  7.59869910E+00 -1.51973982E+01  7.59869910E+00
  7.59869910E+00 -1.51973982E+01  7.59869910E+00  7.59869910E+00 -1.51973982E+01
  7.59869910E+00  7.59869910E+00 -1.51973982E+01  7.59869910E+00  7.59869910E+00
 -1.51973982E+01  7.59869910E+00  7.59869910E+00 -1.51973982E+01  7.59869910E+00
  7.59869910E+00 -1.51973982E+01  7.59869910E+00  7.59869910E+00 -1.51973982E+01
  7.59869910E+00  7.59869910E+00 -1.51973982E+01  7.59869910E+00  7.59869910E+00
 -1.51973982E+01  7.59869910E+00  7.59869910E+00 -1.51973982E+01  7.59869910E+00
  7.59869910E+00 -1.51973982E+01  7.59869910E+00  7.59869910E+00 -1.51973982E+01
  7.59869910E+00  7.59869910E+00 -1.51973982E+01  7.59869910E+00  7.59869910E+00
 -1.51973982E+01  7.59869910E+00  7.59869910E+00 -1.51973982E+01  7.59869910E+00
  7.59869910E+00 -1.51973982E+01  7.59869910E+00  7.59869910E+00 -1.51973982E+01
  7.59869910E+00  7.59869910E+00 -1.51973982E+01  7.59869910E+00  7.59869910E+00
 -1.51973982E+01  7.59869910E+00  7.59869910E+00 -1.51973982E+01  7.59869910E+00
  7.59869910E+00 -1.51973982E+01  7.59869910E+00  7.59869910E+00 -1.51973982E+01
  7.59869910E+00  7.59869910E+00 -1.51973982E+01  7.59869910E+00  7.59869910E+00
 -1.51973982E+01  7.59869910E+00  7.59869910E+00 -1.51973982E+01  7.59869910E+00
  7.59869910E+00 -1.51973982E+01  7.59869910E+00  7.59869910E+00 -1.51973982E+01
  7.59869910E+00  7.59869910E+00 -1.51973982E+01  7.59869910E+00  7.59869910E+00
 -1.51973982E+01  7.59869910E+00  7.59869910E+00 -1.51973982E+01  7.59869910E+00
  7.59869910E+00 -1.51973982E+01  7.59869910E+00  7.59869910E+00 -1.51973982E+01
  7.59869910E+00  7.59869910E+00 -1.51973982E+01  7.59869910E+00  7.59869910E+00
 -1.51973982E+01  7.59869910E+00  7.59869910E+00 -1.51973982E+01  7.59869910E+00
  7.59869910E+00 -1.51973982E+01  7.59869910E+00  7.59869910E+00 -1.51973982E+01
  7.59869910E+00  7.59869910E+00 -1.51973982E+01  7.59869910E+00  7.59869910E+00
 -1.51973982E+01  7.59869910E+00  7.59869910E+00 -1.51973982E+01  7.59869910E+00
  7.59869910E+00 -1.51973982E+01  7.59869910E+00  7.59869910E+00 -1.51973982E+01
  7.59869910E+00  7.59869910E+00 -1.51973982E+01  7.59869910E+00  7.59869910E+00
 -1.51973982E+01  7.59869910E+00  7.59869910E+00 -1.51973982E+01  7.59869910E+00
  7.59869910E+00 -1.51973982E+01  7.59869910E+00  7.59869910E+00 -1.51973982E+01
  7.59869910E+00  7.59869910E+00 -1.51973982E+01  7.59869910E+00  7.59869910E+00
 -1.51973982E+01  7.59869910E+00  7.59869910E+00 -1.51973982E+01  7.59869910E+00
  7.59869910E+00 -1.51973982E+01  7.59869910E+00  7.59869910E+00 -1.51973982E+01
  7.59869910E+00  7.59869910E+00 -1.51973982E+01  7.59869910E+00  7.59869910E+00
 -1.51973982E+01  7.59869910E+00  7.59869910E+00 -1.51973982E+01  7.59869910E+00
  7.59869910E+00 -1.51973982E+01  7.59869910E+00  7.59869910E+00 -1.51973982E+01
  7.59869910E+00  7.59869910E+00 -1.51973982E+01  7.59869910E+00  7.59869910E+00
 -1.51973982E+01  7.59869910E+00  7.59869910E+00 -1.51973982E+01  7.59869910E+00
  7.59869910E+00 -1.51973982E+01  7.59869910E+00  7.59869910E+00 -1.51973982E+01
  7.59869910E+00  7.59869910E+00 -1.51973982E+01  7.59869910E+00  7.59869910E+00
 -1.51973982E+01  7.59869910E+00  7.59869910E+00 -1.51973982E+01  7.59869910E+00
  7.59869910E+00 -1.51973982E+01  7.59869910E+00  7.59869910E+00 -1.51973982E+01
  7.59869910E+00  7.59869910E+00 -1.51973982E+01  7.59869910E+00  7.59869910E+00
 -1.51973982E+01  7.59869910E+00  7.59869910E+00 -1.51973982E+01  7.59869910E+00
  7.59869910E+00 -1.51973982E+01  7.59869910E+00  7.59869910E+00 -1.51973982E+01
  7.59869910E+00  7.59869910E+00 -1.51973982E+01  7.59869910E+00  7.59869910E+00
 -1.51973982E+01  7.59869910E+00  7.59869910E+00 -1.51973982E+01  7.59869910E+00
  7.59869910E+00 -1.51973982E+01  7.59869910E+00  7.59869910E+00 -1.51973982E+01
  7.59869910E+00  7.59869910E+00 -1.51973982E+01  7.59869910E+00  7.59869910E+00
 -1.51973982E+01  7.59869910E+00  7.59869910E+00 -1.51973982E+01  7.59869910E+00
  7.59869910E+00 -1.51973982E+01  7.59869910E+00  7.59869910E+00 -1.51973982E+01
  7.59869910E+00  7.59869910E+00 -1.51973982E+01  7.59869910E+00  7.59869910E+00
 -1.51973982E+01  7.59869910E+00  7.59869910E+00 -1.51973982E+01  7.59869910E+00
  7.59869910E+00 -1.51973982E+01  7.59869910E+00  7.59869910E+00 -1.51973982E+01
  7.59869910E+00  7.59869910E+00 -1.51973982E+01  7.59869910E+00  7.59869910E+00
 -1.51973982E+01  7.59869910E+00  7.59869910E+00 -1.51973982E+01  7.59869910E+00
  7.59869910E+00 -1.51973982E+01  7.59869910E+00  7.59869910E+00 -1.51973982E+01
  7.59869910E+00  7.59869910E+00 -1.51973982E+01  7.59869910E+00  7.59869910E+00
 -1.51973982E+01  7.59869910E+00  7.59869910E+00 -1.51973982E+01  7.59869910E+00
  7.59869910E+00 -1.51973982E+01  7.59869910E+00  7.59869910E+00 -1.51973982E+01
  7.59869910E+00  7.59869910E+00 -1.51973982E+01  7.59869910E+00  7.59869910E+00
 -1.51973982E+01  7.59869910E+00  7.59869910E+00 -1.51973982E+01  7.59869910E+00
  7.59869910E+00 -1.51973982E+01  7.59869910E+00  7.59869910E+00 -1.51973982E+01
  7.59869910E+00  7.59869910E+00 -1.51973982E+01  7.59869910E+00  7.59869910E+00
 -1.51973982E+01  7.59869910E+00  7.59869910E+00 -1.51973982E+01  7.59869910E+00
  7.59869910E+00 -1.51973982E+01  7.59869910E+00  7.59869910E+00 -1.51973982E+01
  7.59869910E+00  7.59869910E+00 -1.51973982E+01  7.59869910E+00  7.59869910E+00
 -1.51973982E+01  7.59869910E+00  7.59869910E+00 -1.51973982E+01  7.59869910E+00
  7.59869910E+00 -1.51973982E+01  7.59869910E+00  7.59869910E+00 -1.51973982E+01
  7.59869910E+00  7.59869910E+00 -1.51973982E+01  7.59869910E+00  7.59869910E+00
 -1.51973982E+01  7.59869910E+00  7.59869910E+00 -1.51973982E+01  7.59869910E+00
  7.59869910E+00 -1.51973982E+01  7.59869910E+00  7.59869910E+00 -1.51973982E+01
  7.59869910E+00  7.59869910E+00 -1.51973982E+01  7.59869910E+00  7.59869910E+00
 -1.51973982E+01  7.59869910E+00  7.59869910E+00 -1.51973982E+01  7.59869910E+00
  7.59869910E+00 -1.51973982E+01  7.59869910E+00  7.59869910E+00 -1.51973982E+01
  7.59869910E+00  7.59869910E+00 -1.51973982E+01  7.59869910E+00  7.59869910E+00
 -1.51973982E+01  7.59869910E+00  7.59869910E+00 -1.51973982E+01  7.59869910E+00
  7.59869910E+00 -1.51973982E+01  7.59869910E+00  7.59869910E+00 -1.51973982E+01
  7.59869910E+00  7.59869910E+00 -1.51973982E+01  7.59869910E+00  7.59869910E+00
 -1.51973982E+01  7.59869910E+00  7.59869910E+00 -1.51973982E+01  7.59869910E+00
  7.59869910E+00 -1.51973982E+01  7.59869910E+00  7.59869910E+00 -1.51973982E+01
  7.59869910E+00  7.59869910E+00 -1.51973982E+01  7.59869910E+00  7.59869910E+00
 -1.51973982E+01  7.59869910E+00  7.59869910E+00 -1.51973982E+01  7.59869910E+00
  7.59869910E+00 -1.51973982E+01  7.59869910E+00  7.59869910E+00 -1.51973982E+01
  7.59869910E+00  7.59869910E+00 -1.51973982E+01  7.59869910E+00  7.59869910E+00
 -1.51973982E+01  7.59869910E+00  7.59869910E+00 -1.51973982E+01  7.59869910E+00
  7.59869910E+00 -1.51973982E+01  7.59869910E+00  7.59869910E+00 -1.51973982E+01
  7.59869910E+00  7.59869910E+00 -1.51973982E+01  7.59869910E+00  7.59869910E+00
 -1.51973982E+01  7.59869910E+00  7.59869910E+00 -1.51973982E+01  7.59869910E+00
  7.59869910E+00 -1.51973982E+01  7.59869910E+00  7.59869910E+00 -1.51973982E+01
  7.59869910E+00  7.59869910E+00 -1.51973982E+01  7.59869910E+00  7.59869910E+00
 -1.51973982E+01  7.59869910E+00  7.59869910E+00 -1.51973982E+01  7.59869910E+00
  7.59869910E+00 -1.51973982E+01  7.59869910E+00  7.59869910E+00 -1.51973982E+01
  7.59869910E+00  7.59869910E+00 -1.51973982E+01  7.59869910E+00  7.59869910E+00
 -1.51973982E+01  7.59869910E+00  7.59869910E+00 -1.51973982E+01  7.59869910E+00
  7.59869910E+00 -1.51973982E+01  7.59869910E+00  7.59869910E+00 -1.51973982E+01
  7.59869910E+00  7.59869910E+00 -1.51973982E+01  7.59869910E+00  7.59869910E+00
 -1.51973982E+01  7.59869910E+00  7.59869910E+00 -1.51973982E+01  7.59869910E+00
  7.59869910E+00 -1.51973982E+01  7.59869910E+00  7.59869910E+00 -1.51973982E+01
  7.59869910E+00  7.59869910E+00 -1.51973982E+01  7.59869910E+00  7.59869910E+00
 -1.51973982E+01  7.59869910E+00  7.59869910E+00 -1.51973982E+01  7.59869910E+00
  7.59869910E+00 -1.51973982E+01  7.59869910E+00  7.59869910E+00 -1.51973982E+01
  7.59869910E+00  7.59869910E+00 -1.51973982E+01  7.59869910E+00  7.59869910E+00
 -1.51973982E+01  7.59869910E+00  7.59869910E+00 -1.51973982E+01  7.59869910E+00
  7.59869910E+00 -1.51973982E+01  7.59869910E+00  7.59869910E+00 -1.51973982E+01
  7.59869910E+00  7.59869910E+00 -1.51973982E+01  7.59869910E+00  7.59869910E+00
 -1.51973982E+01  7.59869910E+00  7.59869910E+00 -1.51973982E+01  7.59869910E+00
  7.59869910E+00 -1.51973982E+01  7.59869910E+00  7.59869910E+00 -1.51973982E+01
  7.59869910E+00  7.59869910E+00 -1.51973982E+01  7.59869910E+00  7.59869910E+00
 -1.51973982E+01  7.59869910E+00  7.59869910E+00 -1.51973982E+01  7.59869910E+00
  7.59869910E+00 -1.51973982E+01  7.59869910E+00  7.59869910E+00 -1.51973982E+01
  7.59869910E+00  7.59869910E+00 -1.51973982E+01  7.59869910E+00  7.59869910E+00
 -1.51973982E+01  7.59869910E+00  7.59869910E+00 -1.51973982E+01  7.59869910E+00
  7.59869910E+00 -1.51973982E+01  7.59869910E+00  7.59869910E+00 -1.51973982E+01
  7.59869910E+00  7.59869910E+00 -1.51973982E+01  7.59869910E+00  7.59869910E+00
 -1.51973982E+01  7.59869910E+00  7.59869910E+00 -1.51973982E+01  7.59869910E+00
  7.59869910E+00 -1.51973982E+01  7.59869910E+00  7.59869910E+00 -1.51973982E+01
  7.59869910E+00  7.59869910E+00 -1.51973982E+01  7.59869910E+00  7.59869910E+00
 -1.51973982E+01  7.59869910E+00  7.59869910E+00 -1.51973982E+01  7.59869910E+00
  7.59869910E+00 -1.51973982E+01  7.59869910E+00  7.59869910E+00 -1.51973982E+01
  7.59869910E+00  7.59869910E+00 -1.51973982E+01  7.59869910E+00  7.59869910E+00
 -1.51973982E+01  7.59869910E+00  7.59869910E+00 -1.51973982E+01  7.59869910E+00
  7.59869910E+00 -1.51973982E+01  7.59869910E+00  7.59869910E+00 -1.51973982E+01
  7.59869910E+00  7.59869910E+00 -1.51973982E+01  7.59869910E+00  7.59869910E+00
 -1.51973982E+01  7.59869910E+00  7.59869910E+00 -1.51973982E+01  7.59869910E+00
  7.59869910E+00 -1.51973982E+01  7.59869910E+00  7.59869910E+00 -1.51973982E+01
  7.59869910E+00  7.59869910E+00 -1.51973982E+01  7.59869910E+00  7.59869910E+00
 -1.51973982E+01  7.59869910E+00  7.59869910E+00 -1.51973982E+01  7.59869910E+00
  7.59869910E+00 -1.51973982E+01  7.59869910E+00  7.59869910E+00 -1.51973982E+01
  7.59869910E+00  7.59869910E+00 -1.51973982E+01  7.59869910E+00  7.59869910E+00
 -1.51973982E+01  7.59869910E+00  7.59869910E+00 -1.51973982E+01  7.59869910E+00
  7.59869910E+00 -1.51973982E+01  7.59869910E+00  7.59869910E+00 -1.51973982E+01
  7.59869910E+00  7.59869910E+00 -1.51973982E+01  7.59869910E+00  7.59869910E+00
 -1.51973982E+01  7.59869910E+00  7.59869910E+00 -1.51973982E+01  7.59869910E+00
  7.59869910E+00 -1.51973982E+01  7.59869910E+00  7.59869910E+00 -1.51973982E+01
  7.59869910E+00  7.59869910E+00 -1.51973982E+01  7.59869910E+00  7.59869910E+00
 -1.51973982E+01  7.59869910E+00  7.59869910E+00 -1.51973982E+01  7.59869910E+00
  7.59869910E+00 -1.51973982E+01  7.59869910E+00  7.59869910E+00 -1.51973982E+01
  7.59869910E+00  7.59869910E+00 -1.51973982E+01  7.59869910E+00  7.59869910E+00
 -1.51973982E+01  7.59869910E+00  7.59869910E+00 -1.51973982E+01  7.59869910E+00
  7.59869910E+00 -1.51973982E+01  7.59869910E+00  7.59869910E+00 -1.51973982E+01
  7.59869910E+00  7.59869910E+00 -1.51973982E+01  7.59869910E+00  7.59869910E+00
 -1.51973982E+01  7.59869910E+00  7.59869910E+00 -1.51973982E+01  7.59869910E+00
  7.59869910E+00 -1.51973982E+01  7.59869910E+00  7.59869910E+00 -1.51973982E+01
  7.59869910E+00  7.59869910E+00 -1.51973982E+01  7.59869910E+00  7.59869910E+00
 -1.51973982E+01  7.59869910E+00  7.59869910E+00 -1.51973982E+01  7.59869910E+00
  7.59869910E+00 -1.51973982E+01  7.59869910E+00  7.59869910E+00 -1.51973982E+01
  7.59869910E+00  7.59869910E+00 -1.51973982E+01  7.59869910E+00  7.59869910E+00
 -1.51973982E+01  7.59869910E+00  7.59869910E+00 -1.51973982E+01  7.59869910E+00
  7.59869910E+00 -1.51973982E+01  7.59869910E+00  7.59869910E+00 -1.51973982E+01
  7.59869910E+00  7.59869910E+00 -1.51973982E+01  7.59869910E+00  7.59869910E+00
 -1.51973982E+01  7.59869910E+00  7.59869910E+00 -1.51973982E+01  7.59869910E+00
  7.59869910E+00 -1.51973982E+01  7.59869910E+00  7.59869910E+00 -1.51973982E+01
  7.59869910E+00  7.59869910E+00 -1.51973982E+01  7.59869910E+00  7.59869910E+00
 -1.51973982E+01  7.59869910E+00  7.59869910E+00 -1.51973982E+01  7.59869910E+00
  7.59869910E+00 -1.51973982E+01  7.59869910E+00  7.59869910E+00 -1.51973982E+01
  7.59869910E+00  7.59869910E+00 -1.51973982E+01  7.59869910E+00  7.59869910E+00
 -1.51973982E+01  7.59869910E+00  7.59869910E+00 -1.51973982E+01  7.59869910E+00
  7.59869910E+00 -1.51973982E+01  7.59869910E+00  7.59869910E+00 -1.51973982E+01
  7.59869910E+00  7.59869910E+00 -1.51973982E+01  7.59869910E+00  7.59869910E+00
 -1.51973982E+01  7.59869910E+00  7.59869910E+00 -1.51973982E+01  7.59869910E+00
  7.59869910E+00 -1.51973982E+01  7.59869910E+00  7.59869910E+00 -1.51973982E+01
  7.59869910E+00  7.59869910E+00 -1.51973982E+01  7.59869910E+00  7.59869910E+00
 -1.51973982E+01  7.59869910E+00  7.59869910E+00 -1.51973982E+01  7.59869910E+00
  7.59869910E+00 -1.51973982E+01  7.59869910E+00  7.59869910E+00 -1.51973982E+01
  7.59869910E+00  7.59869910E+00 -1.51973982E+01  7.59869910E+00  7.59869910E+00
 -1.51973982E+01  7.59869910E+00  7.59869910E+00 -1.51973982E+01  7.59869910E+00
  7.59869910E+00 -1.51973982E+01  7.59869910E+00  7.59869910E+00 -1.51973982E+01
  7.59869910E+00  7.59869910E+00 -1.51973982E+01  7.59869910E+00  7.59869910E+00
 -1.51973982E+01  7.59869910E+00  7.59869910E+00 -1.51973982E+01  7.59869910E+00
  7.59869910E+00 -1.51973982E+01  7.59869910E+00  7.59869910E+00 -1.51973982E+01
  7.59869910E+00  7.59869910E+00 -1.51973982E+01  7.59869910E+00  7.59869910E+00
 -1.51973982E+01  7.59869910E+00  7.59869910E+00 -1.51973982E+01  7.59869910E+00
  7.59869910E+00 -1.51973982E+01  7.59869910E+00  7.59869910E+00 -1.51973982E+01
  7.59869910E+00  7.59869910E+00 -1.51973982E+01  7.59869910E+00  7.59869910E+00
 -1.51973982E+01  7.59869910E+00  7.59869910E+00 -1.51973982E+01  7.59869910E+00
  7.59869910E+00 -1.51973982E+01  7.59869910E+00  7.59869910E+00 -1.51973982E+01
  7.59869910E+00  7.59869910E+00 -1.51973982E+01  7.59869910E+00  7.59869910E+00
 -1.51973982E+01  7.59869910E+00  7.59869910E+00 -1.51973982E+01  7.59869910E+00
  7.59869910E+00 -1.51973982E+01  7.59869910E+00  7.59869910E+00 -1.51973982E+01
  7.59869910E+00  7.59869910E+00 -1.51973982E+01  7.59869910E+00  7.59869910E+00
 -1.51973982E+01  7.59869910E+00  7.59869910E+00 -1.51973982E+01  7.59869910E+00
  7.59869910E+00 -1.51973982E+01  7.59869910E+00  7.59869910E+00 -1.51973982E+01
  7.59869910E+00  7.59869910E+00 -1.51973982E+01  7.59869910E+00  7.59869910E+00
 -1.51973982E+01  7.59869910E+00  7.59869910E+00 -1.51973982E+01  7.59869910E+00
  7.59869910E+00 -1.51973982E+01  7.59869910E+00  7.59869910E+00 -1.51973982E+01
  7.59869910E+00  7.59869910E+00 -1.51973982E+01  7.59869910E+00  7.59869910E+00
 -1.51973982E+01  7.59869910E+00  7.59869910E+00 -1.51973982E+01  7.59869910E+00
  7.59869910E+00 -1.51973982E+01  7.59869910E+00  7.59869910E+00 -1.51973982E+01
  7.59869910E+00  7.59869910E+00 -1.51973982E+01  7.59869910E+00  7.59869910E+00
 -1.51973982E+01  7.59869910E+00  7.59869910E+00 -1.51973982E+01  7.59869910E+00
  7.59869910E+00 -1.51973982E+01  7.59869910E+00  7.59869910E+00 -1.51973982E+01
  7.59869910E+00  7.59869910E+00 -1.51973982E+01  7.59869910E+00  7.59869910E+00
 -1.51973982E+01  7.59869910E+00  7.59869910E+00 -1.51973982E+01  7.59869910E+00
  7.59869910E+00 -1.51973982E+01  7.59869910E+00  7.59869910E+00 -1.51973982E+01
  7.59869910E+00  7.59869910E+00 -1.51973982E+01  7.59869910E+00  7.59869910E+00
 -1.51973982E+01  7.59869910E+00  7.59869910E+00 -1.51973982E+01  7.59869910E+00
  7.59869910E+00 -1.51973982E+01  7.59869910E+00  7.59869910E+00 -1.51973982E+01
  7.59869910E+00  7.59869910E+00 -1.51973982E+01  7.59869910E+00  7.59869910E+00
 -1.51973982E+01  7.59869910E+00  7.59869910E+00 -1.51973982E+01  7.59869910E+00
  7.59869910E+00 -1.51973982E+01  7.59869910E+00  7.59869910E+00 -1.51973982E+01
  7.59869910E+00  7.59869910E+00 -1.51973982E+01  7.59869910E+00  7.59869910E+00
 -1.51973982E+01  7.59869910E+00  7.59869910E+00 -1.51973982E+01  7.59869910E+00
  7.59869910E+00 -1.51973982E+01  7.59869910E+00  7.59869910E+00 -1.51973982E+01
  7.59869910E+00  7.59869910E+00 -1.51973982E+01  7.59869910E+00  7.59869910E+00
 -1.51973982E+01  7.59869910E+00  7.59869910E+00 -1.51973982E+01  7.59869910E+00
  7.59869910E+00 -1.51973982E+01  7.59869910E+00  7.59869910E+00 -1.51973982E+01
  7.59869910E+00  7.59869910E+00 -1.51973982E+01  7.59869910E+00  7.59869910E+00
 -1.51973982E+01  7.59869910E+00  7.59869910E+00 -1.51973982E+01  7.59869910E+00
  7.59869910E+00 -1.51973982E+01  7.59869910E+00  7.59869910E+00 -1.51973982E+01
  7.59869910E+00  7.59869910E+00 -1.51973982E+01  7.59869910E+00  7.59869910E+00
 -1.51973982E+01  7.59869910E+00  7.59869910E+00 -1.51973982E+01  7.59869910E+00
  7.59869910E+00 -1.51973982E+01  7.59869910E+00  7.59869910E+00 -1.51973982E+01
  7.59869910E+00  7.59869910E+00 -1.51973982E+01  7.59869910E+00  7.59869910E+00
 -1.51973982E+01  7.59869910E+00  7.59869910E+00 -1.51973982E+01  7.59869910E+00
  7.59869910E+00 -1.51973982E+01  7.59869910E+00  7.59869910E+00 -1.51973982E+01
  7.59869910E+00  7.59869910E+00 -1.51973982E+01  7.59869910E+00  7.59869910E+00
 -1.51973982E+01  7.59869910E+00  7.59869910E+00 -1.51973982E+01  7.59869910E+00
  7.59869910E+00 -1.51973982E+01  7.59869910E+00  7.59869910E+00 -1.51973982E+01
  7.59869910E+00  7.59869910E+00 -1.51973982E+01  7.59869910E+00  7.59869910E+00
 -1.51973982E+01  7.59869910E+00  7.59869910E+00 -1.51973982E+01  7.59869910E+00
  7.59869910E+00 -1.51973982E+01  7.59869910E+00  7.59869910E+00 -1.51973982E+01
  7.59869910E+00  7.59869910E+00 -1.51973982E+01  7.59869910E+00  7.59869910E+00
 -1.51973982E+01  7.59869910E+00  7.59869910E+00 -1.51973982E+01  7.59869910E+00
  7.59869910E+00 -1.51973982E+01  7.59869910E+00  7.59869910E+00 -1.51973982E+01
  7.59869910E+00  7.59869910E+00 -1.51973982E+01  7.59869910E+00  7.59869910E+00
 -1.51973982E+01  7.59869910E+00  7.59869910E+00 -1.51973982E+01  7.59869910E+00
  7.59869910E+00 -1.51973982E+01  7.59869910E+00  7.59869910E+00 -1.51973982E+01
  7.59869910E+00  7.59869910E+00 -1.51973982E+01  7.59869910E+00  7.59869910E+00
 -1.51973982E+01  7.59869910E+00  7.59869910E+00 -1.51973982E+01  7.59869910E+00
  7.59869910E+00 -1.51973982E+01  7.59869910E+00  7.59869910E+00 -1.51973982E+01
  7.59869910E+00  7.59869910E+00 -1.51973982E+01  7.59869910E+00  7.59869910E+00
 -1.51973982E+01  7.59869910E+00  7.59869910E+00 -1.51973982E+01  7.59869910E+00
  7.59869910E+00 -1.51973982E+01  7.59869910E+00  7.59869910E+00 -1.51973982E+01
  7.59869910E+00  7.59869910E+00 -1.51973982E+01  7.59869910E+00  7.59869910E+00
 -1.51973982E+01  7.59869910E+00  7.59869910E+00 -1.51973982E+01  7.59869910E+00
  7.59869910E+00 -1.51973982E+01  7.59869910E+00  7.59869910E+00 -1.51973982E+01
  7.59869910E+00  7.59869910E+00 -1.51973982E+01  7.59869910E+00  7.59869910E+00
 -1.51973982E+01  7.59869910E+00  7.59869910E+00 -1.51973982E+01  7.59869910E+00
  7.59869910E+00 -1.51973982E+01  7.59869910E+00  7.59869910E+00 -1.51973982E+01
  7.59869910E+00  7.59869910E+00 -1.51973982E+01  7.59869910E+00  7.59869910E+00
 -1.51973982E+01  7.59869910E+00  7.59869910E+00 -1.51973982E+01  7.59869910E+00
  7.59869910E+00 -1.51973982E+01  7.59869910E+00  7.59869910E+00 -1.51973982E+01
  7.59869910E+00  7.59869910E+00 -1.51973982E+01  7.59869910E+00  7.59869910E+00
 -1.51973982E+01  7.59869910E+00  7.59869910E+00 -1.51973982E+01  7.59869910E+00
  7.59869910E+00 -1.51973982E+01  7.59869910E+00  7.59869910E+00 -1.51973982E+01
  7.59869910E+00  7.59869910E+00 -1.51973982E+01  7.59869910E+00  7.59869910E+00
 -1.51973982E+01  7.59869910E+00  7.59869910E+00 -1.51973982E+01  7.59869910E+00
  7.59869910E+00 -1.51973982E+01  7.59869910E+00  7.59869910E+00 -1.51973982E+01
  7.59869910E+00  7.59869910E+00 -1.51973982E+01  7.59869910E+00  7.59869910E+00
 -1.51973982E+01  7.59869910E+00  7.59869910E+00 -1.51973982E+01  7.59869910E+00
  7.59869910E+00 -1.51973982E+01  7.59869910E+00  7.59869910E+00 -1.51973982E+01
  7.59869910E+00  7.59869910E+00 -1.51973982E+01  7.59869910E+00  7.59869910E+00
 -1.51973982E+01  7.59869910E+00  7.59869910E+00 -1.51973982E+01  7.59869910E+00
  7.59869910E+00 -1.51973982E+01  7.59869910E+00  7.59869910E+00 -1.51973982E+01
  7.59869910E+00  7.59869910E+00 -1.51973982E+01  7.59869910E+00  7.59869910E+00
 -1.51973982E+01  7.59869910E+00  7.59869910E+00 -1.51973982E+01  7.59869910E+00
  7.59869910E+00 -1.51973982E+01  7.59869910E+00  7.59869910E+00 -1.51973982E+01
  7.59869910E+00  7.59869910E+00 -1.51973982E+01  7.59869910E+00  7.59869910E+00
 -1.51973982E+01  7.59869910E+00  7.59869910E+00 -1.51973982E+01  7.59869910E+00
  7.59869910E+00 -1.51973982E+01  7.59869910E+00  7.59869910E+00 -1.51973982E+01
  7.59869910E+00  7.59869910E+00 -1.51973982E+01  7.59869910E+00  7.59869910E+00
 -1.51973982E+01  7.59869910E+00  7.59869910E+00 -1.51973982E+01  7.59869910E+00
  7.59869910E+00 -1.51973982E+01  7.59869910E+00  7.59869910E+00 -1.51973982E+01
  7.59869910E+00  7.59869910E+00 -1.51973982E+01  7.59869910E+00  7.59869910E+00
 -1.51973982E+01  7.59869910E+00  7.59869910E+00 -1.51973982E+01  7.59869910E+00
  7.59869910E+00 -1.51973982E+01  7.59869910E+00  7.59869910E+00 -1.51973982E+01
  7.59869910E+00  7.59869910E+00 -1.51973982E+01  7.59869910E+00  7.59869910E+00
 -1.51973982E+01  7.59869910E+00  7.59869910E+00 -1.51973982E+01  7.59869910E+00
  7.59869910E+00 -1.51973982E+01  7.59869910E+00  7.59869910E+00 -1.51973982E+01
  7.59869910E+00  7.59869910E+00 -1.51973982E+01  7.59869910E+00  7.59869910E+00
 -1.51973982E+01  7.59869910E+00  7.59869910E+00 -1.51973982E+01  7.59869910E+00
  7.59869910E+00 -1.51973982E+01  7.59869910E+00  7.59869910E+00 -1.51973982E+01
  7.59869910E+00  7.59869910E+00 -1.51973982E+01  7.59869910E+00  7.59869910E+00
 -1.51973982E+01  7.59869910E+00  7.59869910E+00 -1.51973982E+01  7.59869910E+00
  7.59869910E+00 -1.51973982E+01  7.59869910E+00  7.59869910E+00 -1.51973982E+01
  7.59869910E+00  7.59869910E+00 -1.51973982E+01  7.59869910E+00  7.59869910E+00
 -1.51973982E+01  7.59869910E+00  7.59869910E+00 -1.51973982E+01  7.59869910E+00
  7.59869910E+00 -1.51973982E+01  7.59869910E+00  7.59869910E+00 -1.51973982E+01
  7.59869910E+00  7.59869910E+00 -1.51973982E+01  7.59869910E+00  7.59869910E+00
 -1.51973982E+01  7.59869910E+00  7.59869910E+00 -1.51973982E+01  7.59869910E+00
  7.59869910E+00 -1.51973982E+01  7.59869910E+00  7.59869910E+00 -1.51973982E+01
  7.59869910E+00  7.59869910E+00 -1.51973982E+01  7.59869910E+00  7.59869910E+00
 -1.51973982E+01  7.59869910E+00  7.59869910E+00 -1.51973982E+01  7.59869910E+00
  7.59869910E+00 -1.51973982E+01  7.59869910E+00  7.59869910E+00 -1.51973982E+01
  7.59869910E+00  7.59869910E+00 -1.51973982E+01  7.59869910E+00  7.59869910E+00
 -1.51973982E+01  7.59869910E+00  7.59869910E+00 -1.51973982E+01  7.59869910E+00
  7.59869910E+00 -1.51973982E+01  7.59869910E+00  7.59869910E+00 -1.51973982E+01
  7.59869910E+00  7.59869910E+00 -1.51973982E+01  7.59869910E+00  7.59869910E+00
 -1.51973982E+01  7.59869910E+00  7.59869910E+00 -1.51973982E+01  7.59869910E+00
  7.59869910E+00 -1.51973982E+01  7.59869910E+00  7.59869910E+00 -1.51973982E+01
  7.59869910E+00  7.59869910E+00 -1.51973982E+01  7.59869910E+00  7.59869910E+00
 -1.51973982E+01  7.59869910E+00  7.59869910E+00 -1.51973982E+01  7.59869910E+00
  7.59869910E+00 -1.51973982E+01  7.59869910E+00  7.59869910E+00 -1.51973982E+01
  7.59869910E+00  7.59869910E+00 -1.51973982E+01  7.59869910E+00  7.59869910E+00
 -1.51973982E+01  7.59869910E+00  7.59869910E+00 -1.51973982E+01  7.59869910E+00
  7.59869910E+00 -1.51973982E+01  7.59869910E+00  7.59869910E+00 -1.51973982E+01
  7.59869910E+00  7.59869910E+00 -1.51973982E+01  7.59869910E+00  7.59869910E+00
 -1.51973982E+01  7.59869910E+00  7.59869910E+00 -1.51973982E+01  7.59869910E+00
  7.59869910E+00 -1.51973982E+01  7.59869910E+00  7.59869910E+00 -1.51973982E+01
  7.59869910E+00  7.59869910E+00 -1.51973982E+01  7.59869910E+00  7.59869910E+00
 -1.51973982E+01  7.59869910E+00  7.59869910E+00 -1.51973982E+01  7.59869910E+00
  7.59869910E+00 -1.51973982E+01  7.59869910E+00  7.59869910E+00 -1.51973982E+01
  7.59869910E+00  7.59869910E+00 -1.51973982E+01  7.59869910E+00  7.59869910E+00
 -1.51973982E+01  7.59869910E+00  7.59869910E+00 -1.51973982E+01  7.59869910E+00
  7.59869910E+00 -1.51973982E+01  7.59869910E+00  7.59869910E+00 -1.51973982E+01
  7.59869910E+00  7.59869910E+00 -1.51973982E+01  7.59869910E+00  7.59869910E+00
 -1.51973982E+01  7.59869910E+00  7.59869910E+00 -1.51973982E+01  7.59869910E+00
  7.59869910E+00 -1.51973982E+01  7.59869910E+00  7.59869910E+00 -1.51973982E+01
  7.59869910E+00  7.59869910E+00 -1.51973982E+01  7.59869910E+00  7.59869910E+00
 -1.51973982E+01  7.59869910E+00  7.59869910E+00 -1.51973982E+01  7.59869910E+00
  7.59869910E+00 -1.51973982E+01  7.59869910E+00  7.59869910E+00 -1.51973982E+01
  7.59869910E+00  7.59869910E+00 -1.51973982E+01  7.59869910E+00  7.59869910E+00
 -1.51973982E+01  7.59869910E+00  7.59869910E+00 -1.51973982E+01  7.59869910E+00
  7.59869910E+00 -1.51973982E+01  7.59869910E+00  7.59869910E+00 -1.51973982E+01
  7.59869910E+00  7.59869910E+00 -1.51973982E+01  7.59869910E+00  7.59869910E+00
 -1.51973982E+01  7.59869910E+00  7.59869910E+00 -1.51973982E+01  7.59869910E+00
  7.59869910E+00 -1.51973982E+01  7.59869910E+00  7.59869910E+00 -1.51973982E+01
  7.59869910E+00  7.59869910E+00 -1.51973982E+01  7.59869910E+00  7.59869910E+00
 -1.51973982E+01  7.59869910E+00  7.59869910E+00 -1.51973982E+01  7.59869910E+00
  7.59869910E+00 -1.51973982E+01  7.59869910E+00  7.59869910E+00 -1.51973982E+01
  7.59869910E+00  7.59869910E+00 -1.51973982E+01  7.59869910E+00  7.59869910E+00
 -1.51973982E+01  7.59869910E+00  7.59869910E+00 -1.51973982E+01  7.59869910E+00
  7.59869910E+00 -1.51973982E+01  7.59869910E+00  7.59869910E+00 -1.51973982E+01
  7.59869910E+00  7.59869910E+00 -1.51973982E+01  7.59869910E+00  7.59869910E+00
 -1.51973982E+01  7.59869910E+00  7.59869910E+00 -1.51973982E+01  7.59869910E+00
  7.59869910E+00 -1.51973982E+01  7.59869910E+00  7.59869910E+00 -1.51973982E+01
  7.59869910E+00  7.59869910E+00 -1.51973982E+01  7.59869910E+00  7.59869910E+00
 -1.51973982E+01  7.59869910E+00  7.59869910E+00 -1.51973982E+01  7.59869910E+00
  7.59869910E+00 -1.51973982E+01  7.59869910E+00  7.59869910E+00 -1.51973982E+01
  7.59869910E+00  7.59869910E+00 -1.51973982E+01  7.59869910E+00  7.59869910E+00
 -1.51973982E+01  7.59869910E+00  7.59869910E+00 -1.51973982E+01  7.59869910E+00
  7.59869910E+00 -1.51973982E+01  7.59869910E+00  7.59869910E+00 -1.51973982E+01
  7.59869910E+00  7.59869910E+00 -1.51973982E+01  7.59869910E+00  7.59869910E+00
 -1.51973982E+01  7.59869910E+00  7.59869910E+00 -1.51973982E+01  7.59869910E+00
  7.59869910E+00 -1.51973982E+01  7.59869910E+00  7.59869910E+00 -1.51973982E+01
  7.59869910E+00  7.59869910E+00 -1.51973982E+01  7.59869910E+00  7.59869910E+00
 -1.51973982E+01  7.59869910E+00  7.59869910E+00 -1.51973982E+01  7.59869910E+00
  7.59869910E+00 -1.51973982E+01  7.59869910E+00  7.59869910E+00 -1.51973982E+01
  7.59869910E+00  7.59869910E+00 -1.51973982E+01  7.59869910E+00  7.59869910E+00
 -1.51973982E+01  7.59869910E+00  7.59869910E+00 -1.51973982E+01  7.59869910E+00
  7.59869910E+00 -1.51973982E+01  7.59869910E+00  7.59869910E+00 -1.51973982E+01
  7.59869910E+00  7.59869910E+00 -1.51973982E+01  7.59869910E+00  7.59869910E+00
 -1.51973982E+01  7.59869910E+00  7.59869910E+00 -1.51973982E+01  7.59869910E+00
  7.59869910E+00 -1.51973982E+01  7.59869910E+00  7.59869910E+00 -1.51973982E+01
  7.59869910E+00  7.59869910E+00 -1.51973982E+01  7.59869910E+00  7.59869910E+00
 -1.51973982E+01  7.59869910E+00  7.59869910E+00 -1.51973982E+01  7.59869910E+00
  7.59869910E+00 -1.51973982E+01  7.59869910E+00  7.59869910E+00 -1.51973982E+01
  7.59869910E+00  7.59869910E+00 -1.51973982E+01  7.59869910E+00  7.59869910E+00
 -1.51973982E+01  7.59869910E+00  7.59869910E+00 -1.51973982E+01  7.59869910E+00
  7.59869910E+00 -1.51973982E+01  7.59869910E+00  7.59869910E+00 -1.51973982E+01
  7.59869910E+00  7.59869910E+00 -1.51973982E+01  7.59869910E+00  7.59869910E+00
 -1.51973982E+01  7.59869910E+00  7.59869910E+00 -1.51973982E+01  7.59869910E+00
  7.59869910E+00 -1.51973982E+01  7.59869910E+00  7.59869910E+00 -1.51973982E+01
  7.59869910E+00  7.59869910E+00 -1.51973982E+01  7.59869910E+00  7.59869910E+00
 -1.51973982E+01  7.59869910E+00  7.59869910E+00 -1.51973982E+01  7.59869910E+00
  7.59869910E+00 -1.51973982E+01  7.59869910E+00  7.59869910E+00 -1.51973982E+01
  7.59869910E+00  7.59869910E+00 -1.51973982E+01  7.59869910E+00  7.59869910E+00
 -1.51973982E+01  7.59869910E+00  7.59869910E+00 -1.51973982E+01  7.59869910E+00
  7.59869910E+00 -1.51973982E+01  7.59869910E+00  7.59869910E+00 -1.51973982E+01
  7.59869910E+00  7.59869910E+00 -1.51973982E+01  7.59869910E+00  7.59869910E+00
 -1.51973982E+01  7.59869910E+00  7.59869910E+00 -1.51973982E+01  7.59869910E+00
  7.59869910E+00 -1.51973982E+01  7.59869910E+00  7.59869910E+00 -1.51973982E+01
  7.59869910E+00  7.59869910E+00 -1.51973982E+01  7.59869910E+00  7.59869910E+00
 -1.51973982E+01  7.59869910E+00  7.59869910E+00 -1.51973982E+01  7.59869910E+00
  7.59869910E+00 -1.51973982E+01  7.59869910E+00  7.59869910E+00 -1.51973982E+01
  7.59869910E+00  7.59869910E+00 -1.51973982E+01  7.59869910E+00  7.59869910E+00
 -1.51973982E+01  7.59869910E+00  7.59869910E+00 -1.51973982E+01  7.59869910E+00
  7.59869910E+00 -1.51973982E+01  7.59869910E+00  7.59869910E+00 -1.51973982E+01
  7.59869910E+00  7.59869910E+00 -1.51973982E+01  7.59869910E+00  7.59869910E+00
 -1.51973982E+01  7.59869910E+00  7.59869910E+00 -1.51973982E+01  7.59869910E+00
  7.59869910E+00 -1.51973982E+01  7.59869910E+00  7.59869910E+00 -1.51973982E+01
  7.59869910E+00  7.59869910E+00 -1.51973982E+01  7.59869910E+00  7.59869910E+00
 -1.51973982E+01  7.59869910E+00  7.59869910E+00 -1.51973982E+01  7.59869910E+00
  7.59869910E+00 -1.51973982E+01  7.59869910E+00  7.59869910E+00 -1.51973982E+01
  7.59869910E+00  7.59869910E+00 -1.51973982E+01  7.59869910E+00  7.59869910E+00
 -1.51973982E+01  7.59869910E+00  7.59869910E+00 -1.51973982E+01  7.59869910E+00
  7.59869910E+00 -1.51973982E+01  7.59869910E+00  7.59869910E+00 -1.51973982E+01
  7.59869910E+00  7.59869910E+00 -1.51973982E+01  7.59869910E+00  7.59869910E+00
 -1.51973982E+01  7.59869910E+00  7.59869910E+00 -1.51973982E+01  7.59869910E+00
  7.59869910E+00 -1.51973982E+01  7.59869910E+00  7.59869910E+00 -1.51973982E+01
  7.59869910E+00  7.59869910E+00 -1.51973982E+01  7.59869910E+00  7.59869910E+00
 -1.51973982E+01  7.59869910E+00  7.59869910E+00 -1.51973982E+01  7.59869910E+00
  7.59869910E+00 -1.51973982E+01  7.59869910E+00  7.59869910E+00 -1.51973982E+01
  7.59869910E+00  7.59869910E+00 -1.51973982E+01  7.59869910E+00  7.59869910E+00
 -1.51973982E+01  7.59869910E+00  7.59869910E+00 -1.51973982E+01  7.59869910E+00
  7.59869910E+00 -1.51973982E+01  7.59869910E+00  7.59869910E+00 -1.51973982E+01
  7.59869910E+00  7.59869910E+00 -1.51973982E+01  7.59869910E+00  7.59869910E+00
 -1.51973982E+01  7.59869910E+00  7.59869910E+00 -1.51973982E+01  7.59869910E+00
  7.59869910E+00 -1.51973982E+01  7.59869910E+00  7.59869910E+00 -1.51973982E+01
  7.59869910E+00  7.59869910E+00 -1.51973982E+01  7.59869910E+00  7.59869910E+00
 -1.51973982E+01  7.59869910E+00  7.59869910E+00 -1.51973982E+01  7.59869910E+00
  7.59869910E+00 -1.51973982E+01  7.59869910E+00  7.59869910E+00 -1.51973982E+01
  7.59869910E+00  7.59869910E+00 -1.51973982E+01  7.59869910E+00  7.59869910E+00
 -1.51973982E+01  7.59869910E+00  7.59869910E+00 -1.51973982E+01  7.59869910E+00
  7.59869910E+00 -1.51973982E+01  7.59869910E+00  7.59869910E+00 -1.51973982E+01
  7.59869910E+00  7.59869910E+00 -1.51973982E+01  7.59869910E+00  7.59869910E+00
 -1.51973982E+01  7.59869910E+00  7.59869910E+00 -1.51973982E+01  7.59869910E+00
  7.59869910E+00 -1.51973982E+01  7.59869910E+00  7.59869910E+00 -1.51973982E+01
  7.59869910E+00  7.59869910E+00 -1.51973982E+01  7.59869910E+00  7.59869910E+00
 -1.51973982E+01  7.59869910E+00  7.59869910E+00 -1.51973982E+01  7.59869910E+00
  7.59869910E+00 -1.51973982E+01  7.59869910E+00  7.59869910E+00 -1.51973982E+01
  7.59869910E+00  7.59869910E+00 -1.51973982E+01  7.59869910E+00  7.59869910E+00
 -1.51973982E+01  7.59869910E+00  7.59869910E+00 -1.51973982E+01  7.59869910E+00
  7.59869910E+00 -1.51973982E+01  7.59869910E+00  7.59869910E+00 -1.51973982E+01
  7.59869910E+00  7.59869910E+00 -1.51973982E+01  7.59869910E+00  7.59869910E+00
 -1.51973982E+01  7.59869910E+00  7.59869910E+00 -1.51973982E+01  7.59869910E+00
  7.59869910E+00 -1.51973982E+01  7.59869910E+00  7.59869910E+00 -1.51973982E+01
  7.59869910E+00  7.59869910E+00 -1.51973982E+01  7.59869910E+00  7.59869910E+00
 -1.51973982E+01  7.59869910E+00  7.59869910E+00 -1.51973982E+01  7.59869910E+00
  7.59869910E+00 -1.51973982E+01  7.59869910E+00  7.59869910E+00 -1.51973982E+01
  7.59869910E+00  7.59869910E+00 -1.51973982E+01  7.59869910E+00  7.59869910E+00
 -1.51973982E+01  7.59869910E+00  7.59869910E+00 -1.51973982E+01  7.59869910E+00
  7.59869910E+00 -1.51973982E+01  7.59869910E+00  7.59869910E+00 -1.51973982E+01
  7.59869910E+00  7.59869910E+00 -1.51973982E+01  7.59869910E+00  7.59869910E+00
 -1.51973982E+01  7.59869910E+00  7.59869910E+00 -1.51973982E+01  7.59869910E+00
  7.59869910E+00 -1.51973982E+01  7.59869910E+00  7.59869910E+00 -1.51973982E+01
  7.59869910E+00  7.59869910E+00 -1.51973982E+01  7.59869910E+00  7.59869910E+00
 -1.51973982E+01  7.59869910E+00  7.59869910E+00 -1.51973982E+01  7.59869910E+00
  7.59869910E+00 -1.51973982E+01  7.59869910E+00  7.59869910E+00 -1.51973982E+01
  7.59869910E+00  7.59869910E+00 -1.51973982E+01  7.59869910E+00  7.59869910E+00
 -1.51973982E+01  7.59869910E+00  7.59869910E+00 -1.51973982E+01  7.59869910E+00
  7.59869910E+00 -1.51973982E+01  7.59869910E+00  7.59869910E+00 -1.51973982E+01
  7.59869910E+00  7.59869910E+00 -1.51973982E+01  7.59869910E+00  7.59869910E+00
 -1.51973982E+01  7.59869910E+00  7.59869910E+00 -1.51973982E+01  7.59869910E+00
  7.59869910E+00 -1.51973982E+01  7.59869910E+00  7.59869910E+00 -1.51973982E+01
  7.59869910E+00  7.59869910E+00 -1.51973982E+01  7.59869910E+00  7.59869910E+00
 -1.51973982E+01  7.59869910E+00  7.59869910E+00 -1.51973982E+01  7.59869910E+00
  7.59869910E+00 -1.51973982E+01  7.59869910E+00  7.59869910E+00 -1.51973982E+01
  7.59869910E+00  7.59869910E+00 -1.51973982E+01  7.59869910E+00  7.59869910E+00
 -1.51973982E+01  7.59869910E+00  7.59869910E+00 -1.51973982E+01  7.59869910E+00
  7.59869910E+00 -1.51973982E+01  7.59869910E+00  7.59869910E+00 -1.51973982E+01
  7.59869910E+00  7.59869910E+00 -1.51973982E+01  7.59869910E+00  7.59869910E+00
 -1.51973982E+01  7.59869910E+00  7.59869910E+00 -1.51973982E+01  7.59869910E+00
  7.59869910E+00 -1.51973982E+01  7.59869910E+00  7.59869910E+00 -1.51973982E+01
  7.59869910E+00  7.59869910E+00 -1.51973982E+01  7.59869910E+00  7.59869910E+00
 -1.51973982E+01  7.59869910E+00  7.59869910E+00 -1.51973982E+01  7.59869910E+00
  7.59869910E+00 -1.51973982E+01  7.59869910E+00  7.59869910E+00 -1.51973982E+01
  7.59869910E+00  7.59869910E+00 -1.51973982E+01  7.59869910E+00  7.59869910E+00
 -1.51973982E+01  7.59869910E+00  7.59869910E+00 -1.51973982E+01  7.59869910E+00
  7.59869910E+00 -1.51973982E+01  7.59869910E+00  7.59869910E+00 -1.51973982E+01
  7.59869910E+00  7.59869910E+00 -1.51973982E+01  7.59869910E+00  7.59869910E+00
 -1.51973982E+01  7.59869910E+00  7.59869910E+00 -1.51973982E+01  7.59869910E+00
  7.59869910E+00 -1.51973982E+01  7.59869910E+00  7.59869910E+00 -1.51973982E+01
  7.59869910E+00  7.59869910E+00 -1.51973982E+01  7.59869910E+00  7.59869910E+00
 -1.51973982E+01  7.59869910E+00  7.59869910E+00 -1.51973982E+01  7.59869910E+00
  7.59869910E+00 -1.51973982E+01  7.59869910E+00  7.59869910E+00 -1.51973982E+01
  7.59869910E+00  7.59869910E+00 -1.51973982E+01  7.59869910E+00  7.59869910E+00
 -1.51973982E+01  7.59869910E+00  7.59869910E+00 -1.51973982E+01  7.59869910E+00
  7.59869910E+00 -1.51973982E+01  7.59869910E+00  7.59869910E+00 -1.51973982E+01
  7.59869910E+00  7.59869910E+00 -1.51973982E+01  7.59869910E+00  7.59869910E+00
 -1.51973982E+01  7.59869910E+00  7.59869910E+00 -1.51973982E+01  7.59869910E+00
  7.59869910E+00 -1.51973982E+01  7.59869910E+00  7.59869910E+00 -1.51973982E+01
  7.59869910E+00  7.59869910E+00 -1.51973982E+01  7.59869910E+00  7.59869910E+00
 -1.51973982E+01  7.59869910E+00  7.59869910E+00 -1.51973982E+01  7.59869910E+00
  7.59869910E+00 -1.51973982E+01  7.59869910E+00  7.59869910E+00 -1.51973982E+01
  7.59869910E+00  7.59869910E+00 -1.51973982E+01  7.59869910E+00  7.59869910E+00
 -1.51973982E+01  7.59869910E+00  7.59869910E+00 -1.51973982E+01  7.59869910E+00
  7.59869910E+00 -1.51973982E+01  7.59869910E+00  7.59869910E+00 -1.51973982E+01
  7.59869910E+00  7.59869910E+00 -1.51973982E+01  7.59869910E+00  7.59869910E+00
 -1.51973982E+01  7.59869910E+00  7.59869910E+00 -1.51973982E+01  7.59869910E+00
  7.59869910E+00 -1.51973982E+01  7.59869910E+00  7.59869910E+00 -1.51973982E+01
  7.59869910E+00  7.59869910E+00 -1.51973982E+01  7.59869910E+00  7.59869910E+00
 -1.51973982E+01  7.59869910E+00  7.59869910E+00 -1.51973982E+01  7.59869910E+00
  7.59869910E+00 -1.51973982E+01  7.59869910E+00  7.59869910E+00 -1.51973982E+01
  7.59869910E+00  7.59869910E+00 -1.51973982E+01  7.59869910E+00  7.59869910E+00
 -1.51973982E+01  7.59869910E+00  7.59869910E+00 -1.51973982E+01  7.59869910E+00
  7.59869910E+00 -1.51973982E+01  7.59869910E+00  7.59869910E+00 -1.51973982E+01
  7.59869910E+00  7.59869910E+00 -1.51973982E+01  7.59869910E+00  7.59869910E+00
 -1.51973982E+01  7.59869910E+00  7.59869910E+00 -1.51973982E+01  7.59869910E+00
  7.59869910E+00 -1.51973982E+01  7.59869910E+00  7.59869910E+00 -1.51973982E+01
  7.59869910E+00  7.59869910E+00 -1.51973982E+01  7.59869910E+00  7.59869910E+00
 -1.51973982E+01  7.59869910E+00  7.59869910E+00 -1.51973982E+01  7.59869910E+00
  7.59869910E+00 -1.51973982E+01  7.59869910E+00  7.59869910E+00 -1.51973982E+01
  7.59869910E+00  7.59869910E+00 -1.51973982E+01  7.59869910E+00  7.59869910E+00
 -1.51973982E+01  7.59869910E+00  7.59869910E+00 -1.51973982E+01  7.59869910E+00
  7.59869910E+00 -1.51973982E+01  7.59869910E+00  7.59869910E+00 -1.51973982E+01
  7.59869910E+00  7.59869910E+00 -1.51973982E+01  7.59869910E+00  7.59869910E+00
 -1.51973982E+01  7.59869910E+00  7.59869910E+00 -1.51973982E+01  7.59869910E+00
  7.59869910E+00 -1.51973982E+01  7.59869910E+00  7.59869910E+00 -1.51973982E+01
  7.59869910E+00  7.59869910E+00 -1.51973982E+01  7.59869910E+00  7.59869910E+00
 -1.51973982E+01  7.59869910E+00  7.59869910E+00 -1.51973982E+01  7.59869910E+00
  7.59869910E+00 -1.51973982E+01  7.59869910E+00  7.59869910E+00 -1.51973982E+01
  7.59869910E+00  7.59869910E+00 -1.51973982E+01  7.59869910E+00  7.59869910E+00
 -1.51973982E+01  7.59869910E+00  7.59869910E+00 -1.51973982E+01  7.59869910E+00
  7.59869910E+00 -1.51973982E+01  7.59869910E+00  7.59869910E+00 -1.51973982E+01
  7.59869910E+00  7.59869910E+00 -1.51973982E+01  7.59869910E+00  7.59869910E+00
 -1.51973982E+01  7.59869910E+00  7.59869910E+00 -1.51973982E+01  7.59869910E+00
  7.59869910E+00 -1.51973982E+01  7.59869910E+00  7.59869910E+00 -1.51973982E+01
  7.59869910E+00  7.59869910E+00 -1.51973982E+01  7.59869910E+00  7.59869910E+00
 -1.51973982E+01  7.59869910E+00  7.59869910E+00 -1.51973982E+01  7.59869910E+00
  7.59869910E+00 -1.51973982E+01  7.59869910E+00  7.59869910E+00 -1.51973982E+01
  7.59869910E+00  7.59869910E+00 -1.51973982E+01  7.59869910E+00  7.59869910E+00
 -1.51973982E+01  7.59869910E+00  7.59869910E+00 -1.51973982E+01  7.59869910E+00
  7.59869910E+00 -1.51973982E+01  7.59869910E+00  7.59869910E+00 -1.51973982E+01
  7.59869910E+00  7.59869910E+00 -1.51973982E+01  7.59869910E+00  7.59869910E+00
 -1.51973982E+01  7.59869910E+00  7.59869910E+00 -1.51973982E+01  7.59869910E+00
  7.59869910E+00 -1.51973982E+01  7.59869910E+00  7.59869910E+00 -1.51973982E+01
  7.59869910E+00  7.59869910E+00 -1.51973982E+01  7.59869910E+00  7.59869910E+00
 -1.51973982E+01  7.59869910E+00  7.59869910E+00 -1.51973982E+01  7.59869910E+00
  7.59869910E+00 -1.51973982E+01  7.59869910E+00  7.59869910E+00 -1.51973982E+01
  7.59869910E+00  7.59869910E+00 -1.51973982E+01  7.59869910E+00  7.59869910E+00
 -1.51973982E+01  7.59869910E+00  7.59869910E+00 -1.51973982E+01  7.59869910E+00
  7.59869910E+00 -1.51973982E+01  7.59869910E+00  7.59869910E+00 -1.51973982E+01
  7.59869910E+00  7.59869910E+00 -1.51973982E+01  7.59869910E+00  7.59869910E+00
 -1.51973982E+01  7.59869910E+00  7.59869910E+00 -1.51973982E+01  7.59869910E+00
  7.59869910E+00 -1.51973982E+01  7.59869910E+00  7.59869910E+00 -1.51973982E+01
  7.59869910E+00  7.59869910E+00 -1.51973982E+01  7.59869910E+00  7.59869910E+00
 -1.51973982E+01  7.59869910E+00  7.59869910E+00 -1.51973982E+01  7.59869910E+00
  7.59869910E+00 -1.51973982E+01  7.59869910E+00  7.59869910E+00 -1.51973982E+01
  7.59869910E+00  7.59869910E+00 -1.51973982E+01  7.59869910E+00  7.59869910E+00
 -1.51973982E+01  7.59869910E+00  7.59869910E+00 -1.51973982E+01  7.59869910E+00
  7.59869910E+00 -1.51973982E+01  7.59869910E+00  7.59869910E+00 -1.51973982E+01
  7.59869910E+00  7.59869910E+00 -1.51973982E+01  7.59869910E+00  7.59869910E+00
 -1.51973982E+01  7.59869910E+00  7.59869910E+00 -1.51973982E+01  7.59869910E+00
  7.59869910E+00 -1.51973982E+01  7.59869910E+00  7.59869910E+00 -1.51973982E+01
  7.59869910E+00  7.59869910E+00 -1.51973982E+01  7.59869910E+00  7.59869910E+00
 -1.51973982E+01  7.59869910E+00  7.59869910E+00 -1.51973982E+01  7.59869910E+00
  7.59869910E+00 -1.51973982E+01  7.59869910E+00  7.59869910E+00 -1.51973982E+01
  7.59869910E+00  7.59869910E+00 -1.51973982E+01  7.59869910E+00  7.59869910E+00
 -1.51973982E+01  7.59869910E+00  7.59869910E+00 -1.51973982E+01  7.59869910E+00
  7.59869910E+00 -1.51973982E+01  7.59869910E+00  7.59869910E+00 -1.51973982E+01
  7.59869910E+00  7.59869910E+00 -1.51973982E+01  7.59869910E+00  7.59869910E+00
 -1.51973982E+01  7.59869910E+00  7.59869910E+00 -1.51973982E+01  7.59869910E+00
  7.59869910E+00 -1.51973982E+01  7.59869910E+00  7.59869910E+00 -1.51973982E+01
  7.59869910E+00  7.59869910E+00 -1.51973982E+01  7.59869910E+00  7.59869910E+00
 -1.51973982E+01  7.59869910E+00  7.59869910E+00 -1.51973982E+01  7.59869910E+00
  7.59869910E+00 -1.51973982E+01  7.59869910E+00  7.59869910E+00 -1.51973982E+01
  7.59869910E+00  7.59869910E+00 -1.51973982E+01  7.59869910E+00  7.59869910E+00
 -1.51973982E+01  7.59869910E+00  7.59869910E+00 -1.51973982E+01  7.59869910E+00
  7.59869910E+00 -1.51973982E+01  7.59869910E+00  7.59869910E+00 -1.51973982E+01
  7.59869910E+00  7.59869910E+00 -1.51973982E+01  7.59869910E+00  7.59869910E+00
 -1.51973982E+01  7.59869910E+00  7.59869910E+00 -1.51973982E+01  7.59869910E+00
  7.59869910E+00 -1.51973982E+01  7.59869910E+00  7.59869910E+00 -1.51973982E+01
  7.59869910E+00  7.59869910E+00 -1.51973982E+01  7.59869910E+00  7.59869910E+00
 -1.51973982E+01  7.59869910E+00  7.59869910E+00 -1.51973982E+01  7.59869910E+00
  7.59869910E+00 -1.51973982E+01  7.59869910E+00  7.59869910E+00 -1.51973982E+01
  7.59869910E+00  7.59869910E+00 -1.51973982E+01  7.59869910E+00  7.59869910E+00
 -1.51973982E+01  7.59869910E+00  7.59869910E+00 -1.51973982E+01  7.59869910E+00
  7.59869910E+00 -1.51973982E+01  7.59869910E+00  7.59869910E+00 -1.51973982E+01
  7.59869910E+00  7.59869910E+00 -1.51973982E+01  7.59869910E+00  7.59869910E+00
 -1.51973982E+01  7.59869910E+00  7.59869910E+00 -1.51973982E+01  7.59869910E+00
  7.59869910E+00 -1.51973982E+01  7.59869910E+00  7.59869910E+00 -1.51973982E+01
  7.59869910E+00  7.59869910E+00 -1.51973982E+01  7.59869910E+00  7.59869910E+00
 -1.51973982E+01  7.59869910E+00  7.59869910E+00 -1.51973982E+01  7.59869910E+00
  7.59869910E+00 -1.51973982E+01  7.59869910E+00  7.59869910E+00 -1.51973982E+01
  7.59869910E+00  7.59869910E+00 -1.51973982E+01  7.59869910E+00  7.59869910E+00
 -1.51973982E+01  7.59869910E+00  7.59869910E+00 -1.51973982E+01  7.59869910E+00
  7.59869910E+00 -1.51973982E+01  7.59869910E+00  7.59869910E+00 -1.51973982E+01
  7.59869910E+00  7.59869910E+00 -1.51973982E+01  7.59869910E+00  7.59869910E+00
 -1.51973982E+01  7.59869910E+00  7.59869910E+00 -1.51973982E+01  7.59869910E+00
  7.59869910E+00 -1.51973982E+01  7.59869910E+00  7.59869910E+00 -1.51973982E+01
  7.59869910E+00  7.59869910E+00 -1.51973982E+01  7.59869910E+00  7.59869910E+00
 -1.51973982E+01  7.59869910E+00  7.59869910E+00 -1.51973982E+01  7.59869910E+00
  7.59869910E+00 -1.51973982E+01  7.59869910E+00  7.59869910E+00 -1.51973982E+01
  7.59869910E+00  7.59869910E+00 -1.51973982E+01  7.59869910E+00  7.59869910E+00
 -1.51973982E+01  7.59869910E+00  7.59869910E+00 -1.51973982E+01  7.59869910E+00
  7.59869910E+00 -1.51973982E+01  7.59869910E+00  7.59869910E+00 -1.51973982E+01
  7.59869910E+00  7.59869910E+00 -1.51973982E+01  7.59869910E+00  7.59869910E+00
 -1.51973982E+01  7.59869910E+00  7.59869910E+00 -1.51973982E+01  7.59869910E+00
  7.59869910E+00 -1.51973982E+01  7.59869910E+00  7.59869910E+00 -1.51973982E+01
  7.59869910E+00  7.59869910E+00 -1.51973982E+01  7.59869910E+00  7.59869910E+00
 -1.51973982E+01  7.59869910E+00  7.59869910E+00 -1.51973982E+01  7.59869910E+00
  7.59869910E+00 -1.51973982E+01  7.59869910E+00  7.59869910E+00 -1.51973982E+01
  7.59869910E+00  7.59869910E+00 -1.51973982E+01  7.59869910E+00  7.59869910E+00
 -1.51973982E+01  7.59869910E+00  7.59869910E+00 -1.51973982E+01  7.59869910E+00
  7.59869910E+00 -1.51973982E+01  7.59869910E+00  7.59869910E+00 -1.51973982E+01
  7.59869910E+00  7.59869910E+00 -1.51973982E+01  7.59869910E+00  7.59869910E+00
 -1.51973982E+01  7.59869910E+00  7.59869910E+00 -1.51973982E+01  7.59869910E+00
  7.59869910E+00 -1.51973982E+01  7.59869910E+00  7.59869910E+00 -1.51973982E+01
  7.59869910E+00  7.59869910E+00 -1.51973982E+01  7.59869910E+00  7.59869910E+00
 -1.51973982E+01  7.59869910E+00  7.59869910E+00 -1.51973982E+01  7.59869910E+00
  7.59869910E+00 -1.51973982E+01  7.59869910E+00  7.59869910E+00 -1.51973982E+01
  7.59869910E+00  7.59869910E+00 -1.51973982E+01  7.59869910E+00  7.59869910E+00
 -1.51973982E+01  7.59869910E+00  7.59869910E+00 -1.51973982E+01  7.59869910E+00
  7.59869910E+00 -1.51973982E+01  7.59869910E+00  7.59869910E+00 -1.51973982E+01
  7.59869910E+00  7.59869910E+00 -1.51973982E+01  7.59869910E+00  7.59869910E+00
 -1.51973982E+01  7.59869910E+00  7.59869910E+00 -1.51973982E+01  7.59869910E+00
  7.59869910E+00 -1.51973982E+01  7.59869910E+00  7.59869910E+00 -1.51973982E+01
  7.59869910E+00  7.59869910E+00 -1.51973982E+01  7.59869910E+00  7.59869910E+00
 -1.51973982E+01  7.59869910E+00  7.59869910E+00 -1.51973982E+01  7.59869910E+00
  7.59869910E+00 -1.51973982E+01  7.59869910E+00  7.59869910E+00 -1.51973982E+01
  7.59869910E+00  7.59869910E+00 -1.51973982E+01  7.59869910E+00  7.59869910E+00
 -1.51973982E+01  7.59869910E+00  7.59869910E+00 -1.51973982E+01  7.59869910E+00
  7.59869910E+00 -1.51973982E+01  7.59869910E+00  7.59869910E+00 -1.51973982E+01
  7.59869910E+00  7.59869910E+00 -1.51973982E+01  7.59869910E+00  7.59869910E+00
 -1.51973982E+01  7.59869910E+00  7.59869910E+00 -1.51973982E+01  7.59869910E+00
  7.59869910E+00 -1.51973982E+01  7.59869910E+00  7.59869910E+00 -1.51973982E+01
  7.59869910E+00  7.59869910E+00 -1.51973982E+01  7.59869910E+00  7.59869910E+00
 -1.51973982E+01  7.59869910E+00  7.59869910E+00 -1.51973982E+01  7.59869910E+00
  7.59869910E+00 -1.51973982E+01  7.59869910E+00  7.59869910E+00 -1.51973982E+01
  7.59869910E+00  7.59869910E+00 -1.51973982E+01  7.59869910E+00  7.59869910E+00
 -1.51973982E+01  7.59869910E+00  7.59869910E+00 -1.51973982E+01  7.59869910E+00
  7.59869910E+00 -1.51973982E+01  7.59869910E+00  7.59869910E+00 -1.51973982E+01
  7.59869910E+00  7.59869910E+00 -1.51973982E+01  7.59869910E+00  7.59869910E+00
 -1.51973982E+01  7.59869910E+00  7.59869910E+00 -1.51973982E+01  7.59869910E+00
  7.59869910E+00 -1.51973982E+01  7.59869910E+00  7.59869910E+00 -1.51973982E+01
  7.59869910E+00  7.59869910E+00 -1.51973982E+01  7.59869910E+00  7.59869910E+00
 -1.51973982E+01  7.59869910E+00  7.59869910E+00 -1.51973982E+01  7.59869910E+00
  7.59869910E+00 -1.51973982E+01  7.59869910E+00  7.59869910E+00 -1.51973982E+01
  7.59869910E+00  7.59869910E+00 -1.51973982E+01  7.59869910E+00  7.59869910E+00
 -1.51973982E+01  7.59869910E+00  7.59869910E+00 -1.51973982E+01  7.59869910E+00
  7.59869910E+00 -1.51973982E+01  7.59869910E+00  7.59869910E+00 -1.51973982E+01
  7.59869910E+00  7.59869910E+00 -1.51973982E+01  7.59869910E+00  7.59869910E+00
 -1.51973982E+01  7.59869910E+00  7.59869910E+00 -1.51973982E+01  7.59869910E+00
  7.59869910E+00 -1.51973982E+01  7.59869910E+00  7.59869910E+00 -1.51973982E+01
  7.59869910E+00  7.59869910E+00 -1.51973982E+01  7.59869910E+00  7.59869910E+00
 -1.51973982E+01  7.59869910E+00  7.59869910E+00 -1.51973982E+01  7.59869910E+00
  7.59869910E+00 -1.51973982E+01  7.59869910E+00  7.59869910E+00 -1.51973982E+01
  7.59869910E+00  7.59869910E+00 -1.51973982E+01  7.59869910E+00  7.59869910E+00
 -1.51973982E+01  7.59869910E+00  7.59869910E+00 -1.51973982E+01  7.59869910E+00
  7.59869910E+00 -1.51973982E+01  7.59869910E+00  7.59869910E+00 -1.51973982E+01
  7.59869910E+00  7.59869910E+00 -1.51973982E+01  7.59869910E+00  7.59869910E+00
 -1.51973982E+01  7.59869910E+00  7.59869910E+00 -1.51973982E+01  7.59869910E+00
  7.59869910E+00 -1.51973982E+01  7.59869910E+00  7.59869910E+00 -1.51973982E+01
  7.59869910E+00  7.59869910E+00 -1.51973982E+01  7.59869910E+00  7.59869910E+00
 -1.51973982E+01  7.59869910E+00  7.59869910E+00 -1.51973982E+01  7.59869910E+00
  7.59869910E+00 -1.51973982E+01  7.59869910E+00  7.59869910E+00 -1.51973982E+01
  7.59869910E+00  7.59869910E+00 -1.51973982E+01  7.59869910E+00  7.59869910E+00
 -1.51973982E+01  7.59869910E+00  7.59869910E+00 -1.51973982E+01  7.59869910E+00
  7.59869910E+00 -1.51973982E+01  7.59869910E+00  7.59869910E+00 -1.51973982E+01
  7.59869910E+00  7.59869910E+00 -1.51973982E+01  7.59869910E+00  7.59869910E+00
 -1.51973982E+01  7.59869910E+00  7.59869910E+00 -1.51973982E+01  7.59869910E+00
  7.59869910E+00 -1.51973982E+01  7.59869910E+00  7.59869910E+00 -1.51973982E+01
  7.59869910E+00  7.59869910E+00 -1.51973982E+01  7.59869910E+00  7.59869910E+00
 -1.51973982E+01  7.59869910E+00  7.59869910E+00 -1.51973982E+01  7.59869910E+00
  7.59869910E+00 -1.51973982E+01  7.59869910E+00  7.59869910E+00 -1.51973982E+01
  7.59869910E+00  7.59869910E+00 -1.51973982E+01  7.59869910E+00  7.59869910E+00
 -1.51973982E+01  7.59869910E+00  7.59869910E+00 -1.51973982E+01  7.59869910E+00
  7.59869910E+00 -1.51973982E+01  7.59869910E+00  7.59869910E+00 -1.51973982E+01
  7.59869910E+00  7.59869910E+00 -1.51973982E+01  7.59869910E+00  7.59869910E+00
 -1.51973982E+01  7.59869910E+00  7.59869910E+00 -1.51973982E+01  7.59869910E+00
  7.59869910E+00 -1.51973982E+01  7.59869910E+00  7.59869910E+00 -1.51973982E+01
  7.59869910E+00  7.59869910E+00 -1.51973982E+01  7.59869910E+00  7.59869910E+00
 -1.51973982E+01  7.59869910E+00  7.59869910E+00 -1.51973982E+01  7.59869910E+00
  7.59869910E+00 -1.51973982E+01  7.59869910E+00  7.59869910E+00 -1.51973982E+01
  7.59869910E+00  7.59869910E+00 -1.51973982E+01  7.59869910E+00  7.59869910E+00
 -1.51973982E+01  7.59869910E+00  7.59869910E+00 -1.51973982E+01  7.59869910E+00
  7.59869910E+00 -1.51973982E+01  7.59869910E+00  7.59869910E+00 -1.51973982E+01
  7.59869910E+00  7.59869910E+00 -1.51973982E+01  7.59869910E+00  7.59869910E+00
 -1.51973982E+01  7.59869910E+00  7.59869910E+00 -1.51973982E+01  7.59869910E+00
  7.59869910E+00 -1.51973982E+01  7.59869910E+00  7.59869910E+00 -1.51973982E+01
  7.59869910E+00  7.59869910E+00 -1.51973982E+01  7.59869910E+00  7.59869910E+00
 -1.51973982E+01  7.59869910E+00  7.59869910E+00 -1.51973982E+01  7.59869910E+00
  7.59869910E+00 -1.51973982E+01  7.59869910E+00  7.59869910E+00 -1.51973982E+01
  7.59869910E+00  7.59869910E+00 -1.51973982E+01  7.59869910E+00  7.59869910E+00
 -1.51973982E+01  7.59869910E+00  7.59869910E+00 -1.51973982E+01  7.59869910E+00
  7.59869910E+00 -1.51973982E+01  7.59869910E+00  7.59869910E+00 -1.51973982E+01
  7.59869910E+00  7.59869910E+00 -1.51973982E+01  7.59869910E+00  7.59869910E+00
 -1.51973982E+01  7.59869910E+00  7.59869910E+00 -1.51973982E+01  7.59869910E+00
  7.59869910E+00 -1.51973982E+01  7.59869910E+00  7.59869910E+00 -1.51973982E+01
  7.59869910E+00  7.59869910E+00 -1.51973982E+01  7.59869910E+00  7.59869910E+00
 -1.51973982E+01  7.59869910E+00  7.59869910E+00 -1.51973982E+01  7.59869910E+00
  7.59869910E+00 -1.51973982E+01  7.59869910E+00  7.59869910E+00 -1.51973982E+01
  7.59869910E+00  7.59869910E+00 -1.51973982E+01  7.59869910E+00  7.59869910E+00
 -1.51973982E+01  7.59869910E+00  7.59869910E+00 -1.51973982E+01  7.59869910E+00
  7.59869910E+00 -1.51973982E+01  7.59869910E+00  7.59869910E+00 -1.51973982E+01
  7.59869910E+00  7.59869910E+00 -1.51973982E+01  7.59869910E+00  7.59869910E+00
 -1.51973982E+01  7.59869910E+00  7.59869910E+00 -1.51973982E+01  7.59869910E+00
  7.59869910E+00 -1.51973982E+01  7.59869910E+00  7.59869910E+00 -1.51973982E+01
  7.59869910E+00  7.59869910E+00 -1.51973982E+01  7.59869910E+00  7.59869910E+00
 -1.51973982E+01  7.59869910E+00  7.59869910E+00 -1.51973982E+01  7.59869910E+00
  7.59869910E+00 -1.51973982E+01  7.59869910E+00  7.59869910E+00 -1.51973982E+01
  7.59869910E+00  7.59869910E+00 -1.51973982E+01  7.59869910E+00  7.59869910E+00
 -1.51973982E+01  7.59869910E+00  7.59869910E+00 -1.51973982E+01  7.59869910E+00
  7.59869910E+00 -1.51973982E+01  7.59869910E+00  7.59869910E+00 -1.51973982E+01
  7.59869910E+00  7.59869910E+00 -1.51973982E+01  7.59869910E+00  7.59869910E+00
 -1.51973982E+01  7.59869910E+00  7.59869910E+00 -1.51973982E+01  7.59869910E+00
  7.59869910E+00 -1.51973982E+01  7.59869910E+00  7.59869910E+00 -1.51973982E+01
  7.59869910E+00  7.59869910E+00 -1.51973982E+01  7.59869910E+00  7.59869910E+00
 -1.51973982E+01  7.59869910E+00  7.59869910E+00 -1.51973982E+01  7.59869910E+00
  7.59869910E+00 -1.51973982E+01  7.59869910E+00  7.59869910E+00 -1.51973982E+01
  7.59869910E+00  7.59869910E+00 -1.51973982E+01  7.59869910E+00  7.59869910E+00
 -1.51973982E+01  7.59869910E+00  7.59869910E+00 -1.51973982E+01  7.59869910E+00
  7.59869910E+00 -1.51973982E+01  7.59869910E+00  7.59869910E+00 -1.51973982E+01
  7.59869910E+00  7.59869910E+00 -1.51973982E+01  7.59869910E+00  7.59869910E+00
 -1.51973982E+01  7.59869910E+00  7.59869910E+00 -1.51973982E+01  7.59869910E+00
  7.59869910E+00 -1.51973982E+01  7.59869910E+00  7.59869910E+00 -1.51973982E+01
  7.59869910E+00  7.59869910E+00 -1.51973982E+01  7.59869910E+00  7.59869910E+00
 -1.51973982E+01  7.59869910E+00  7.59869910E+00 -1.51973982E+01  7.59869910E+00
  7.59869910E+00 -1.51973982E+01  7.59869910E+00  7.59869910E+00 -1.51973982E+01
  7.59869910E+00  7.59869910E+00 -1.51973982E+01  7.59869910E+00  7.59869910E+00
 -1.51973982E+01  7.59869910E+00  7.59869910E+00 -1.51973982E+01  7.59869910E+00
  7.59869910E+00 -1.51973982E+01  7.59869910E+00  7.59869910E+00 -1.51973982E+01
  7.59869910E+00  7.59869910E+00 -1.51973982E+01  7.59869910E+00  7.59869910E+00
 -1.51973982E+01  7.59869910E+00  7.59869910E+00 -1.51973982E+01  7.59869910E+00
  7.59869910E+00 -1.51973982E+01  7.59869910E+00  7.59869910E+00 -1.51973982E+01
  7.59869910E+00  7.59869910E+00 -1.51973982E+01  7.59869910E+00  7.59869910E+00
 -1.51973982E+01  7.59869910E+00  7.59869910E+00 -1.51973982E+01  7.59869910E+00
  7.59869910E+00 -1.51973982E+01  7.59869910E+00  7.59869910E+00 -1.51973982E+01
  7.59869910E+00  7.59869910E+00 -1.51973982E+01  7.59869910E+00  7.59869910E+00
 -1.51973982E+01  7.59869910E+00  7.59869910E+00 -1.51973982E+01  7.59869910E+00
  7.59869910E+00 -1.51973982E+01  7.59869910E+00  7.59869910E+00 -1.51973982E+01
  7.59869910E+00  7.59869910E+00 -1.51973982E+01  7.59869910E+00  7.59869910E+00
 -1.51973982E+01  7.59869910E+00  7.59869910E+00 -1.51973982E+01  7.59869910E+00
  7.59869910E+00 -1.51973982E+01  7.59869910E+00  7.59869910E+00 -1.51973982E+01
  7.59869910E+00  7.59869910E+00 -1.51973982E+01  7.59869910E+00  7.59869910E+00
 -1.51973982E+01  7.59869910E+00  7.59869910E+00 -1.51973982E+01  7.59869910E+00
  7.59869910E+00 -1.51973982E+01  7.59869910E+00  7.59869910E+00 -1.51973982E+01
  7.59869910E+00  7.59869910E+00 -1.51973982E+01  7.59869910E+00  7.59869910E+00
 -1.51973982E+01  7.59869910E+00  7.59869910E+00 -1.51973982E+01  7.59869910E+00
  7.59869910E+00 -1.51973982E+01  7.59869910E+00  7.59869910E+00 -1.51973982E+01
  7.59869910E+00  7.59869910E+00 -1.51973982E+01  7.59869910E+00  7.59869910E+00
 -1.51973982E+01  7.59869910E+00  7.59869910E+00 -1.51973982E+01  7.59869910E+00
  7.59869910E+00 -1.51973982E+01  7.59869910E+00  7.59869910E+00 -1.51973982E+01
  7.59869910E+00  7.59869910E+00 -1.51973982E+01  7.59869910E+00  7.59869910E+00
 -1.51973982E+01  7.59869910E+00  7.59869910E+00 -1.51973982E+01  7.59869910E+00
  7.59869910E+00 -1.51973982E+01  7.59869910E+00  7.59869910E+00 -1.51973982E+01
  7.59869910E+00  7.59869910E+00 -1.51973982E+01  7.59869910E+00  7.59869910E+00
 -1.51973982E+01  7.59869910E+00  7.59869910E+00 -1.51973982E+01  7.59869910E+00
  7.59869910E+00 -1.51973982E+01  7.59869910E+00  7.59869910E+00 -1.51973982E+01
  7.59869910E+00  7.59869910E+00 -1.51973982E+01  7.59869910E+00  7.59869910E+00
 -1.51973982E+01  7.59869910E+00  7.59869910E+00 -1.51973982E+01  7.59869910E+00
  7.59869910E+00 -1.51973982E+01  7.59869910E+00  7.59869910E+00 -1.51973982E+01
  7.59869910E+00  7.59869910E+00 -1.51973982E+01  7.59869910E+00  7.59869910E+00
 -1.51973982E+01  7.59869910E+00  7.59869910E+00 -1.51973982E+01  7.59869910E+00
  7.59869910E+00 -1.51973982E+01  7.59869910E+00  7.59869910E+00 -1.51973982E+01
  7.59869910E+00  7.59869910E+00 -1.51973982E+01  7.59869910E+00  7.59869910E+00
 -1.51973982E+01  7.59869910E+00  7.59869910E+00 -1.51973982E+01  7.59869910E+00
  7.59869910E+00 -1.51973982E+01  7.59869910E+00  7.59869910E+00 -1.51973982E+01
  7.59869910E+00  7.59869910E+00 -1.51973982E+01  7.59869910E+00  7.59869910E+00
 -1.51973982E+01  7.59869910E+00  7.59869910E+00 -1.51973982E+01  7.59869910E+00
  7.59869910E+00 -1.51973982E+01  7.59869910E+00  7.59869910E+00 -1.51973982E+01
  7.59869910E+00  7.59869910E+00 -1.51973982E+01  7.59869910E+00  7.59869910E+00
 -1.51973982E+01  7.59869910E+00  7.59869910E+00 -1.51973982E+01  7.59869910E+00
  7.59869910E+00 -1.51973982E+01  7.59869910E+00  7.59869910E+00 -1.51973982E+01
  7.59869910E+00  7.59869910E+00 -1.51973982E+01  7.59869910E+00  7.59869910E+00
 -1.51973982E+01  7.59869910E+00  7.59869910E+00 -1.51973982E+01  7.59869910E+00
  7.59869910E+00 -1.51973982E+01  7.59869910E+00  7.59869910E+00 -1.51973982E+01
  7.59869910E+00  7.59869910E+00 -1.51973982E+01  7.59869910E+00  7.59869910E+00
 -1.51973982E+01  7.59869910E+00  7.59869910E+00 -1.51973982E+01  7.59869910E+00
  7.59869910E+00 -1.51973982E+01  7.59869910E+00  7.59869910E+00 -1.51973982E+01
  7.59869910E+00  7.59869910E+00 -1.51973982E+01  7.59869910E+00  7.59869910E+00
 -1.51973982E+01  7.59869910E+00  7.59869910E+00 -1.51973982E+01  7.59869910E+00
  7.59869910E+00 -1.51973982E+01  7.59869910E+00  7.59869910E+00 -1.51973982E+01
  7.59869910E+00  7.59869910E+00 -1.51973982E+01  7.59869910E+00  7.59869910E+00
 -1.51973982E+01  7.59869910E+00  7.59869910E+00 -1.51973982E+01  7.59869910E+00
  7.59869910E+00 -1.51973982E+01  7.59869910E+00  7.59869910E+00 -1.51973982E+01
  7.59869910E+00  7.59869910E+00 -1.51973982E+01  7.59869910E+00  7.59869910E+00
 -1.51973982E+01  7.59869910E+00  7.59869910E+00 -1.51973982E+01  7.59869910E+00
  7.59869910E+00 -1.51973982E+01  7.59869910E+00  7.59869910E+00 -1.51973982E+01
  7.59869910E+00  7.59869910E+00 -1.51973982E+01  7.59869910E+00  7.59869910E+00
 -1.51973982E+01  7.59869910E+00  7.59869910E+00 -1.51973982E+01  7.59869910E+00
  7.59869910E+00 -1.51973982E+01  7.59869910E+00  7.59869910E+00 -1.51973982E+01
  7.59869910E+00  7.59869910E+00 -1.51973982E+01  7.59869910E+00  7.59869910E+00
 -1.51973982E+01  7.59869910E+00  7.59869910E+00 -1.51973982E+01  7.59869910E+00
  7.59869910E+00 -1.51973982E+01  7.59869910E+00  7.59869910E+00 -1.51973982E+01
  7.59869910E+00  7.59869910E+00 -1.51973982E+01  7.59869910E+00  7.59869910E+00
 -1.51973982E+01  7.59869910E+00  7.59869910E+00 -1.51973982E+01  7.59869910E+00
  7.59869910E+00 -1.51973982E+01  7.59869910E+00  7.59869910E+00 -1.51973982E+01
  7.59869910E+00  7.59869910E+00 -1.51973982E+01  7.59869910E+00  7.59869910E+00
 -1.51973982E+01  7.59869910E+00  7.59869910E+00 -1.51973982E+01  7.59869910E+00
  7.59869910E+00 -1.51973982E+01  7.59869910E+00  7.59869910E+00 -1.51973982E+01
  7.59869910E+00  7.59869910E+00 -1.51973982E+01  7.59869910E+00  7.59869910E+00
 -1.51973982E+01  7.59869910E+00  7.59869910E+00 -1.51973982E+01  7.59869910E+00
  7.59869910E+00 -1.51973982E+01  7.59869910E+00  7.59869910E+00 -1.51973982E+01
  7.59869910E+00  7.59869910E+00 -1.51973982E+01  7.59869910E+00  7.59869910E+00
 -1.51973982E+01  7.59869910E+00  7.59869910E+00 -1.51973982E+01  7.59869910E+00
  7.59869910E+00 -1.51973982E+01  7.59869910E+00  7.59869910E+00 -1.51973982E+01
  7.59869910E+00  7.59869910E+00 -1.51973982E+01  7.59869910E+00  7.59869910E+00
 -1.51973982E+01  7.59869910E+00  7.59869910E+00 -1.51973982E+01  7.59869910E+00
  7.59869910E+00 -1.51973982E+01  7.59869910E+00  7.59869910E+00 -1.51973982E+01
  7.59869910E+00  7.59869910E+00 -1.51973982E+01  7.59869910E+00  7.59869910E+00
 -1.51973982E+01  7.59869910E+00  7.59869910E+00 -1.51973982E+01  7.59869910E+00
  7.59869910E+00 -1.51973982E+01  7.59869910E+00  7.59869910E+00 -1.51973982E+01
  7.59869910E+00  7.59869910E+00 -1.51973982E+01  7.59869910E+00  7.59869910E+00
 -1.51973982E+01  7.59869910E+00  7.59869910E+00 -1.51973982E+01  7.59869910E+00
  7.59869910E+00 -1.51973982E+01  7.59869910E+00  7.59869910E+00 -1.51973982E+01
  7.59869910E+00  7.59869910E+00 -1.51973982E+01  7.59869910E+00  7.59869910E+00
 -1.51973982E+01  7.59869910E+00  7.59869910E+00 -1.51973982E+01  7.59869910E+00
  7.59869910E+00 -1.51973982E+01  7.59869910E+00  7.59869910E+00 -1.51973982E+01
  7.59869910E+00  7.59869910E+00 -1.51973982E+01  7.59869910E+00  7.59869910E+00
 -1.51973982E+01  7.59869910E+00  7.59869910E+00 -1.51973982E+01  7.59869910E+00
  7.59869910E+00 -1.51973982E+01  7.59869910E+00  7.59869910E+00 -1.51973982E+01
  7.59869910E+00  7.59869910E+00 -1.51973982E+01  7.59869910E+00  7.59869910E+00
 -1.51973982E+01  7.59869910E+00  7.59869910E+00 -1.51973982E+01  7.59869910E+00
  7.59869910E+00 -1.51973982E+01  7.59869910E+00  7.59869910E+00 -1.51973982E+01
  7.59869910E+00  7.59869910E+00 -1.51973982E+01  7.59869910E+00  7.59869910E+00
 -1.51973982E+01  7.59869910E+00  7.59869910E+00 -1.51973982E+01  7.59869910E+00
  7.59869910E+00 -1.51973982E+01  7.59869910E+00  7.59869910E+00 -1.51973982E+01
  7.59869910E+00  7.59869910E+00 -1.51973982E+01  7.59869910E+00  7.59869910E+00
 -1.51973982E+01  7.59869910E+00  7.59869910E+00 -1.51973982E+01  7.59869910E+00
  7.59869910E+00 -1.51973982E+01  7.59869910E+00  7.59869910E+00 -1.51973982E+01
  7.59869910E+00  7.59869910E+00 -1.51973982E+01  7.59869910E+00  7.59869910E+00
 -1.51973982E+01  7.59869910E+00  7.59869910E+00 -1.51973982E+01  7.59869910E+00
  7.59869910E+00 -1.51973982E+01  7.59869910E+00  7.59869910E+00 -1.51973982E+01
  7.59869910E+00  7.59869910E+00 -1.51973982E+01  7.59869910E+00  7.59869910E+00
 -1.51973982E+01  7.59869910E+00  7.59869910E+00 -1.51973982E+01  7.59869910E+00
  7.59869910E+00 -1.51973982E+01  7.59869910E+00  7.59869910E+00 -1.51973982E+01
  7.59869910E+00  7.59869910E+00 -1.51973982E+01  7.59869910E+00  7.59869910E+00
 -1.51973982E+01  7.59869910E+00  7.59869910E+00 -1.51973982E+01  7.59869910E+00
  7.59869910E+00 -1.51973982E+01  7.59869910E+00  7.59869910E+00 -1.51973982E+01
  7.59869910E+00  7.59869910E+00 -1.51973982E+01  7.59869910E+00  7.59869910E+00
 -1.51973982E+01  7.59869910E+00  7.59869910E+00 -1.51973982E+01  7.59869910E+00
  7.59869910E+00 -1.51973982E+01  7.59869910E+00  7.59869910E+00 -1.51973982E+01
  7.59869910E+00  7.59869910E+00 -1.51973982E+01  7.59869910E+00  7.59869910E+00
 -1.51973982E+01  7.59869910E+00  7.59869910E+00 -1.51973982E+01  7.59869910E+00
  7.59869910E+00 -1.51973982E+01  7.59869910E+00  7.59869910E+00 -1.51973982E+01
  7.59869910E+00  7.59869910E+00 -1.51973982E+01  7.59869910E+00  7.59869910E+00
 -1.51973982E+01  7.59869910E+00  7.59869910E+00 -1.51973982E+01  7.59869910E+00
  7.59869910E+00 -1.51973982E+01  7.59869910E+00  7.59869910E+00 -1.51973982E+01
  7.59869910E+00  7.59869910E+00 -1.51973982E+01  7.59869910E+00  7.59869910E+00
 -1.51973982E+01  7.59869910E+00  7.59869910E+00 -1.51973982E+01  7.59869910E+00
  7.59869910E+00 -1.51973982E+01  7.59869910E+00  7.59869910E+00 -1.51973982E+01
  7.59869910E+00  7.59869910E+00 -1.51973982E+01  7.59869910E+00  7.59869910E+00
 -1.51973982E+01  7.59869910E+00  7.59869910E+00 -1.51973982E+01  7.59869910E+00
  7.59869910E+00 -1.51973982E+01  7.59869910E+00  7.59869910E+00 -1.51973982E+01
  7.59869910E+00  7.59869910E+00 -1.51973982E+01  7.59869910E+00  7.59869910E+00
 -1.51973982E+01  7.59869910E+00  7.59869910E+00 -1.51973982E+01  7.59869910E+00
  7.59869910E+00 -1.51973982E+01  7.59869910E+00  7.59869910E+00 -1.51973982E+01
  7.59869910E+00  7.59869910E+00 -1.51973982E+01  7.59869910E+00  7.59869910E+00
 -1.51973982E+01  7.59869910E+00  7.59869910E+00 -1.51973982E+01  7.59869910E+00
  7.59869910E+00 -1.51973982E+01  7.59869910E+00  7.59869910E+00 -1.51973982E+01
  7.59869910E+00  7.59869910E+00 -1.51973982E+01  7.59869910E+00  7.59869910E+00
 -1.51973982E+01  7.59869910E+00  7.59869910E+00 -1.51973982E+01  7.59869910E+00
  7.59869910E+00 -1.51973982E+01  7.59869910E+00  7.59869910E+00 -1.51973982E+01
  7.59869910E+00  7.59869910E+00 -1.51973982E+01  7.59869910E+00  7.59869910E+00
 -1.51973982E+01  7.59869910E+00  7.59869910E+00 -1.51973982E+01  7.59869910E+00
  7.59869910E+00 -1.51973982E+01  7.59869910E+00  7.59869910E+00 -1.51973982E+01
  7.59869910E+00  7.59869910E+00 -1.51973982E+01  7.59869910E+00  7.59869910E+00
 -1.51973982E+01  7.59869910E+00  7.59869910E+00 -1.51973982E+01  7.59869910E+00
  7.59869910E+00 -1.51973982E+01  7.59869910E+00  7.59869910E+00 -1.51973982E+01
  7.59869910E+00  7.59869910E+00 -1.51973982E+01  7.59869910E+00  7.59869910E+00
 -1.51973982E+01  7.59869910E+00  7.59869910E+00 -1.51973982E+01  7.59869910E+00
  7.59869910E+00 -1.51973982E+01  7.59869910E+00  7.59869910E+00 -1.51973982E+01
  7.59869910E+00  7.59869910E+00 -1.51973982E+01  7.59869910E+00  7.59869910E+00
 -1.51973982E+01  7.59869910E+00  7.59869910E+00 -1.51973982E+01  7.59869910E+00
  7.59869910E+00 -1.51973982E+01  7.59869910E+00  7.59869910E+00 -1.51973982E+01
  7.59869910E+00  7.59869910E+00 -1.51973982E+01  7.59869910E+00  7.59869910E+00
 -1.51973982E+01  7.59869910E+00  7.59869910E+00 -1.51973982E+01  7.59869910E+00
  7.59869910E+00 -1.51973982E+01  7.59869910E+00  7.59869910E+00 -1.51973982E+01
  7.59869910E+00  7.59869910E+00 -1.51973982E+01  7.59869910E+00  7.59869910E+00
 -1.51973982E+01  7.59869910E+00  7.59869910E+00 -1.51973982E+01  7.59869910E+00
  7.59869910E+00 -1.51973982E+01  7.59869910E+00  7.59869910E+00 -1.51973982E+01
  7.59869910E+00  7.59869910E+00 -1.51973982E+01  7.59869910E+00  7.59869910E+00
 -1.51973982E+01  7.59869910E+00  7.59869910E+00 -1.51973982E+01  7.59869910E+00
  7.59869910E+00 -1.51973982E+01  7.59869910E+00  7.59869910E+00 -1.51973982E+01
  7.59869910E+00  7.59869910E+00 -1.51973982E+01  7.59869910E+00  7.59869910E+00
 -1.51973982E+01  7.59869910E+00  7.59869910E+00 -1.51973982E+01  7.59869910E+00
  7.59869910E+00 -1.51973982E+01  7.59869910E+00  7.59869910E+00 -1.51973982E+01
  7.59869910E+00  7.59869910E+00 -1.51973982E+01  7.59869910E+00  7.59869910E+00
 -1.51973982E+01  7.59869910E+00  7.59869910E+00 -1.51973982E+01  7.59869910E+00
  7.59869910E+00 -1.51973982E+01  7.59869910E+00  7.59869910E+00 -1.51973982E+01
  7.59869910E+00  7.59869910E+00 -1.51973982E+01  7.59869910E+00  7.59869910E+00
 -1.51973982E+01  7.59869910E+00  7.59869910E+00 -1.51973982E+01  7.59869910E+00
  7.59869910E+00 -1.51973982E+01  7.59869910E+00  7.59869910E+00 -1.51973982E+01
  7.59869910E+00  7.59869910E+00 -1.51973982E+01  7.59869910E+00  7.59869910E+00
 -1.51973982E+01  7.59869910E+00  7.59869910E+00 -1.51973982E+01  7.59869910E+00
  7.59869910E+00 -1.51973982E+01  7.59869910E+00  7.59869910E+00 -1.51973982E+01
  7.59869910E+00  7.59869910E+00 -1.51973982E+01  7.59869910E+00  7.59869910E+00
 -1.51973982E+01  7.59869910E+00  7.59869910E+00 -1.51973982E+01  7.59869910E+00
  7.59869910E+00 -1.51973982E+01  7.59869910E+00  7.59869910E+00 -1.51973982E+01
  7.59869910E+00  7.59869910E+00 -1.51973982E+01  7.59869910E+00  7.59869910E+00
 -1.51973982E+01  7.59869910E+00  7.59869910E+00 -1.51973982E+01  7.59869910E+00
  7.59869910E+00 -1.51973982E+01  7.59869910E+00  7.59869910E+00 -1.51973982E+01
  7.59869910E+00  7.59869910E+00 -1.51973982E+01  7.59869910E+00  7.59869910E+00
 -1.51973982E+01  7.59869910E+00  7.59869910E+00 -1.51973982E+01  7.59869910E+00
  7.59869910E+00 -1.51973982E+01  7.59869910E+00  7.59869910E+00 -1.51973982E+01
  7.59869910E+00  7.59869910E+00 -1.51973982E+01  7.59869910E+00  7.59869910E+00
 -1.51973982E+01  7.59869910E+00  7.59869910E+00 -1.51973982E+01  7.59869910E+00
  7.59869910E+00 -1.51973982E+01  7.59869910E+00  7.59869910E+00 -1.51973982E+01
  7.59869910E+00  7.59869910E+00 -1.51973982E+01  7.59869910E+00  7.59869910E+00
 -1.51973982E+01  7.59869910E+00  7.59869910E+00 -1.51973982E+01  7.59869910E+00
  7.59869910E+00 -1.51973982E+01  7.59869910E+00  7.59869910E+00 -1.51973982E+01
  7.59869910E+00  7.59869910E+00 -1.51973982E+01  7.59869910E+00  7.59869910E+00
 -1.51973982E+01  7.59869910E+00  7.59869910E+00 -1.51973982E+01  7.59869910E+00
  7.59869910E+00 -1.51973982E+01  7.59869910E+00  7.59869910E+00 -1.51973982E+01
  7.59869910E+00  7.59869910E+00 -1.51973982E+01  7.59869910E+00  7.59869910E+00
 -1.51973982E+01  7.59869910E+00  7.59869910E+00 -1.51973982E+01  7.59869910E+00
  7.59869910E+00 -1.51973982E+01  7.59869910E+00  7.59869910E+00 -1.51973982E+01
  7.59869910E+00  7.59869910E+00 -1.51973982E+01  7.59869910E+00  7.59869910E+00
 -1.51973982E+01  7.59869910E+00  7.59869910E+00 -1.51973982E+01  7.59869910E+00
  7.59869910E+00 -1.51973982E+01  7.59869910E+00  7.59869910E+00 -1.51973982E+01
  7.59869910E+00  7.59869910E+00 -1.51973982E+01  7.59869910E+00  7.59869910E+00
 -1.51973982E+01  7.59869910E+00  7.59869910E+00 -1.51973982E+01  7.59869910E+00
  7.59869910E+00 -1.51973982E+01  7.59869910E+00  7.59869910E+00 -1.51973982E+01
  7.59869910E+00  7.59869910E+00 -1.51973982E+01  7.59869910E+00  7.59869910E+00
 -1.51973982E+01  7.59869910E+00  7.59869910E+00 -1.51973982E+01  7.59869910E+00
  7.59869910E+00 -1.51973982E+01  7.59869910E+00  7.59869910E+00 -1.51973982E+01
  7.59869910E+00  7.59869910E+00 -1.51973982E+01  7.59869910E+00  7.59869910E+00
 -1.51973982E+01  7.59869910E+00  7.59869910E+00 -1.51973982E+01  7.59869910E+00
  7.59869910E+00 -1.51973982E+01  7.59869910E+00  7.59869910E+00 -1.51973982E+01
  7.59869910E+00  7.59869910E+00 -1.51973982E+01  7.59869910E+00  7.59869910E+00
 -1.51973982E+01  7.59869910E+00  7.59869910E+00 -1.51973982E+01  7.59869910E+00
  7.59869910E+00 -1.51973982E+01  7.59869910E+00  7.59869910E+00 -1.51973982E+01
  7.59869910E+00  7.59869910E+00 -1.51973982E+01  7.59869910E+00  7.59869910E+00
 -1.51973982E+01  7.59869910E+00  7.59869910E+00 -1.51973982E+01  7.59869910E+00
  7.59869910E+00 -1.51973982E+01  7.59869910E+00  7.59869910E+00 -1.51973982E+01
  7.59869910E+00  7.59869910E+00 -1.51973982E+01  7.59869910E+00  7.59869910E+00
 -1.51973982E+01  7.59869910E+00  7.59869910E+00 -1.51973982E+01  7.59869910E+00
  7.59869910E+00 -1.51973982E+01  7.59869910E+00  7.59869910E+00 -1.51973982E+01
  7.59869910E+00  7.59869910E+00 -1.51973982E+01  7.59869910E+00  7.59869910E+00
 -1.51973982E+01  7.59869910E+00  7.59869910E+00 -1.51973982E+01  7.59869910E+00
  7.59869910E+00 -1.51973982E+01  7.59869910E+00  7.59869910E+00 -1.51973982E+01
  7.59869910E+00  7.59869910E+00 -1.51973982E+01  7.59869910E+00  7.59869910E+00
 -1.51973982E+01  7.59869910E+00  7.59869910E+00 -1.51973982E+01  7.59869910E+00
  7.59869910E+00 -1.51973982E+01  7.59869910E+00  7.59869910E+00 -1.51973982E+01
  7.59869910E+00  7.59869910E+00 -1.51973982E+01  7.59869910E+00  7.59869910E+00
 -1.51973982E+01  7.59869910E+00  7.59869910E+00 -1.51973982E+01  7.59869910E+00
  7.59869910E+00 -1.51973982E+01  7.59869910E+00  7.59869910E+00 -1.51973982E+01
  7.59869910E+00  7.59869910E+00 -1.51973982E+01  7.59869910E+00  7.59869910E+00
 -1.51973982E+01  7.59869910E+00  7.59869910E+00 -1.51973982E+01  7.59869910E+00
  7.59869910E+00 -1.51973982E+01  7.59869910E+00  7.59869910E+00 -1.51973982E+01
  7.59869910E+00  7.59869910E+00 -1.51973982E+01  7.59869910E+00  7.59869910E+00
 -1.51973982E+01  7.59869910E+00  7.59869910E+00 -1.51973982E+01  7.59869910E+00
  7.59869910E+00 -1.51973982E+01  7.59869910E+00  7.59869910E+00 -1.51973982E+01
  7.59869910E+00  7.59869910E+00 -1.51973982E+01  7.59869910E+00  7.59869910E+00
 -1.51973982E+01  7.59869910E+00  7.59869910E+00 -1.51973982E+01  7.59869910E+00
  7.59869910E+00 -1.51973982E+01  7.59869910E+00  7.59869910E+00 -1.51973982E+01
  7.59869910E+00  7.59869910E+00 -1.51973982E+01  7.59869910E+00  7.59869910E+00
 -1.51973982E+01  7.59869910E+00  7.59869910E+00 -1.51973982E+01  7.59869910E+00
  7.59869910E+00 -1.51973982E+01  7.59869910E+00  7.59869910E+00 -1.51973982E+01
  7.59869910E+00  7.59869910E+00 -1.51973982E+01  7.59869910E+00  7.59869910E+00
 -1.51973982E+01  7.59869910E+00  7.59869910E+00 -1.51973982E+01  7.59869910E+00
  7.59869910E+00 -1.51973982E+01  7.59869910E+00  7.59869910E+00 -1.51973982E+01
  7.59869910E+00  7.59869910E+00 -1.51973982E+01  7.59869910E+00  7.59869910E+00
 -1.51973982E+01  7.59869910E+00  7.59869910E+00 -1.51973982E+01  7.59869910E+00
  7.59869910E+00 -1.51973982E+01  7.59869910E+00  7.59869910E+00 -1.51973982E+01
  7.59869910E+00  7.59869910E+00 -1.51973982E+01  7.59869910E+00  7.59869910E+00
 -1.51973982E+01  7.59869910E+00  7.59869910E+00 -1.51973982E+01  7.59869910E+00
  7.59869910E+00 -1.51973982E+01  7.59869910E+00  7.59869910E+00 -1.51973982E+01
  7.59869910E+00  7.59869910E+00 -1.51973982E+01  7.59869910E+00  7.59869910E+00
 -1.51973982E+01  7.59869910E+00  7.59869910E+00 -1.51973982E+01  7.59869910E+00
  7.59869910E+00 -1.51973982E+01  7.59869910E+00  7.59869910E+00 -1.51973982E+01
  7.59869910E+00  7.59869910E+00 -1.51973982E+01  7.59869910E+00  7.59869910E+00
 -1.51973982E+01  7.59869910E+00  7.59869910E+00 -1.51973982E+01  7.59869910E+00
  7.59869910E+00 -1.51973982E+01  7.59869910E+00  7.59869910E+00 -1.51973982E+01
  7.59869910E+00  7.59869910E+00 -1.51973982E+01  7.59869910E+00  7.59869910E+00
 -1.51973982E+01  7.59869910E+00  7.59869910E+00 -1.51973982E+01  7.59869910E+00
  7.59869910E+00 -1.51973982E+01  7.59869910E+00  7.59869910E+00 -1.51973982E+01
  7.59869910E+00  7.59869910E+00 -1.51973982E+01  7.59869910E+00  7.59869910E+00
 -1.51973982E+01  7.59869910E+00  7.59869910E+00 -1.51973982E+01  7.59869910E+00
  7.59869910E+00 -1.51973982E+01  7.59869910E+00  7.59869910E+00 -1.51973982E+01
  7.59869910E+00  7.59869910E+00 -1.51973982E+01  7.59869910E+00  7.59869910E+00
 -1.51973982E+01  7.59869910E+00  7.59869910E+00 -1.51973982E+01  7.59869910E+00
  7.59869910E+00 -1.51973982E+01  7.59869910E+00  7.59869910E+00 -1.51973982E+01
  7.59869910E+00  7.59869910E+00 -1.51973982E+01  7.59869910E+00  7.59869910E+00
 -1.51973982E+01  7.59869910E+00  7.59869910E+00 -1.51973982E+01  7.59869910E+00
  7.59869910E+00 -1.51973982E+01  7.59869910E+00  7.59869910E+00 -1.51973982E+01
  7.59869910E+00  7.59869910E+00 -1.51973982E+01  7.59869910E+00  7.59869910E+00
 -1.51973982E+01  7.59869910E+00  7.59869910E+00 -1.51973982E+01  7.59869910E+00
  7.59869910E+00 -1.51973982E+01  7.59869910E+00  7.59869910E+00 -1.51973982E+01
  7.59869910E+00  7.59869910E+00 -1.51973982E+01  7.59869910E+00  7.59869910E+00
 -1.51973982E+01  7.59869910E+00  7.59869910E+00 -1.51973982E+01  7.59869910E+00
  7.59869910E+00 -1.51973982E+01  7.59869910E+00  7.59869910E+00 -1.51973982E+01
  7.59869910E+00  7.59869910E+00 -1.51973982E+01  7.59869910E+00  7.59869910E+00
 -1.51973982E+01  7.59869910E+00  7.59869910E+00 -1.51973982E+01  7.59869910E+00
  7.59869910E+00 -1.51973982E+01  7.59869910E+00  7.59869910E+00 -1.51973982E+01
  7.59869910E+00  7.59869910E+00 -1.51973982E+01  7.59869910E+00  7.59869910E+00
 -1.51973982E+01  7.59869910E+00  7.59869910E+00 -1.51973982E+01  7.59869910E+00
  7.59869910E+00 -1.51973982E+01  7.59869910E+00  7.59869910E+00 -1.51973982E+01
  7.59869910E+00  7.59869910E+00 -1.51973982E+01  7.59869910E+00  7.59869910E+00
 -1.51973982E+01  7.59869910E+00  7.59869910E+00 -1.51973982E+01  7.59869910E+00
  7.59869910E+00 -1.51973982E+01  7.59869910E+00  7.59869910E+00 -1.51973982E+01
  7.59869910E+00  7.59869910E+00 -1.51973982E+01  7.59869910E+00  7.59869910E+00
 -1.51973982E+01  7.59869910E+00  7.59869910E+00 -1.51973982E+01  7.59869910E+00
  7.59869910E+00 -1.51973982E+01  7.59869910E+00  7.59869910E+00 -1.51973982E+01
  7.59869910E+00  7.59869910E+00 -1.51973982E+01  7.59869910E+00  7.59869910E+00
 -1.51973982E+01  7.59869910E+00  7.59869910E+00 -1.51973982E+01  7.59869910E+00
  7.59869910E+00 -1.51973982E+01  7.59869910E+00  7.59869910E+00 -1.51973982E+01
  7.59869910E+00  7.59869910E+00 -1.51973982E+01  7.59869910E+00  7.59869910E+00
 -1.51973982E+01  7.59869910E+00  7.59869910E+00 -1.51973982E+01  7.59869910E+00
  7.59869910E+00 -1.51973982E+01  7.59869910E+00  7.59869910E+00 -1.51973982E+01
  7.59869910E+00  7.59869910E+00 -1.51973982E+01  7.59869910E+00  7.59869910E+00
 -1.51973982E+01  7.59869910E+00  7.59869910E+00 -1.51973982E+01  7.59869910E+00
  7.59869910E+00 -1.51973982E+01  7.59869910E+00  7.59869910E+00 -1.51973982E+01
  7.59869910E+00  7.59869910E+00 -1.51973982E+01  7.59869910E+00  7.59869910E+00
 -1.51973982E+01  7.59869910E+00  7.59869910E+00 -1.51973982E+01  7.59869910E+00
  7.59869910E+00 -1.51973982E+01  7.59869910E+00  7.59869910E+00 -1.51973982E+01
  7.59869910E+00  7.59869910E+00 -1.51973982E+01  7.59869910E+00  7.59869910E+00
 -1.51973982E+01  7.59869910E+00  7.59869910E+00 -1.51973982E+01  7.59869910E+00
  7.59869910E+00 -1.51973982E+01  7.59869910E+00  7.59869910E+00 -1.51973982E+01
  7.59869910E+00  7.59869910E+00 -1.51973982E+01  7.59869910E+00  7.59869910E+00
 -1.51973982E+01  7.59869910E+00  7.59869910E+00 -1.51973982E+01  7.59869910E+00
  7.59869910E+00 -1.51973982E+01  7.59869910E+00  7.59869910E+00 -1.51973982E+01
  7.59869910E+00  7.59869910E+00 -1.51973982E+01  7.59869910E+00  7.59869910E+00
 -1.51973982E+01  7.59869910E+00  7.59869910E+00 -1.51973982E+01  7.59869910E+00
  7.59869910E+00 -1.51973982E+01  7.59869910E+00  7.59869910E+00 -1.51973982E+01
  7.59869910E+00  7.59869910E+00 -1.51973982E+01  7.59869910E+00  7.59869910E+00
 -1.51973982E+01  7.59869910E+00  7.59869910E+00 -1.51973982E+01  7.59869910E+00
  7.59869910E+00 -1.51973982E+01  7.59869910E+00  7.59869910E+00 -1.51973982E+01
  7.59869910E+00  7.59869910E+00 -1.51973982E+01  7.59869910E+00  7.59869910E+00
 -1.51973982E+01  7.59869910E+00  7.59869910E+00 -1.51973982E+01  7.59869910E+00
  7.59869910E+00 -1.51973982E+01  7.59869910E+00  7.59869910E+00 -1.51973982E+01
  7.59869910E+00  7.59869910E+00 -1.51973982E+01  7.59869910E+00  7.59869910E+00
 -1.51973982E+01  7.59869910E+00  7.59869910E+00 -1.51973982E+01  7.59869910E+00
  7.59869910E+00 -1.51973982E+01  7.59869910E+00  7.59869910E+00 -1.51973982E+01
  7.59869910E+00  7.59869910E+00 -1.51973982E+01  7.59869910E+00  7.59869910E+00
 -1.51973982E+01  7.59869910E+00  7.59869910E+00 -1.51973982E+01  7.59869910E+00
  7.59869910E+00 -1.51973982E+01  7.59869910E+00  7.59869910E+00 -1.51973982E+01
  7.59869910E+00  7.59869910E+00 -1.51973982E+01  7.59869910E+00  7.59869910E+00
 -1.51973982E+01  7.59869910E+00  7.59869910E+00 -1.51973982E+01  7.59869910E+00
  7.59869910E+00 -1.51973982E+01  7.59869910E+00  7.59869910E+00 -1.51973982E+01
  7.59869910E+00  7.59869910E+00 -1.51973982E+01  7.59869910E+00  7.59869910E+00
 -1.51973982E+01  7.59869910E+00  7.59869910E+00 -1.51973982E+01  7.59869910E+00
  7.59869910E+00 -1.51973982E+01  7.59869910E+00  7.59869910E+00 -1.51973982E+01
  7.59869910E+00  7.59869910E+00 -1.51973982E+01  7.59869910E+00  7.59869910E+00
 -1.51973982E+01  7.59869910E+00  7.59869910E+00 -1.51973982E+01  7.59869910E+00
  7.59869910E+00 -1.51973982E+01  7.59869910E+00  7.59869910E+00 -1.51973982E+01
  7.59869910E+00  7.59869910E+00 -1.51973982E+01  7.59869910E+00  7.59869910E+00
 -1.51973982E+01  7.59869910E+00  7.59869910E+00 -1.51973982E+01  7.59869910E+00
  7.59869910E+00 -1.51973982E+01  7.59869910E+00  7.59869910E+00 -1.51973982E+01
  7.59869910E+00  7.59869910E+00 -1.51973982E+01  7.59869910E+00  7.59869910E+00
 -1.51973982E+01  7.59869910E+00  7.59869910E+00 -1.51973982E+01  7.59869910E+00
  7.59869910E+00 -1.51973982E+01  7.59869910E+00  7.59869910E+00 -1.51973982E+01
  7.59869910E+00  7.59869910E+00 -1.51973982E+01  7.59869910E+00  7.59869910E+00
 -1.51973982E+01  7.59869910E+00  7.59869910E+00 -1.51973982E+01  7.59869910E+00
  7.59869910E+00 -1.51973982E+01  7.59869910E+00  7.59869910E+00 -1.51973982E+01
  7.59869910E+00  7.59869910E+00 -1.51973982E+01  7.59869910E+00  7.59869910E+00
 -1.51973982E+01  7.59869910E+00  7.59869910E+00 -1.51973982E+01  7.59869910E+00
  7.59869910E+00 -1.51973982E+01  7.59869910E+00  7.59869910E+00 -1.51973982E+01
  7.59869910E+00  7.59869910E+00 -1.51973982E+01  7.59869910E+00  7.59869910E+00
 -1.51973982E+01  7.59869910E+00  7.59869910E+00 -1.51973982E+01  7.59869910E+00
  7.59869910E+00 -1.51973982E+01  7.59869910E+00  7.59869910E+00 -1.51973982E+01
  7.59869910E+00  7.59869910E+00 -1.51973982E+01  7.59869910E+00  7.59869910E+00
 -1.51973982E+01  7.59869910E+00  7.59869910E+00 -1.51973982E+01  7.59869910E+00
  7.59869910E+00 -1.51973982E+01  7.59869910E+00  7.59869910E+00 -1.51973982E+01
  7.59869910E+00  7.59869910E+00 -1.51973982E+01  7.59869910E+00  7.59869910E+00
 -1.51973982E+01  7.59869910E+00  7.59869910E+00 -1.51973982E+01  7.59869910E+00
  7.59869910E+00 -1.51973982E+01  7.59869910E+00  7.59869910E+00 -1.51973982E+01
  7.59869910E+00  7.59869910E+00 -1.51973982E+01  7.59869910E+00  7.59869910E+00
 -1.51973982E+01  7.59869910E+00  7.59869910E+00 -1.51973982E+01  7.59869910E+00
  7.59869910E+00 -1.51973982E+01  7.59869910E+00  7.59869910E+00 -1.51973982E+01
  7.59869910E+00  7.59869910E+00 -1.51973982E+01  7.59869910E+00  7.59869910E+00
 -1.51973982E+01  7.59869910E+00  7.59869910E+00 -1.51973982E+01  7.59869910E+00
  7.59869910E+00 -1.51973982E+01  7.59869910E+00  7.59869910E+00 -1.51973982E+01
  7.59869910E+00  7.59869910E+00 -1.51973982E+01  7.59869910E+00  7.59869910E+00
 -1.51973982E+01  7.59869910E+00  7.59869910E+00 -1.51973982E+01  7.59869910E+00
  7.59869910E+00 -1.51973982E+01  7.59869910E+00  7.59869910E+00 -1.51973982E+01
  7.59869910E+00  7.59869910E+00 -1.51973982E+01  7.59869910E+00  7.59869910E+00
 -1.51973982E+01  7.59869910E+00  7.59869910E+00 -1.51973982E+01  7.59869910E+00
  7.59869910E+00 -1.51973982E+01  7.59869910E+00  7.59869910E+00 -1.51973982E+01
  7.59869910E+00  7.59869910E+00 -1.51973982E+01  7.59869910E+00  7.59869910E+00
 -1.51973982E+01  7.59869910E+00  7.59869910E+00 -1.51973982E+01  7.59869910E+00
  7.59869910E+00 -1.51973982E+01  7.59869910E+00  7.59869910E+00 -1.51973982E+01
  7.59869910E+00  7.59869910E+00 -1.51973982E+01  7.59869910E+00  7.59869910E+00
 -1.51973982E+01  7.59869910E+00  7.59869910E+00 -1.51973982E+01  7.59869910E+00
  7.59869910E+00 -1.51973982E+01  7.59869910E+00  7.59869910E+00 -1.51973982E+01
  7.59869910E+00  7.59869910E+00 -1.51973982E+01  7.59869910E+00  7.59869910E+00
 -1.51973982E+01  7.59869910E+00  7.59869910E+00 -1.51973982E+01  7.59869910E+00
  7.59869910E+00 -1.51973982E+01  7.59869910E+00  7.59869910E+00 -1.51973982E+01
  7.59869910E+00  7.59869910E+00 -1.51973982E+01  7.59869910E+00  7.59869910E+00
 -1.51973982E+01  7.59869910E+00  7.59869910E+00 -1.51973982E+01  7.59869910E+00
  7.59869910E+00 -1.51973982E+01  7.59869910E+00  7.59869910E+00 -1.51973982E+01
  7.59869910E+00  7.59869910E+00 -1.51973982E+01  7.59869910E+00  7.59869910E+00
 -1.51973982E+01  7.59869910E+00  7.59869910E+00 -1.51973982E+01  7.59869910E+00
  7.59869910E+00 -1.51973982E+01  7.59869910E+00  7.59869910E+00 -1.51973982E+01
  7.59869910E+00  7.59869910E+00 -1.51973982E+01  7.59869910E+00  7.59869910E+00
 -1.51973982E+01  7.59869910E+00  7.59869910E+00 -1.51973982E+01  7.59869910E+00
  7.59869910E+00 -1.51973982E+01  7.59869910E+00  7.59869910E+00 -1.51973982E+01
  7.59869910E+00  7.59869910E+00 -1.51973982E+01  7.59869910E+00  7.59869910E+00
 -1.51973982E+01  7.59869910E+00  7.59869910E+00 -1.51973982E+01  7.59869910E+00
  7.59869910E+00 -1.51973982E+01  7.59869910E+00  7.59869910E+00 -1.51973982E+01
  7.59869910E+00  7.59869910E+00 -1.51973982E+01  7.59869910E+00  7.59869910E+00
 -1.51973982E+01  7.59869910E+00  7.59869910E+00 -1.51973982E+01  7.59869910E+00
  7.59869910E+00 -1.51973982E+01  7.59869910E+00  7.59869910E+00 -1.51973982E+01
  7.59869910E+00  7.59869910E+00 -1.51973982E+01  7.59869910E+00  7.59869910E+00
 -1.51973982E+01  7.59869910E+00  7.59869910E+00 -1.51973982E+01  7.59869910E+00
  7.59869910E+00 -1.51973982E+01  7.59869910E+00  7.59869910E+00 -1.51973982E+01
  7.59869910E+00  7.59869910E+00 -1.51973982E+01  7.59869910E+00  7.59869910E+00
 -1.51973982E+01  7.59869910E+00  7.59869910E+00 -1.51973982E+01  7.59869910E+00
  7.59869910E+00 -1.51973982E+01  7.59869910E+00  7.59869910E+00 -1.51973982E+01
  7.59869910E+00  7.59869910E+00 -1.51973982E+01  7.59869910E+00  7.59869910E+00
 -1.51973982E+01  7.59869910E+00  7.59869910E+00 -1.51973982E+01  7.59869910E+00
  7.59869910E+00 -1.51973982E+01  7.59869910E+00  7.59869910E+00 -1.51973982E+01
  7.59869910E+00  7.59869910E+00 -1.51973982E+01  7.59869910E+00  7.59869910E+00
 -1.51973982E+01  7.59869910E+00  7.59869910E+00 -1.51973982E+01  7.59869910E+00
  7.59869910E+00 -1.51973982E+01  7.59869910E+00  7.59869910E+00 -1.51973982E+01
  7.59869910E+00  7.59869910E+00 -1.51973982E+01  7.59869910E+00  7.59869910E+00
 -1.51973982E+01  7.59869910E+00  7.59869910E+00 -1.51973982E+01  7.59869910E+00
  7.59869910E+00 -1.51973982E+01  7.59869910E+00  7.59869910E+00 -1.51973982E+01
  7.59869910E+00  7.59869910E+00 -1.51973982E+01  7.59869910E+00  7.59869910E+00
 -1.51973982E+01  7.59869910E+00  7.59869910E+00 -1.51973982E+01  7.59869910E+00
  7.59869910E+00 -1.51973982E+01  7.59869910E+00  7.59869910E+00 -1.51973982E+01
  7.59869910E+00  7.59869910E+00 -1.51973982E+01  7.59869910E+00  7.59869910E+00
 -1.51973982E+01  7.59869910E+00  7.59869910E+00 -1.51973982E+01  7.59869910E+00
  7.59869910E+00 -1.51973982E+01  7.59869910E+00  7.59869910E+00 -1.51973982E+01
  7.59869910E+00  7.59869910E+00 -1.51973982E+01  7.59869910E+00  7.59869910E+00
 -1.51973982E+01  7.59869910E+00  7.59869910E+00 -1.51973982E+01  7.59869910E+00
  7.59869910E+00 -1.51973982E+01  7.59869910E+00  7.59869910E+00 -1.51973982E+01
  7.59869910E+00  7.59869910E+00 -1.51973982E+01  7.59869910E+00  7.59869910E+00
 -1.51973982E+01  7.59869910E+00  7.59869910E+00 -1.51973982E+01  7.59869910E+00
  7.59869910E+00 -1.51973982E+01  7.59869910E+00  7.59869910E+00 -1.51973982E+01
  7.59869910E+00  7.59869910E+00 -1.51973982E+01  7.59869910E+00  7.59869910E+00
 -1.51973982E+01  7.59869910E+00  7.59869910E+00 -1.51973982E+01  7.59869910E+00
  7.59869910E+00 -1.51973982E+01  7.59869910E+00  7.59869910E+00 -1.51973982E+01
  7.59869910E+00  7.59869910E+00 -1.51973982E+01  7.59869910E+00  7.59869910E+00
 -1.51973982E+01  7.59869910E+00  7.59869910E+00 -1.51973982E+01  7.59869910E+00
  7.59869910E+00 -1.51973982E+01  7.59869910E+00  7.59869910E+00 -1.51973982E+01
  7.59869910E+00  7.59869910E+00 -1.51973982E+01  7.59869910E+00  7.59869910E+00
 -1.51973982E+01  7.59869910E+00  7.59869910E+00 -1.51973982E+01  7.59869910E+00
  7.59869910E+00 -1.51973982E+01  7.59869910E+00  7.59869910E+00 -1.51973982E+01
  7.59869910E+00  7.59869910E+00 -1.51973982E+01  7.59869910E+00  7.59869910E+00
 -1.51973982E+01  7.59869910E+00  7.59869910E+00 -1.51973982E+01  7.59869910E+00
  7.59869910E+00 -1.51973982E+01  7.59869910E+00  7.59869910E+00 -1.51973982E+01
  7.59869910E+00  7.59869910E+00 -1.51973982E+01  7.59869910E+00  7.59869910E+00
 -1.51973982E+01  7.59869910E+00  7.59869910E+00 -1.51973982E+01  7.59869910E+00
  7.59869910E+00 -1.51973982E+01  7.59869910E+00  7.59869910E+00 -1.51973982E+01
  7.59869910E+00  7.59869910E+00 -1.51973982E+01  7.59869910E+00  7.59869910E+00
 -1.51973982E+01  7.59869910E+00  7.59869910E+00 -1.51973982E+01  7.59869910E+00
  7.59869910E+00 -1.51973982E+01  7.59869910E+00  7.59869910E+00 -1.51973982E+01
  7.59869910E+00  7.59869910E+00 -1.51973982E+01  7.59869910E+00  7.59869910E+00
 -1.51973982E+01  7.59869910E+00  7.59869910E+00 -1.51973982E+01  7.59869910E+00
  7.59869910E+00 -1.51973982E+01  7.59869910E+00  7.59869910E+00 -1.51973982E+01
  7.59869910E+00  7.59869910E+00 -1.51973982E+01  7.59869910E+00  7.59869910E+00
 -1.51973982E+01  7.59869910E+00  7.59869910E+00 -1.51973982E+01  7.59869910E+00
  7.59869910E+00 -1.51973982E+01  7.59869910E+00  7.59869910E+00 -1.51973982E+01
  7.59869910E+00  7.59869910E+00 -1.51973982E+01  7.59869910E+00  7.59869910E+00
 -1.51973982E+01  7.59869910E+00  7.59869910E+00 -1.51973982E+01  7.59869910E+00
  7.59869910E+00 -1.51973982E+01  7.59869910E+00  7.59869910E+00 -1.51973982E+01
  7.59869910E+00  7.59869910E+00 -1.51973982E+01  7.59869910E+00  7.59869910E+00
 -1.51973982E+01  7.59869910E+00  7.59869910E+00 -1.51973982E+01  7.59869910E+00
  7.59869910E+00 -1.51973982E+01  7.59869910E+00  7.59869910E+00 -1.51973982E+01
  7.59869910E+00  7.59869910E+00 -1.51973982E+01  7.59869910E+00  7.59869910E+00
 -1.51973982E+01  7.59869910E+00  7.59869910E+00 -1.51973982E+01  7.59869910E+00
  7.59869910E+00 -1.51973982E+01  7.59869910E+00  7.59869910E+00 -1.51973982E+01
  7.59869910E+00  7.59869910E+00 -1.51973982E+01  7.59869910E+00  7.59869910E+00
 -1.51973982E+01  7.59869910E+00  7.59869910E+00 -1.51973982E+01  7.59869910E+00
  7.59869910E+00 -1.51973982E+01  7.59869910E+00  7.59869910E+00 -1.51973982E+01
  7.59869910E+00  7.59869910E+00 -1.51973982E+01  7.59869910E+00  7.59869910E+00
 -1.51973982E+01  7.59869910E+00  7.59869910E+00 -1.51973982E+01  7.59869910E+00
  7.59869910E+00 -1.51973982E+01  7.59869910E+00  7.59869910E+00 -1.51973982E+01
  7.59869910E+00  7.59869910E+00 -1.51973982E+01  7.59869910E+00  7.59869910E+00
 -1.51973982E+01  7.59869910E+00  7.59869910E+00 -1.51973982E+01  7.59869910E+00
  7.59869910E+00 -1.51973982E+01  7.59869910E+00  7.59869910E+00 -1.51973982E+01
  7.59869910E+00  7.59869910E+00 -1.51973982E+01  7.59869910E+00  7.59869910E+00
 -1.51973982E+01  7.59869910E+00  7.59869910E+00 -1.51973982E+01  7.59869910E+00
  7.59869910E+00 -1.51973982E+01  7.59869910E+00  7.59869910E+00 -1.51973982E+01
  7.59869910E+00  7.59869910E+00 -1.51973982E+01  7.59869910E+00  7.59869910E+00
 -1.51973982E+01  7.59869910E+00  7.59869910E+00 -1.51973982E+01  7.59869910E+00
  7.59869910E+00 -1.51973982E+01  7.59869910E+00  7.59869910E+00 -1.51973982E+01
  7.59869910E+00  7.59869910E+00 -1.51973982E+01  7.59869910E+00  7.59869910E+00
 -1.51973982E+01  7.59869910E+00  7.59869910E+00 -1.51973982E+01  7.59869910E+00
  7.59869910E+00 -1.51973982E+01  7.59869910E+00  7.59869910E+00 -1.51973982E+01
  7.59869910E+00  7.59869910E+00 -1.51973982E+01  7.59869910E+00  7.59869910E+00
 -1.51973982E+01  7.59869910E+00  7.59869910E+00 -1.51973982E+01  7.59869910E+00
  7.59869910E+00 -1.51973982E+01  7.59869910E+00  7.59869910E+00 -1.51973982E+01
  7.59869910E+00  7.59869910E+00 -1.51973982E+01  7.59869910E+00  7.59869910E+00
 -1.51973982E+01  7.59869910E+00  7.59869910E+00 -1.51973982E+01  7.59869910E+00
  7.59869910E+00 -1.51973982E+01  7.59869910E+00  7.59869910E+00 -1.51973982E+01
  7.59869910E+00  7.59869910E+00 -1.51973982E+01  7.59869910E+00  7.59869910E+00
 -1.51973982E+01  7.59869910E+00  7.59869910E+00 -1.51973982E+01  7.59869910E+00
  7.59869910E+00 -1.51973982E+01  7.59869910E+00  7.59869910E+00 -1.51973982E+01
  7.59869910E+00  7.59869910E+00 -1.51973982E+01  7.59869910E+00  7.59869910E+00
 -1.51973982E+01  7.59869910E+00  7.59869910E+00 -1.51973982E+01  7.59869910E+00
  7.59869910E+00 -1.51973982E+01  7.59869910E+00  7.59869910E+00 -1.51973982E+01
  7.59869910E+00  7.59869910E+00 -1.51973982E+01  7.59869910E+00  7.59869910E+00
 -1.51973982E+01  7.59869910E+00  7.59869910E+00 -1.51973982E+01  7.59869910E+00
  7.59869910E+00 -1.51973982E+01  7.59869910E+00  7.59869910E+00 -1.51973982E+01
  7.59869910E+00  7.59869910E+00 -1.51973982E+01  7.59869910E+00  7.59869910E+00
 -1.51973982E+01  7.59869910E+00  7.59869910E+00 -1.51973982E+01  7.59869910E+00
  7.59869910E+00 -1.51973982E+01  7.59869910E+00  7.59869910E+00 -1.51973982E+01
  7.59869910E+00  7.59869910E+00 -1.51973982E+01  7.59869910E+00  7.59869910E+00
 -1.51973982E+01  7.59869910E+00  7.59869910E+00 -1.51973982E+01  7.59869910E+00
  7.59869910E+00 -1.51973982E+01  7.59869910E+00  7.59869910E+00 -1.51973982E+01
  7.59869910E+00  7.59869910E+00 -1.51973982E+01  7.59869910E+00  7.59869910E+00
 -1.51973982E+01  7.59869910E+00  7.59869910E+00 -1.51973982E+01  7.59869910E+00
  7.59869910E+00 -1.51973982E+01  7.59869910E+00  7.59869910E+00 -1.51973982E+01
  7.59869910E+00  7.59869910E+00 -1.51973982E+01  7.59869910E+00  7.59869910E+00
 -1.51973982E+01  7.59869910E+00  7.59869910E+00 -1.51973982E+01  7.59869910E+00
  7.59869910E+00 -1.51973982E+01  7.59869910E+00  7.59869910E+00 -1.51973982E+01
  7.59869910E+00  7.59869910E+00 -1.51973982E+01  7.59869910E+00  7.59869910E+00
 -1.51973982E+01  7.59869910E+00  7.59869910E+00 -1.51973982E+01  7.59869910E+00
  7.59869910E+00 -1.51973982E+01  7.59869910E+00  7.59869910E+00 -1.51973982E+01
  7.59869910E+00  7.59869910E+00 -1.51973982E+01  7.59869910E+00  7.59869910E+00
 -1.51973982E+01  7.59869910E+00  7.59869910E+00 -1.51973982E+01  7.59869910E+00
  7.59869910E+00 -1.51973982E+01  7.59869910E+00  7.59869910E+00 -1.51973982E+01
  7.59869910E+00  7.59869910E+00 -1.51973982E+01  7.59869910E+00  7.59869910E+00
 -1.51973982E+01  7.59869910E+00  7.59869910E+00 -1.51973982E+01  7.59869910E+00
  7.59869910E+00 -1.51973982E+01  7.59869910E+00  7.59869910E+00 -1.51973982E+01
  7.59869910E+00  7.59869910E+00 -1.51973982E+01  7.59869910E+00  7.59869910E+00
 -1.51973982E+01  7.59869910E+00  7.59869910E+00 -1.51973982E+01  7.59869910E+00
  7.59869910E+00 -1.51973982E+01  7.59869910E+00  7.59869910E+00 -1.51973982E+01
  7.59869910E+00  7.59869910E+00 -1.51973982E+01  7.59869910E+00  7.59869910E+00
 -1.51973982E+01  7.59869910E+00  7.59869910E+00 -1.51973982E+01  7.59869910E+00
  7.59869910E+00 -1.51973982E+01  7.59869910E+00  7.59869910E+00 -1.51973982E+01
  7.59869910E+00  7.59869910E+00 -1.51973982E+01  7.59869910E+00  7.59869910E+00
 -1.51973982E+01  7.59869910E+00  7.59869910E+00 -1.51973982E+01  7.59869910E+00
  7.59869910E+00 -1.51973982E+01  7.59869910E+00  7.59869910E+00 -1.51973982E+01
  7.59869910E+00  7.59869910E+00 -1.51973982E+01  7.59869910E+00  7.59869910E+00
 -1.51973982E+01  7.59869910E+00  7.59869910E+00 -1.51973982E+01  7.59869910E+00
  7.59869910E+00 -1.51973982E+01  7.59869910E+00  7.59869910E+00 -1.51973982E+01
  7.59869910E+00  7.59869910E+00 -1.51973982E+01  7.59869910E+00  7.59869910E+00
 -1.51973982E+01  7.59869910E+00  7.59869910E+00 -1.51973982E+01  7.59869910E+00
  7.59869910E+00 -1.51973982E+01  7.59869910E+00  7.59869910E+00 -1.51973982E+01
  7.59869910E+00  7.59869910E+00 -1.51973982E+01  7.59869910E+00  7.59869910E+00
 -1.51973982E+01  7.59869910E+00  7.59869910E+00 -1.51973982E+01  7.59869910E+00
  7.59869910E+00 -1.51973982E+01  7.59869910E+00  7.59869910E+00 -1.51973982E+01
  7.59869910E+00  7.59869910E+00 -1.51973982E+01  7.59869910E+00  7.59869910E+00
 -1.51973982E+01  7.59869910E+00  7.59869910E+00 -1.51973982E+01  7.59869910E+00
  7.59869910E+00 -1.51973982E+01  7.59869910E+00  7.59869910E+00 -1.51973982E+01
  7.59869910E+00  7.59869910E+00 -1.51973982E+01  7.59869910E+00  7.59869910E+00
 -1.51973982E+01  7.59869910E+00  7.59869910E+00 -1.51973982E+01  7.59869910E+00
  7.59869910E+00 -1.51973982E+01  7.59869910E+00  7.59869910E+00 -1.51973982E+01
  7.59869910E+00  7.59869910E+00 -1.51973982E+01  7.59869910E+00  7.59869910E+00
 -1.51973982E+01  7.59869910E+00  7.59869910E+00 -1.51973982E+01  7.59869910E+00
  7.59869910E+00 -1.51973982E+01  7.59869910E+00  7.59869910E+00 -1.51973982E+01
  7.59869910E+00  7.59869910E+00 -1.51973982E+01  7.59869910E+00  7.59869910E+00
 -1.51973982E+01  7.59869910E+00  7.59869910E+00 -1.51973982E+01  7.59869910E+00
  7.59869910E+00 -1.51973982E+01  7.59869910E+00  7.59869910E+00 -1.51973982E+01
  7.59869910E+00  7.59869910E+00 -1.51973982E+01  7.59869910E+00  7.59869910E+00
 -1.51973982E+01  7.59869910E+00  7.59869910E+00 -1.51973982E+01  7.59869910E+00
  7.59869910E+00 -1.51973982E+01  7.59869910E+00  7.59869910E+00 -1.51973982E+01
  7.59869910E+00  7.59869910E+00 -1.51973982E+01  7.59869910E+00  7.59869910E+00
 -1.51973982E+01  7.59869910E+00  7.59869910E+00 -1.51973982E+01  7.59869910E+00
  7.59869910E+00 -1.51973982E+01  7.59869910E+00  7.59869910E+00 -1.51973982E+01
  7.59869910E+00  7.59869910E+00 -1.51973982E+01  7.59869910E+00  7.59869910E+00
 -1.51973982E+01  7.59869910E+00  7.59869910E+00 -1.51973982E+01  7.59869910E+00
  7.59869910E+00 -1.51973982E+01  7.59869910E+00  7.59869910E+00 -1.51973982E+01
  7.59869910E+00  7.59869910E+00 -1.51973982E+01  7.59869910E+00  7.59869910E+00
 -1.51973982E+01  7.59869910E+00  7.59869910E+00 -1.51973982E+01  7.59869910E+00
  7.59869910E+00 -1.51973982E+01  7.59869910E+00  7.59869910E+00 -1.51973982E+01
  7.59869910E+00  7.59869910E+00 -1.51973982E+01  7.59869910E+00  7.59869910E+00
 -1.51973982E+01  7.59869910E+00  7.59869910E+00 -1.51973982E+01  7.59869910E+00
  7.59869910E+00 -1.51973982E+01  7.59869910E+00  7.59869910E+00 -1.51973982E+01
  7.59869910E+00  7.59869910E+00 -1.51973982E+01  7.59869910E+00  7.59869910E+00
 -1.51973982E+01  7.59869910E+00  7.59869910E+00 -1.51973982E+01  7.59869910E+00
  7.59869910E+00 -1.51973982E+01  7.59869910E+00  7.59869910E+00 -1.51973982E+01
  7.59869910E+00  7.59869910E+00 -1.51973982E+01  7.59869910E+00  7.59869910E+00
 -1.51973982E+01  7.59869910E+00  7.59869910E+00 -1.51973982E+01  7.59869910E+00
  7.59869910E+00 -1.51973982E+01  7.59869910E+00  7.59869910E+00 -1.51973982E+01
  7.59869910E+00  7.59869910E+00 -1.51973982E+01  7.59869910E+00  7.59869910E+00
 -1.51973982E+01  7.59869910E+00  7.59869910E+00 -1.51973982E+01  7.59869910E+00
  7.59869910E+00 -1.51973982E+01  7.59869910E+00  7.59869910E+00 -1.51973982E+01
  7.59869910E+00  7.59869910E+00 -1.51973982E+01  7.59869910E+00  7.59869910E+00
 -1.51973982E+01  7.59869910E+00  7.59869910E+00 -1.51973982E+01  7.59869910E+00
  7.59869910E+00 -1.51973982E+01  7.59869910E+00  7.59869910E+00 -1.51973982E+01
  7.59869910E+00  7.59869910E+00 -1.51973982E+01  7.59869910E+00  7.59869910E+00
 -1.51973982E+01  7.59869910E+00  7.59869910E+00 -1.51973982E+01  7.59869910E+00
  7.59869910E+00 -1.51973982E+01  7.59869910E+00  7.59869910E+00 -1.51973982E+01
  7.59869910E+00  7.59869910E+00 -1.51973982E+01  7.59869910E+00  7.59869910E+00
 -1.51973982E+01  7.59869910E+00  7.59869910E+00 -1.51973982E+01  7.59869910E+00
  7.59869910E+00 -1.51973982E+01  7.59869910E+00  7.59869910E+00 -1.51973982E+01
  7.59869910E+00  7.59869910E+00 -1.51973982E+01  7.59869910E+00  7.59869910E+00
 -1.51973982E+01  7.59869910E+00  7.59869910E+00 -1.51973982E+01  7.59869910E+00
  7.59869910E+00 -1.51973982E+01  7.59869910E+00  7.59869910E+00 -1.51973982E+01
  7.59869910E+00  7.59869910E+00 -1.51973982E+01  7.59869910E+00  7.59869910E+00
 -1.51973982E+01  7.59869910E+00  7.59869910E+00 -1.51973982E+01  7.59869910E+00
  7.59869910E+00 -1.51973982E+01  7.59869910E+00  7.59869910E+00 -1.51973982E+01
  7.59869910E+00  7.59869910E+00 -1.51973982E+01  7.59869910E+00  7.59869910E+00
 -1.51973982E+01  7.59869910E+00  7.59869910E+00 -1.51973982E+01  7.59869910E+00
  7.59869910E+00 -1.51973982E+01  7.59869910E+00  7.59869910E+00 -1.51973982E+01
  7.59869910E+00  7.59869910E+00 -1.51973982E+01  7.59869910E+00  7.59869910E+00
 -1.51973982E+01  7.59869910E+00  7.59869910E+00 -1.51973982E+01  7.59869910E+00
  7.59869910E+00 -1.51973982E+01  7.59869910E+00  7.59869910E+00 -1.51973982E+01
  7.59869910E+00  7.59869910E+00 -1.51973982E+01  7.59869910E+00  7.59869910E+00
 -1.51973982E+01  7.59869910E+00  7.59869910E+00 -1.51973982E+01  7.59869910E+00
  7.59869910E+00 -1.51973982E+01  7.59869910E+00  7.59869910E+00 -1.51973982E+01
  7.59869910E+00  7.59869910E+00 -1.51973982E+01  7.59869910E+00  7.59869910E+00
 -1.51973982E+01  7.59869910E+00  7.59869910E+00 -1.51973982E+01  7.59869910E+00
  7.59869910E+00 -1.51973982E+01  7.59869910E+00  7.59869910E+00 -1.51973982E+01
  7.59869910E+00  7.59869910E+00 -1.51973982E+01  7.59869910E+00  7.59869910E+00
 -1.51973982E+01  7.59869910E+00  7.59869910E+00 -1.51973982E+01  7.59869910E+00
  7.59869910E+00 -1.51973982E+01  7.59869910E+00  7.59869910E+00 -1.51973982E+01
  7.59869910E+00  7.59869910E+00 -1.51973982E+01  7.59869910E+00  7.59869910E+00
 -1.51973982E+01  7.59869910E+00  7.59869910E+00 -1.51973982E+01  7.59869910E+00
  7.59869910E+00 -1.51973982E+01  7.59869910E+00  7.59869910E+00 -1.51973982E+01
  7.59869910E+00  7.59869910E+00 -1.51973982E+01  7.59869910E+00  7.59869910E+00
 -1.51973982E+01  7.59869910E+00  7.59869910E+00 -1.51973982E+01  7.59869910E+00
  7.59869910E+00 -1.51973982E+01  7.59869910E+00  7.59869910E+00 -1.51973982E+01
  7.59869910E+00  7.59869910E+00 -1.51973982E+01  7.59869910E+00  7.59869910E+00
 -1.51973982E+01  7.59869910E+00  7.59869910E+00 -1.51973982E+01  7.59869910E+00
  7.59869910E+00 -1.51973982E+01  7.59869910E+00  7.59869910E+00 -1.51973982E+01
  7.59869910E+00  7.59869910E+00 -1.51973982E+01  7.59869910E+00  7.59869910E+00
 -1.51973982E+01  7.59869910E+00  7.59869910E+00 -1.51973982E+01  7.59869910E+00
  7.59869910E+00 -1.51973982E+01  7.59869910E+00  7.59869910E+00 -1.51973982E+01
  7.59869910E+00  7.59869910E+00 -1.51973982E+01  7.59869910E+00  7.59869910E+00
 -1.51973982E+01  7.59869910E+00  7.59869910E+00 -1.51973982E+01  7.59869910E+00
  7.59869910E+00 -1.51973982E+01  7.59869910E+00  7.59869910E+00 -1.51973982E+01
  7.59869910E+00  7.59869910E+00 -1.51973982E+01  7.59869910E+00  7.59869910E+00
 -1.51973982E+01  7.59869910E+00  7.59869910E+00 -1.51973982E+01  7.59869910E+00
  7.59869910E+00 -1.51973982E+01  7.59869910E+00  7.59869910E+00 -1.51973982E+01
  7.59869910E+00  7.59869910E+00 -1.51973982E+01  7.59869910E+00  7.59869910E+00
 -1.51973982E+01  7.59869910E+00  7.59869910E+00 -1.51973982E+01  7.59869910E+00
  7.59869910E+00 -1.51973982E+01  7.59869910E+00  7.59869910E+00 -1.51973982E+01
  7.59869910E+00  7.59869910E+00 -1.51973982E+01  7.59869910E+00  7.59869910E+00
 -1.51973982E+01  7.59869910E+00  7.59869910E+00 -1.51973982E+01  7.59869910E+00
  7.59869910E+00 -1.51973982E+01  7.59869910E+00  7.59869910E+00 -1.51973982E+01
  7.59869910E+00  7.59869910E+00 -1.51973982E+01  7.59869910E+00  7.59869910E+00
 -1.51973982E+01  7.59869910E+00  7.59869910E+00 -1.51973982E+01  7.59869910E+00
  7.59869910E+00 -1.51973982E+01  7.59869910E+00  7.59869910E+00 -1.51973982E+01
  7.59869910E+00  7.59869910E+00 -1.51973982E+01  7.59869910E+00  7.59869910E+00
 -1.51973982E+01  7.59869910E+00  7.59869910E+00 -1.51973982E+01  7.59869910E+00
  7.59869910E+00 -1.51973982E+01  7.59869910E+00  7.59869910E+00 -1.51973982E+01
  7.59869910E+00  7.59869910E+00 -1.51973982E+01  7.59869910E+00  7.59869910E+00
 -1.51973982E+01  7.59869910E+00  7.59869910E+00 -1.51973982E+01  7.59869910E+00
  7.59869910E+00 -1.51973982E+01  7.59869910E+00  7.59869910E+00 -1.51973982E+01
  7.59869910E+00  7.59869910E+00 -1.51973982E+01  7.59869910E+00  7.59869910E+00
 -1.51973982E+01  7.59869910E+00  7.59869910E+00 -1.51973982E+01  7.59869910E+00
  7.59869910E+00 -1.51973982E+01  7.59869910E+00  7.59869910E+00 -1.51973982E+01
  7.59869910E+00  7.59869910E+00 -1.51973982E+01  7.59869910E+00  7.59869910E+00
 -1.51973982E+01  7.59869910E+00  7.59869910E+00 -1.51973982E+01  7.59869910E+00
  7.59869910E+00 -1.51973982E+01  7.59869910E+00  7.59869910E+00 -1.51973982E+01
  7.59869910E+00  7.59869910E+00 -1.51973982E+01  7.59869910E+00  7.59869910E+00
 -1.51973982E+01  7.59869910E+00  7.59869910E+00 -1.51973982E+01  7.59869910E+00
  7.59869910E+00 -1.51973982E+01  7.59869910E+00  7.59869910E+00 -1.51973982E+01
  7.59869910E+00  7.59869910E+00 -1.51973982E+01  7.59869910E+00  7.59869910E+00
 -1.51973982E+01  7.59869910E+00  7.59869910E+00 -1.51973982E+01  7.59869910E+00
  7.59869910E+00 -1.51973982E+01  7.59869910E+00  7.59869910E+00 -1.51973982E+01
  7.59869910E+00  7.59869910E+00 -1.51973982E+01  7.59869910E+00  7.59869910E+00
 -1.51973982E+01  7.59869910E+00  7.59869910E+00 -1.51973982E+01  7.59869910E+00
  7.59869910E+00 -1.51973982E+01  7.59869910E+00  7.59869910E+00 -1.51973982E+01
  7.59869910E+00  7.59869910E+00 -1.51973982E+01  7.59869910E+00  7.59869910E+00
 -1.51973982E+01  7.59869910E+00  7.59869910E+00 -1.51973982E+01  7.59869910E+00
  7.59869910E+00 -1.51973982E+01  7.59869910E+00  7.59869910E+00 -1.51973982E+01
  7.59869910E+00  7.59869910E+00 -1.51973982E+01  7.59869910E+00  7.59869910E+00
 -1.51973982E+01  7.59869910E+00  7.59869910E+00 -1.51973982E+01  7.59869910E+00
  7.59869910E+00 -1.51973982E+01  7.59869910E+00  7.59869910E+00 -1.51973982E+01
  7.59869910E+00  7.59869910E+00 -1.51973982E+01  7.59869910E+00  7.59869910E+00
 -1.51973982E+01  7.59869910E+00  7.59869910E+00 -1.51973982E+01  7.59869910E+00
  7.59869910E+00 -1.51973982E+01  7.59869910E+00  7.59869910E+00 -1.51973982E+01
  7.59869910E+00  7.59869910E+00 -1.51973982E+01  7.59869910E+00  7.59869910E+00
 -1.51973982E+01  7.59869910E+00  7.59869910E+00 -1.51973982E+01  7.59869910E+00
  7.59869910E+00 -1.51973982E+01  7.59869910E+00  7.59869910E+00 -1.51973982E+01
  7.59869910E+00  7.59869910E+00 -1.51973982E+01  7.59869910E+00  7.59869910E+00
 -1.51973982E+01  7.59869910E+00  7.59869910E+00 -1.51973982E+01  7.59869910E+00
  7.59869910E+00 -1.51973982E+01  7.59869910E+00  7.59869910E+00 -1.51973982E+01
  7.59869910E+00  7.59869910E+00 -1.51973982E+01  7.59869910E+00  7.59869910E+00
 -1.51973982E+01  7.59869910E+00  7.59869910E+00 -1.51973982E+01  7.59869910E+00
  7.59869910E+00 -1.51973982E+01  7.59869910E+00  7.59869910E+00 -1.51973982E+01
  7.59869910E+00  7.59869910E+00 -1.51973982E+01  7.59869910E+00  7.59869910E+00
 -1.51973982E+01  7.59869910E+00  7.59869910E+00 -1.51973982E+01  7.59869910E+00
  7.59869910E+00 -1.51973982E+01  7.59869910E+00  7.59869910E+00 -1.51973982E+01
  7.59869910E+00  7.59869910E+00 -1.51973982E+01  7.59869910E+00  7.59869910E+00
 -1.51973982E+01  7.59869910E+00  7.59869910E+00 -1.51973982E+01  7.59869910E+00
  7.59869910E+00 -1.51973982E+01  7.59869910E+00  7.59869910E+00 -1.51973982E+01
  7.59869910E+00  7.59869910E+00 -1.51973982E+01  7.59869910E+00  7.59869910E+00
 -1.51973982E+01  7.59869910E+00  7.59869910E+00 -1.51973982E+01  7.59869910E+00
  7.59869910E+00 -1.51973982E+01  7.59869910E+00  7.59869910E+00 -1.51973982E+01
  7.59869910E+00  7.59869910E+00 -1.51973982E+01  7.59869910E+00  7.59869910E+00
 -1.51973982E+01  7.59869910E+00  7.59869910E+00 -1.51973982E+01  7.59869910E+00
  7.59869910E+00 -1.51973982E+01  7.59869910E+00  7.59869910E+00 -1.51973982E+01
  7.59869910E+00  7.59869910E+00 -1.51973982E+01  7.59869910E+00  7.59869910E+00
 -1.51973982E+01  7.59869910E+00  7.59869910E+00 -1.51973982E+01  7.59869910E+00
  7.59869910E+00 -1.51973982E+01  7.59869910E+00  7.59869910E+00 -1.51973982E+01
  7.59869910E+00  7.59869910E+00 -1.51973982E+01  7.59869910E+00  7.59869910E+00
 -1.51973982E+01  7.59869910E+00  7.59869910E+00 -1.51973982E+01  7.59869910E+00
  7.59869910E+00 -1.51973982E+01  7.59869910E+00  7.59869910E+00 -1.51973982E+01
  7.59869910E+00  7.59869910E+00 -1.51973982E+01  7.59869910E+00  7.59869910E+00
 -1.51973982E+01  7.59869910E+00  7.59869910E+00 -1.51973982E+01  7.59869910E+00
  7.59869910E+00 -1.51973982E+01  7.59869910E+00  7.59869910E+00 -1.51973982E+01
  7.59869910E+00  7.59869910E+00 -1.51973982E+01  7.59869910E+00  7.59869910E+00
 -1.51973982E+01  7.59869910E+00  7.59869910E+00 -1.51973982E+01  7.59869910E+00
  7.59869910E+00 -1.51973982E+01  7.59869910E+00  7.59869910E+00 -1.51973982E+01
  7.59869910E+00  7.59869910E+00 -1.51973982E+01  7.59869910E+00  7.59869910E+00
 -1.51973982E+01  7.59869910E+00  7.59869910E+00 -1.51973982E+01  7.59869910E+00
  7.59869910E+00 -1.51973982E+01  7.59869910E+00  7.59869910E+00 -1.51973982E+01
  7.59869910E+00  7.59869910E+00 -1.51973982E+01  7.59869910E+00  7.59869910E+00
 -1.51973982E+01  7.59869910E+00  7.59869910E+00 -1.51973982E+01  7.59869910E+00
  7.59869910E+00 -1.51973982E+01  7.59869910E+00  7.59869910E+00 -1.51973982E+01
  7.59869910E+00  7.59869910E+00 -1.51973982E+01  7.59869910E+00  7.59869910E+00
 -1.51973982E+01  7.59869910E+00  7.59869910E+00 -1.51973982E+01  7.59869910E+00
  7.59869910E+00 -1.51973982E+01  7.59869910E+00  7.59869910E+00 -1.51973982E+01
  7.59869910E+00  7.59869910E+00 -1.51973982E+01  7.59869910E+00  7.59869910E+00
 -1.51973982E+01  7.59869910E+00  7.59869910E+00 -1.51973982E+01  7.59869910E+00
  7.59869910E+00 -1.51973982E+01  7.59869910E+00  7.59869910E+00 -1.51973982E+01
  7.59869910E+00  7.59869910E+00 -1.51973982E+01  7.59869910E+00  7.59869910E+00
 -1.51973982E+01  7.59869910E+00  7.59869910E+00 -1.51973982E+01  7.59869910E+00
  7.59869910E+00 -1.51973982E+01  7.59869910E+00  7.59869910E+00 -1.51973982E+01
  7.59869910E+00  7.59869910E+00 -1.51973982E+01  7.59869910E+00  7.59869910E+00
 -1.51973982E+01  7.59869910E+00  7.59869910E+00 -1.51973982E+01  7.59869910E+00
  7.59869910E+00 -1.51973982E+01  7.59869910E+00  7.59869910E+00 -1.51973982E+01
  7.59869910E+00  7.59869910E+00 -1.51973982E+01  7.59869910E+00  7.59869910E+00
 -1.51973982E+01  7.59869910E+00  7.59869910E+00 -1.51973982E+01  7.59869910E+00
  7.59869910E+00 -1.51973982E+01  7.59869910E+00  7.59869910E+00 -1.51973982E+01
  7.59869910E+00  7.59869910E+00 -1.51973982E+01  7.59869910E+00  7.59869910E+00
 -1.51973982E+01  7.59869910E+00  7.59869910E+00 -1.51973982E+01  7.59869910E+00
  7.59869910E+00 -1.51973982E+01  7.59869910E+00  7.59869910E+00 -1.51973982E+01
  7.59869910E+00  7.59869910E+00 -1.51973982E+01  7.59869910E+00  7.59869910E+00
 -1.51973982E+01  7.59869910E+00  7.59869910E+00 -1.51973982E+01  7.59869910E+00
  7.59869910E+00 -1.51973982E+01  7.59869910E+00  7.59869910E+00 -1.51973982E+01
  7.59869910E+00  7.59869910E+00 -1.51973982E+01  7.59869910E+00  7.59869910E+00
 -1.51973982E+01  7.59869910E+00  7.59869910E+00 -1.51973982E+01  7.59869910E+00
  7.59869910E+00 -1.51973982E+01  7.59869910E+00  7.59869910E+00 -1.51973982E+01
  7.59869910E+00  7.59869910E+00 -1.51973982E+01  7.59869910E+00  7.59869910E+00
 -1.51973982E+01  7.59869910E+00  7.59869910E+00 -1.51973982E+01  7.59869910E+00
  7.59869910E+00 -1.51973982E+01  7.59869910E+00  7.59869910E+00 -1.51973982E+01
  7.59869910E+00  7.59869910E+00 -1.51973982E+01  7.59869910E+00  7.59869910E+00
 -1.51973982E+01  7.59869910E+00  7.59869910E+00 -1.51973982E+01  7.59869910E+00
  7.59869910E+00 -1.51973982E+01  7.59869910E+00  7.59869910E+00 -1.51973982E+01
  7.59869910E+00  7.59869910E+00 -1.51973982E+01  7.59869910E+00  7.59869910E+00
 -1.51973982E+01  7.59869910E+00  7.59869910E+00 -1.51973982E+01  7.59869910E+00
  7.59869910E+00 -1.51973982E+01  7.59869910E+00  7.59869910E+00 -1.51973982E+01
  7.59869910E+00  7.59869910E+00 -1.51973982E+01  7.59869910E+00  7.59869910E+00
 -1.51973982E+01  7.59869910E+00  7.59869910E+00 -1.51973982E+01  7.59869910E+00
  7.59869910E+00 -1.51973982E+01  7.59869910E+00  7.59869910E+00 -1.51973982E+01
  7.59869910E+00  7.59869910E+00 -1.51973982E+01  7.59869910E+00  7.59869910E+00
 -1.51973982E+01  7.59869910E+00  7.59869910E+00 -1.51973982E+01  7.59869910E+00
  7.59869910E+00 -1.51973982E+01  7.59869910E+00  7.59869910E+00 -1.51973982E+01
  7.59869910E+00  7.59869910E+00 -1.51973982E+01  7.59869910E+00  7.59869910E+00
 -1.51973982E+01  7.59869910E+00  7.59869910E+00 -1.51973982E+01  7.59869910E+00
  7.59869910E+00 -1.51973982E+01  7.59869910E+00  7.59869910E+00 -1.51973982E+01
  7.59869910E+00  7.59869910E+00 -1.51973982E+01  7.59869910E+00  7.59869910E+00
 -1.51973982E+01  7.59869910E+00  7.59869910E+00 -1.51973982E+01  7.59869910E+00
  7.59869910E+00 -1.51973982E+01  7.59869910E+00  7.59869910E+00 -1.51973982E+01
  7.59869910E+00  7.59869910E+00 -1.51973982E+01  7.59869910E+00  7.59869910E+00
 -1.51973982E+01  7.59869910E+00  7.59869910E+00 -1.51973982E+01  7.59869910E+00
  7.59869910E+00 -1.51973982E+01  7.59869910E+00  7.59869910E+00 -1.51973982E+01
  7.59869910E+00  7.59869910E+00 -1.51973982E+01  7.59869910E+00  7.59869910E+00
 -1.51973982E+01  7.59869910E+00  7.59869910E+00 -1.51973982E+01  7.59869910E+00
  7.59869910E+00 -1.51973982E+01  7.59869910E+00  7.59869910E+00 -1.51973982E+01
  7.59869910E+00  7.59869910E+00 -1.51973982E+01  7.59869910E+00  7.59869910E+00
 -1.51973982E+01  7.59869910E+00  7.59869910E+00 -1.51973982E+01  7.59869910E+00
  7.59869910E+00 -1.51973982E+01  7.59869910E+00  7.59869910E+00 -1.51973982E+01
  7.59869910E+00  7.59869910E+00 -1.51973982E+01  7.59869910E+00  7.59869910E+00
 -1.51973982E+01  7.59869910E+00  7.59869910E+00 -1.51973982E+01  7.59869910E+00
  7.59869910E+00 -1.51973982E+01  7.59869910E+00  7.59869910E+00 -1.51973982E+01
  7.59869910E+00  7.59869910E+00 -1.51973982E+01  7.59869910E+00  7.59869910E+00
 -1.51973982E+01  7.59869910E+00  7.59869910E+00 -1.51973982E+01  7.59869910E+00
  7.59869910E+00 -1.51973982E+01  7.59869910E+00  7.59869910E+00 -1.51973982E+01
  7.59869910E+00  7.59869910E+00 -1.51973982E+01  7.59869910E+00  7.59869910E+00
 -1.51973982E+01  7.59869910E+00  7.59869910E+00 -1.51973982E+01  7.59869910E+00
  7.59869910E+00 -1.51973982E+01  7.59869910E+00  7.59869910E+00 -1.51973982E+01
  7.59869910E+00  7.59869910E+00 -1.51973982E+01  7.59869910E+00  7.59869910E+00
 -1.51973982E+01  7.59869910E+00  7.59869910E+00 -1.51973982E+01  7.59869910E+00
  7.59869910E+00 -1.51973982E+01  7.59869910E+00  7.59869910E+00 -1.51973982E+01
  7.59869910E+00  7.59869910E+00 -1.51973982E+01  7.59869910E+00  7.59869910E+00
 -1.51973982E+01  7.59869910E+00  7.59869910E+00 -1.51973982E+01  7.59869910E+00
  7.59869910E+00 -1.51973982E+01  7.59869910E+00  7.59869910E+00 -1.51973982E+01
  7.59869910E+00  7.59869910E+00 -1.51973982E+01  7.59869910E+00  7.59869910E+00
 -1.51973982E+01  7.59869910E+00  7.59869910E+00 -1.51973982E+01  7.59869910E+00
  7.59869910E+00 -1.51973982E+01  7.59869910E+00  7.59869910E+00 -1.51973982E+01
  7.59869910E+00  7.59869910E+00 -1.51973982E+01  7.59869910E+00  7.59869910E+00
 -1.51973982E+01  7.59869910E+00  7.59869910E+00 -1.51973982E+01  7.59869910E+00
  7.59869910E+00 -1.51973982E+01  7.59869910E+00  7.59869910E+00 -1.51973982E+01
  7.59869910E+00  7.59869910E+00 -1.51973982E+01  7.59869910E+00  7.59869910E+00
 -1.51973982E+01  7.59869910E+00  7.59869910E+00 -1.51973982E+01  7.59869910E+00
  7.59869910E+00 -1.51973982E+01  7.59869910E+00  7.59869910E+00 -1.51973982E+01
  7.59869910E+00  7.59869910E+00 -1.51973982E+01  7.59869910E+00  7.59869910E+00
 -1.51973982E+01  7.59869910E+00  7.59869910E+00 -1.51973982E+01  7.59869910E+00
  7.59869910E+00 -1.51973982E+01  7.59869910E+00  7.59869910E+00 -1.51973982E+01
  7.59869910E+00  7.59869910E+00 -1.51973982E+01  7.59869910E+00  7.59869910E+00
 -1.51973982E+01  7.59869910E+00  7.59869910E+00 -1.51973982E+01  7.59869910E+00
  7.59869910E+00 -1.51973982E+01  7.59869910E+00  7.59869910E+00 -1.51973982E+01
  7.59869910E+00  7.59869910E+00 -1.51973982E+01  7.59869910E+00  7.59869910E+00
 -1.51973982E+01  7.59869910E+00  7.59869910E+00 -1.51973982E+01  7.59869910E+00
  7.59869910E+00 -1.51973982E+01  7.59869910E+00  7.59869910E+00 -1.51973982E+01
  7.59869910E+00  7.59869910E+00 -1.51973982E+01  7.59869910E+00  7.59869910E+00
 -1.51973982E+01  7.59869910E+00  7.59869910E+00 -1.51973982E+01  7.59869910E+00
  7.59869910E+00 -1.51973982E+01  7.59869910E+00  7.59869910E+00 -1.51973982E+01
  7.59869910E+00  7.59869910E+00 -1.51973982E+01  7.59869910E+00  7.59869910E+00
 -1.51973982E+01  7.59869910E+00  7.59869910E+00 -1.51973982E+01  7.59869910E+00
  7.59869910E+00 -1.51973982E+01  7.59869910E+00  7.59869910E+00 -1.51973982E+01
  7.59869910E+00  7.59869910E+00 -1.51973982E+01  7.59869910E+00  7.59869910E+00
 -1.51973982E+01  7.59869910E+00  7.59869910E+00 -1.51973982E+01  7.59869910E+00
  7.59869910E+00 -1.51973982E+01  7.59869910E+00  7.59869910E+00 -1.51973982E+01
  7.59869910E+00  7.59869910E+00 -1.51973982E+01  7.59869910E+00  7.59869910E+00
 -1.51973982E+01  7.59869910E+00  7.59869910E+00 -1.51973982E+01  7.59869910E+00
  7.59869910E+00 -1.51973982E+01  7.59869910E+00  7.59869910E+00 -1.51973982E+01
  7.59869910E+00  7.59869910E+00 -1.51973982E+01  7.59869910E+00  7.59869910E+00
 -1.51973982E+01  7.59869910E+00  7.59869910E+00 -1.51973982E+01  7.59869910E+00
  7.59869910E+00 -1.51973982E+01  7.59869910E+00  7.59869910E+00 -1.51973982E+01
  7.59869910E+00  7.59869910E+00 -1.51973982E+01  7.59869910E+00  7.59869910E+00
 -1.51973982E+01  7.59869910E+00  7.59869910E+00 -1.51973982E+01  7.59869910E+00
  7.59869910E+00 -1.51973982E+01  7.59869910E+00  7.59869910E+00 -1.51973982E+01
  7.59869910E+00  7.59869910E+00 -1.51973982E+01  7.59869910E+00  7.59869910E+00
 -1.51973982E+01  7.59869910E+00  7.59869910E+00 -1.51973982E+01  7.59869910E+00
  7.59869910E+00 -1.51973982E+01  7.59869910E+00  7.59869910E+00 -1.51973982E+01
  7.59869910E+00  7.59869910E+00 -1.51973982E+01  7.59869910E+00  7.59869910E+00
 -1.51973982E+01  7.59869910E+00  7.59869910E+00 -1.51973982E+01  7.59869910E+00
  7.59869910E+00 -1.51973982E+01  7.59869910E+00  7.59869910E+00 -1.51973982E+01
  7.59869910E+00  7.59869910E+00 -1.51973982E+01  7.59869910E+00  7.59869910E+00
 -1.51973982E+01  7.59869910E+00  7.59869910E+00 -1.51973982E+01  7.59869910E+00
  7.59869910E+00 -1.51973982E+01  7.59869910E+00  7.59869910E+00 -1.51973982E+01
  7.59869910E+00  7.59869910E+00 -1.51973982E+01  7.59869910E+00  7.59869910E+00
 -1.51973982E+01  7.59869910E+00  7.59869910E+00 -1.51973982E+01  7.59869910E+00
  7.59869910E+00 -1.51973982E+01  7.59869910E+00  7.59869910E+00 -1.51973982E+01
  7.59869910E+00  7.59869910E+00 -1.51973982E+01  7.59869910E+00  7.59869910E+00
 -1.51973982E+01  7.59869910E+00  7.59869910E+00 -1.51973982E+01  7.59869910E+00
  7.59869910E+00 -1.51973982E+01  7.59869910E+00  7.59869910E+00 -1.51973982E+01
  7.59869910E+00  7.59869910E+00 -1.51973982E+01  7.59869910E+00  7.59869910E+00
 -1.51973982E+01  7.59869910E+00  7.59869910E+00 -1.51973982E+01  7.59869910E+00
  7.59869910E+00 -1.51973982E+01  7.59869910E+00  7.59869910E+00 -1.51973982E+01
  7.59869910E+00  7.59869910E+00 -1.51973982E+01  7.59869910E+00  7.59869910E+00
 -1.51973982E+01  7.59869910E+00  7.59869910E+00 -1.51973982E+01  7.59869910E+00
  7.59869910E+00 -1.51973982E+01  7.59869910E+00  7.59869910E+00 -1.51973982E+01
  7.59869910E+00  7.59869910E+00 -1.51973982E+01  7.59869910E+00  7.59869910E+00
 -1.51973982E+01  7.59869910E+00  7.59869910E+00 -1.51973982E+01  7.59869910E+00
  7.59869910E+00 -1.51973982E+01  7.59869910E+00  7.59869910E+00 -1.51973982E+01
  7.59869910E+00  7.59869910E+00 -1.51973982E+01  7.59869910E+00  7.59869910E+00
 -1.51973982E+01  7.59869910E+00  7.59869910E+00 -1.51973982E+01  7.59869910E+00
  7.59869910E+00 -1.51973982E+01  7.59869910E+00  7.59869910E+00 -1.51973982E+01
  7.59869910E+00  7.59869910E+00 -1.51973982E+01  7.59869910E+00  7.59869910E+00
 -1.51973982E+01  7.59869910E+00  7.59869910E+00 -1.51973982E+01  7.59869910E+00
  7.59869910E+00 -1.51973982E+01  7.59869910E+00  7.59869910E+00 -1.51973982E+01
  7.59869910E+00  7.59869910E+00 -1.51973982E+01  7.59869910E+00  7.59869910E+00
 -1.51973982E+01  7.59869910E+00  7.59869910E+00 -1.51973982E+01  7.59869910E+00
  7.59869910E+00 -1.51973982E+01  7.59869910E+00  7.59869910E+00 -1.51973982E+01
  7.59869910E+00  7.59869910E+00 -1.51973982E+01  7.59869910E+00  7.59869910E+00
 -1.51973982E+01  7.59869910E+00  7.59869910E+00 -1.51973982E+01  7.59869910E+00
  7.59869910E+00 -1.51973982E+01  7.59869910E+00  7.59869910E+00 -1.51973982E+01
  7.59869910E+00  7.59869910E+00 -1.51973982E+01  7.59869910E+00  7.59869910E+00
 -1.51973982E+01  7.59869910E+00  7.59869910E+00 -1.51973982E+01  7.59869910E+00
  7.59869910E+00 -1.51973982E+01  7.59869910E+00  7.59869910E+00 -1.51973982E+01
  7.59869910E+00  7.59869910E+00 -1.51973982E+01  7.59869910E+00  7.59869910E+00
 -1.51973982E+01  7.59869910E+00  7.59869910E+00 -1.51973982E+01  7.59869910E+00
  7.59869910E+00 -1.51973982E+01  7.59869910E+00  7.59869910E+00 -1.51973982E+01
  7.59869910E+00  7.59869910E+00 -1.51973982E+01  7.59869910E+00  7.59869910E+00
 -1.51973982E+01  7.59869910E+00  7.59869910E+00 -1.51973982E+01  7.59869910E+00
  7.59869910E+00 -1.51973982E+01  7.59869910E+00  7.59869910E+00 -1.51973982E+01
  7.59869910E+00  7.59869910E+00 -1.51973982E+01  7.59869910E+00  7.59869910E+00
 -1.51973982E+01  7.59869910E+00  7.59869910E+00 -1.51973982E+01  7.59869910E+00
  7.59869910E+00 -1.51973982E+01  7.59869910E+00  7.59869910E+00 -1.51973982E+01
  7.59869910E+00  7.59869910E+00 -1.51973982E+01  7.59869910E+00  7.59869910E+00
 -1.51973982E+01  7.59869910E+00  7.59869910E+00 -1.51973982E+01  7.59869910E+00
  7.59869910E+00 -1.51973982E+01  7.59869910E+00  7.59869910E+00 -1.51973982E+01
  7.59869910E+00  7.59869910E+00 -1.51973982E+01  7.59869910E+00  7.59869910E+00
 -1.51973982E+01  7.59869910E+00  7.59869910E+00 -1.51973982E+01  7.59869910E+00
  7.59869910E+00 -1.51973982E+01  7.59869910E+00  7.59869910E+00 -1.51973982E+01
  7.59869910E+00  7.59869910E+00 -1.51973982E+01  7.59869910E+00  7.59869910E+00
 -1.51973982E+01  7.59869910E+00  7.59869910E+00 -1.51973982E+01  7.59869910E+00
  7.59869910E+00 -1.51973982E+01  7.59869910E+00  7.59869910E+00 -1.51973982E+01
  7.59869910E+00  7.59869910E+00 -1.51973982E+01  7.59869910E+00  7.59869910E+00
 -1.51973982E+01  7.59869910E+00  7.59869910E+00 -1.51973982E+01  7.59869910E+00
  7.59869910E+00 -1.51973982E+01  7.59869910E+00  7.59869910E+00 -1.51973982E+01
  7.59869910E+00  7.59869910E+00 -1.51973982E+01  7.59869910E+00  7.59869910E+00
 -1.51973982E+01  7.59869910E+00  7.59869910E+00 -1.51973982E+01  7.59869910E+00
  7.59869910E+00 -1.51973982E+01  7.59869910E+00  7.59869910E+00 -1.51973982E+01
  7.59869910E+00  7.59869910E+00 -1.51973982E+01  7.59869910E+00  7.59869910E+00
 -1.51973982E+01  7.59869910E+00  7.59869910E+00 -1.51973982E+01  7.59869910E+00
  7.59869910E+00 -1.51973982E+01  7.59869910E+00  7.59869910E+00 -1.51973982E+01
  7.59869910E+00  7.59869910E+00 -1.51973982E+01  7.59869910E+00  7.59869910E+00
 -1.51973982E+01  7.59869910E+00  7.59869910E+00 -1.51973982E+01  7.59869910E+00
  7.59869910E+00 -1.51973982E+01  7.59869910E+00  7.59869910E+00 -1.51973982E+01
  7.59869910E+00  7.59869910E+00 -1.51973982E+01  7.59869910E+00  7.59869910E+00
 -1.51973982E+01  7.59869910E+00  7.59869910E+00 -1.51973982E+01  7.59869910E+00
  7.59869910E+00 -1.51973982E+01  7.59869910E+00  7.59869910E+00 -1.51973982E+01
  7.59869910E+00  7.59869910E+00 -1.51973982E+01  7.59869910E+00  7.59869910E+00
 -1.51973982E+01  7.59869910E+00  7.59869910E+00 -1.51973982E+01  7.59869910E+00
  7.59869910E+00 -1.51973982E+01  7.59869910E+00  7.59869910E+00 -1.51973982E+01
  7.59869910E+00  7.59869910E+00 -1.51973982E+01  7.59869910E+00  7.59869910E+00
 -1.51973982E+01  7.59869910E+00  7.59869910E+00 -1.51973982E+01  7.59869910E+00
  7.59869910E+00 -1.51973982E+01  7.59869910E+00  7.59869910E+00 -1.51973982E+01
  7.59869910E+00  7.59869910E+00 -1.51973982E+01  7.59869910E+00  7.59869910E+00
 -1.51973982E+01  7.59869910E+00  7.59869910E+00 -1.51973982E+01  7.59869910E+00
  7.59869910E+00 -1.51973982E+01  7.59869910E+00  7.59869910E+00 -1.51973982E+01
  7.59869910E+00  7.59869910E+00 -1.51973982E+01  7.59869910E+00  7.59869910E+00
 -1.51973982E+01  7.59869910E+00  7.59869910E+00 -1.51973982E+01  7.59869910E+00
  7.59869910E+00 -1.51973982E+01  7.59869910E+00  7.59869910E+00 -1.51973982E+01
  7.59869910E+00  7.59869910E+00 -1.51973982E+01  7.59869910E+00  7.59869910E+00
 -1.51973982E+01  7.59869910E+00  7.59869910E+00 -1.51973982E+01  7.59869910E+00
  7.59869910E+00 -1.51973982E+01  7.59869910E+00  7.59869910E+00 -1.51973982E+01
  7.59869910E+00  7.59869910E+00 -1.51973982E+01  7.59869910E+00  7.59869910E+00
 -1.51973982E+01  7.59869910E+00  7.59869910E+00 -1.51973982E+01  7.59869910E+00
  7.59869910E+00 -1.51973982E+01  7.59869910E+00  7.59869910E+00 -1.51973982E+01
  7.59869910E+00  7.59869910E+00 -1.51973982E+01  7.59869910E+00  7.59869910E+00
 -1.51973982E+01  7.59869910E+00  7.59869910E+00 -1.51973982E+01  7.59869910E+00
  7.59869910E+00 -1.51973982E+01  7.59869910E+00  7.59869910E+00 -1.51973982E+01
  7.59869910E+00  7.59869910E+00 -1.51973982E+01  7.59869910E+00  7.59869910E+00
 -1.51973982E+01  7.59869910E+00  7.59869910E+00 -1.51973982E+01  7.59869910E+00
  7.59869910E+00 -1.51973982E+01  7.59869910E+00  7.59869910E+00 -1.51973982E+01
  7.59869910E+00  7.59869910E+00 -1.51973982E+01  7.59869910E+00  7.59869910E+00
 -1.51973982E+01  7.59869910E+00  7.59869910E+00 -1.51973982E+01  7.59869910E+00
  7.59869910E+00 -1.51973982E+01  7.59869910E+00  7.59869910E+00 -1.51973982E+01
  7.59869910E+00  7.59869910E+00 -1.51973982E+01  7.59869910E+00  7.59869910E+00
 -1.51973982E+01  7.59869910E+00  7.59869910E+00 -1.51973982E+01  7.59869910E+00
  7.59869910E+00 -1.51973982E+01  7.59869910E+00  7.59869910E+00 -1.51973982E+01
  7.59869910E+00  7.59869910E+00 -1.51973982E+01  7.59869910E+00  7.59869910E+00
 -1.51973982E+01  7.59869910E+00  7.59869910E+00 -1.51973982E+01  7.59869910E+00
  7.59869910E+00 -1.51973982E+01  7.59869910E+00  7.59869910E+00 -1.51973982E+01
  7.59869910E+00  7.59869910E+00 -1.51973982E+01  7.59869910E+00  7.59869910E+00
 -1.51973982E+01  7.59869910E+00  7.59869910E+00 -1.51973982E+01  7.59869910E+00
  7.59869910E+00 -1.51973982E+01  7.59869910E+00  7.59869910E+00 -1.51973982E+01
  7.59869910E+00  7.59869910E+00 -1.51973982E+01  7.59869910E+00  7.59869910E+00
 -1.51973982E+01  7.59869910E+00  7.59869910E+00 -1.51973982E+01  7.59869910E+00
  7.59869910E+00 -1.51973982E+01  7.59869910E+00  7.59869910E+00 -1.51973982E+01
  7.59869910E+00  7.59869910E+00 -1.51973982E+01  7.59869910E+00  7.59869910E+00
 -1.51973982E+01  7.59869910E+00  7.59869910E+00 -1.51973982E+01  7.59869910E+00
  7.59869910E+00 -1.51973982E+01  7.59869910E+00  7.59869910E+00 -1.51973982E+01
  7.59869910E+00  7.59869910E+00 -1.51973982E+01  7.59869910E+00  7.59869910E+00
 -1.51973982E+01  7.59869910E+00  7.59869910E+00 -1.51973982E+01  7.59869910E+00
  7.59869910E+00 -1.51973982E+01  7.59869910E+00  7.59869910E+00 -1.51973982E+01
  7.59869910E+00  7.59869910E+00 -1.51973982E+01  7.59869910E+00  7.59869910E+00
 -1.51973982E+01  7.59869910E+00  7.59869910E+00 -1.51973982E+01  7.59869910E+00
  7.59869910E+00 -1.51973982E+01  7.59869910E+00  7.59869910E+00 -1.51973982E+01
  7.59869910E+00  7.59869910E+00 -1.51973982E+01  7.59869910E+00  7.59869910E+00
 -1.51973982E+01  7.59869910E+00  7.59869910E+00 -1.51973982E+01  7.59869910E+00
  7.59869910E+00 -1.51973982E+01  7.59869910E+00  7.59869910E+00 -1.51973982E+01
  7.59869910E+00  7.59869910E+00 -1.51973982E+01  7.59869910E+00  7.59869910E+00
 -1.51973982E+01  7.59869910E+00  7.59869910E+00 -1.51973982E+01  7.59869910E+00
  7.59869910E+00 -1.51973982E+01  7.59869910E+00  7.59869910E+00 -1.51973982E+01
  7.59869910E+00  7.59869910E+00 -1.51973982E+01  7.59869910E+00  7.59869910E+00
 -1.51973982E+01  7.59869910E+00  7.59869910E+00 -1.51973982E+01  7.59869910E+00
  7.59869910E+00 -1.51973982E+01  7.59869910E+00  7.59869910E+00 -1.51973982E+01
  7.59869910E+00  7.59869910E+00 -1.51973982E+01  7.59869910E+00  7.59869910E+00
 -1.51973982E+01  7.59869910E+00  7.59869910E+00 -1.51973982E+01  7.59869910E+00
  7.59869910E+00 -1.51973982E+01  7.59869910E+00  7.59869910E+00 -1.51973982E+01
  7.59869910E+00  7.59869910E+00 -1.51973982E+01  7.59869910E+00  7.59869910E+00
 -1.51973982E+01  7.59869910E+00  7.59869910E+00 -1.51973982E+01  7.59869910E+00
  7.59869910E+00 -1.51973982E+01  7.59869910E+00  7.59869910E+00 -1.51973982E+01
  7.59869910E+00  7.59869910E+00 -1.51973982E+01  7.59869910E+00  7.59869910E+00
 -1.51973982E+01  7.59869910E+00  7.59869910E+00 -1.51973982E+01  7.59869910E+00
  7.59869910E+00 -1.51973982E+01  7.59869910E+00  7.59869910E+00 -1.51973982E+01
  7.59869910E+00  7.59869910E+00 -1.51973982E+01  7.59869910E+00  7.59869910E+00
 -1.51973982E+01  7.59869910E+00  7.59869910E+00 -1.51973982E+01  7.59869910E+00
  7.59869910E+00 -1.51973982E+01  7.59869910E+00  7.59869910E+00 -1.51973982E+01
  7.59869910E+00  7.59869910E+00 -1.51973982E+01  7.59869910E+00  7.59869910E+00
 -1.51973982E+01  7.59869910E+00  7.59869910E+00 -1.51973982E+01  7.59869910E+00
  7.59869910E+00 -1.51973982E+01  7.59869910E+00  7.59869910E+00 -1.51973982E+01
  7.59869910E+00  7.59869910E+00 -1.51973982E+01  7.59869910E+00  7.59869910E+00
 -1.51973982E+01  7.59869910E+00  7.59869910E+00 -1.51973982E+01  7.59869910E+00
  7.59869910E+00 -1.51973982E+01  7.59869910E+00  7.59869910E+00 -1.51973982E+01
  7.59869910E+00  7.59869910E+00 -1.51973982E+01  7.59869910E+00  7.59869910E+00
 -1.51973982E+01  7.59869910E+00  7.59869910E+00 -1.51973982E+01  7.59869910E+00
  7.59869910E+00 -1.51973982E+01  7.59869910E+00  7.59869910E+00 -1.51973982E+01
  7.59869910E+00  7.59869910E+00 -1.51973982E+01  7.59869910E+00  7.59869910E+00
 -1.51973982E+01  7.59869910E+00  7.59869910E+00 -1.51973982E+01  7.59869910E+00
  7.59869910E+00 -1.51973982E+01  7.59869910E+00  7.59869910E+00 -1.51973982E+01
  7.59869910E+00  7.59869910E+00 -1.51973982E+01  7.59869910E+00  7.59869910E+00
 -1.51973982E+01  7.59869910E+00  7.59869910E+00 -1.51973982E+01  7.59869910E+00
  7.59869910E+00 -1.51973982E+01  7.59869910E+00  7.59869910E+00 -1.51973982E+01
  7.59869910E+00  7.59869910E+00 -1.51973982E+01  7.59869910E+00  7.59869910E+00
 -1.51973982E+01  7.59869910E+00  7.59869910E+00 -1.51973982E+01  7.59869910E+00
  7.59869910E+00 -1.51973982E+01  7.59869910E+00  7.59869910E+00 -1.51973982E+01
  7.59869910E+00  7.59869910E+00 -1.51973982E+01  7.59869910E+00  7.59869910E+00
 -1.51973982E+01  7.59869910E+00  7.59869910E+00 -1.51973982E+01  7.59869910E+00
  7.59869910E+00 -1.51973982E+01  7.59869910E+00  7.59869910E+00 -1.51973982E+01
  7.59869910E+00  7.59869910E+00 -1.51973982E+01  7.59869910E+00  7.59869910E+00
 -1.51973982E+01  7.59869910E+00  7.59869910E+00 -1.51973982E+01  7.59869910E+00
  7.59869910E+00 -1.51973982E+01  7.59869910E+00  7.59869910E+00 -1.51973982E+01
  7.59869910E+00  7.59869910E+00 -1.51973982E+01  7.59869910E+00  7.59869910E+00
 -1.51973982E+01  7.59869910E+00  7.59869910E+00 -1.51973982E+01  7.59869910E+00
  7.59869910E+00 -1.51973982E+01  7.59869910E+00  7.59869910E+00 -1.51973982E+01
  7.59869910E+00  7.59869910E+00 -1.51973982E+01  7.59869910E+00  7.59869910E+00
 -1.51973982E+01  7.59869910E+00  7.59869910E+00 -1.51973982E+01  7.59869910E+00
  7.59869910E+00 -1.51973982E+01  7.59869910E+00  7.59869910E+00 -1.51973982E+01
  7.59869910E+00  7.59869910E+00 -1.51973982E+01  7.59869910E+00  7.59869910E+00
 -1.51973982E+01  7.59869910E+00  7.59869910E+00 -1.51973982E+01  7.59869910E+00
  7.59869910E+00 -1.51973982E+01  7.59869910E+00  7.59869910E+00 -1.51973982E+01
  7.59869910E+00  7.59869910E+00 -1.51973982E+01  7.59869910E+00  7.59869910E+00
 -1.51973982E+01  7.59869910E+00  7.59869910E+00 -1.51973982E+01  7.59869910E+00
  7.59869910E+00 -1.51973982E+01  7.59869910E+00  7.59869910E+00 -1.51973982E+01
  7.59869910E+00  7.59869910E+00 -1.51973982E+01  7.59869910E+00  7.59869910E+00
 -1.51973982E+01  7.59869910E+00  7.59869910E+00 -1.51973982E+01  7.59869910E+00
  7.59869910E+00 -1.51973982E+01  7.59869910E+00  7.59869910E+00 -1.51973982E+01
  7.59869910E+00  7.59869910E+00 -1.51973982E+01  7.59869910E+00  7.59869910E+00
 -1.51973982E+01  7.59869910E+00  7.59869910E+00 -1.51973982E+01  7.59869910E+00
  7.59869910E+00 -1.51973982E+01  7.59869910E+00  7.59869910E+00 -1.51973982E+01
  7.59869910E+00  7.59869910E+00 -1.51973982E+01  7.59869910E+00  7.59869910E+00
 -1.51973982E+01  7.59869910E+00  7.59869910E+00 -1.51973982E+01  7.59869910E+00
  7.59869910E+00 -1.51973982E+01  7.59869910E+00  7.59869910E+00 -1.51973982E+01
  7.59869910E+00  7.59869910E+00 -1.51973982E+01  7.59869910E+00  7.59869910E+00
 -1.51973982E+01  7.59869910E+00  7.59869910E+00 -1.51973982E+01  7.59869910E+00
  7.59869910E+00 -1.51973982E+01  7.59869910E+00  7.59869910E+00 -1.51973982E+01
  7.59869910E+00  7.59869910E+00 -1.51973982E+01  7.59869910E+00  7.59869910E+00
 -1.51973982E+01  7.59869910E+00  7.59869910E+00 -1.51973982E+01  7.59869910E+00
  7.59869910E+00 -1.51973982E+01  7.59869910E+00  7.59869910E+00 -1.51973982E+01
  7.59869910E+00  7.59869910E+00 -1.51973982E+01  7.59869910E+00  7.59869910E+00
 -1.51973982E+01  7.59869910E+00  7.59869910E+00 -1.51973982E+01  7.59869910E+00
  7.59869910E+00 -1.51973982E+01  7.59869910E+00  7.59869910E+00 -1.51973982E+01
  7.59869910E+00  7.59869910E+00 -1.51973982E+01  7.59869910E+00  7.59869910E+00
 -1.51973982E+01  7.59869910E+00  7.59869910E+00 -1.51973982E+01  7.59869910E+00
  7.59869910E+00 -1.51973982E+01  7.59869910E+00  7.59869910E+00 -1.51973982E+01
  7.59869910E+00  7.59869910E+00 -1.51973982E+01  7.59869910E+00  7.59869910E+00
 -1.51973982E+01  7.59869910E+00  7.59869910E+00 -1.51973982E+01  7.59869910E+00
  7.59869910E+00 -1.51973982E+01  7.59869910E+00  7.59869910E+00 -1.51973982E+01
  7.59869910E+00  7.59869910E+00 -1.51973982E+01  7.59869910E+00  7.59869910E+00
 -1.51973982E+01  7.59869910E+00  7.59869910E+00 -1.51973982E+01  7.59869910E+00
  7.59869910E+00 -1.51973982E+01  7.59869910E+00  7.59869910E+00 -1.51973982E+01
  7.59869910E+00  7.59869910E+00 -1.51973982E+01  7.59869910E+00  7.59869910E+00
 -1.51973982E+01  7.59869910E+00  7.59869910E+00 -1.51973982E+01  7.59869910E+00
  7.59869910E+00 -1.51973982E+01  7.59869910E+00  7.59869910E+00 -1.51973982E+01
  7.59869910E+00  7.59869910E+00 -1.51973982E+01  7.59869910E+00  7.59869910E+00
 -1.51973982E+01  7.59869910E+00  7.59869910E+00 -1.51973982E+01  7.59869910E+00
  7.59869910E+00 -1.51973982E+01  7.59869910E+00  7.59869910E+00 -1.51973982E+01
  7.59869910E+00  7.59869910E+00 -1.51973982E+01  7.59869910E+00  7.59869910E+00
 -1.51973982E+01  7.59869910E+00  7.59869910E+00 -1.51973982E+01  7.59869910E+00
  7.59869910E+00 -1.51973982E+01  7.59869910E+00  7.59869910E+00 -1.51973982E+01
  7.59869910E+00  7.59869910E+00 -1.51973982E+01  7.59869910E+00  7.59869910E+00
 -1.51973982E+01  7.59869910E+00  7.59869910E+00 -1.51973982E+01  7.59869910E+00
  7.59869910E+00 -1.51973982E+01  7.59869910E+00  7.59869910E+00 -1.51973982E+01
  7.59869910E+00  7.59869910E+00 -1.51973982E+01  7.59869910E+00  7.59869910E+00
 -1.51973982E+01  7.59869910E+00  7.59869910E+00 -1.51973982E+01  7.59869910E+00
  7.59869910E+00 -1.51973982E+01  7.59869910E+00  7.59869910E+00 -1.51973982E+01
  7.59869910E+00  7.59869910E+00 -1.51973982E+01  7.59869910E+00  7.59869910E+00
 -1.51973982E+01  7.59869910E+00  7.59869910E+00 -1.51973982E+01  7.59869910E+00
  7.59869910E+00 -1.51973982E+01  7.59869910E+00  7.59869910E+00 -1.51973982E+01
  7.59869910E+00  7.59869910E+00 -1.51973982E+01  7.59869910E+00  7.59869910E+00
 -1.51973982E+01  7.59869910E+00  7.59869910E+00 -1.51973982E+01  7.59869910E+00
  7.59869910E+00 -1.51973982E+01  7.59869910E+00  7.59869910E+00 -1.51973982E+01
  7.59869910E+00  7.59869910E+00 -1.51973982E+01  7.59869910E+00  7.59869910E+00
 -1.51973982E+01  7.59869910E+00  7.59869910E+00 -1.51973982E+01  7.59869910E+00
  7.59869910E+00 -1.51973982E+01  7.59869910E+00  7.59869910E+00 -1.51973982E+01
  7.59869910E+00  7.59869910E+00 -1.51973982E+01  7.59869910E+00  7.59869910E+00
 -1.51973982E+01  7.59869910E+00  7.59869910E+00 -1.51973982E+01  7.59869910E+00
  7.59869910E+00 -1.51973982E+01  7.59869910E+00  7.59869910E+00 -1.51973982E+01
  7.59869910E+00  7.59869910E+00 -1.51973982E+01  7.59869910E+00  7.59869910E+00
 -1.51973982E+01  7.59869910E+00  7.59869910E+00 -1.51973982E+01  7.59869910E+00
  7.59869910E+00 -1.51973982E+01  7.59869910E+00  7.59869910E+00 -1.51973982E+01
  7.59869910E+00  7.59869910E+00 -1.51973982E+01  7.59869910E+00  7.59869910E+00
 -1.51973982E+01  7.59869910E+00  7.59869910E+00 -1.51973982E+01  7.59869910E+00
  7.59869910E+00 -1.51973982E+01  7.59869910E+00  7.59869910E+00 -1.51973982E+01
  7.59869910E+00  7.59869910E+00 -1.51973982E+01  7.59869910E+00  7.59869910E+00
 -1.51973982E+01  7.59869910E+00  7.59869910E+00 -1.51973982E+01  7.59869910E+00
  7.59869910E+00 -1.51973982E+01  7.59869910E+00  7.59869910E+00 -1.51973982E+01
  7.59869910E+00  7.59869910E+00 -1.51973982E+01  7.59869910E+00  7.59869910E+00
 -1.51973982E+01  7.59869910E+00  7.59869910E+00 -1.51973982E+01  7.59869910E+00
  7.59869910E+00 -1.51973982E+01  7.59869910E+00  7.59869910E+00 -1.51973982E+01
  7.59869910E+00  7.59869910E+00 -1.51973982E+01  7.59869910E+00  7.59869910E+00
 -1.51973982E+01  7.59869910E+00  7.59869910E+00 -1.51973982E+01  7.59869910E+00
  7.59869910E+00 -1.51973982E+01  7.59869910E+00  7.59869910E+00 -1.51973982E+01
  7.59869910E+00  7.59869910E+00 -1.51973982E+01  7.59869910E+00  7.59869910E+00
 -1.51973982E+01  7.59869910E+00  7.59869910E+00 -1.51973982E+01  7.59869910E+00
  7.59869910E+00 -1.51973982E+01  7.59869910E+00  7.59869910E+00 -1.51973982E+01
  7.59869910E+00  7.59869910E+00 -1.51973982E+01  7.59869910E+00  7.59869910E+00
 -1.51973982E+01  7.59869910E+00  7.59869910E+00 -1.51973982E+01  7.59869910E+00
  7.59869910E+00 -1.51973982E+01  7.59869910E+00  7.59869910E+00 -1.51973982E+01
  7.59869910E+00  7.59869910E+00 -1.51973982E+01  7.59869910E+00  7.59869910E+00
 -1.51973982E+01  7.59869910E+00  7.59869910E+00 -1.51973982E+01  7.59869910E+00
  7.59869910E+00 -1.51973982E+01  7.59869910E+00  7.59869910E+00 -1.51973982E+01
  7.59869910E+00  7.59869910E+00 -1.51973982E+01  7.59869910E+00  7.59869910E+00
 -1.51973982E+01  7.59869910E+00  7.59869910E+00 -1.51973982E+01  7.59869910E+00
  7.59869910E+00 -1.51973982E+01  7.59869910E+00  7.59869910E+00 -1.51973982E+01
  7.59869910E+00  7.59869910E+00 -1.51973982E+01  7.59869910E+00  7.59869910E+00
 -1.51973982E+01  7.59869910E+00  7.59869910E+00 -1.51973982E+01  7.59869910E+00
  7.59869910E+00 -1.51973982E+01  7.59869910E+00  7.59869910E+00 -1.51973982E+01
  7.59869910E+00  7.59869910E+00 -1.51973982E+01  7.59869910E+00  7.59869910E+00
 -1.51973982E+01  7.59869910E+00  7.59869910E+00 -1.51973982E+01  7.59869910E+00
  7.59869910E+00 -1.51973982E+01  7.59869910E+00  7.59869910E+00 -1.51973982E+01
  7.59869910E+00  7.59869910E+00 -1.51973982E+01  7.59869910E+00  7.59869910E+00
 -1.51973982E+01  7.59869910E+00  7.59869910E+00 -1.51973982E+01  7.59869910E+00
  7.59869910E+00 -1.51973982E+01  7.59869910E+00  7.59869910E+00 -1.51973982E+01
  7.59869910E+00  7.59869910E+00 -1.51973982E+01  7.59869910E+00  7.59869910E+00
 -1.51973982E+01  7.59869910E+00  7.59869910E+00 -1.51973982E+01  7.59869910E+00
  7.59869910E+00 -1.51973982E+01  7.59869910E+00  7.59869910E+00 -1.51973982E+01
  7.59869910E+00  7.59869910E+00 -1.51973982E+01  7.59869910E+00  7.59869910E+00
 -1.51973982E+01  7.59869910E+00  7.59869910E+00 -1.51973982E+01  7.59869910E+00
  7.59869910E+00 -1.51973982E+01  7.59869910E+00  7.59869910E+00 -1.51973982E+01
  7.59869910E+00  7.59869910E+00 -1.51973982E+01  7.59869910E+00  7.59869910E+00
 -1.51973982E+01  7.59869910E+00  7.59869910E+00 -1.51973982E+01  7.59869910E+00
  7.59869910E+00 -1.51973982E+01  7.59869910E+00  7.59869910E+00 -1.51973982E+01
  7.59869910E+00  7.59869910E+00 -1.51973982E+01  7.59869910E+00  7.59869910E+00
 -1.51973982E+01  7.59869910E+00  7.59869910E+00 -1.51973982E+01  7.59869910E+00
  7.59869910E+00 -1.51973982E+01  7.59869910E+00  7.59869910E+00 -1.51973982E+01
  7.59869910E+00  7.59869910E+00 -1.51973982E+01  7.59869910E+00  7.59869910E+00
 -1.51973982E+01  7.59869910E+00  7.59869910E+00 -1.51973982E+01  7.59869910E+00
  7.59869910E+00 -1.51973982E+01  7.59869910E+00  7.59869910E+00 -1.51973982E+01
  7.59869910E+00  7.59869910E+00 -1.51973982E+01  7.59869910E+00  7.59869910E+00
 -1.51973982E+01  7.59869910E+00  7.59869910E+00 -1.51973982E+01  7.59869910E+00
  7.59869910E+00 -1.51973982E+01  7.59869910E+00  7.59869910E+00 -1.51973982E+01
  7.59869910E+00  7.59869910E+00 -1.51973982E+01  7.59869910E+00  7.59869910E+00
 -1.51973982E+01  7.59869910E+00  7.59869910E+00 -1.51973982E+01  7.59869910E+00
  7.59869910E+00 -1.51973982E+01  7.59869910E+00  7.59869910E+00 -1.51973982E+01
  7.59869910E+00  7.59869910E+00 -1.51973982E+01  7.59869910E+00  7.59869910E+00
 -1.51973982E+01  7.59869910E+00  7.59869910E+00 -1.51973982E+01  7.59869910E+00
  7.59869910E+00 -1.51973982E+01  7.59869910E+00  7.59869910E+00 -1.51973982E+01
  7.59869910E+00  7.59869910E+00 -1.51973982E+01  7.59869910E+00  7.59869910E+00
 -1.51973982E+01  7.59869910E+00  7.59869910E+00 -1.51973982E+01  7.59869910E+00
  7.59869910E+00 -1.51973982E+01  7.59869910E+00  7.59869910E+00 -1.51973982E+01
  7.59869910E+00  7.59869910E+00 -1.51973982E+01  7.59869910E+00  7.59869910E+00
 -1.51973982E+01  7.59869910E+00  7.59869910E+00 -1.51973982E+01  7.59869910E+00
  7.59869910E+00 -1.51973982E+01  7.59869910E+00  7.59869910E+00 -1.51973982E+01
  7.59869910E+00  7.59869910E+00 -1.51973982E+01  7.59869910E+00  7.59869910E+00
 -1.51973982E+01  7.59869910E+00  7.59869910E+00 -1.51973982E+01  7.59869910E+00
  7.59869910E+00 -1.51973982E+01  7.59869910E+00  7.59869910E+00 -1.51973982E+01
  7.59869910E+00  7.59869910E+00 -1.51973982E+01  7.59869910E+00  7.59869910E+00
 -1.51973982E+01  7.59869910E+00  7.59869910E+00 -1.51973982E+01  7.59869910E+00
  7.59869910E+00 -1.51973982E+01  7.59869910E+00  7.59869910E+00 -1.51973982E+01
  7.59869910E+00  7.59869910E+00 -1.51973982E+01  7.59869910E+00  7.59869910E+00
 -1.51973982E+01  7.59869910E+00  7.59869910E+00 -1.51973982E+01  7.59869910E+00
  7.59869910E+00 -1.51973982E+01  7.59869910E+00  7.59869910E+00 -1.51973982E+01
  7.59869910E+00  7.59869910E+00 -1.51973982E+01  7.59869910E+00  7.59869910E+00
 -1.51973982E+01  7.59869910E+00  7.59869910E+00 -1.51973982E+01  7.59869910E+00
  7.59869910E+00 -1.51973982E+01  7.59869910E+00  7.59869910E+00 -1.51973982E+01
  7.59869910E+00  7.59869910E+00 -1.51973982E+01  7.59869910E+00  7.59869910E+00
 -1.51973982E+01  7.59869910E+00  7.59869910E+00 -1.51973982E+01  7.59869910E+00
  7.59869910E+00 -1.51973982E+01  7.59869910E+00  7.59869910E+00 -1.51973982E+01
  7.59869910E+00  7.59869910E+00 -1.51973982E+01  7.59869910E+00  7.59869910E+00
 -1.51973982E+01  7.59869910E+00  7.59869910E+00 -1.51973982E+01  7.59869910E+00
  7.59869910E+00 -1.51973982E+01  7.59869910E+00  7.59869910E+00 -1.51973982E+01
  7.59869910E+00  7.59869910E+00 -1.51973982E+01  7.59869910E+00  7.59869910E+00
 -1.51973982E+01  7.59869910E+00  7.59869910E+00 -1.51973982E+01  7.59869910E+00
  7.59869910E+00 -1.51973982E+01  7.59869910E+00  7.59869910E+00 -1.51973982E+01
  7.59869910E+00  7.59869910E+00 -1.51973982E+01  7.59869910E+00  7.59869910E+00
 -1.51973982E+01  7.59869910E+00  7.59869910E+00 -1.51973982E+01  7.59869910E+00
  7.59869910E+00 -1.51973982E+01  7.59869910E+00  7.59869910E+00 -1.51973982E+01
  7.59869910E+00  7.59869910E+00 -1.51973982E+01  7.59869910E+00  7.59869910E+00
 -1.51973982E+01  7.59869910E+00  7.59869910E+00 -1.51973982E+01  7.59869910E+00
  7.59869910E+00 -1.51973982E+01  7.59869910E+00  7.59869910E+00 -1.51973982E+01
  7.59869910E+00  7.59869910E+00 -1.51973982E+01  7.59869910E+00  7.59869910E+00
 -1.51973982E+01  7.59869910E+00  7.59869910E+00 -1.51973982E+01  7.59869910E+00
  7.59869910E+00 -1.51973982E+01  7.59869910E+00  7.59869910E+00 -1.51973982E+01
  7.59869910E+00  7.59869910E+00 -1.51973982E+01  7.59869910E+00  7.59869910E+00
 -1.51973982E+01  7.59869910E+00  7.59869910E+00 -1.51973982E+01  7.59869910E+00
  7.59869910E+00 -1.51973982E+01  7.59869910E+00  7.59869910E+00 -1.51973982E+01
  7.59869910E+00  7.59869910E+00 -1.51973982E+01  7.59869910E+00  7.59869910E+00
 -1.51973982E+01  7.59869910E+00  7.59869910E+00 -1.51973982E+01  7.59869910E+00
  7.59869910E+00 -1.51973982E+01  7.59869910E+00  7.59869910E+00 -1.51973982E+01
  7.59869910E+00  7.59869910E+00 -1.51973982E+01  7.59869910E+00  7.59869910E+00
 -1.51973982E+01  7.59869910E+00  7.59869910E+00 -1.51973982E+01  7.59869910E+00
  7.59869910E+00 -1.51973982E+01  7.59869910E+00  7.59869910E+00 -1.51973982E+01
  7.59869910E+00  7.59869910E+00 -1.51973982E+01  7.59869910E+00  7.59869910E+00
 -1.51973982E+01  7.59869910E+00  7.59869910E+00 -1.51973982E+01  7.59869910E+00
  7.59869910E+00 -1.51973982E+01  7.59869910E+00  7.59869910E+00 -1.51973982E+01
  7.59869910E+00  7.59869910E+00 -1.51973982E+01  7.59869910E+00  7.59869910E+00
 -1.51973982E+01  7.59869910E+00  7.59869910E+00 -1.51973982E+01  7.59869910E+00
  7.59869910E+00 -1.51973982E+01  7.59869910E+00  7.59869910E+00 -1.51973982E+01
  7.59869910E+00  7.59869910E+00 -1.51973982E+01  7.59869910E+00  7.59869910E+00
 -1.51973982E+01  7.59869910E+00  7.59869910E+00 -1.51973982E+01  7.59869910E+00
  7.59869910E+00 -1.51973982E+01  7.59869910E+00  7.59869910E+00 -1.51973982E+01
  7.59869910E+00  7.59869910E+00 -1.51973982E+01  7.59869910E+00  7.59869910E+00
 -1.51973982E+01  7.59869910E+00  7.59869910E+00 -1.51973982E+01  7.59869910E+00
  7.59869910E+00 -1.51973982E+01  7.59869910E+00  7.59869910E+00 -1.51973982E+01
  7.59869910E+00  7.59869910E+00 -1.51973982E+01  7.59869910E+00  7.59869910E+00
 -1.51973982E+01  7.59869910E+00  7.59869910E+00 -1.51973982E+01  7.59869910E+00
  7.59869910E+00 -1.51973982E+01  7.59869910E+00  7.59869910E+00 -1.51973982E+01
  7.59869910E+00  7.59869910E+00 -1.51973982E+01  7.59869910E+00  7.59869910E+00
 -1.51973982E+01  7.59869910E+00  7.59869910E+00 -1.51973982E+01  7.59869910E+00
  7.59869910E+00 -1.51973982E+01  7.59869910E+00  7.59869910E+00 -1.51973982E+01
  7.59869910E+00  7.59869910E+00 -1.51973982E+01  7.59869910E+00  7.59869910E+00
 -1.51973982E+01  7.59869910E+00  7.59869910E+00 -1.51973982E+01  7.59869910E+00
  7.59869910E+00 -1.51973982E+01  7.59869910E+00  7.59869910E+00 -1.51973982E+01
  7.59869910E+00  7.59869910E+00 -1.51973982E+01  7.59869910E+00  7.59869910E+00
 -1.51973982E+01  7.59869910E+00  7.59869910E+00 -1.51973982E+01  7.59869910E+00
  7.59869910E+00 -1.51973982E+01  7.59869910E+00  7.59869910E+00 -1.51973982E+01
  7.59869910E+00  7.59869910E+00 -1.51973982E+01  7.59869910E+00  7.59869910E+00
 -1.51973982E+01  7.59869910E+00  7.59869910E+00 -1.51973982E+01  7.59869910E+00
  7.59869910E+00 -1.51973982E+01  7.59869910E+00  7.59869910E+00 -1.51973982E+01
  7.59869910E+00  7.59869910E+00 -1.51973982E+01  7.59869910E+00  7.59869910E+00
 -1.51973982E+01  7.59869910E+00  7.59869910E+00 -1.51973982E+01  7.59869910E+00
  7.59869910E+00 -1.51973982E+01  7.59869910E+00  7.59869910E+00 -1.51973982E+01
  7.59869910E+00  7.59869910E+00 -1.51973982E+01  7.59869910E+00  7.59869910E+00
 -1.51973982E+01  7.59869910E+00  7.59869910E+00 -1.51973982E+01  7.59869910E+00
  7.59869910E+00 -1.51973982E+01  7.59869910E+00  7.59869910E+00 -1.51973982E+01
  7.59869910E+00  7.59869910E+00 -1.51973982E+01  7.59869910E+00  7.59869910E+00
 -1.51973982E+01  7.59869910E+00  7.59869910E+00 -1.51973982E+01  7.59869910E+00
  7.59869910E+00 -1.51973982E+01  7.59869910E+00  7.59869910E+00 -1.51973982E+01
  7.59869910E+00  7.59869910E+00 -1.51973982E+01  7.59869910E+00  7.59869910E+00
 -1.51973982E+01  7.59869910E+00  7.59869910E+00 -1.51973982E+01  7.59869910E+00
  7.59869910E+00 -1.51973982E+01  7.59869910E+00  7.59869910E+00 -1.51973982E+01
  7.59869910E+00  7.59869910E+00 -1.51973982E+01  7.59869910E+00  7.59869910E+00
 -1.51973982E+01  7.59869910E+00  7.59869910E+00 -1.51973982E+01  7.59869910E+00
  7.59869910E+00 -1.51973982E+01  7.59869910E+00  7.59869910E+00 -1.51973982E+01
  7.59869910E+00  7.59869910E+00 -1.51973982E+01  7.59869910E+00  7.59869910E+00
 -1.51973982E+01  7.59869910E+00  7.59869910E+00 -1.51973982E+01  7.59869910E+00
  7.59869910E+00 -1.51973982E+01  7.59869910E+00  7.59869910E+00 -1.51973982E+01
  7.59869910E+00  7.59869910E+00 -1.51973982E+01  7.59869910E+00  7.59869910E+00
 -1.51973982E+01  7.59869910E+00  7.59869910E+00 -1.51973982E+01  7.59869910E+00
  7.59869910E+00 -1.51973982E+01  7.59869910E+00  7.59869910E+00 -1.51973982E+01
  7.59869910E+00  7.59869910E+00 -1.51973982E+01  7.59869910E+00  7.59869910E+00
 -1.51973982E+01  7.59869910E+00  7.59869910E+00 -1.51973982E+01  7.59869910E+00
  7.59869910E+00 -1.51973982E+01  7.59869910E+00  7.59869910E+00 -1.51973982E+01
  7.59869910E+00  7.59869910E+00 -1.51973982E+01  7.59869910E+00  7.59869910E+00
 -1.51973982E+01  7.59869910E+00  7.59869910E+00 -1.51973982E+01  7.59869910E+00
  7.59869910E+00 -1.51973982E+01  7.59869910E+00  7.59869910E+00 -1.51973982E+01
  7.59869910E+00  7.59869910E+00 -1.51973982E+01  7.59869910E+00  7.59869910E+00
 -1.51973982E+01  7.59869910E+00  7.59869910E+00 -1.51973982E+01  7.59869910E+00
  7.59869910E+00 -1.51973982E+01  7.59869910E+00  7.59869910E+00 -1.51973982E+01
  7.59869910E+00  7.59869910E+00 -1.51973982E+01  7.59869910E+00  7.59869910E+00
 -1.51973982E+01  7.59869910E+00  7.59869910E+00 -1.51973982E+01  7.59869910E+00
  7.59869910E+00 -1.51973982E+01  7.59869910E+00  7.59869910E+00 -1.51973982E+01
  7.59869910E+00  7.59869910E+00 -1.51973982E+01  7.59869910E+00  7.59869910E+00
 -1.51973982E+01  7.59869910E+00  7.59869910E+00 -1.51973982E+01  7.59869910E+00
  7.59869910E+00 -1.51973982E+01  7.59869910E+00  7.59869910E+00 -1.51973982E+01
  7.59869910E+00  7.59869910E+00 -1.51973982E+01  7.59869910E+00  7.59869910E+00
 -1.51973982E+01  7.59869910E+00  7.59869910E+00 -1.51973982E+01  7.59869910E+00
  7.59869910E+00 -1.51973982E+01  7.59869910E+00  7.59869910E+00 -1.51973982E+01
  7.59869910E+00  7.59869910E+00 -1.51973982E+01  7.59869910E+00  7.59869910E+00
 -1.51973982E+01  7.59869910E+00  7.59869910E+00 -1.51973982E+01  7.59869910E+00
  7.59869910E+00 -1.51973982E+01  7.59869910E+00  7.59869910E+00 -1.51973982E+01
  7.59869910E+00  7.59869910E+00 -1.51973982E+01  7.59869910E+00  7.59869910E+00
 -1.51973982E+01  7.59869910E+00  7.59869910E+00 -1.51973982E+01  7.59869910E+00
  7.59869910E+00 -1.51973982E+01  7.59869910E+00  7.59869910E+00 -1.51973982E+01
  7.59869910E+00  7.59869910E+00 -1.51973982E+01  7.59869910E+00  7.59869910E+00
 -1.51973982E+01  7.59869910E+00  7.59869910E+00 -1.51973982E+01  7.59869910E+00
  7.59869910E+00 -1.51973982E+01  7.59869910E+00  7.59869910E+00 -1.51973982E+01
  7.59869910E+00  7.59869910E+00 -1.51973982E+01  7.59869910E+00  7.59869910E+00
 -1.51973982E+01  7.59869910E+00  7.59869910E+00 -1.51973982E+01  7.59869910E+00
  7.59869910E+00 -1.51973982E+01  7.59869910E+00  7.59869910E+00 -1.51973982E+01
  7.59869910E+00  7.59869910E+00 -1.51973982E+01  7.59869910E+00  7.59869910E+00
 -1.51973982E+01  7.59869910E+00  7.59869910E+00 -1.51973982E+01  7.59869910E+00
  7.59869910E+00 -1.51973982E+01  7.59869910E+00  7.59869910E+00 -1.51973982E+01
  7.59869910E+00  7.59869910E+00 -1.51973982E+01  7.59869910E+00  7.59869910E+00
 -1.51973982E+01  7.59869910E+00  7.59869910E+00 -1.51973982E+01  7.59869910E+00
  7.59869910E+00 -1.51973982E+01  7.59869910E+00  7.59869910E+00 -1.51973982E+01
  7.59869910E+00  7.59869910E+00 -1.51973982E+01  7.59869910E+00  7.59869910E+00
 -1.51973982E+01  7.59869910E+00  7.59869910E+00 -1.51973982E+01  7.59869910E+00
  7.59869910E+00 -1.51973982E+01  7.59869910E+00  7.59869910E+00 -1.51973982E+01
  7.59869910E+00  7.59869910E+00 -1.51973982E+01  7.59869910E+00  7.59869910E+00
 -1.51973982E+01  7.59869910E+00  7.59869910E+00 -1.51973982E+01  7.59869910E+00
  7.59869910E+00 -1.51973982E+01  7.59869910E+00  7.59869910E+00 -1.51973982E+01
  7.59869910E+00  7.59869910E+00 -1.51973982E+01  7.59869910E+00  7.59869910E+00
 -1.51973982E+01  7.59869910E+00  7.59869910E+00 -1.51973982E+01  7.59869910E+00
  7.59869910E+00 -1.51973982E+01  7.59869910E+00  7.59869910E+00 -1.51973982E+01
  7.59869910E+00  7.59869910E+00 -1.51973982E+01  7.59869910E+00  7.59869910E+00
 -1.51973982E+01  7.59869910E+00  7.59869910E+00 -1.51973982E+01  7.59869910E+00
  7.59869910E+00 -1.51973982E+01  7.59869910E+00  7.59869910E+00 -1.51973982E+01
  7.59869910E+00  7.59869910E+00 -1.51973982E+01  7.59869910E+00  7.59869910E+00
 -1.51973982E+01  7.59869910E+00  7.59869910E+00 -1.51973982E+01  7.59869910E+00
  7.59869910E+00 -1.51973982E+01  7.59869910E+00  7.59869910E+00 -1.51973982E+01
  7.59869910E+00  7.59869910E+00 -1.51973982E+01  7.59869910E+00  7.59869910E+00
 -1.51973982E+01  7.59869910E+00  7.59869910E+00 -1.51973982E+01  7.59869910E+00
  7.59869910E+00 -1.51973982E+01  7.59869910E+00  7.59869910E+00 -1.51973982E+01
  7.59869910E+00  7.59869910E+00 -1.51973982E+01  7.59869910E+00  7.59869910E+00
 -1.51973982E+01  7.59869910E+00  7.59869910E+00 -1.51973982E+01  7.59869910E+00
  7.59869910E+00 -1.51973982E+01  7.59869910E+00  7.59869910E+00 -1.51973982E+01
  7.59869910E+00  7.59869910E+00 -1.51973982E+01  7.59869910E+00  7.59869910E+00
 -1.51973982E+01  7.59869910E+00  7.59869910E+00 -1.51973982E+01  7.59869910E+00
  7.59869910E+00 -1.51973982E+01  7.59869910E+00  7.59869910E+00 -1.51973982E+01
  7.59869910E+00  7.59869910E+00 -1.51973982E+01  7.59869910E+00  7.59869910E+00
 -1.51973982E+01  7.59869910E+00  7.59869910E+00 -1.51973982E+01  7.59869910E+00
  7.59869910E+00 -1.51973982E+01  7.59869910E+00  7.59869910E+00 -1.51973982E+01
  7.59869910E+00  7.59869910E+00 -1.51973982E+01  7.59869910E+00  7.59869910E+00
 -1.51973982E+01  7.59869910E+00  7.59869910E+00 -1.51973982E+01  7.59869910E+00
  7.59869910E+00 -1.51973982E+01  7.59869910E+00  7.59869910E+00 -1.51973982E+01
  7.59869910E+00  7.59869910E+00 -1.51973982E+01  7.59869910E+00  7.59869910E+00
 -1.51973982E+01  7.59869910E+00  7.59869910E+00 -1.51973982E+01  7.59869910E+00
  7.59869910E+00 -1.51973982E+01  7.59869910E+00  7.59869910E+00 -1.51973982E+01
  7.59869910E+00  7.59869910E+00 -1.51973982E+01  7.59869910E+00  7.59869910E+00
 -1.51973982E+01  7.59869910E+00  7.59869910E+00 -1.51973982E+01  7.59869910E+00
  7.59869910E+00 -1.51973982E+01  7.59869910E+00  7.59869910E+00 -1.51973982E+01
  7.59869910E+00  7.59869910E+00 -1.51973982E+01  7.59869910E+00  7.59869910E+00
 -1.51973982E+01  7.59869910E+00  7.59869910E+00 -1.51973982E+01  7.59869910E+00
  7.59869910E+00 -1.51973982E+01  7.59869910E+00  7.59869910E+00 -1.51973982E+01
  7.59869910E+00  7.59869910E+00 -1.51973982E+01  7.59869910E+00  7.59869910E+00
 -1.51973982E+01  7.59869910E+00  7.59869910E+00 -1.51973982E+01  7.59869910E+00
  7.59869910E+00 -1.51973982E+01  7.59869910E+00  7.59869910E+00 -1.51973982E+01
  7.59869910E+00  7.59869910E+00 -1.51973982E+01  7.59869910E+00  7.59869910E+00
 -1.51973982E+01  7.59869910E+00  7.59869910E+00 -1.51973982E+01  7.59869910E+00
  7.59869910E+00 -1.51973982E+01  7.59869910E+00  7.59869910E+00 -1.51973982E+01
  7.59869910E+00  7.59869910E+00 -1.51973982E+01  7.59869910E+00  7.59869910E+00
 -1.51973982E+01  7.59869910E+00  7.59869910E+00 -1.51973982E+01  7.59869910E+00
  7.59869910E+00 -1.51973982E+01  7.59869910E+00  7.59869910E+00 -1.51973982E+01
  7.59869910E+00  7.59869910E+00 -1.51973982E+01  7.59869910E+00  7.59869910E+00
 -1.51973982E+01  7.59869910E+00  7.59869910E+00 -1.51973982E+01  7.59869910E+00
  7.59869910E+00 -1.51973982E+01  7.59869910E+00  7.59869910E+00 -1.51973982E+01
  7.59869910E+00  7.59869910E+00 -1.51973982E+01  7.59869910E+00  7.59869910E+00
 -1.51973982E+01  7.59869910E+00  7.59869910E+00 -1.51973982E+01  7.59869910E+00
  7.59869910E+00 -1.51973982E+01  7.59869910E+00  7.59869910E+00 -1.51973982E+01
  7.59869910E+00  7.59869910E+00 -1.51973982E+01  7.59869910E+00  7.59869910E+00
 -1.51973982E+01  7.59869910E+00  7.59869910E+00 -1.51973982E+01  7.59869910E+00
  7.59869910E+00 -1.51973982E+01  7.59869910E+00  7.59869910E+00 -1.51973982E+01
  7.59869910E+00  7.59869910E+00 -1.51973982E+01  7.59869910E+00  7.59869910E+00
 -1.51973982E+01  7.59869910E+00  7.59869910E+00 -1.51973982E+01  7.59869910E+00
  7.59869910E+00 -1.51973982E+01  7.59869910E+00  7.59869910E+00 -1.51973982E+01
  7.59869910E+00  7.59869910E+00 -1.51973982E+01  7.59869910E+00  7.59869910E+00
 -1.51973982E+01  7.59869910E+00  7.59869910E+00 -1.51973982E+01  7.59869910E+00
  7.59869910E+00 -1.51973982E+01  7.59869910E+00  7.59869910E+00 -1.51973982E+01
  7.59869910E+00  7.59869910E+00 -1.51973982E+01  7.59869910E+00  7.59869910E+00
 -1.51973982E+01  7.59869910E+00  7.59869910E+00 -1.51973982E+01  7.59869910E+00
  7.59869910E+00 -1.51973982E+01  7.59869910E+00  7.59869910E+00 -1.51973982E+01
  7.59869910E+00  7.59869910E+00 -1.51973982E+01  7.59869910E+00  7.59869910E+00
 -1.51973982E+01  7.59869910E+00  7.59869910E+00 -1.51973982E+01  7.59869910E+00
  7.59869910E+00 -1.51973982E+01  7.59869910E+00  7.59869910E+00 -1.51973982E+01
  7.59869910E+00  7.59869910E+00 -1.51973982E+01  7.59869910E+00  7.59869910E+00
 -1.51973982E+01  7.59869910E+00  7.59869910E+00 -1.51973982E+01  7.59869910E+00
  7.59869910E+00 -1.51973982E+01  7.59869910E+00  7.59869910E+00 -1.51973982E+01
  7.59869910E+00  7.59869910E+00 -1.51973982E+01  7.59869910E+00  7.59869910E+00
 -1.51973982E+01  7.59869910E+00  7.59869910E+00 -1.51973982E+01  7.59869910E+00
  7.59869910E+00 -1.51973982E+01  7.59869910E+00  7.59869910E+00 -1.51973982E+01
  7.59869910E+00  7.59869910E+00 -1.51973982E+01  7.59869910E+00  7.59869910E+00
 -1.51973982E+01  7.59869910E+00  7.59869910E+00 -1.51973982E+01  7.59869910E+00
  7.59869910E+00 -1.51973982E+01  7.59869910E+00  7.59869910E+00 -1.51973982E+01
  7.59869910E+00  7.59869910E+00 -1.51973982E+01  7.59869910E+00  7.59869910E+00
 -1.51973982E+01  7.59869910E+00  7.59869910E+00 -1.51973982E+01  7.59869910E+00
  7.59869910E+00 -1.51973982E+01  7.59869910E+00  7.59869910E+00 -1.51973982E+01
  7.59869910E+00  7.59869910E+00 -1.51973982E+01  7.59869910E+00  7.59869910E+00
 -1.51973982E+01  7.59869910E+00  7.59869910E+00 -1.51973982E+01  7.59869910E+00
  7.59869910E+00 -1.51973982E+01  7.59869910E+00  7.59869910E+00 -1.51973982E+01
  7.59869910E+00  7.59869910E+00 -1.51973982E+01  7.59869910E+00  7.59869910E+00
 -1.51973982E+01  7.59869910E+00  7.59869910E+00 -1.51973982E+01  7.59869910E+00
  7.59869910E+00 -1.51973982E+01  7.59869910E+00  7.59869910E+00 -1.51973982E+01
  7.59869910E+00  7.59869910E+00 -1.51973982E+01  7.59869910E+00  7.59869910E+00
 -1.51973982E+01  7.59869910E+00  7.59869910E+00 -1.51973982E+01  7.59869910E+00
  7.59869910E+00 -1.51973982E+01  7.59869910E+00  7.59869910E+00 -1.51973982E+01
  7.59869910E+00  7.59869910E+00 -1.51973982E+01  7.59869910E+00  7.59869910E+00
 -1.51973982E+01  7.59869910E+00  7.59869910E+00 -1.51973982E+01  7.59869910E+00
  7.59869910E+00 -1.51973982E+01  7.59869910E+00  7.59869910E+00 -1.51973982E+01
  7.59869910E+00  7.59869910E+00 -1.51973982E+01  7.59869910E+00  7.59869910E+00
 -1.51973982E+01  7.59869910E+00  7.59869910E+00 -1.51973982E+01  7.59869910E+00
  7.59869910E+00 -1.51973982E+01  7.59869910E+00  7.59869910E+00 -1.51973982E+01
  7.59869910E+00  7.59869910E+00 -1.51973982E+01  7.59869910E+00  7.59869910E+00
 -1.51973982E+01  7.59869910E+00  7.59869910E+00 -1.51973982E+01  7.59869910E+00
  7.59869910E+00 -1.51973982E+01  7.59869910E+00  7.59869910E+00 -1.51973982E+01
  7.59869910E+00  7.59869910E+00 -1.51973982E+01  7.59869910E+00  7.59869910E+00
 -1.51973982E+01  7.59869910E+00  7.59869910E+00 -1.51973982E+01  7.59869910E+00
  7.59869910E+00 -1.51973982E+01  7.59869910E+00  7.59869910E+00 -1.51973982E+01
  7.59869910E+00  7.59869910E+00 -1.51973982E+01  7.59869910E+00  7.59869910E+00
 -1.51973982E+01  7.59869910E+00  7.59869910E+00 -1.51973982E+01  7.59869910E+00
  7.59869910E+00 -1.51973982E+01  7.59869910E+00  7.59869910E+00 -1.51973982E+01
  7.59869910E+00  7.59869910E+00 -1.51973982E+01  7.59869910E+00  7.59869910E+00
 -1.51973982E+01  7.59869910E+00  7.59869910E+00 -1.51973982E+01  7.59869910E+00
  7.59869910E+00 -1.51973982E+01  7.59869910E+00  7.59869910E+00 -1.51973982E+01
  7.59869910E+00  7.59869910E+00 -1.51973982E+01  7.59869910E+00  7.59869910E+00
 -1.51973982E+01  7.59869910E+00  7.59869910E+00 -1.51973982E+01  7.59869910E+00
  7.59869910E+00 -1.51973982E+01  7.59869910E+00  7.59869910E+00 -1.51973982E+01
  7.59869910E+00  7.59869910E+00 -1.51973982E+01  7.59869910E+00  7.59869910E+00
 -1.51973982E+01  7.59869910E+00  7.59869910E+00 -1.51973982E+01  7.59869910E+00
  7.59869910E+00 -1.51973982E+01  7.59869910E+00  7.59869910E+00 -1.51973982E+01
  7.59869910E+00  7.59869910E+00 -1.51973982E+01  7.59869910E+00  7.59869910E+00
 -1.51973982E+01  7.59869910E+00  7.59869910E+00 -1.51973982E+01  7.59869910E+00
  7.59869910E+00 -1.51973982E+01  7.59869910E+00  7.59869910E+00 -1.51973982E+01
  7.59869910E+00  7.59869910E+00 -1.51973982E+01  7.59869910E+00  7.59869910E+00
 -1.51973982E+01  7.59869910E+00  7.59869910E+00 -1.51973982E+01  7.59869910E+00
  7.59869910E+00 -1.51973982E+01  7.59869910E+00  7.59869910E+00 -1.51973982E+01
  7.59869910E+00  7.59869910E+00 -1.51973982E+01  7.59869910E+00  7.59869910E+00
 -1.51973982E+01  7.59869910E+00  7.59869910E+00 -1.51973982E+01  7.59869910E+00
  7.59869910E+00 -1.51973982E+01  7.59869910E+00  7.59869910E+00 -1.51973982E+01
  7.59869910E+00  7.59869910E+00 -1.51973982E+01  7.59869910E+00  7.59869910E+00
 -1.51973982E+01  7.59869910E+00  7.59869910E+00 -1.51973982E+01  7.59869910E+00
  7.59869910E+00 -1.51973982E+01  7.59869910E+00  7.59869910E+00 -1.51973982E+01
  7.59869910E+00  7.59869910E+00 -1.51973982E+01  7.59869910E+00  7.59869910E+00
 -1.51973982E+01  7.59869910E+00  7.59869910E+00 -1.51973982E+01  7.59869910E+00
  7.59869910E+00 -1.51973982E+01  7.59869910E+00  7.59869910E+00 -1.51973982E+01
  7.59869910E+00  7.59869910E+00 -1.51973982E+01  7.59869910E+00  7.59869910E+00
 -1.51973982E+01  7.59869910E+00  7.59869910E+00 -1.51973982E+01  7.59869910E+00
  7.59869910E+00 -1.51973982E+01  7.59869910E+00  7.59869910E+00 -1.51973982E+01
  7.59869910E+00  7.59869910E+00 -1.51973982E+01  7.59869910E+00  7.59869910E+00
 -1.51973982E+01  7.59869910E+00  7.59869910E+00 -1.51973982E+01  7.59869910E+00
  7.59869910E+00 -1.51973982E+01  7.59869910E+00  7.59869910E+00 -1.51973982E+01
  7.59869910E+00  7.59869910E+00 -1.51973982E+01  7.59869910E+00  7.59869910E+00
 -1.51973982E+01  7.59869910E+00  7.59869910E+00 -1.51973982E+01  7.59869910E+00
  7.59869910E+00 -1.51973982E+01  7.59869910E+00  7.59869910E+00 -1.51973982E+01
  7.59869910E+00  7.59869910E+00 -1.51973982E+01  7.59869910E+00  7.59869910E+00
 -1.51973982E+01  7.59869910E+00  7.59869910E+00 -1.51973982E+01  7.59869910E+00
  7.59869910E+00 -1.51973982E+01  7.59869910E+00  7.59869910E+00 -1.51973982E+01
  7.59869910E+00  7.59869910E+00 -1.51973982E+01  7.59869910E+00  7.59869910E+00
 -1.51973982E+01  7.59869910E+00  7.59869910E+00 -1.51973982E+01  7.59869910E+00
  7.59869910E+00 -1.51973982E+01  7.59869910E+00  7.59869910E+00 -1.51973982E+01
  7.59869910E+00  7.59869910E+00 -1.51973982E+01  7.59869910E+00  7.59869910E+00
 -1.51973982E+01  7.59869910E+00  7.59869910E+00 -1.51973982E+01  7.59869910E+00
  7.59869910E+00 -1.51973982E+01  7.59869910E+00  7.59869910E+00 -1.51973982E+01
  7.59869910E+00  7.59869910E+00 -1.51973982E+01  7.59869910E+00  7.59869910E+00
 -1.51973982E+01  7.59869910E+00  7.59869910E+00 -1.51973982E+01  7.59869910E+00
  7.59869910E+00 -1.51973982E+01  7.59869910E+00  7.59869910E+00 -1.51973982E+01
  7.59869910E+00  7.59869910E+00 -1.51973982E+01  7.59869910E+00  7.59869910E+00
 -1.51973982E+01  7.59869910E+00  7.59869910E+00 -1.51973982E+01  7.59869910E+00
  7.59869910E+00 -1.51973982E+01  7.59869910E+00  7.59869910E+00 -1.51973982E+01
  7.59869910E+00  7.59869910E+00 -1.51973982E+01  7.59869910E+00  7.59869910E+00
 -1.51973982E+01  7.59869910E+00  7.59869910E+00 -1.51973982E+01  7.59869910E+00
  7.59869910E+00 -1.51973982E+01  7.59869910E+00  7.59869910E+00 -1.51973982E+01
  7.59869910E+00  7.59869910E+00 -1.51973982E+01  7.59869910E+00  7.59869910E+00
 -1.51973982E+01  7.59869910E+00  7.59869910E+00 -1.51973982E+01  7.59869910E+00
  7.59869910E+00 -1.51973982E+01  7.59869910E+00  7.59869910E+00 -1.51973982E+01
  7.59869910E+00  7.59869910E+00 -1.51973982E+01  7.59869910E+00  7.59869910E+00
 -1.51973982E+01  7.59869910E+00  7.59869910E+00 -1.51973982E+01  7.59869910E+00
  7.59869910E+00 -1.51973982E+01  7.59869910E+00  7.59869910E+00 -1.51973982E+01
  7.59869910E+00  7.59869910E+00 -1.51973982E+01  7.59869910E+00  7.59869910E+00
 -1.51973982E+01  7.59869910E+00  7.59869910E+00 -1.51973982E+01  7.59869910E+00
  7.59869910E+00 -1.51973982E+01  7.59869910E+00  7.59869910E+00 -1.51973982E+01
  7.59869910E+00  7.59869910E+00 -1.51973982E+01  7.59869910E+00  7.59869910E+00
 -1.51973982E+01  7.59869910E+00  7.59869910E+00 -1.51973982E+01  7.59869910E+00
  7.59869910E+00 -1.51973982E+01  7.59869910E+00  7.59869910E+00 -1.51973982E+01
  7.59869910E+00  7.59869910E+00 -1.51973982E+01  7.59869910E+00  7.59869910E+00
 -1.51973982E+01  7.59869910E+00  7.59869910E+00 -1.51973982E+01  7.59869910E+00
  7.59869910E+00 -1.51973982E+01  7.59869910E+00  7.59869910E+00 -1.51973982E+01
  7.59869910E+00  7.59869910E+00 -1.51973982E+01  7.59869910E+00  7.59869910E+00
 -1.51973982E+01  7.59869910E+00  7.59869910E+00 -1.51973982E+01  7.59869910E+00
  7.59869910E+00 -1.51973982E+01  7.59869910E+00  7.59869910E+00 -1.51973982E+01
  7.59869910E+00  7.59869910E+00 -1.51973982E+01  7.59869910E+00  7.59869910E+00
 -1.51973982E+01  7.59869910E+00  7.59869910E+00 -1.51973982E+01  7.59869910E+00
  7.59869910E+00 -1.51973982E+01  7.59869910E+00  7.59869910E+00 -1.51973982E+01
  7.59869910E+00  7.59869910E+00 -1.51973982E+01  7.59869910E+00  7.59869910E+00
 -1.51973982E+01  7.59869910E+00  7.59869910E+00 -1.51973982E+01  7.59869910E+00
  7.59869910E+00 -1.51973982E+01  7.59869910E+00  7.59869910E+00 -1.51973982E+01
  7.59869910E+00  7.59869910E+00 -1.51973982E+01  7.59869910E+00  7.59869910E+00
 -1.51973982E+01  7.59869910E+00  7.59869910E+00 -1.51973982E+01  7.59869910E+00
  7.59869910E+00 -1.51973982E+01  7.59869910E+00  7.59869910E+00 -1.51973982E+01
  7.59869910E+00  7.59869910E+00 -1.51973982E+01  7.59869910E+00  7.59869910E+00
 -1.51973982E+01  7.59869910E+00  7.59869910E+00 -1.51973982E+01  7.59869910E+00
  7.59869910E+00 -1.51973982E+01  7.59869910E+00  7.59869910E+00 -1.51973982E+01
  7.59869910E+00  7.59869910E+00 -1.51973982E+01  7.59869910E+00  7.59869910E+00
 -1.51973982E+01  7.59869910E+00  7.59869910E+00 -1.51973982E+01  7.59869910E+00
  7.59869910E+00 -1.51973982E+01  7.59869910E+00  7.59869910E+00 -1.51973982E+01
  7.59869910E+00  7.59869910E+00 -1.51973982E+01  7.59869910E+00  7.59869910E+00
 -1.51973982E+01  7.59869910E+00  7.59869910E+00 -1.51973982E+01  7.59869910E+00
  7.59869910E+00 -1.51973982E+01  7.59869910E+00  7.59869910E+00 -1.51973982E+01
  7.59869910E+00  7.59869910E+00 -1.51973982E+01  7.59869910E+00  7.59869910E+00
 -1.51973982E+01  7.59869910E+00  7.59869910E+00 -1.51973982E+01  7.59869910E+00
  7.59869910E+00 -1.51973982E+01  7.59869910E+00  7.59869910E+00 -1.51973982E+01
  7.59869910E+00  7.59869910E+00 -1.51973982E+01  7.59869910E+00  7.59869910E+00
 -1.51973982E+01  7.59869910E+00  7.59869910E+00 -1.51973982E+01  7.59869910E+00
  7.59869910E+00 -1.51973982E+01  7.59869910E+00  7.59869910E+00 -1.51973982E+01
  7.59869910E+00  7.59869910E+00 -1.51973982E+01  7.59869910E+00  7.59869910E+00
 -1.51973982E+01  7.59869910E+00  7.59869910E+00 -1.51973982E+01  7.59869910E+00
  7.59869910E+00 -1.51973982E+01  7.59869910E+00  7.59869910E+00 -1.51973982E+01
  7.59869910E+00  7.59869910E+00 -1.51973982E+01  7.59869910E+00  7.59869910E+00
 -1.51973982E+01  7.59869910E+00  7.59869910E+00 -1.51973982E+01  7.59869910E+00
  7.59869910E+00 -1.51973982E+01  7.59869910E+00  7.59869910E+00 -1.51973982E+01
  7.59869910E+00  7.59869910E+00 -1.51973982E+01  7.59869910E+00  7.59869910E+00
 -1.51973982E+01  7.59869910E+00  7.59869910E+00 -1.51973982E+01  7.59869910E+00
  7.59869910E+00 -1.51973982E+01  7.59869910E+00  7.59869910E+00 -1.51973982E+01
  7.59869910E+00  7.59869910E+00 -1.51973982E+01  7.59869910E+00  7.59869910E+00
 -1.51973982E+01  7.59869910E+00  7.59869910E+00 -1.51973982E+01  7.59869910E+00
  7.59869910E+00 -1.51973982E+01  7.59869910E+00  7.59869910E+00 -1.51973982E+01
  7.59869910E+00  7.59869910E+00 -1.51973982E+01  7.59869910E+00  7.59869910E+00
 -1.51973982E+01  7.59869910E+00  7.59869910E+00 -1.51973982E+01  7.59869910E+00
  7.59869910E+00 -1.51973982E+01  7.59869910E+00  7.59869910E+00 -1.51973982E+01
  7.59869910E+00  7.59869910E+00 -1.51973982E+01  7.59869910E+00  7.59869910E+00
 -1.51973982E+01  7.59869910E+00  7.59869910E+00 -1.51973982E+01  7.59869910E+00
  7.59869910E+00 -1.51973982E+01  7.59869910E+00  7.59869910E+00 -1.51973982E+01
  7.59869910E+00  7.59869910E+00 -1.51973982E+01  7.59869910E+00  7.59869910E+00
 -1.51973982E+01  7.59869910E+00  7.59869910E+00 -1.51973982E+01  7.59869910E+00
  7.59869910E+00 -1.51973982E+01  7.59869910E+00  7.59869910E+00 -1.51973982E+01
  7.59869910E+00  7.59869910E+00 -1.51973982E+01  7.59869910E+00  7.59869910E+00
 -1.51973982E+01  7.59869910E+00  7.59869910E+00 -1.51973982E+01  7.59869910E+00
  7.59869910E+00 -1.51973982E+01  7.59869910E+00  7.59869910E+00 -1.51973982E+01
  7.59869910E+00  7.59869910E+00 -1.51973982E+01  7.59869910E+00  7.59869910E+00
 -1.51973982E+01  7.59869910E+00  7.59869910E+00 -1.51973982E+01  7.59869910E+00
  7.59869910E+00 -1.51973982E+01  7.59869910E+00  7.59869910E+00 -1.51973982E+01
  7.59869910E+00  7.59869910E+00 -1.51973982E+01  7.59869910E+00  7.59869910E+00
 -1.51973982E+01  7.59869910E+00  7.59869910E+00 -1.51973982E+01  7.59869910E+00
  7.59869910E+00 -1.51973982E+01  7.59869910E+00  7.59869910E+00 -1.51973982E+01
  7.59869910E+00  7.59869910E+00 -1.51973982E+01  7.59869910E+00  7.59869910E+00
 -1.51973982E+01  7.59869910E+00  7.59869910E+00 -1.51973982E+01  7.59869910E+00
  7.59869910E+00 -1.51973982E+01  7.59869910E+00  7.59869910E+00 -1.51973982E+01
  7.59869910E+00  7.59869910E+00 -1.51973982E+01  7.59869910E+00  7.59869910E+00
 -1.51973982E+01  7.59869910E+00  7.59869910E+00 -1.51973982E+01  7.59869910E+00
  7.59869910E+00 -1.51973982E+01  7.59869910E+00  7.59869910E+00 -1.51973982E+01
  7.59869910E+00  7.59869910E+00 -1.51973982E+01  7.59869910E+00  7.59869910E+00
 -1.51973982E+01  7.59869910E+00  7.59869910E+00 -1.51973982E+01  7.59869910E+00
  7.59869910E+00 -1.51973982E+01  7.59869910E+00  7.59869910E+00 -1.51973982E+01
  7.59869910E+00  7.59869910E+00 -1.51973982E+01  7.59869910E+00  7.59869910E+00
 -1.51973982E+01  7.59869910E+00  7.59869910E+00 -1.51973982E+01  7.59869910E+00
  7.59869910E+00 -1.51973982E+01  7.59869910E+00  7.59869910E+00 -1.51973982E+01
  7.59869910E+00  7.59869910E+00 -1.51973982E+01  7.59869910E+00  7.59869910E+00
 -1.51973982E+01  7.59869910E+00  7.59869910E+00 -1.51973982E+01  7.59869910E+00
  7.59869910E+00 -1.51973982E+01  7.59869910E+00  7.59869910E+00 -1.51973982E+01
  7.59869910E+00  7.59869910E+00 -1.51973982E+01  7.59869910E+00  7.59869910E+00
 -1.51973982E+01  7.59869910E+00  7.59869910E+00 -1.51973982E+01  7.59869910E+00
  7.59869910E+00 -1.51973982E+01  7.59869910E+00  7.59869910E+00 -1.51973982E+01
  7.59869910E+00  7.59869910E+00 -1.51973982E+01  7.59869910E+00  7.59869910E+00
 -1.51973982E+01  7.59869910E+00  7.59869910E+00 -1.51973982E+01  7.59869910E+00
  7.59869910E+00 -1.51973982E+01  7.59869910E+00  7.59869910E+00 -1.51973982E+01
  7.59869910E+00  7.59869910E+00 -1.51973982E+01  7.59869910E+00  7.59869910E+00
 -1.51973982E+01  7.59869910E+00  7.59869910E+00 -1.51973982E+01  7.59869910E+00
  7.59869910E+00 -1.51973982E+01  7.59869910E+00  7.59869910E+00 -1.51973982E+01
  7.59869910E+00  7.59869910E+00 -1.51973982E+01  7.59869910E+00  7.59869910E+00
 -1.51973982E+01  7.59869910E+00  7.59869910E+00 -1.51973982E+01  7.59869910E+00
  7.59869910E+00 -1.51973982E+01  7.59869910E+00  7.59869910E+00 -1.51973982E+01
  7.59869910E+00  7.59869910E+00 -1.51973982E+01  7.59869910E+00  7.59869910E+00
 -1.51973982E+01  7.59869910E+00  7.59869910E+00 -1.51973982E+01  7.59869910E+00
  7.59869910E+00 -1.51973982E+01  7.59869910E+00  7.59869910E+00 -1.51973982E+01
  7.59869910E+00  7.59869910E+00 -1.51973982E+01  7.59869910E+00  7.59869910E+00
 -1.51973982E+01  7.59869910E+00  7.59869910E+00 -1.51973982E+01  7.59869910E+00
  7.59869910E+00 -1.51973982E+01  7.59869910E+00  7.59869910E+00 -1.51973982E+01
  7.59869910E+00  7.59869910E+00 -1.51973982E+01  7.59869910E+00  7.59869910E+00
 -1.51973982E+01  7.59869910E+00  7.59869910E+00 -1.51973982E+01  7.59869910E+00
  7.59869910E+00 -1.51973982E+01  7.59869910E+00  7.59869910E+00 -1.51973982E+01
  7.59869910E+00  7.59869910E+00 -1.51973982E+01  7.59869910E+00  7.59869910E+00
 -1.51973982E+01  7.59869910E+00  7.59869910E+00 -1.51973982E+01  7.59869910E+00
  7.59869910E+00 -1.51973982E+01  7.59869910E+00  7.59869910E+00 -1.51973982E+01
  7.59869910E+00  7.59869910E+00 -1.51973982E+01  7.59869910E+00  7.59869910E+00
 -1.51973982E+01  7.59869910E+00  7.59869910E+00 -1.51973982E+01  7.59869910E+00
  7.59869910E+00 -1.51973982E+01  7.59869910E+00  7.59869910E+00 -1.51973982E+01
  7.59869910E+00  7.59869910E+00 -1.51973982E+01  7.59869910E+00  7.59869910E+00
 -1.51973982E+01  7.59869910E+00  7.59869910E+00 -1.51973982E+01  7.59869910E+00
  7.59869910E+00 -1.51973982E+01  7.59869910E+00  7.59869910E+00 -1.51973982E+01
  7.59869910E+00  7.59869910E+00 -1.51973982E+01  7.59869910E+00  7.59869910E+00
 -1.51973982E+01  7.59869910E+00  7.59869910E+00 -1.51973982E+01  7.59869910E+00
  7.59869910E+00 -1.51973982E+01  7.59869910E+00  7.59869910E+00 -1.51973982E+01
  7.59869910E+00  7.59869910E+00 -1.51973982E+01  7.59869910E+00  7.59869910E+00
 -1.51973982E+01  7.59869910E+00  7.59869910E+00 -1.51973982E+01  7.59869910E+00
  7.59869910E+00 -1.51973982E+01  7.59869910E+00  7.59869910E+00 -1.51973982E+01
  7.59869910E+00  7.59869910E+00 -1.51973982E+01  7.59869910E+00  7.59869910E+00
 -1.51973982E+01  7.59869910E+00  7.59869910E+00 -1.51973982E+01  7.59869910E+00
  7.59869910E+00 -1.51973982E+01  7.59869910E+00  7.59869910E+00 -1.51973982E+01
  7.59869910E+00  7.59869910E+00 -1.51973982E+01  7.59869910E+00  7.59869910E+00
 -1.51973982E+01  7.59869910E+00  7.59869910E+00 -1.51973982E+01  7.59869910E+00
  7.59869910E+00 -1.51973982E+01  7.59869910E+00  7.59869910E+00 -1.51973982E+01
  7.59869910E+00  7.59869910E+00 -1.51973982E+01  7.59869910E+00  7.59869910E+00
 -1.51973982E+01  7.59869910E+00  7.59869910E+00 -1.51973982E+01  7.59869910E+00
  7.59869910E+00 -1.51973982E+01  7.59869910E+00  7.59869910E+00 -1.51973982E+01
  7.59869910E+00  7.59869910E+00 -1.51973982E+01  7.59869910E+00  7.59869910E+00
 -1.51973982E+01  7.59869910E+00  7.59869910E+00 -1.51973982E+01  7.59869910E+00
  7.59869910E+00 -1.51973982E+01  7.59869910E+00  7.59869910E+00 -1.51973982E+01
  7.59869910E+00  7.59869910E+00 -1.51973982E+01  7.59869910E+00  7.59869910E+00
 -1.51973982E+01  7.59869910E+00  7.59869910E+00 -1.51973982E+01  7.59869910E+00
  7.59869910E+00 -1.51973982E+01  7.59869910E+00  7.59869910E+00 -1.51973982E+01
  7.59869910E+00  7.59869910E+00 -1.51973982E+01  7.59869910E+00  7.59869910E+00
 -1.51973982E+01  7.59869910E+00  7.59869910E+00 -1.51973982E+01  7.59869910E+00
  7.59869910E+00 -1.51973982E+01  7.59869910E+00  7.59869910E+00 -1.51973982E+01
  7.59869910E+00  7.59869910E+00 -1.51973982E+01  7.59869910E+00  7.59869910E+00
 -1.51973982E+01  7.59869910E+00  7.59869910E+00 -1.51973982E+01  7.59869910E+00
  7.59869910E+00 -1.51973982E+01  7.59869910E+00  7.59869910E+00 -1.51973982E+01
  7.59869910E+00  7.59869910E+00 -1.51973982E+01  7.59869910E+00  7.59869910E+00
 -1.51973982E+01  7.59869910E+00  7.59869910E+00 -1.51973982E+01  7.59869910E+00
  7.59869910E+00 -1.51973982E+01  7.59869910E+00  7.59869910E+00 -1.51973982E+01
  7.59869910E+00  7.59869910E+00 -1.51973982E+01  7.59869910E+00  7.59869910E+00
 -1.51973982E+01  7.59869910E+00  7.59869910E+00 -1.51973982E+01  7.59869910E+00
  7.59869910E+00 -1.51973982E+01  7.59869910E+00  7.59869910E+00 -1.51973982E+01
  7.59869910E+00  7.59869910E+00 -1.51973982E+01  7.59869910E+00  7.59869910E+00
 -1.51973982E+01  7.59869910E+00  7.59869910E+00 -1.51973982E+01  7.59869910E+00
  7.59869910E+00 -1.51973982E+01  7.59869910E+00  7.59869910E+00 -1.51973982E+01
  7.59869910E+00  7.59869910E+00 -1.51973982E+01  7.59869910E+00  7.59869910E+00
 -1.51973982E+01  7.59869910E+00  7.59869910E+00 -1.51973982E+01  7.59869910E+00
  7.59869910E+00 -1.51973982E+01  7.59869910E+00  7.59869910E+00 -1.51973982E+01
  7.59869910E+00  7.59869910E+00 -1.51973982E+01  7.59869910E+00  7.59869910E+00
 -1.51973982E+01  7.59869910E+00  7.59869910E+00 -1.51973982E+01  7.59869910E+00
  7.59869910E+00 -1.51973982E+01  7.59869910E+00  7.59869910E+00 -1.51973982E+01
  7.59869910E+00  7.59869910E+00 -1.51973982E+01  7.59869910E+00  7.59869910E+00
 -1.51973982E+01  7.59869910E+00  7.59869910E+00 -1.51973982E+01  7.59869910E+00
  7.59869910E+00 -1.51973982E+01  7.59869910E+00  7.59869910E+00 -1.51973982E+01
  7.59869910E+00  7.59869910E+00 -1.51973982E+01  7.59869910E+00  7.59869910E+00
 -1.51973982E+01  7.59869910E+00  7.59869910E+00 -1.51973982E+01  7.59869910E+00
  7.59869910E+00 -1.51973982E+01  7.59869910E+00  7.59869910E+00 -1.51973982E+01
  7.59869910E+00  7.59869910E+00 -1.51973982E+01  7.59869910E+00  7.59869910E+00
 -1.51973982E+01  7.59869910E+00  7.59869910E+00 -1.51973982E+01  7.59869910E+00
  7.59869910E+00 -1.51973982E+01  7.59869910E+00  7.59869910E+00 -1.51973982E+01
  7.59869910E+00  7.59869910E+00 -1.51973982E+01  7.59869910E+00  7.59869910E+00
 -1.51973982E+01  7.59869910E+00  7.59869910E+00 -1.51973982E+01  7.59869910E+00
  7.59869910E+00 -1.51973982E+01  7.59869910E+00  7.59869910E+00 -1.51973982E+01
  7.59869910E+00  7.59869910E+00 -1.51973982E+01  7.59869910E+00  7.59869910E+00
 -1.51973982E+01  7.59869910E+00  7.59869910E+00 -1.51973982E+01  7.59869910E+00
  7.59869910E+00 -1.51973982E+01  7.59869910E+00  7.59869910E+00 -1.51973982E+01
  7.59869910E+00  7.59869910E+00 -1.51973982E+01  7.59869910E+00  7.59869910E+00
 -1.51973982E+01  7.59869910E+00  7.59869910E+00 -1.51973982E+01  7.59869910E+00
  7.59869910E+00 -1.51973982E+01  7.59869910E+00  7.59869910E+00 -1.51973982E+01
  7.59869910E+00  7.59869910E+00 -1.51973982E+01  7.59869910E+00  7.59869910E+00
 -1.51973982E+01  7.59869910E+00  7.59869910E+00 -1.51973982E+01  7.59869910E+00
  7.59869910E+00 -1.51973982E+01  7.59869910E+00  7.59869910E+00 -1.51973982E+01
  7.59869910E+00  7.59869910E+00 -1.51973982E+01  7.59869910E+00  7.59869910E+00
 -1.51973982E+01  7.59869910E+00  7.59869910E+00 -1.51973982E+01  7.59869910E+00
  7.59869910E+00 -1.51973982E+01  7.59869910E+00  7.59869910E+00 -1.51973982E+01
  7.59869910E+00  7.59869910E+00 -1.51973982E+01  7.59869910E+00  7.59869910E+00
 -1.51973982E+01  7.59869910E+00  7.59869910E+00 -1.51973982E+01  7.59869910E+00
  7.59869910E+00 -1.51973982E+01  7.59869910E+00  7.59869910E+00 -1.51973982E+01
  7.59869910E+00  7.59869910E+00 -1.51973982E+01  7.59869910E+00  7.59869910E+00
 -1.51973982E+01  7.59869910E+00  7.59869910E+00 -1.51973982E+01  7.59869910E+00
  7.59869910E+00 -1.51973982E+01  7.59869910E+00  7.59869910E+00 -1.51973982E+01
  7.59869910E+00  7.59869910E+00 -1.51973982E+01  7.59869910E+00  7.59869910E+00
 -1.51973982E+01  7.59869910E+00  7.59869910E+00 -1.51973982E+01  7.59869910E+00
  7.59869910E+00 -1.51973982E+01  7.59869910E+00  7.59869910E+00 -1.51973982E+01
  7.59869910E+00  7.59869910E+00 -1.51973982E+01  7.59869910E+00  7.59869910E+00
 -1.51973982E+01  7.59869910E+00  7.59869910E+00 -1.51973982E+01  7.59869910E+00
  7.59869910E+00 -1.51973982E+01  7.59869910E+00  7.59869910E+00 -1.51973982E+01
  7.59869910E+00  7.59869910E+00 -1.51973982E+01  7.59869910E+00  7.59869910E+00
 -1.51973982E+01  7.59869910E+00  7.59869910E+00 -1.51973982E+01  7.59869910E+00
  7.59869910E+00 -1.51973982E+01  7.59869910E+00  7.59869910E+00 -1.51973982E+01
  7.59869910E+00  7.59869910E+00 -1.51973982E+01  7.59869910E+00  7.59869910E+00
 -1.51973982E+01  7.59869910E+00  7.59869910E+00 -1.51973982E+01  7.59869910E+00
  7.59869910E+00 -1.51973982E+01  7.59869910E+00  7.59869910E+00 -1.51973982E+01
  7.59869910E+00  7.59869910E+00 -1.51973982E+01  7.59869910E+00  7.59869910E+00
 -1.51973982E+01  7.59869910E+00  7.59869910E+00 -1.51973982E+01  7.59869910E+00
  7.59869910E+00 -1.51973982E+01  7.59869910E+00  7.59869910E+00 -1.51973982E+01
  7.59869910E+00  7.59869910E+00 -1.51973982E+01  7.59869910E+00  7.59869910E+00
 -1.51973982E+01  7.59869910E+00  7.59869910E+00 -1.51973982E+01  7.59869910E+00
  7.59869910E+00 -1.51973982E+01  7.59869910E+00  7.59869910E+00 -1.51973982E+01
  7.59869910E+00  7.59869910E+00 -1.51973982E+01  7.59869910E+00  7.59869910E+00
 -1.51973982E+01  7.59869910E+00  7.59869910E+00 -1.51973982E+01  7.59869910E+00
  7.59869910E+00 -1.51973982E+01  7.59869910E+00  7.59869910E+00 -1.51973982E+01
  7.59869910E+00  7.59869910E+00 -1.51973982E+01  7.59869910E+00  7.59869910E+00
 -1.51973982E+01  7.59869910E+00  7.59869910E+00 -1.51973982E+01  7.59869910E+00
  7.59869910E+00 -1.51973982E+01  7.59869910E+00  7.59869910E+00 -1.51973982E+01
  7.59869910E+00  7.59869910E+00 -1.51973982E+01  7.59869910E+00  7.59869910E+00
 -1.51973982E+01  7.59869910E+00  7.59869910E+00 -1.51973982E+01  7.59869910E+00
  7.59869910E+00 -1.51973982E+01  7.59869910E+00  7.59869910E+00 -1.51973982E+01
  7.59869910E+00  7.59869910E+00 -1.51973982E+01  7.59869910E+00  7.59869910E+00
 -1.51973982E+01  7.59869910E+00  7.59869910E+00 -1.51973982E+01  7.59869910E+00
  7.59869910E+00 -1.51973982E+01  7.59869910E+00  7.59869910E+00 -1.51973982E+01
  7.59869910E+00  7.59869910E+00 -1.51973982E+01  7.59869910E+00  7.59869910E+00
 -1.51973982E+01  7.59869910E+00  7.59869910E+00 -1.51973982E+01  7.59869910E+00
  7.59869910E+00 -1.51973982E+01  7.59869910E+00  7.59869910E+00 -1.51973982E+01
  7.59869910E+00  7.59869910E+00 -1.51973982E+01  7.59869910E+00  7.59869910E+00
 -1.51973982E+01  7.59869910E+00  7.59869910E+00 -1.51973982E+01  7.59869910E+00
  7.59869910E+00 -1.51973982E+01  7.59869910E+00  7.59869910E+00 -1.51973982E+01
  7.59869910E+00  7.59869910E+00 -1.51973982E+01  7.59869910E+00  7.59869910E+00
 -1.51973982E+01  7.59869910E+00  7.59869910E+00 -1.51973982E+01  7.59869910E+00
  7.59869910E+00 -1.51973982E+01  7.59869910E+00  7.59869910E+00 -1.51973982E+01
  7.59869910E+00  7.59869910E+00 -1.51973982E+01  7.59869910E+00  7.59869910E+00
 -1.51973982E+01  7.59869910E+00  7.59869910E+00 -1.51973982E+01  7.59869910E+00
  7.59869910E+00 -1.51973982E+01  7.59869910E+00  7.59869910E+00 -1.51973982E+01
  7.59869910E+00  7.59869910E+00 -1.51973982E+01  7.59869910E+00  7.59869910E+00
 -1.51973982E+01  7.59869910E+00  7.59869910E+00 -1.51973982E+01  7.59869910E+00
  7.59869910E+00 -1.51973982E+01  7.59869910E+00  7.59869910E+00 -1.51973982E+01
  7.59869910E+00  7.59869910E+00 -1.51973982E+01  7.59869910E+00  7.59869910E+00
 -1.51973982E+01  7.59869910E+00  7.59869910E+00 -1.51973982E+01  7.59869910E+00
  7.59869910E+00 -1.51973982E+01  7.59869910E+00  7.59869910E+00 -1.51973982E+01
  7.59869910E+00  7.59869910E+00 -1.51973982E+01  7.59869910E+00  7.59869910E+00
 -1.51973982E+01  7.59869910E+00  7.59869910E+00 -1.51973982E+01  7.59869910E+00
  7.59869910E+00 -1.51973982E+01  7.59869910E+00  7.59869910E+00 -1.51973982E+01
  7.59869910E+00  7.59869910E+00 -1.51973982E+01  7.59869910E+00  7.59869910E+00
 -1.51973982E+01  7.59869910E+00  7.59869910E+00 -1.51973982E+01  7.59869910E+00
  7.59869910E+00 -1.51973982E+01  7.59869910E+00  7.59869910E+00 -1.51973982E+01
  7.59869910E+00  7.59869910E+00 -1.51973982E+01  7.59869910E+00  7.59869910E+00
 -1.51973982E+01  7.59869910E+00  7.59869910E+00 -1.51973982E+01  7.59869910E+00
  7.59869910E+00 -1.51973982E+01  7.59869910E+00  7.59869910E+00 -1.51973982E+01
  7.59869910E+00  7.59869910E+00 -1.51973982E+01  7.59869910E+00  7.59869910E+00
 -1.51973982E+01  7.59869910E+00  7.59869910E+00 -1.51973982E+01  7.59869910E+00
  7.59869910E+00 -1.51973982E+01  7.59869910E+00  7.59869910E+00 -1.51973982E+01
  7.59869910E+00  7.59869910E+00 -1.51973982E+01  7.59869910E+00  7.59869910E+00
 -1.51973982E+01  7.59869910E+00  7.59869910E+00 -1.51973982E+01  7.59869910E+00
  7.59869910E+00 -1.51973982E+01  7.59869910E+00  7.59869910E+00 -1.51973982E+01
  7.59869910E+00  7.59869910E+00 -1.51973982E+01  7.59869910E+00  7.59869910E+00
 -1.51973982E+01  7.59869910E+00  7.59869910E+00 -1.51973982E+01  7.59869910E+00
  7.59869910E+00 -1.51973982E+01  7.59869910E+00  7.59869910E+00 -1.51973982E+01
  7.59869910E+00  7.59869910E+00 -1.51973982E+01  7.59869910E+00  7.59869910E+00
 -1.51973982E+01  7.59869910E+00  7.59869910E+00 -1.51973982E+01  7.59869910E+00
  7.59869910E+00 -1.51973982E+01  7.59869910E+00  7.59869910E+00 -1.51973982E+01
  7.59869910E+00  7.59869910E+00 -1.51973982E+01  7.59869910E+00  7.59869910E+00
 -1.51973982E+01  7.59869910E+00  7.59869910E+00 -1.51973982E+01  7.59869910E+00
  7.59869910E+00 -1.51973982E+01  7.59869910E+00  7.59869910E+00 -1.51973982E+01
  7.59869910E+00  7.59869910E+00 -1.51973982E+01  7.59869910E+00  7.59869910E+00
 -1.51973982E+01  7.59869910E+00  7.59869910E+00 -1.51973982E+01  7.59869910E+00
  7.59869910E+00 -1.51973982E+01  7.59869910E+00  7.59869910E+00 -1.51973982E+01
  7.59869910E+00  7.59869910E+00 -1.51973982E+01  7.59869910E+00  7.59869910E+00
 -1.51973982E+01  7.59869910E+00  7.59869910E+00 -1.51973982E+01  7.59869910E+00
  7.59869910E+00 -1.51973982E+01  7.59869910E+00  7.59869910E+00 -1.51973982E+01
  7.59869910E+00  7.59869910E+00 -1.51973982E+01  7.59869910E+00  7.59869910E+00
 -1.51973982E+01  7.59869910E+00  7.59869910E+00 -1.51973982E+01  7.59869910E+00
  7.59869910E+00 -1.51973982E+01  7.59869910E+00  7.59869910E+00 -1.51973982E+01
  7.59869910E+00  7.59869910E+00 -1.51973982E+01  7.59869910E+00  7.59869910E+00
 -1.51973982E+01  7.59869910E+00  7.59869910E+00 -1.51973982E+01  7.59869910E+00
  7.59869910E+00 -1.51973982E+01  7.59869910E+00  7.59869910E+00 -1.51973982E+01
  7.59869910E+00  7.59869910E+00 -1.51973982E+01  7.59869910E+00  7.59869910E+00
 -1.51973982E+01  7.59869910E+00  7.59869910E+00 -1.51973982E+01  7.59869910E+00
  7.59869910E+00 -1.51973982E+01  7.59869910E+00  7.59869910E+00 -1.51973982E+01
  7.59869910E+00  7.59869910E+00 -1.51973982E+01  7.59869910E+00  7.59869910E+00
 -1.51973982E+01  7.59869910E+00  7.59869910E+00 -1.51973982E+01  7.59869910E+00
  7.59869910E+00 -1.51973982E+01  7.59869910E+00  7.59869910E+00 -1.51973982E+01
  7.59869910E+00  7.59869910E+00 -1.51973982E+01  7.59869910E+00  7.59869910E+00
 -1.51973982E+01  7.59869910E+00  7.59869910E+00 -1.51973982E+01  7.59869910E+00
  7.59869910E+00 -1.51973982E+01  7.59869910E+00  7.59869910E+00 -1.51973982E+01
  7.59869910E+00  7.59869910E+00 -1.51973982E+01  7.59869910E+00  7.59869910E+00
 -1.51973982E+01  7.59869910E+00  7.59869910E+00 -1.51973982E+01  7.59869910E+00
  7.59869910E+00 -1.51973982E+01  7.59869910E+00  7.59869910E+00 -1.51973982E+01
  7.59869910E+00  7.59869910E+00 -1.51973982E+01  7.59869910E+00  7.59869910E+00
 -1.51973982E+01  7.59869910E+00  7.59869910E+00 -1.51973982E+01  7.59869910E+00
  7.59869910E+00 -1.51973982E+01  7.59869910E+00  7.59869910E+00 -1.51973982E+01
  7.59869910E+00  7.59869910E+00 -1.51973982E+01  7.59869910E+00  7.59869910E+00
 -1.51973982E+01  7.59869910E+00  7.59869910E+00 -1.51973982E+01  7.59869910E+00
  7.59869910E+00 -1.51973982E+01  7.59869910E+00  7.59869910E+00 -1.51973982E+01
  7.59869910E+00  7.59869910E+00 -1.51973982E+01  7.59869910E+00  7.59869910E+00
 -1.51973982E+01  7.59869910E+00  7.59869910E+00 -1.51973982E+01  7.59869910E+00
  7.59869910E+00 -1.51973982E+01  7.59869910E+00  7.59869910E+00 -1.51973982E+01
  7.59869910E+00  7.59869910E+00 -1.51973982E+01  7.59869910E+00  7.59869910E+00
 -1.51973982E+01  7.59869910E+00  7.59869910E+00 -1.51973982E+01  7.59869910E+00
  7.59869910E+00 -1.51973982E+01  7.59869910E+00  7.59869910E+00 -1.51973982E+01
  7.59869910E+00  7.59869910E+00 -1.51973982E+01  7.59869910E+00  7.59869910E+00
 -1.51973982E+01  7.59869910E+00  7.59869910E+00 -1.51973982E+01  7.59869910E+00
  7.59869910E+00 -1.51973982E+01  7.59869910E+00  7.59869910E+00 -1.51973982E+01
  7.59869910E+00  7.59869910E+00 -1.51973982E+01  7.59869910E+00  7.59869910E+00
 -1.51973982E+01  7.59869910E+00  7.59869910E+00 -1.51973982E+01  7.59869910E+00
  7.59869910E+00 -1.51973982E+01  7.59869910E+00  7.59869910E+00 -1.51973982E+01
  7.59869910E+00  7.59869910E+00 -1.51973982E+01  7.59869910E+00  7.59869910E+00
 -1.51973982E+01  7.59869910E+00  7.59869910E+00 -1.51973982E+01  7.59869910E+00
  7.59869910E+00 -1.51973982E+01  7.59869910E+00  7.59869910E+00 -1.51973982E+01
  7.59869910E+00  7.59869910E+00 -1.51973982E+01  7.59869910E+00  7.59869910E+00
 -1.51973982E+01  7.59869910E+00  7.59869910E+00 -1.51973982E+01  7.59869910E+00
  7.59869910E+00 -1.51973982E+01  7.59869910E+00  7.59869910E+00 -1.51973982E+01
  7.59869910E+00  7.59869910E+00 -1.51973982E+01  7.59869910E+00  7.59869910E+00
 -1.51973982E+01  7.59869910E+00  7.59869910E+00 -1.51973982E+01  7.59869910E+00
  7.59869910E+00 -1.51973982E+01  7.59869910E+00  7.59869910E+00 -1.51973982E+01
  7.59869910E+00  7.59869910E+00 -1.51973982E+01  7.59869910E+00  7.59869910E+00
 -1.51973982E+01  7.59869910E+00  7.59869910E+00 -1.51973982E+01  7.59869910E+00
  7.59869910E+00 -1.51973982E+01  7.59869910E+00  7.59869910E+00 -1.51973982E+01
  7.59869910E+00  7.59869910E+00 -1.51973982E+01  7.59869910E+00  7.59869910E+00
 -1.51973982E+01  7.59869910E+00  7.59869910E+00 -1.51973982E+01  7.59869910E+00
  7.59869910E+00 -1.51973982E+01  7.59869910E+00  7.59869910E+00 -1.51973982E+01
  7.59869910E+00  7.59869910E+00 -1.51973982E+01  7.59869910E+00  7.59869910E+00
 -1.51973982E+01  7.59869910E+00  7.59869910E+00 -1.51973982E+01  7.59869910E+00
  7.59869910E+00 -1.51973982E+01  7.59869910E+00  7.59869910E+00 -1.51973982E+01
  7.59869910E+00  7.59869910E+00 -1.51973982E+01  7.59869910E+00  7.59869910E+00
 -1.51973982E+01  7.59869910E+00  7.59869910E+00 -1.51973982E+01  7.59869910E+00
  7.59869910E+00 -1.51973982E+01  7.59869910E+00  7.59869910E+00 -1.51973982E+01
  7.59869910E+00  7.59869910E+00 -1.51973982E+01  7.59869910E+00  7.59869910E+00
 -1.51973982E+01  7.59869910E+00  7.59869910E+00 -1.51973982E+01  7.59869910E+00
  7.59869910E+00 -1.51973982E+01  7.59869910E+00  7.59869910E+00 -1.51973982E+01
  7.59869910E+00  7.59869910E+00 -1.51973982E+01  7.59869910E+00  7.59869910E+00
 -1.51973982E+01  7.59869910E+00  7.59869910E+00 -1.51973982E+01  7.59869910E+00
  7.59869910E+00 -1.51973982E+01  7.59869910E+00  7.59869910E+00 -1.51973982E+01
  7.59869910E+00  7.59869910E+00 -1.51973982E+01  7.59869910E+00  7.59869910E+00
 -1.51973982E+01  7.59869910E+00  7.59869910E+00 -1.51973982E+01  7.59869910E+00
  7.59869910E+00 -1.51973982E+01  7.59869910E+00  7.59869910E+00 -1.51973982E+01
  7.59869910E+00  7.59869910E+00 -1.51973982E+01  7.59869910E+00  7.59869910E+00
 -1.51973982E+01  7.59869910E+00  7.59869910E+00 -1.51973982E+01  7.59869910E+00
  7.59869910E+00 -1.51973982E+01  7.59869910E+00  7.59869910E+00 -1.51973982E+01
  7.59869910E+00  7.59869910E+00 -1.51973982E+01  7.59869910E+00  7.59869910E+00
 -1.51973982E+01  7.59869910E+00  7.59869910E+00 -1.51973982E+01  7.59869910E+00
  7.59869910E+00 -1.51973982E+01  7.59869910E+00  7.59869910E+00 -1.51973982E+01
  7.59869910E+00  7.59869910E+00 -1.51973982E+01  7.59869910E+00  7.59869910E+00
 -1.51973982E+01  7.59869910E+00  7.59869910E+00 -1.51973982E+01  7.59869910E+00
  7.59869910E+00 -1.51973982E+01  7.59869910E+00  7.59869910E+00 -1.51973982E+01
  7.59869910E+00  7.59869910E+00 -1.51973982E+01  7.59869910E+00  7.59869910E+00
 -1.51973982E+01  7.59869910E+00  7.59869910E+00 -1.51973982E+01  7.59869910E+00
  7.59869910E+00 -1.51973982E+01  7.59869910E+00  7.59869910E+00 -1.51973982E+01
  7.59869910E+00  7.59869910E+00 -1.51973982E+01  7.59869910E+00  7.59869910E+00
 -1.51973982E+01  7.59869910E+00  7.59869910E+00 -1.51973982E+01  7.59869910E+00
  7.59869910E+00 -1.51973982E+01  7.59869910E+00  7.59869910E+00 -1.51973982E+01
  7.59869910E+00  7.59869910E+00 -1.51973982E+01  7.59869910E+00  7.59869910E+00
 -1.51973982E+01  7.59869910E+00  7.59869910E+00 -1.51973982E+01  7.59869910E+00
  7.59869910E+00 -1.51973982E+01  7.59869910E+00  7.59869910E+00 -1.51973982E+01
  7.59869910E+00  7.59869910E+00 -1.51973982E+01  7.59869910E+00  7.59869910E+00
 -1.51973982E+01  7.59869910E+00  7.59869910E+00 -1.51973982E+01  7.59869910E+00
  7.59869910E+00 -1.51973982E+01  7.59869910E+00  7.59869910E+00 -1.51973982E+01
  7.59869910E+00  7.59869910E+00 -1.51973982E+01  7.59869910E+00  7.59869910E+00
 -1.51973982E+01  7.59869910E+00  7.59869910E+00 -1.51973982E+01  7.59869910E+00
  7.59869910E+00 -1.51973982E+01  7.59869910E+00  7.59869910E+00 -1.51973982E+01
  7.59869910E+00  7.59869910E+00 -1.51973982E+01  7.59869910E+00  7.59869910E+00
 -1.51973982E+01  7.59869910E+00  7.59869910E+00 -1.51973982E+01  7.59869910E+00
  7.59869910E+00 -1.51973982E+01  7.59869910E+00  7.59869910E+00 -1.51973982E+01
  7.59869910E+00  7.59869910E+00 -1.51973982E+01  7.59869910E+00  7.59869910E+00
 -1.51973982E+01  7.59869910E+00  7.59869910E+00 -1.51973982E+01  7.59869910E+00
  7.59869910E+00 -1.51973982E+01  7.59869910E+00  7.59869910E+00 -1.51973982E+01
  7.59869910E+00  7.59869910E+00 -1.51973982E+01  7.59869910E+00  7.59869910E+00
 -1.51973982E+01  7.59869910E+00  7.59869910E+00 -1.51973982E+01  7.59869910E+00
  7.59869910E+00 -1.51973982E+01  7.59869910E+00  7.59869910E+00 -1.51973982E+01
  7.59869910E+00  7.59869910E+00 -1.51973982E+01  7.59869910E+00  7.59869910E+00
 -1.51973982E+01  7.59869910E+00  7.59869910E+00 -1.51973982E+01  7.59869910E+00
  7.59869910E+00 -1.51973982E+01  7.59869910E+00  7.59869910E+00 -1.51973982E+01
  7.59869910E+00  7.59869910E+00 -1.51973982E+01  7.59869910E+00  7.59869910E+00
 -1.51973982E+01  7.59869910E+00  7.59869910E+00 -1.51973982E+01  7.59869910E+00
  7.59869910E+00 -1.51973982E+01  7.59869910E+00  7.59869910E+00 -1.51973982E+01
  7.59869910E+00  7.59869910E+00 -1.51973982E+01  7.59869910E+00  7.59869910E+00
 -1.51973982E+01  7.59869910E+00  7.59869910E+00 -1.51973982E+01  7.59869910E+00
  7.59869910E+00 -1.51973982E+01  7.59869910E+00  7.59869910E+00 -1.51973982E+01
  7.59869910E+00  7.59869910E+00 -1.51973982E+01  7.59869910E+00  7.59869910E+00
 -1.51973982E+01  7.59869910E+00  7.59869910E+00 -1.51973982E+01  7.59869910E+00
  7.59869910E+00 -1.51973982E+01  7.59869910E+00  7.59869910E+00 -1.51973982E+01
  7.59869910E+00  7.59869910E+00 -1.51973982E+01  7.59869910E+00  7.59869910E+00
 -1.51973982E+01  7.59869910E+00  7.59869910E+00 -1.51973982E+01  7.59869910E+00
  7.59869910E+00 -1.51973982E+01  7.59869910E+00  7.59869910E+00 -1.51973982E+01
  7.59869910E+00  7.59869910E+00 -1.51973982E+01  7.59869910E+00  7.59869910E+00
 -1.51973982E+01  7.59869910E+00  7.59869910E+00 -1.51973982E+01  7.59869910E+00
  7.59869910E+00 -1.51973982E+01  7.59869910E+00  7.59869910E+00 -1.51973982E+01
  7.59869910E+00  7.59869910E+00 -1.51973982E+01  7.59869910E+00  7.59869910E+00
 -1.51973982E+01  7.59869910E+00  7.59869910E+00 -1.51973982E+01  7.59869910E+00
  7.59869910E+00 -1.51973982E+01  7.59869910E+00  7.59869910E+00 -1.51973982E+01
  7.59869910E+00  7.59869910E+00 -1.51973982E+01  7.59869910E+00  7.59869910E+00
 -1.51973982E+01  7.59869910E+00  7.59869910E+00 -1.51973982E+01  7.59869910E+00
  7.59869910E+00 -1.51973982E+01  7.59869910E+00  7.59869910E+00 -1.51973982E+01
  7.59869910E+00  7.59869910E+00 -1.51973982E+01  7.59869910E+00  7.59869910E+00
 -1.51973982E+01  7.59869910E+00  7.59869910E+00 -1.51973982E+01  7.59869910E+00
  7.59869910E+00 -1.51973982E+01  7.59869910E+00  7.59869910E+00 -1.51973982E+01
  7.59869910E+00  7.59869910E+00 -1.51973982E+01  7.59869910E+00  7.59869910E+00
 -1.51973982E+01  7.59869910E+00  7.59869910E+00 -1.51973982E+01  7.59869910E+00
  7.59869910E+00 -1.51973982E+01  7.59869910E+00  7.59869910E+00 -1.51973982E+01
  7.59869910E+00  7.59869910E+00 -1.51973982E+01  7.59869910E+00  7.59869910E+00
 -1.51973982E+01  7.59869910E+00  7.59869910E+00 -1.51973982E+01  7.59869910E+00
  7.59869910E+00 -1.51973982E+01  7.59869910E+00  7.59869910E+00 -1.51973982E+01
  7.59869910E+00  7.59869910E+00 -1.51973982E+01  7.59869910E+00  7.59869910E+00
 -1.51973982E+01  7.59869910E+00  7.59869910E+00 -1.51973982E+01  7.59869910E+00
  7.59869910E+00 -1.51973982E+01  7.59869910E+00  7.59869910E+00 -1.51973982E+01
  7.59869910E+00  7.59869910E+00 -1.51973982E+01  7.59869910E+00  7.59869910E+00
 -1.51973982E+01  7.59869910E+00  7.59869910E+00 -1.51973982E+01  7.59869910E+00
  7.59869910E+00 -1.51973982E+01  7.59869910E+00  7.59869910E+00 -1.51973982E+01
  7.59869910E+00  7.59869910E+00 -1.51973982E+01  7.59869910E+00  7.59869910E+00
 -1.51973982E+01  7.59869910E+00  7.59869910E+00 -1.51973982E+01  7.59869910E+00
  7.59869910E+00 -1.51973982E+01  7.59869910E+00  7.59869910E+00 -1.51973982E+01
  7.59869910E+00  7.59869910E+00 -1.51973982E+01  7.59869910E+00  7.59869910E+00
 -1.51973982E+01  7.59869910E+00  7.59869910E+00 -1.51973982E+01  7.59869910E+00
  7.59869910E+00 -1.51973982E+01  7.59869910E+00  7.59869910E+00 -1.51973982E+01
  7.59869910E+00  7.59869910E+00 -1.51973982E+01  7.59869910E+00  7.59869910E+00
 -1.51973982E+01  7.59869910E+00  7.59869910E+00 -1.51973982E+01  7.59869910E+00
  7.59869910E+00 -1.51973982E+01  7.59869910E+00  7.59869910E+00 -1.51973982E+01
  7.59869910E+00  7.59869910E+00 -1.51973982E+01  7.59869910E+00  7.59869910E+00
 -1.51973982E+01  7.59869910E+00  7.59869910E+00 -1.51973982E+01  7.59869910E+00
  7.59869910E+00 -1.51973982E+01  7.59869910E+00  7.59869910E+00 -1.51973982E+01
  7.59869910E+00  7.59869910E+00 -1.51973982E+01  7.59869910E+00  7.59869910E+00
 -1.51973982E+01  7.59869910E+00  7.59869910E+00 -1.51973982E+01  7.59869910E+00
  7.59869910E+00 -1.51973982E+01  7.59869910E+00  7.59869910E+00 -1.51973982E+01
  7.59869910E+00  7.59869910E+00 -1.51973982E+01  7.59869910E+00  7.59869910E+00
 -1.51973982E+01  7.59869910E+00  7.59869910E+00 -1.51973982E+01  7.59869910E+00
  7.59869910E+00 -1.51973982E+01  7.59869910E+00  7.59869910E+00 -1.51973982E+01
  7.59869910E+00  7.59869910E+00 -1.51973982E+01  7.59869910E+00  7.59869910E+00
 -1.51973982E+01  7.59869910E+00  7.59869910E+00 -1.51973982E+01  7.59869910E+00
  7.59869910E+00 -1.51973982E+01  7.59869910E+00  7.59869910E+00 -1.51973982E+01
  7.59869910E+00  7.59869910E+00 -1.51973982E+01  7.59869910E+00  7.59869910E+00
 -1.51973982E+01  7.59869910E+00  7.59869910E+00 -1.51973982E+01  7.59869910E+00
  7.59869910E+00 -1.51973982E+01  7.59869910E+00  7.59869910E+00 -1.51973982E+01
  7.59869910E+00  7.59869910E+00 -1.51973982E+01  7.59869910E+00  7.59869910E+00
 -1.51973982E+01  7.59869910E+00  7.59869910E+00 -1.51973982E+01  7.59869910E+00
  7.59869910E+00 -1.51973982E+01  7.59869910E+00  7.59869910E+00 -1.51973982E+01
  7.59869910E+00  7.59869910E+00 -1.51973982E+01  7.59869910E+00  7.59869910E+00
 -1.51973982E+01  7.59869910E+00  7.59869910E+00 -1.51973982E+01  7.59869910E+00
  7.59869910E+00 -1.51973982E+01  7.59869910E+00  7.59869910E+00 -1.51973982E+01
  7.59869910E+00  7.59869910E+00 -1.51973982E+01  7.59869910E+00  7.59869910E+00
 -1.51973982E+01  7.59869910E+00  7.59869910E+00 -1.51973982E+01  7.59869910E+00
  7.59869910E+00 -1.51973982E+01  7.59869910E+00  7.59869910E+00 -1.51973982E+01
  7.59869910E+00  7.59869910E+00 -1.51973982E+01  7.59869910E+00  7.59869910E+00
 -1.51973982E+01  7.59869910E+00  7.59869910E+00 -1.51973982E+01  7.59869910E+00
  7.59869910E+00 -1.51973982E+01  7.59869910E+00  7.59869910E+00 -1.51973982E+01
  7.59869910E+00  7.59869910E+00 -1.51973982E+01  7.59869910E+00  7.59869910E+00
 -1.51973982E+01  7.59869910E+00  7.59869910E+00 -1.51973982E+01  7.59869910E+00
  7.59869910E+00 -1.51973982E+01  7.59869910E+00  7.59869910E+00 -1.51973982E+01
  7.59869910E+00  7.59869910E+00 -1.51973982E+01  7.59869910E+00  7.59869910E+00
 -1.51973982E+01  7.59869910E+00  7.59869910E+00 -1.51973982E+01  7.59869910E+00
  7.59869910E+00 -1.51973982E+01  7.59869910E+00  7.59869910E+00 -1.51973982E+01
  7.59869910E+00  7.59869910E+00 -1.51973982E+01  7.59869910E+00  7.59869910E+00
 -1.51973982E+01  7.59869910E+00  7.59869910E+00 -1.51973982E+01  7.59869910E+00
  7.59869910E+00 -1.51973982E+01  7.59869910E+00  7.59869910E+00 -1.51973982E+01
  7.59869910E+00  7.59869910E+00 -1.51973982E+01  7.59869910E+00  7.59869910E+00
 -1.51973982E+01  7.59869910E+00  7.59869910E+00 -1.51973982E+01  7.59869910E+00
  7.59869910E+00 -1.51973982E+01  7.59869910E+00  7.59869910E+00 -1.51973982E+01
  7.59869910E+00  7.59869910E+00 -1.51973982E+01  7.59869910E+00  7.59869910E+00
 -1.51973982E+01  7.59869910E+00  7.59869910E+00 -1.51973982E+01  7.59869910E+00
  7.59869910E+00 -1.51973982E+01  7.59869910E+00  7.59869910E+00 -1.51973982E+01
  7.59869910E+00  7.59869910E+00 -1.51973982E+01  7.59869910E+00  7.59869910E+00
 -1.51973982E+01  7.59869910E+00  7.59869910E+00 -1.51973982E+01  7.59869910E+00
  7.59869910E+00 -1.51973982E+01  7.59869910E+00  7.59869910E+00 -1.51973982E+01
  7.59869910E+00  7.59869910E+00 -1.51973982E+01  7.59869910E+00  7.59869910E+00
 -1.51973982E+01  7.59869910E+00  7.59869910E+00 -1.51973982E+01  7.59869910E+00
  7.59869910E+00 -1.51973982E+01  7.59869910E+00  7.59869910E+00 -1.51973982E+01
  7.59869910E+00  7.59869910E+00 -1.51973982E+01  7.59869910E+00  7.59869910E+00
 -1.51973982E+01  7.59869910E+00  7.59869910E+00 -1.51973982E+01  7.59869910E+00
  7.59869910E+00 -1.51973982E+01  7.59869910E+00  7.59869910E+00 -1.51973982E+01
  7.59869910E+00  7.59869910E+00 -1.51973982E+01  7.59869910E+00  7.59869910E+00
 -1.51973982E+01  7.59869910E+00  7.59869910E+00 -1.51973982E+01  7.59869910E+00
  7.59869910E+00 -1.51973982E+01  7.59869910E+00  7.59869910E+00 -1.51973982E+01
  7.59869910E+00  7.59869910E+00 -1.51973982E+01  7.59869910E+00  7.59869910E+00
 -1.51973982E+01  7.59869910E+00  7.59869910E+00 -1.51973982E+01  7.59869910E+00
  7.59869910E+00 -1.51973982E+01  7.59869910E+00  7.59869910E+00 -1.51973982E+01
  7.59869910E+00  7.59869910E+00 -1.51973982E+01  7.59869910E+00  7.59869910E+00
 -1.51973982E+01  7.59869910E+00  7.59869910E+00 -1.51973982E+01  7.59869910E+00
  7.59869910E+00 -1.51973982E+01  7.59869910E+00  7.59869910E+00 -1.51973982E+01
  7.59869910E+00  7.59869910E+00 -1.51973982E+01  7.59869910E+00  7.59869910E+00
 -1.51973982E+01  7.59869910E+00  7.59869910E+00 -1.51973982E+01  7.59869910E+00
  7.59869910E+00 -1.51973982E+01  7.59869910E+00  7.59869910E+00 -1.51973982E+01
  7.59869910E+00  7.59869910E+00 -1.51973982E+01  7.59869910E+00  7.59869910E+00
 -1.51973982E+01  7.59869910E+00  7.59869910E+00 -1.51973982E+01  7.59869910E+00
  7.59869910E+00 -1.51973982E+01  7.59869910E+00  7.59869910E+00 -1.51973982E+01
  7.59869910E+00  7.59869910E+00 -1.51973982E+01  7.59869910E+00  7.59869910E+00
 -1.51973982E+01  7.59869910E+00  7.59869910E+00 -1.51973982E+01  7.59869910E+00
  7.59869910E+00 -1.51973982E+01  7.59869910E+00  7.59869910E+00 -1.51973982E+01
  7.59869910E+00  7.59869910E+00 -1.51973982E+01  7.59869910E+00  7.59869910E+00
 -1.51973982E+01  7.59869910E+00  7.59869910E+00 -1.51973982E+01  7.59869910E+00
  7.59869910E+00 -1.51973982E+01  7.59869910E+00  7.59869910E+00 -1.51973982E+01
  7.59869910E+00  7.59869910E+00 -1.51973982E+01  7.59869910E+00  7.59869910E+00
 -1.51973982E+01  7.59869910E+00  7.59869910E+00 -1.51973982E+01  7.59869910E+00
  7.59869910E+00 -1.51973982E+01  7.59869910E+00  7.59869910E+00 -1.51973982E+01
  7.59869910E+00  7.59869910E+00 -1.51973982E+01  7.59869910E+00  7.59869910E+00
 -1.51973982E+01  7.59869910E+00  7.59869910E+00 -1.51973982E+01  7.59869910E+00
  7.59869910E+00 -1.51973982E+01  7.59869910E+00  7.59869910E+00 -1.51973982E+01
  7.59869910E+00  7.59869910E+00 -1.51973982E+01  7.59869910E+00  7.59869910E+00
 -1.51973982E+01  7.59869910E+00  7.59869910E+00 -1.51973982E+01  7.59869910E+00
  7.59869910E+00 -1.51973982E+01  7.59869910E+00  7.59869910E+00 -1.51973982E+01
  7.59869910E+00  7.59869910E+00 -1.51973982E+01  7.59869910E+00  7.59869910E+00
 -1.51973982E+01  7.59869910E+00  7.59869910E+00 -1.51973982E+01  7.59869910E+00
  7.59869910E+00 -1.51973982E+01  7.59869910E+00  7.59869910E+00 -1.51973982E+01
  7.59869910E+00  7.59869910E+00 -1.51973982E+01  7.59869910E+00  7.59869910E+00
 -1.51973982E+01  7.59869910E+00  7.59869910E+00 -1.51973982E+01  7.59869910E+00
  7.59869910E+00 -1.51973982E+01  7.59869910E+00  7.59869910E+00 -1.51973982E+01
  7.59869910E+00  7.59869910E+00 -1.51973982E+01  7.59869910E+00  7.59869910E+00
 -1.51973982E+01  7.59869910E+00  7.59869910E+00 -1.51973982E+01  7.59869910E+00
  7.59869910E+00 -1.51973982E+01  7.59869910E+00  7.59869910E+00 -1.51973982E+01
  7.59869910E+00  7.59869910E+00 -1.51973982E+01  7.59869910E+00  7.59869910E+00
 -1.51973982E+01  7.59869910E+00  7.59869910E+00 -1.51973982E+01  7.59869910E+00
  7.59869910E+00 -1.51973982E+01  7.59869910E+00  7.59869910E+00 -1.51973982E+01
  7.59869910E+00  7.59869910E+00 -1.51973982E+01  7.59869910E+00  7.59869910E+00
 -1.51973982E+01  7.59869910E+00  7.59869910E+00 -1.51973982E+01  7.59869910E+00
  7.59869910E+00 -1.51973982E+01  7.59869910E+00  7.59869910E+00 -1.51973982E+01
  7.59869910E+00  7.59869910E+00 -1.51973982E+01  7.59869910E+00  7.59869910E+00
 -1.51973982E+01  7.59869910E+00  7.59869910E+00 -1.51973982E+01  7.59869910E+00
  7.59869910E+00 -1.51973982E+01  7.59869910E+00  7.59869910E+00 -1.51973982E+01
  7.59869910E+00  7.59869910E+00 -1.51973982E+01  7.59869910E+00  7.59869910E+00
 -1.51973982E+01  7.59869910E+00  7.59869910E+00 -1.51973982E+01  7.59869910E+00
  7.59869910E+00 -1.51973982E+01  7.59869910E+00  7.59869910E+00 -1.51973982E+01
  7.59869910E+00  7.59869910E+00 -1.51973982E+01  7.59869910E+00  7.59869910E+00
 -1.51973982E+01  7.59869910E+00  7.59869910E+00 -1.51973982E+01  7.59869910E+00
  7.59869910E+00 -1.51973982E+01  7.59869910E+00  7.59869910E+00 -1.51973982E+01
  7.59869910E+00  7.59869910E+00 -1.51973982E+01  7.59869910E+00  7.59869910E+00
 -1.51973982E+01  7.59869910E+00  7.59869910E+00 -1.51973982E+01  7.59869910E+00
  7.59869910E+00 -1.51973982E+01  7.59869910E+00  7.59869910E+00 -1.51973982E+01
  7.59869910E+00  7.59869910E+00 -1.51973982E+01  7.59869910E+00  7.59869910E+00
 -1.51973982E+01  7.59869910E+00  7.59869910E+00 -1.51973982E+01  7.59869910E+00
  7.59869910E+00 -1.51973982E+01  7.59869910E+00  7.59869910E+00 -1.51973982E+01
  7.59869910E+00  7.59869910E+00 -1.51973982E+01  7.59869910E+00  7.59869910E+00
 -1.51973982E+01  7.59869910E+00  7.59869910E+00 -1.51973982E+01  7.59869910E+00
  7.59869910E+00 -1.51973982E+01  7.59869910E+00  7.59869910E+00 -1.51973982E+01
  7.59869910E+00  7.59869910E+00 -1.51973982E+01  7.59869910E+00  7.59869910E+00
 -1.51973982E+01  7.59869910E+00  7.59869910E+00 -1.51973982E+01  7.59869910E+00
  7.59869910E+00 -1.51973982E+01  7.59869910E+00  7.59869910E+00 -1.51973982E+01
  7.59869910E+00  7.59869910E+00 -1.51973982E+01  7.59869910E+00  7.59869910E+00
 -1.51973982E+01  7.59869910E+00  7.59869910E+00 -1.51973982E+01  7.59869910E+00
  7.59869910E+00 -1.51973982E+01  7.59869910E+00  7.59869910E+00 -1.51973982E+01
  7.59869910E+00  7.59869910E+00 -1.51973982E+01  7.59869910E+00  7.59869910E+00
 -1.51973982E+01  7.59869910E+00  7.59869910E+00 -1.51973982E+01  7.59869910E+00
  7.59869910E+00 -1.51973982E+01  7.59869910E+00  7.59869910E+00 -1.51973982E+01
  7.59869910E+00  7.59869910E+00 -1.51973982E+01  7.59869910E+00  7.59869910E+00
 -1.51973982E+01  7.59869910E+00  7.59869910E+00 -1.51973982E+01  7.59869910E+00
  7.59869910E+00 -1.51973982E+01  7.59869910E+00  7.59869910E+00 -1.51973982E+01
  7.59869910E+00  7.59869910E+00 -1.51973982E+01  7.59869910E+00  7.59869910E+00
 -1.51973982E+01  7.59869910E+00  7.59869910E+00 -1.51973982E+01  7.59869910E+00
  7.59869910E+00 -1.51973982E+01  7.59869910E+00  7.59869910E+00 -1.51973982E+01
  7.59869910E+00  7.59869910E+00 -1.51973982E+01  7.59869910E+00  7.59869910E+00
 -1.51973982E+01  7.59869910E+00  7.59869910E+00 -1.51973982E+01  7.59869910E+00
  7.59869910E+00 -1.51973982E+01  7.59869910E+00  7.59869910E+00 -1.51973982E+01
  7.59869910E+00  7.59869910E+00 -1.51973982E+01  7.59869910E+00  7.59869910E+00
 -1.51973982E+01  7.59869910E+00  7.59869910E+00 -1.51973982E+01  7.59869910E+00
  7.59869910E+00 -1.51973982E+01  7.59869910E+00  7.59869910E+00 -1.51973982E+01
  7.59869910E+00  7.59869910E+00 -1.51973982E+01  7.59869910E+00  7.59869910E+00
 -1.51973982E+01  7.59869910E+00  7.59869910E+00 -1.51973982E+01  7.59869910E+00
  7.59869910E+00 -1.51973982E+01  7.59869910E+00  7.59869910E+00 -1.51973982E+01
  7.59869910E+00  7.59869910E+00 -1.51973982E+01  7.59869910E+00  7.59869910E+00
 -1.51973982E+01  7.59869910E+00  7.59869910E+00 -1.51973982E+01  7.59869910E+00
  7.59869910E+00 -1.51973982E+01  7.59869910E+00  7.59869910E+00 -1.51973982E+01
  7.59869910E+00  7.59869910E+00 -1.51973982E+01  7.59869910E+00  7.59869910E+00
 -1.51973982E+01  7.59869910E+00  7.59869910E+00 -1.51973982E+01  7.59869910E+00
  7.59869910E+00 -1.51973982E+01  7.59869910E+00  7.59869910E+00 -1.51973982E+01
  7.59869910E+00  7.59869910E+00 -1.51973982E+01  7.59869910E+00  7.59869910E+00
 -1.51973982E+01  7.59869910E+00  7.59869910E+00 -1.51973982E+01  7.59869910E+00
  7.59869910E+00 -1.51973982E+01  7.59869910E+00  7.59869910E+00 -1.51973982E+01
  7.59869910E+00  7.59869910E+00 -1.51973982E+01  7.59869910E+00  7.59869910E+00
 -1.51973982E+01  7.59869910E+00  7.59869910E+00 -1.51973982E+01  7.59869910E+00
  7.59869910E+00 -1.51973982E+01  7.59869910E+00  7.59869910E+00 -1.51973982E+01
  7.59869910E+00  7.59869910E+00 -1.51973982E+01  7.59869910E+00  7.59869910E+00
 -1.51973982E+01  7.59869910E+00  7.59869910E+00 -1.51973982E+01  7.59869910E+00
  7.59869910E+00 -1.51973982E+01  7.59869910E+00  7.59869910E+00 -1.51973982E+01
  7.59869910E+00  7.59869910E+00 -1.51973982E+01  7.59869910E+00  7.59869910E+00
 -1.51973982E+01  7.59869910E+00  7.59869910E+00 -1.51973982E+01  7.59869910E+00
  7.59869910E+00 -1.51973982E+01  7.59869910E+00  7.59869910E+00 -1.51973982E+01
  7.59869910E+00  7.59869910E+00 -1.51973982E+01  7.59869910E+00  7.59869910E+00
 -1.51973982E+01  7.59869910E+00  7.59869910E+00 -1.51973982E+01  7.59869910E+00
  7.59869910E+00 -1.51973982E+01  7.59869910E+00  7.59869910E+00 -1.51973982E+01
  7.59869910E+00  7.59869910E+00 -1.51973982E+01  7.59869910E+00  7.59869910E+00
 -1.51973982E+01  7.59869910E+00  7.59869910E+00 -1.51973982E+01  7.59869910E+00
  7.59869910E+00 -1.51973982E+01  7.59869910E+00  7.59869910E+00 -1.51973982E+01
  7.59869910E+00  7.59869910E+00 -1.51973982E+01  7.59869910E+00  7.59869910E+00
 -1.51973982E+01  7.59869910E+00  7.59869910E+00 -1.51973982E+01  7.59869910E+00
  7.59869910E+00 -1.51973982E+01  7.59869910E+00  7.59869910E+00 -1.51973982E+01
  7.59869910E+00  7.59869910E+00 -1.51973982E+01  7.59869910E+00  7.59869910E+00
 -1.51973982E+01  7.59869910E+00  7.59869910E+00 -1.51973982E+01  7.59869910E+00
  7.59869910E+00 -1.51973982E+01  7.59869910E+00  7.59869910E+00 -1.51973982E+01
  7.59869910E+00  7.59869910E+00 -1.51973982E+01  7.59869910E+00  7.59869910E+00
 -1.51973982E+01  7.59869910E+00  7.59869910E+00 -1.51973982E+01  7.59869910E+00
  7.59869910E+00 -1.51973982E+01  7.59869910E+00  7.59869910E+00 -1.51973982E+01
  7.59869910E+00  7.59869910E+00 -1.51973982E+01  7.59869910E+00  7.59869910E+00
 -1.51973982E+01  7.59869910E+00  7.59869910E+00 -1.51973982E+01  7.59869910E+00
  7.59869910E+00 -1.51973982E+01  7.59869910E+00  7.59869910E+00 -1.51973982E+01
  7.59869910E+00  7.59869910E+00 -1.51973982E+01  7.59869910E+00  7.59869910E+00
 -1.51973982E+01  7.59869910E+00  7.59869910E+00 -1.51973982E+01  7.59869910E+00
  7.59869910E+00 -1.51973982E+01  7.59869910E+00  7.59869910E+00 -1.51973982E+01
  7.59869910E+00  7.59869910E+00 -1.51973982E+01  7.59869910E+00  7.59869910E+00
 -1.51973982E+01  7.59869910E+00  7.59869910E+00 -1.51973982E+01  7.59869910E+00
  7.59869910E+00 -1.51973982E+01  7.59869910E+00  7.59869910E+00 -1.51973982E+01
  7.59869910E+00  7.59869910E+00 -1.51973982E+01  7.59869910E+00  7.59869910E+00
 -1.51973982E+01  7.59869910E+00  7.59869910E+00 -1.51973982E+01  7.59869910E+00
  7.59869910E+00 -1.51973982E+01  7.59869910E+00  7.59869910E+00 -1.51973982E+01
  7.59869910E+00  7.59869910E+00 -1.51973982E+01  7.59869910E+00  7.59869910E+00
 -1.51973982E+01  7.59869910E+00  7.59869910E+00 -1.51973982E+01  7.59869910E+00
  7.59869910E+00 -1.51973982E+01  7.59869910E+00  7.59869910E+00 -1.51973982E+01
  7.59869910E+00  7.59869910E+00 -1.51973982E+01  7.59869910E+00  7.59869910E+00
 -1.51973982E+01  7.59869910E+00  7.59869910E+00 -1.51973982E+01  7.59869910E+00
  7.59869910E+00 -1.51973982E+01  7.59869910E+00  7.59869910E+00 -1.51973982E+01
  7.59869910E+00  7.59869910E+00 -1.51973982E+01  7.59869910E+00  7.59869910E+00
 -1.51973982E+01  7.59869910E+00  7.59869910E+00 -1.51973982E+01  7.59869910E+00
  7.59869910E+00 -1.51973982E+01  7.59869910E+00  7.59869910E+00 -1.51973982E+01
  7.59869910E+00  7.59869910E+00 -1.51973982E+01  7.59869910E+00  7.59869910E+00
 -1.51973982E+01  7.59869910E+00  7.59869910E+00 -1.51973982E+01  7.59869910E+00
  7.59869910E+00 -1.51973982E+01  7.59869910E+00  7.59869910E+00 -1.51973982E+01
  7.59869910E+00  7.59869910E+00 -1.51973982E+01  7.59869910E+00  7.59869910E+00
 -1.51973982E+01  7.59869910E+00  7.59869910E+00 -1.51973982E+01  7.59869910E+00
  7.59869910E+00 -1.51973982E+01  7.59869910E+00  7.59869910E+00 -1.51973982E+01
  7.59869910E+00  7.59869910E+00 -1.51973982E+01  7.59869910E+00  7.59869910E+00
 -1.51973982E+01  7.59869910E+00  7.59869910E+00 -1.51973982E+01  7.59869910E+00
  7.59869910E+00 -1.51973982E+01  7.59869910E+00  7.59869910E+00 -1.51973982E+01
  7.59869910E+00  7.59869910E+00 -1.51973982E+01  7.59869910E+00  7.59869910E+00
 -1.51973982E+01  7.59869910E+00  7.59869910E+00 -1.51973982E+01  7.59869910E+00
  7.59869910E+00 -1.51973982E+01  7.59869910E+00  7.59869910E+00 -1.51973982E+01
  7.59869910E+00  7.59869910E+00 -1.51973982E+01  7.59869910E+00  7.59869910E+00
 -1.51973982E+01  7.59869910E+00  7.59869910E+00 -1.51973982E+01  7.59869910E+00
  7.59869910E+00 -1.51973982E+01  7.59869910E+00  7.59869910E+00 -1.51973982E+01
  7.59869910E+00  7.59869910E+00 -1.51973982E+01  7.59869910E+00  7.59869910E+00
 -1.51973982E+01  7.59869910E+00  7.59869910E+00 -1.51973982E+01  7.59869910E+00
  7.59869910E+00 -1.51973982E+01  7.59869910E+00  7.59869910E+00 -1.51973982E+01
  7.59869910E+00  7.59869910E+00 -1.51973982E+01  7.59869910E+00  7.59869910E+00
 -1.51973982E+01  7.59869910E+00  7.59869910E+00 -1.51973982E+01  7.59869910E+00
  7.59869910E+00 -1.51973982E+01  7.59869910E+00  7.59869910E+00 -1.51973982E+01
  7.59869910E+00  7.59869910E+00 -1.51973982E+01  7.59869910E+00  7.59869910E+00
 -1.51973982E+01  7.59869910E+00  7.59869910E+00 -1.51973982E+01  7.59869910E+00
  7.59869910E+00 -1.51973982E+01  7.59869910E+00  7.59869910E+00 -1.51973982E+01
  7.59869910E+00  7.59869910E+00 -1.51973982E+01  7.59869910E+00  7.59869910E+00
 -1.51973982E+01  7.59869910E+00  7.59869910E+00 -1.51973982E+01  7.59869910E+00
  7.59869910E+00 -1.51973982E+01  7.59869910E+00  7.59869910E+00 -1.51973982E+01
  7.59869910E+00  7.59869910E+00 -1.51973982E+01  7.59869910E+00  7.59869910E+00
 -1.51973982E+01  7.59869910E+00  7.59869910E+00 -1.51973982E+01  7.59869910E+00
  7.59869910E+00 -1.51973982E+01  7.59869910E+00  7.59869910E+00 -1.51973982E+01
  7.59869910E+00  7.59869910E+00 -1.51973982E+01  7.59869910E+00  7.59869910E+00
 -1.51973982E+01  7.59869910E+00  7.59869910E+00 -1.51973982E+01  7.59869910E+00
  7.59869910E+00 -1.51973982E+01  7.59869910E+00  7.59869910E+00 -1.51973982E+01
  7.59869910E+00  7.59869910E+00 -1.51973982E+01  7.59869910E+00  7.59869910E+00
 -1.51973982E+01  7.59869910E+00  7.59869910E+00 -1.51973982E+01  7.59869910E+00
  7.59869910E+00 -1.51973982E+01  7.59869910E+00  7.59869910E+00 -1.51973982E+01
  7.59869910E+00  7.59869910E+00 -1.51973982E+01  7.59869910E+00  7.59869910E+00
 -1.51973982E+01  7.59869910E+00  7.59869910E+00 -1.51973982E+01  7.59869910E+00
  7.59869910E+00 -1.51973982E+01  7.59869910E+00  7.59869910E+00 -1.51973982E+01
  7.59869910E+00  7.59869910E+00 -1.51973982E+01  7.59869910E+00  7.59869910E+00
 -1.51973982E+01  7.59869910E+00  7.59869910E+00 -1.51973982E+01  7.59869910E+00
  7.59869910E+00 -1.51973982E+01  7.59869910E+00  7.59869910E+00 -1.51973982E+01
  7.59869910E+00  7.59869910E+00 -1.51973982E+01  7.59869910E+00  7.59869910E+00
 -1.51973982E+01  7.59869910E+00  7.59869910E+00 -1.51973982E+01  7.59869910E+00
  7.59869910E+00 -1.51973982E+01  7.59869910E+00  7.59869910E+00 -1.51973982E+01
  7.59869910E+00  7.59869910E+00 -1.51973982E+01  7.59869910E+00  7.59869910E+00
 -1.51973982E+01  7.59869910E+00  7.59869910E+00 -1.51973982E+01  7.59869910E+00
  7.59869910E+00 -1.51973982E+01  7.59869910E+00  7.59869910E+00 -1.51973982E+01
  7.59869910E+00  7.59869910E+00 -1.51973982E+01  7.59869910E+00  7.59869910E+00
 -1.51973982E+01  7.59869910E+00  7.59869910E+00 -1.51973982E+01  7.59869910E+00
  7.59869910E+00 -1.51973982E+01  7.59869910E+00  7.59869910E+00 -1.51973982E+01
  7.59869910E+00  7.59869910E+00 -1.51973982E+01  7.59869910E+00  7.59869910E+00
 -1.51973982E+01  7.59869910E+00  7.59869910E+00 -1.51973982E+01  7.59869910E+00
  7.59869910E+00 -1.51973982E+01  7.59869910E+00  7.59869910E+00 -1.51973982E+01
  7.59869910E+00  7.59869910E+00 -1.51973982E+01  7.59869910E+00  7.59869910E+00
 -1.51973982E+01  7.59869910E+00  7.59869910E+00 -1.51973982E+01  7.59869910E+00
  7.59869910E+00 -1.51973982E+01  7.59869910E+00  7.59869910E+00 -1.51973982E+01
  7.59869910E+00  7.59869910E+00 -1.51973982E+01  7.59869910E+00  7.59869910E+00
 -1.51973982E+01  7.59869910E+00  7.59869910E+00 -1.51973982E+01  7.59869910E+00
  7.59869910E+00 -1.51973982E+01  7.59869910E+00  7.59869910E+00 -1.51973982E+01
  7.59869910E+00  7.59869910E+00 -1.51973982E+01  7.59869910E+00  7.59869910E+00
 -1.51973982E+01  7.59869910E+00  7.59869910E+00 -1.51973982E+01  7.59869910E+00
  7.59869910E+00 -1.51973982E+01  7.59869910E+00  7.59869910E+00 -1.51973982E+01
  7.59869910E+00  7.59869910E+00 -1.51973982E+01  7.59869910E+00  7.59869910E+00
 -1.51973982E+01  7.59869910E+00  7.59869910E+00 -1.51973982E+01  7.59869910E+00
  7.59869910E+00 -1.51973982E+01  7.59869910E+00  7.59869910E+00 -1.51973982E+01
  7.59869910E+00  7.59869910E+00 -1.51973982E+01  7.59869910E+00  7.59869910E+00
 -1.51973982E+01  7.59869910E+00  7.59869910E+00 -1.51973982E+01  7.59869910E+00
  7.59869910E+00 -1.51973982E+01  7.59869910E+00  7.59869910E+00 -1.51973982E+01
  7.59869910E+00  7.59869910E+00 -1.51973982E+01  7.59869910E+00  7.59869910E+00
 -1.51973982E+01  7.59869910E+00  7.59869910E+00 -1.51973982E+01  7.59869910E+00
  7.59869910E+00 -1.51973982E+01  7.59869910E+00  7.59869910E+00 -1.51973982E+01
  7.59869910E+00  7.59869910E+00 -1.51973982E+01  7.59869910E+00  7.59869910E+00
 -1.51973982E+01  7.59869910E+00  7.59869910E+00 -1.51973982E+01  7.59869910E+00
  7.59869910E+00 -1.51973982E+01  7.59869910E+00  7.59869910E+00 -1.51973982E+01
  7.59869910E+00  7.59869910E+00 -1.51973982E+01  7.59869910E+00  7.59869910E+00
 -1.51973982E+01  7.59869910E+00  7.59869910E+00 -1.51973982E+01  7.59869910E+00
  7.59869910E+00 -1.51973982E+01  7.59869910E+00  7.59869910E+00 -1.51973982E+01
  7.59869910E+00  7.59869910E+00 -1.51973982E+01  7.59869910E+00  7.59869910E+00
 -1.51973982E+01  7.59869910E+00  7.59869910E+00 -1.51973982E+01  7.59869910E+00
  7.59869910E+00 -1.51973982E+01  7.59869910E+00  7.59869910E+00 -1.51973982E+01
  7.59869910E+00  7.59869910E+00 -1.51973982E+01  7.59869910E+00  7.59869910E+00
 -1.51973982E+01  7.59869910E+00  7.59869910E+00 -1.51973982E+01  7.59869910E+00
  7.59869910E+00 -1.51973982E+01  7.59869910E+00  7.59869910E+00 -1.51973982E+01
  7.59869910E+00  7.59869910E+00 -1.51973982E+01  7.59869910E+00  7.59869910E+00
 -1.51973982E+01  7.59869910E+00  7.59869910E+00 -1.51973982E+01  7.59869910E+00
  7.59869910E+00 -1.51973982E+01  7.59869910E+00  7.59869910E+00 -1.51973982E+01
  7.59869910E+00  7.59869910E+00 -1.51973982E+01  7.59869910E+00  7.59869910E+00
 -1.51973982E+01  7.59869910E+00  7.59869910E+00 -1.51973982E+01  7.59869910E+00
  7.59869910E+00 -1.51973982E+01  7.59869910E+00  7.59869910E+00 -1.51973982E+01
  7.59869910E+00  7.59869910E+00 -1.51973982E+01  7.59869910E+00  7.59869910E+00
 -1.51973982E+01  7.59869910E+00  7.59869910E+00 -1.51973982E+01  7.59869910E+00
  7.59869910E+00 -1.51973982E+01  7.59869910E+00  7.59869910E+00 -1.51973982E+01
  7.59869910E+00  7.59869910E+00 -1.51973982E+01  7.59869910E+00  7.59869910E+00
 -1.51973982E+01  7.59869910E+00  7.59869910E+00 -1.51973982E+01  7.59869910E+00
  7.59869910E+00 -1.51973982E+01  7.59869910E+00  7.59869910E+00 -1.51973982E+01
  7.59869910E+00  7.59869910E+00 -1.51973982E+01  7.59869910E+00  7.59869910E+00
 -1.51973982E+01  7.59869910E+00  7.59869910E+00 -1.51973982E+01  7.59869910E+00
  7.59869910E+00 -1.51973982E+01  7.59869910E+00  7.59869910E+00 -1.51973982E+01
  7.59869910E+00  7.59869910E+00 -1.51973982E+01  7.59869910E+00  7.59869910E+00
 -1.51973982E+01  7.59869910E+00  7.59869910E+00 -1.51973982E+01  7.59869910E+00
  7.59869910E+00 -1.51973982E+01  7.59869910E+00  7.59869910E+00 -1.51973982E+01
  7.59869910E+00  7.59869910E+00 -1.51973982E+01  7.59869910E+00  7.59869910E+00
 -1.51973982E+01  7.59869910E+00  7.59869910E+00 -1.51973982E+01  7.59869910E+00
  7.59869910E+00 -1.51973982E+01  7.59869910E+00  7.59869910E+00 -1.51973982E+01
  7.59869910E+00  7.59869910E+00 -1.51973982E+01  7.59869910E+00  7.59869910E+00
 -1.51973982E+01  7.59869910E+00  7.59869910E+00 -1.51973982E+01  7.59869910E+00
  7.59869910E+00 -1.51973982E+01  7.59869910E+00  7.59869910E+00 -1.51973982E+01
  7.59869910E+00  7.59869910E+00 -1.51973982E+01  7.59869910E+00  7.59869910E+00
 -1.51973982E+01  7.59869910E+00  7.59869910E+00 -1.51973982E+01  7.59869910E+00
  7.59869910E+00 -1.51973982E+01  7.59869910E+00  7.59869910E+00 -1.51973982E+01
  7.59869910E+00  7.59869910E+00 -1.51973982E+01  7.59869910E+00  7.59869910E+00
 -1.51973982E+01  7.59869910E+00  7.59869910E+00 -1.51973982E+01  7.59869910E+00
  7.59869910E+00 -1.51973982E+01  7.59869910E+00  7.59869910E+00 -1.51973982E+01
  7.59869910E+00  7.59869910E+00 -1.51973982E+01  7.59869910E+00  7.59869910E+00
 -1.51973982E+01  7.59869910E+00  7.59869910E+00 -1.51973982E+01  7.59869910E+00
  7.59869910E+00 -1.51973982E+01  7.59869910E+00  7.59869910E+00 -1.51973982E+01
  7.59869910E+00  7.59869910E+00 -1.51973982E+01  7.59869910E+00  7.59869910E+00
 -1.51973982E+01  7.59869910E+00  7.59869910E+00 -1.51973982E+01  7.59869910E+00
  7.59869910E+00 -1.51973982E+01  7.59869910E+00  7.59869910E+00 -1.51973982E+01
  7.59869910E+00  7.59869910E+00 -1.51973982E+01  7.59869910E+00  7.59869910E+00
 -1.51973982E+01  7.59869910E+00  7.59869910E+00 -1.51973982E+01  7.59869910E+00
  7.59869910E+00 -1.51973982E+01  7.59869910E+00  7.59869910E+00 -1.51973982E+01
  7.59869910E+00  7.59869910E+00 -1.51973982E+01  7.59869910E+00  7.59869910E+00
 -1.51973982E+01  7.59869910E+00  7.59869910E+00 -1.51973982E+01  7.59869910E+00
  7.59869910E+00 -1.51973982E+01  7.59869910E+00  7.59869910E+00 -1.51973982E+01
  7.59869910E+00  7.59869910E+00 -1.51973982E+01  7.59869910E+00  7.59869910E+00
 -1.51973982E+01  7.59869910E+00  7.59869910E+00 -1.51973982E+01  7.59869910E+00
  7.59869910E+00 -1.51973982E+01  7.59869910E+00  7.59869910E+00 -1.51973982E+01
  7.59869910E+00  7.59869910E+00 -1.51973982E+01  7.59869910E+00  7.59869910E+00
 -1.51973982E+01  7.59869910E+00  7.59869910E+00 -1.51973982E+01  7.59869910E+00
  7.59869910E+00 -1.51973982E+01  7.59869910E+00  7.59869910E+00 -1.51973982E+01
  7.59869910E+00  7.59869910E+00 -1.51973982E+01  7.59869910E+00  7.59869910E+00
 -1.51973982E+01  7.59869910E+00  7.59869910E+00 -1.51973982E+01  7.59869910E+00
  7.59869910E+00 -1.51973982E+01  7.59869910E+00  7.59869910E+00 -1.51973982E+01
  7.59869910E+00  7.59869910E+00 -1.51973982E+01  7.59869910E+00  7.59869910E+00
 -1.51973982E+01  7.59869910E+00  7.59869910E+00 -1.51973982E+01  7.59869910E+00
  7.59869910E+00 -1.51973982E+01  7.59869910E+00  7.59869910E+00 -1.51973982E+01
  7.59869910E+00  7.59869910E+00 -1.51973982E+01  7.59869910E+00  7.59869910E+00
 -1.51973982E+01  7.59869910E+00  7.59869910E+00 -1.51973982E+01  7.59869910E+00
  7.59869910E+00 -1.51973982E+01  7.59869910E+00  7.59869910E+00 -1.51973982E+01
  7.59869910E+00  7.59869910E+00 -1.51973982E+01  7.59869910E+00  7.59869910E+00
 -1.51973982E+01  7.59869910E+00  7.59869910E+00 -1.51973982E+01  7.59869910E+00
  7.59869910E+00 -1.51973982E+01  7.59869910E+00  7.59869910E+00 -1.51973982E+01
  7.59869910E+00  7.59869910E+00 -1.51973982E+01  7.59869910E+00  7.59869910E+00
 -1.51973982E+01  7.59869910E+00  7.59869910E+00 -1.51973982E+01  7.59869910E+00
  7.59869910E+00 -1.51973982E+01  7.59869910E+00  7.59869910E+00 -1.51973982E+01
  7.59869910E+00  7.59869910E+00 -1.51973982E+01  7.59869910E+00  7.59869910E+00
 -1.51973982E+01  7.59869910E+00  7.59869910E+00 -1.51973982E+01  7.59869910E+00
  7.59869910E+00 -1.51973982E+01  7.59869910E+00  7.59869910E+00 -1.51973982E+01
  7.59869910E+00  7.59869910E+00 -1.51973982E+01  7.59869910E+00  7.59869910E+00
 -1.51973982E+01  7.59869910E+00  7.59869910E+00 -1.51973982E+01  7.59869910E+00
  7.59869910E+00 -1.51973982E+01  7.59869910E+00  7.59869910E+00 -1.51973982E+01
  7.59869910E+00  7.59869910E+00 -1.51973982E+01  7.59869910E+00  7.59869910E+00
 -1.51973982E+01  7.59869910E+00  7.59869910E+00 -1.51973982E+01  7.59869910E+00
  7.59869910E+00 -1.51973982E+01  7.59869910E+00  7.59869910E+00 -1.51973982E+01
  7.59869910E+00  7.59869910E+00 -1.51973982E+01  7.59869910E+00  7.59869910E+00
 -1.51973982E+01  7.59869910E+00  7.59869910E+00 -1.51973982E+01  7.59869910E+00
  7.59869910E+00 -1.51973982E+01  7.59869910E+00  7.59869910E+00 -1.51973982E+01
  7.59869910E+00  7.59869910E+00 -1.51973982E+01  7.59869910E+00  7.59869910E+00
 -1.51973982E+01  7.59869910E+00  7.59869910E+00 -1.51973982E+01  7.59869910E+00
  7.59869910E+00 -1.51973982E+01  7.59869910E+00  7.59869910E+00 -1.51973982E+01
  7.59869910E+00  7.59869910E+00 -1.51973982E+01  7.59869910E+00  7.59869910E+00
 -1.51973982E+01  7.59869910E+00  7.59869910E+00 -1.51973982E+01  7.59869910E+00
  7.59869910E+00 -1.51973982E+01  7.59869910E+00  7.59869910E+00 -1.51973982E+01
  7.59869910E+00  7.59869910E+00 -1.51973982E+01  7.59869910E+00  7.59869910E+00
 -1.51973982E+01  7.59869910E+00  7.59869910E+00 -1.51973982E+01  7.59869910E+00
  7.59869910E+00 -1.51973982E+01  7.59869910E+00  7.59869910E+00 -1.51973982E+01
  7.59869910E+00  7.59869910E+00 -1.51973982E+01  7.59869910E+00  7.59869910E+00
 -1.51973982E+01  7.59869910E+00  7.59869910E+00 -1.51973982E+01  7.59869910E+00
  7.59869910E+00 -1.51973982E+01  7.59869910E+00  7.59869910E+00 -1.51973982E+01
  7.59869910E+00  7.59869910E+00 -1.51973982E+01  7.59869910E+00  7.59869910E+00
 -1.51973982E+01  7.59869910E+00  7.59869910E+00 -1.51973982E+01  7.59869910E+00
  7.59869910E+00 -1.51973982E+01  7.59869910E+00  7.59869910E+00 -1.51973982E+01
  7.59869910E+00  7.59869910E+00 -1.51973982E+01  7.59869910E+00  7.59869910E+00
 -1.51973982E+01  7.59869910E+00  7.59869910E+00 -1.51973982E+01  7.59869910E+00
  7.59869910E+00 -1.51973982E+01  7.59869910E+00  7.59869910E+00 -1.51973982E+01
  7.59869910E+00  7.59869910E+00 -1.51973982E+01  7.59869910E+00  7.59869910E+00
 -1.51973982E+01  7.59869910E+00  7.59869910E+00 -1.51973982E+01  7.59869910E+00
  7.59869910E+00 -1.51973982E+01  7.59869910E+00  7.59869910E+00 -1.51973982E+01
  7.59869910E+00  7.59869910E+00 -1.51973982E+01  7.59869910E+00  7.59869910E+00
 -1.51973982E+01  7.59869910E+00  7.59869910E+00 -1.51973982E+01  7.59869910E+00
  7.59869910E+00 -1.51973982E+01  7.59869910E+00  7.59869910E+00 -1.51973982E+01
  7.59869910E+00  7.59869910E+00 -1.51973982E+01  7.59869910E+00  7.59869910E+00
 -1.51973982E+01  7.59869910E+00  7.59869910E+00 -1.51973982E+01  7.59869910E+00
  7.59869910E+00 -1.51973982E+01  7.59869910E+00  7.59869910E+00 -1.51973982E+01
  7.59869910E+00  7.59869910E+00 -1.51973982E+01  7.59869910E+00  7.59869910E+00
 -1.51973982E+01  7.59869910E+00  7.59869910E+00 -1.51973982E+01  7.59869910E+00
  7.59869910E+00 -1.51973982E+01  7.59869910E+00  7.59869910E+00 -1.51973982E+01
  7.59869910E+00  7.59869910E+00 -1.51973982E+01  7.59869910E+00  7.59869910E+00
 -1.51973982E+01  7.59869910E+00  7.59869910E+00 -1.51973982E+01  7.59869910E+00
  7.59869910E+00 -1.51973982E+01  7.59869910E+00  7.59869910E+00 -1.51973982E+01
  7.59869910E+00  7.59869910E+00 -1.51973982E+01  7.59869910E+00  7.59869910E+00
 -1.51973982E+01  7.59869910E+00  7.59869910E+00 -1.51973982E+01  7.59869910E+00
  7.59869910E+00 -1.51973982E+01  7.59869910E+00  7.59869910E+00 -1.51973982E+01
  7.59869910E+00  7.59869910E+00 -1.51973982E+01  7.59869910E+00  7.59869910E+00
 -1.51973982E+01  7.59869910E+00  7.59869910E+00 -1.51973982E+01  7.59869910E+00
  7.59869910E+00 -1.51973982E+01  7.59869910E+00  7.59869910E+00 -1.51973982E+01
  7.59869910E+00  7.59869910E+00 -1.51973982E+01  7.59869910E+00  7.59869910E+00
 -1.51973982E+01  7.59869910E+00  7.59869910E+00 -1.51973982E+01  7.59869910E+00
  7.59869910E+00 -1.51973982E+01  7.59869910E+00  7.59869910E+00 -1.51973982E+01
  7.59869910E+00  7.59869910E+00 -1.51973982E+01  7.59869910E+00  7.59869910E+00
 -1.51973982E+01  7.59869910E+00  7.59869910E+00 -1.51973982E+01  7.59869910E+00
  7.59869910E+00 -1.51973982E+01  7.59869910E+00  7.59869910E+00 -1.51973982E+01
  7.59869910E+00  7.59869910E+00 -1.51973982E+01  7.59869910E+00  7.59869910E+00
 -1.51973982E+01  7.59869910E+00  7.59869910E+00 -1.51973982E+01  7.59869910E+00
  7.59869910E+00 -1.51973982E+01  7.59869910E+00  7.59869910E+00 -1.51973982E+01
  7.59869910E+00  7.59869910E+00 -1.51973982E+01  7.59869910E+00  7.59869910E+00
 -1.51973982E+01  7.59869910E+00  7.59869910E+00 -1.51973982E+01  7.59869910E+00
  7.59869910E+00 -1.51973982E+01  7.59869910E+00  7.59869910E+00 -1.51973982E+01
  7.59869910E+00  7.59869910E+00 -1.51973982E+01  7.59869910E+00  7.59869910E+00
 -1.51973982E+01  7.59869910E+00  7.59869910E+00 -1.51973982E+01  7.59869910E+00
  7.59869910E+00 -1.51973982E+01  7.59869910E+00  7.59869910E+00 -1.51973982E+01
  7.59869910E+00  7.59869910E+00 -1.51973982E+01  7.59869910E+00  7.59869910E+00
 -1.51973982E+01  7.59869910E+00  7.59869910E+00 -1.51973982E+01  7.59869910E+00
  7.59869910E+00 -1.51973982E+01  7.59869910E+00  7.59869910E+00 -1.51973982E+01
  7.59869910E+00  7.59869910E+00 -1.51973982E+01  7.59869910E+00  7.59869910E+00
 -1.51973982E+01  7.59869910E+00  7.59869910E+00 -1.51973982E+01  7.59869910E+00
  7.59869910E+00 -1.51973982E+01  7.59869910E+00  7.59869910E+00 -1.51973982E+01
  7.59869910E+00  7.59869910E+00 -1.51973982E+01  7.59869910E+00  7.59869910E+00
 -1.51973982E+01  7.59869910E+00  7.59869910E+00 -1.51973982E+01  7.59869910E+00
  7.59869910E+00 -1.51973982E+01  7.59869910E+00  7.59869910E+00 -1.51973982E+01
  7.59869910E+00  7.59869910E+00 -1.51973982E+01  7.59869910E+00  7.59869910E+00
 -1.51973982E+01  7.59869910E+00  7.59869910E+00 -1.51973982E+01  7.59869910E+00
  7.59869910E+00 -1.51973982E+01  7.59869910E+00  7.59869910E+00 -1.51973982E+01
  7.59869910E+00  7.59869910E+00 -1.51973982E+01  7.59869910E+00  7.59869910E+00
 -1.51973982E+01  7.59869910E+00  7.59869910E+00 -1.51973982E+01  7.59869910E+00
  7.59869910E+00 -1.51973982E+01  7.59869910E+00  7.59869910E+00 -1.51973982E+01
  7.59869910E+00  7.59869910E+00 -1.51973982E+01  7.59869910E+00  7.59869910E+00
 -1.51973982E+01  7.59869910E+00  7.59869910E+00 -1.51973982E+01  7.59869910E+00
  7.59869910E+00 -1.51973982E+01  7.59869910E+00  7.59869910E+00 -1.51973982E+01
  7.59869910E+00  7.59869910E+00 -1.51973982E+01  7.59869910E+00  7.59869910E+00
 -1.51973982E+01  7.59869910E+00  7.59869910E+00 -1.51973982E+01  7.59869910E+00
  7.59869910E+00 -1.51973982E+01  7.59869910E+00  7.59869910E+00 -1.51973982E+01
  7.59869910E+00  7.59869910E+00 -1.51973982E+01  7.59869910E+00  7.59869910E+00
 -1.51973982E+01  7.59869910E+00  7.59869910E+00 -1.51973982E+01  7.59869910E+00
  7.59869910E+00 -1.51973982E+01  7.59869910E+00  7.59869910E+00 -1.51973982E+01
  7.59869910E+00  7.59869910E+00 -1.51973982E+01  7.59869910E+00  7.59869910E+00
 -1.51973982E+01  7.59869910E+00  7.59869910E+00 -1.51973982E+01  7.59869910E+00
  7.59869910E+00 -1.51973982E+01  7.59869910E+00  7.59869910E+00 -1.51973982E+01
  7.59869910E+00  7.59869910E+00 -1.51973982E+01  7.59869910E+00  7.59869910E+00
 -1.51973982E+01  7.59869910E+00  7.59869910E+00 -1.51973982E+01  7.59869910E+00
  7.59869910E+00 -1.51973982E+01  7.59869910E+00  7.59869910E+00 -1.51973982E+01
  7.59869910E+00  7.59869910E+00 -1.51973982E+01  7.59869910E+00  7.59869910E+00
 -1.51973982E+01  7.59869910E+00  7.59869910E+00 -1.51973982E+01  7.59869910E+00
  7.59869910E+00 -1.51973982E+01  7.59869910E+00  7.59869910E+00 -1.51973982E+01
  7.59869910E+00  7.59869910E+00 -1.51973982E+01  7.59869910E+00  7.59869910E+00
 -1.51973982E+01  7.59869910E+00  7.59869910E+00 -1.51973982E+01  7.59869910E+00
  7.59869910E+00 -1.51973982E+01  7.59869910E+00  7.59869910E+00 -1.51973982E+01
  7.59869910E+00  7.59869910E+00 -1.51973982E+01  7.59869910E+00  7.59869910E+00
 -1.51973982E+01  7.59869910E+00  7.59869910E+00 -1.51973982E+01  7.59869910E+00
  7.59869910E+00 -1.51973982E+01  7.59869910E+00  7.59869910E+00 -1.51973982E+01
  7.59869910E+00  7.59869910E+00 -1.51973982E+01  7.59869910E+00  7.59869910E+00
 -1.51973982E+01  7.59869910E+00  7.59869910E+00 -1.51973982E+01  7.59869910E+00
  7.59869910E+00 -1.51973982E+01  7.59869910E+00  7.59869910E+00 -1.51973982E+01
  7.59869910E+00  7.59869910E+00 -1.51973982E+01  7.59869910E+00  7.59869910E+00
 -1.51973982E+01  7.59869910E+00  7.59869910E+00 -1.51973982E+01  7.59869910E+00
  7.59869910E+00 -1.51973982E+01  7.59869910E+00  7.59869910E+00 -1.51973982E+01
  7.59869910E+00  7.59869910E+00 -1.51973982E+01  7.59869910E+00  7.59869910E+00
 -1.51973982E+01  7.59869910E+00  7.59869910E+00 -1.51973982E+01  7.59869910E+00
  7.59869910E+00 -1.51973982E+01  7.59869910E+00  7.59869910E+00 -1.51973982E+01
  7.59869910E+00  7.59869910E+00 -1.51973982E+01  7.59869910E+00  7.59869910E+00
 -1.51973982E+01  7.59869910E+00  7.59869910E+00 -1.51973982E+01  7.59869910E+00
  7.59869910E+00 -1.51973982E+01  7.59869910E+00  7.59869910E+00 -1.51973982E+01
  7.59869910E+00  7.59869910E+00 -1.51973982E+01  7.59869910E+00  7.59869910E+00
 -1.51973982E+01  7.59869910E+00  7.59869910E+00 -1.51973982E+01  7.59869910E+00
  7.59869910E+00 -1.51973982E+01  7.59869910E+00  7.59869910E+00 -1.51973982E+01
  7.59869910E+00  7.59869910E+00 -1.51973982E+01  7.59869910E+00  7.59869910E+00
 -1.51973982E+01  7.59869910E+00  7.59869910E+00 -1.51973982E+01  7.59869910E+00
  7.59869910E+00 -1.51973982E+01  7.59869910E+00  7.59869910E+00 -1.51973982E+01
  7.59869910E+00  7.59869910E+00 -1.51973982E+01  7.59869910E+00  7.59869910E+00
 -1.51973982E+01  7.59869910E+00  7.59869910E+00 -1.51973982E+01  7.59869910E+00
  7.59869910E+00 -1.51973982E+01  7.59869910E+00  7.59869910E+00 -1.51973982E+01
  7.59869910E+00  7.59869910E+00 -1.51973982E+01  7.59869910E+00  7.59869910E+00
 -1.51973982E+01  7.59869910E+00  7.59869910E+00 -1.51973982E+01  7.59869910E+00
  7.59869910E+00 -1.51973982E+01  7.59869910E+00  7.59869910E+00 -1.51973982E+01
  7.59869910E+00  7.59869910E+00 -1.51973982E+01  7.59869910E+00  7.59869910E+00
 -1.51973982E+01  7.59869910E+00  7.59869910E+00 -1.51973982E+01  7.59869910E+00
  7.59869910E+00 -1.51973982E+01  7.59869910E+00  7.59869910E+00 -1.51973982E+01
  7.59869910E+00  7.59869910E+00 -1.51973982E+01  7.59869910E+00  7.59869910E+00
 -1.51973982E+01  7.59869910E+00  7.59869910E+00 -1.51973982E+01  7.59869910E+00
  7.59869910E+00 -1.51973982E+01  7.59869910E+00  7.59869910E+00 -1.51973982E+01
  7.59869910E+00  7.59869910E+00 -1.51973982E+01  7.59869910E+00  7.59869910E+00
 -1.51973982E+01  7.59869910E+00  7.59869910E+00 -1.51973982E+01  7.59869910E+00
  7.59869910E+00 -1.51973982E+01  7.59869910E+00  7.59869910E+00 -1.51973982E+01
  7.59869910E+00  7.59869910E+00 -1.51973982E+01  7.59869910E+00  7.59869910E+00
 -1.51973982E+01  7.59869910E+00  7.59869910E+00 -1.51973982E+01  7.59869910E+00
  7.59869910E+00 -1.51973982E+01  7.59869910E+00  7.59869910E+00 -1.51973982E+01
  7.59869910E+00  7.59869910E+00 -1.51973982E+01  7.59869910E+00  7.59869910E+00
 -1.51973982E+01  7.59869910E+00  7.59869910E+00 -1.51973982E+01  7.59869910E+00
  7.59869910E+00 -1.51973982E+01  7.59869910E+00  7.59869910E+00 -1.51973982E+01
  7.59869910E+00  7.59869910E+00 -1.51973982E+01  7.59869910E+00  7.59869910E+00
 -1.51973982E+01  7.59869910E+00  7.59869910E+00 -1.51973982E+01  7.59869910E+00
  7.59869910E+00 -1.51973982E+01  7.59869910E+00  7.59869910E+00 -1.51973982E+01
  7.59869910E+00  7.59869910E+00 -1.51973982E+01  7.59869910E+00  7.59869910E+00
 -1.51973982E+01  7.59869910E+00  7.59869910E+00 -1.51973982E+01  7.59869910E+00
  7.59869910E+00 -1.51973982E+01  7.59869910E+00  7.59869910E+00 -1.51973982E+01
  7.59869910E+00  7.59869910E+00 -1.51973982E+01  7.59869910E+00  7.59869910E+00
 -1.51973982E+01  7.59869910E+00  7.59869910E+00 -1.51973982E+01  7.59869910E+00
  7.59869910E+00 -1.51973982E+01  7.59869910E+00  7.59869910E+00 -1.51973982E+01
  7.59869910E+00  7.59869910E+00 -1.51973982E+01  7.59869910E+00  7.59869910E+00
 -1.51973982E+01  7.59869910E+00  7.59869910E+00 -1.51973982E+01  7.59869910E+00
  7.59869910E+00 -1.51973982E+01  7.59869910E+00  7.59869910E+00 -1.51973982E+01
  7.59869910E+00  7.59869910E+00 -1.51973982E+01  7.59869910E+00  7.59869910E+00
 -1.51973982E+01  7.59869910E+00  7.59869910E+00 -1.51973982E+01  7.59869910E+00
  7.59869910E+00 -1.51973982E+01  7.59869910E+00  7.59869910E+00 -1.51973982E+01
  7.59869910E+00  7.59869910E+00 -1.51973982E+01  7.59869910E+00  7.59869910E+00
 -1.51973982E+01  7.59869910E+00  7.59869910E+00 -1.51973982E+01  7.59869910E+00
  7.59869910E+00 -1.51973982E+01  7.59869910E+00  7.59869910E+00 -1.51973982E+01
  7.59869910E+00  7.59869910E+00 -1.51973982E+01  7.59869910E+00  7.59869910E+00
 -1.51973982E+01  7.59869910E+00  7.59869910E+00 -1.51973982E+01  7.59869910E+00
  7.59869910E+00 -1.51973982E+01  7.59869910E+00  7.59869910E+00 -1.51973982E+01
  7.59869910E+00  7.59869910E+00 -1.51973982E+01  7.59869910E+00  7.59869910E+00
 -1.51973982E+01  7.59869910E+00  7.59869910E+00 -1.51973982E+01  7.59869910E+00
  7.59869910E+00 -1.51973982E+01  7.59869910E+00  7.59869910E+00 -1.51973982E+01
  7.59869910E+00  7.59869910E+00 -1.51973982E+01  7.59869910E+00  7.59869910E+00
 -1.51973982E+01  7.59869910E+00  7.59869910E+00 -1.51973982E+01  7.59869910E+00
  7.59869910E+00 -1.51973982E+01  7.59869910E+00  7.59869910E+00 -1.51973982E+01
  7.59869910E+00  7.59869910E+00 -1.51973982E+01  7.59869910E+00  7.59869910E+00
 -1.51973982E+01  7.59869910E+00  7.59869910E+00 -1.51973982E+01  7.59869910E+00
  7.59869910E+00 -1.51973982E+01  7.59869910E+00  7.59869910E+00 -1.51973982E+01
  7.59869910E+00  7.59869910E+00 -1.51973982E+01  7.59869910E+00  7.59869910E+00
 -1.51973982E+01  7.59869910E+00  7.59869910E+00 -1.51973982E+01  7.59869910E+00
  7.59869910E+00 -1.51973982E+01  7.59869910E+00  7.59869910E+00 -1.51973982E+01
  7.59869910E+00  7.59869910E+00 -1.51973982E+01  7.59869910E+00  7.59869910E+00
 -1.51973982E+01  7.59869910E+00  7.59869910E+00 -1.51973982E+01  7.59869910E+00
  7.59869910E+00 -1.51973982E+01  7.59869910E+00  7.59869910E+00 -1.51973982E+01
  7.59869910E+00  7.59869910E+00 -1.51973982E+01  7.59869910E+00  7.59869910E+00
 -1.51973982E+01  7.59869910E+00  7.59869910E+00 -1.51973982E+01  7.59869910E+00
  7.59869910E+00 -1.51973982E+01  7.59869910E+00  7.59869910E+00 -1.51973982E+01
  7.59869910E+00  7.59869910E+00 -1.51973982E+01  7.59869910E+00  7.59869910E+00
 -1.51973982E+01  7.59869910E+00  7.59869910E+00 -1.51973982E+01  7.59869910E+00
  7.59869910E+00 -1.51973982E+01  7.59869910E+00  7.59869910E+00 -1.51973982E+01
  7.59869910E+00  7.59869910E+00 -1.51973982E+01  7.59869910E+00  7.59869910E+00
 -1.51973982E+01  7.59869910E+00  7.59869910E+00 -1.51973982E+01  7.59869910E+00
  7.59869910E+00 -1.51973982E+01  7.59869910E+00  7.59869910E+00 -1.51973982E+01
  7.59869910E+00  7.59869910E+00 -1.51973982E+01  7.59869910E+00  7.59869910E+00
 -1.51973982E+01  7.59869910E+00  7.59869910E+00 -1.51973982E+01  7.59869910E+00
  7.59869910E+00 -1.51973982E+01  7.59869910E+00  7.59869910E+00 -1.51973982E+01
  7.59869910E+00  7.59869910E+00 -1.51973982E+01  7.59869910E+00  7.59869910E+00
 -1.51973982E+01  7.59869910E+00  7.59869910E+00 -1.51973982E+01  7.59869910E+00
  7.59869910E+00 -1.51973982E+01  7.59869910E+00  7.59869910E+00 -1.51973982E+01
  7.59869910E+00  7.59869910E+00 -1.51973982E+01  7.59869910E+00  7.59869910E+00
 -1.51973982E+01  7.59869910E+00  7.59869910E+00 -1.51973982E+01  7.59869910E+00
  7.59869910E+00 -1.51973982E+01  7.59869910E+00  7.59869910E+00 -1.51973982E+01
  7.59869910E+00  7.59869910E+00 -1.51973982E+01  7.59869910E+00  7.59869910E+00
 -1.51973982E+01  7.59869910E+00  7.59869910E+00 -1.51973982E+01  7.59869910E+00
  7.59869910E+00 -1.51973982E+01  7.59869910E+00  7.59869910E+00 -1.51973982E+01
  7.59869910E+00  7.59869910E+00 -1.51973982E+01  7.59869910E+00  7.59869910E+00
 -1.51973982E+01  7.59869910E+00  7.59869910E+00 -1.51973982E+01  7.59869910E+00
  7.59869910E+00 -1.51973982E+01  7.59869910E+00  7.59869910E+00 -1.51973982E+01
  7.59869910E+00  7.59869910E+00 -1.51973982E+01  7.59869910E+00  7.59869910E+00
 -1.51973982E+01  7.59869910E+00  7.59869910E+00 -1.51973982E+01  7.59869910E+00
  7.59869910E+00 -1.51973982E+01  7.59869910E+00  7.59869910E+00 -1.51973982E+01
  7.59869910E+00  7.59869910E+00 -1.51973982E+01  7.59869910E+00  7.59869910E+00
 -1.51973982E+01  7.59869910E+00  7.59869910E+00 -1.51973982E+01  7.59869910E+00
  7.59869910E+00 -1.51973982E+01  7.59869910E+00  7.59869910E+00 -1.51973982E+01
  7.59869910E+00  7.59869910E+00 -1.51973982E+01  7.59869910E+00  7.59869910E+00
 -1.51973982E+01  7.59869910E+00  7.59869910E+00 -1.51973982E+01  7.59869910E+00
  7.59869910E+00 -1.51973982E+01  7.59869910E+00  7.59869910E+00 -1.51973982E+01
  7.59869910E+00  7.59869910E+00 -1.51973982E+01  7.59869910E+00  7.59869910E+00
 -1.51973982E+01  7.59869910E+00  7.59869910E+00 -1.51973982E+01  7.59869910E+00
  7.59869910E+00 -1.51973982E+01  7.59869910E+00  7.59869910E+00 -1.51973982E+01
  7.59869910E+00  7.59869910E+00 -1.51973982E+01  7.59869910E+00  7.59869910E+00
 -1.51973982E+01  7.59869910E+00  7.59869910E+00 -1.51973982E+01  7.59869910E+00
  7.59869910E+00 -1.51973982E+01  7.59869910E+00  7.59869910E+00 -1.51973982E+01
  7.59869910E+00  7.59869910E+00 -1.51973982E+01  7.59869910E+00  7.59869910E+00
 -1.51973982E+01  7.59869910E+00  7.59869910E+00 -1.51973982E+01  7.59869910E+00
  7.59869910E+00 -1.51973982E+01  7.59869910E+00  7.59869910E+00 -1.51973982E+01
  7.59869910E+00  7.59869910E+00 -1.51973982E+01  7.59869910E+00  7.59869910E+00
 -1.51973982E+01  7.59869910E+00  7.59869910E+00 -1.51973982E+01  7.59869910E+00
  7.59869910E+00 -1.51973982E+01  7.59869910E+00  7.59869910E+00 -1.51973982E+01
  7.59869910E+00  7.59869910E+00 -1.51973982E+01  7.59869910E+00  7.59869910E+00
 -1.51973982E+01  7.59869910E+00  7.59869910E+00 -1.51973982E+01  7.59869910E+00
  7.59869910E+00 -1.51973982E+01  7.59869910E+00  7.59869910E+00 -1.51973982E+01
  7.59869910E+00  7.59869910E+00 -1.51973982E+01  7.59869910E+00  7.59869910E+00
 -1.51973982E+01  7.59869910E+00  7.59869910E+00 -1.51973982E+01  7.59869910E+00
  7.59869910E+00 -1.51973982E+01  7.59869910E+00  7.59869910E+00 -1.51973982E+01
  7.59869910E+00  7.59869910E+00 -1.51973982E+01  7.59869910E+00  7.59869910E+00
 -1.51973982E+01  7.59869910E+00  7.59869910E+00 -1.51973982E+01  7.59869910E+00
  7.59869910E+00 -1.51973982E+01  7.59869910E+00  7.59869910E+00 -1.51973982E+01
  7.59869910E+00  7.59869910E+00 -1.51973982E+01  7.59869910E+00  7.59869910E+00
 -1.51973982E+01  7.59869910E+00  7.59869910E+00 -1.51973982E+01  7.59869910E+00
  7.59869910E+00 -1.51973982E+01  7.59869910E+00  7.59869910E+00 -1.51973982E+01
  7.59869910E+00  7.59869910E+00 -1.51973982E+01  7.59869910E+00  7.59869910E+00
 -1.51973982E+01  7.59869910E+00  7.59869910E+00 -1.51973982E+01  7.59869910E+00
  7.59869910E+00 -1.51973982E+01  7.59869910E+00  7.59869910E+00 -1.51973982E+01
  7.59869910E+00  7.59869910E+00 -1.51973982E+01  7.59869910E+00  7.59869910E+00
 -1.51973982E+01  7.59869910E+00  7.59869910E+00 -1.51973982E+01  7.59869910E+00
  7.59869910E+00 -1.51973982E+01  7.59869910E+00  7.59869910E+00 -1.51973982E+01
  7.59869910E+00  7.59869910E+00 -1.51973982E+01  7.59869910E+00  7.59869910E+00
 -1.51973982E+01  7.59869910E+00  7.59869910E+00 -1.51973982E+01  7.59869910E+00
  7.59869910E+00 -1.51973982E+01  7.59869910E+00  7.59869910E+00 -1.51973982E+01
  7.59869910E+00  7.59869910E+00 -1.51973982E+01  7.59869910E+00  7.59869910E+00
 -1.51973982E+01  7.59869910E+00  7.59869910E+00 -1.51973982E+01  7.59869910E+00
  7.59869910E+00 -1.51973982E+01  7.59869910E+00  7.59869910E+00 -1.51973982E+01
  7.59869910E+00  7.59869910E+00 -1.51973982E+01  7.59869910E+00  7.59869910E+00
 -1.51973982E+01  7.59869910E+00  7.59869910E+00 -1.51973982E+01  7.59869910E+00
  7.59869910E+00 -1.51973982E+01  7.59869910E+00  7.59869910E+00 -1.51973982E+01
  7.59869910E+00  7.59869910E+00 -1.51973982E+01  7.59869910E+00  7.59869910E+00
 -1.51973982E+01  7.59869910E+00  7.59869910E+00 -1.51973982E+01  7.59869910E+00
  7.59869910E+00 -1.51973982E+01  7.59869910E+00  7.59869910E+00 -1.51973982E+01
  7.59869910E+00  7.59869910E+00 -1.51973982E+01  7.59869910E+00  7.59869910E+00
 -1.51973982E+01  7.59869910E+00  7.59869910E+00 -1.51973982E+01  7.59869910E+00
  7.59869910E+00 -1.51973982E+01  7.59869910E+00  7.59869910E+00 -1.51973982E+01
  7.59869910E+00  7.59869910E+00 -1.51973982E+01  7.59869910E+00  7.59869910E+00
 -1.51973982E+01  7.59869910E+00  7.59869910E+00 -1.51973982E+01  7.59869910E+00
  7.59869910E+00 -1.51973982E+01  7.59869910E+00  7.59869910E+00 -1.51973982E+01
  7.59869910E+00  7.59869910E+00 -1.51973982E+01  7.59869910E+00  7.59869910E+00
 -1.51973982E+01  7.59869910E+00  7.59869910E+00 -1.51973982E+01  7.59869910E+00
  7.59869910E+00 -1.51973982E+01  7.59869910E+00  7.59869910E+00 -1.51973982E+01
  7.59869910E+00  7.59869910E+00 -1.51973982E+01  7.59869910E+00  7.59869910E+00
 -1.51973982E+01  7.59869910E+00  7.59869910E+00 -1.51973982E+01  7.59869910E+00
  7.59869910E+00 -1.51973982E+01  7.59869910E+00  7.59869910E+00 -1.51973982E+01
  7.59869910E+00  7.59869910E+00 -1.51973982E+01  7.59869910E+00  7.59869910E+00
 -1.51973982E+01  7.59869910E+00  7.59869910E+00 -1.51973982E+01  7.59869910E+00
  7.59869910E+00 -1.51973982E+01  7.59869910E+00  7.59869910E+00 -1.51973982E+01
  7.59869910E+00  7.59869910E+00 -1.51973982E+01  7.59869910E+00  7.59869910E+00
 -1.51973982E+01  7.59869910E+00  7.59869910E+00 -1.51973982E+01  7.59869910E+00
  7.59869910E+00 -1.51973982E+01  7.59869910E+00  7.59869910E+00 -1.51973982E+01
  7.59869910E+00  7.59869910E+00 -1.51973982E+01  7.59869910E+00  7.59869910E+00
 -1.51973982E+01  7.59869910E+00  7.59869910E+00 -1.51973982E+01  7.59869910E+00
  7.59869910E+00 -1.51973982E+01  7.59869910E+00  7.59869910E+00 -1.51973982E+01
  7.59869910E+00  7.59869910E+00 -1.51973982E+01  7.59869910E+00  7.59869910E+00
 -1.51973982E+01  7.59869910E+00  7.59869910E+00 -1.51973982E+01  7.59869910E+00
  7.59869910E+00 -1.51973982E+01  7.59869910E+00  7.59869910E+00 -1.51973982E+01
  7.59869910E+00  7.59869910E+00 -1.51973982E+01  7.59869910E+00  7.59869910E+00
 -1.51973982E+01  7.59869910E+00  7.59869910E+00 -1.51973982E+01  7.59869910E+00
  7.59869910E+00 -1.51973982E+01  7.59869910E+00  7.59869910E+00 -1.51973982E+01
  7.59869910E+00  7.59869910E+00 -1.51973982E+01  7.59869910E+00  7.59869910E+00
 -1.51973982E+01  7.59869910E+00  7.59869910E+00 -1.51973982E+01  7.59869910E+00
  7.59869910E+00 -1.51973982E+01  7.59869910E+00  7.59869910E+00 -1.51973982E+01
  7.59869910E+00  7.59869910E+00 -1.51973982E+01  7.59869910E+00  7.59869910E+00
 -1.51973982E+01  7.59869910E+00  7.59869910E+00 -1.51973982E+01  7.59869910E+00
  7.59869910E+00 -1.51973982E+01  7.59869910E+00  7.59869910E+00 -1.51973982E+01
  7.59869910E+00  7.59869910E+00 -1.51973982E+01  7.59869910E+00  7.59869910E+00
 -1.51973982E+01  7.59869910E+00  7.59869910E+00 -1.51973982E+01  7.59869910E+00
  7.59869910E+00 -1.51973982E+01  7.59869910E+00  7.59869910E+00 -1.51973982E+01
  7.59869910E+00  7.59869910E+00 -1.51973982E+01  7.59869910E+00  7.59869910E+00
 -1.51973982E+01  7.59869910E+00  7.59869910E+00 -1.51973982E+01  7.59869910E+00
  7.59869910E+00 -1.51973982E+01  7.59869910E+00  7.59869910E+00 -1.51973982E+01
  7.59869910E+00  7.59869910E+00 -1.51973982E+01  7.59869910E+00  7.59869910E+00
 -1.51973982E+01  7.59869910E+00  7.59869910E+00 -1.51973982E+01  7.59869910E+00
  7.59869910E+00 -1.51973982E+01  7.59869910E+00  7.59869910E+00 -1.51973982E+01
  7.59869910E+00  7.59869910E+00 -1.51973982E+01  7.59869910E+00  7.59869910E+00
 -1.51973982E+01  7.59869910E+00  7.59869910E+00 -1.51973982E+01  7.59869910E+00
  7.59869910E+00 -1.51973982E+01  7.59869910E+00  7.59869910E+00 -1.51973982E+01
  7.59869910E+00  7.59869910E+00 -1.51973982E+01  7.59869910E+00  7.59869910E+00
 -1.51973982E+01  7.59869910E+00  7.59869910E+00 -1.51973982E+01  7.59869910E+00
  7.59869910E+00 -1.51973982E+01  7.59869910E+00  7.59869910E+00 -1.51973982E+01
  7.59869910E+00  7.59869910E+00 -1.51973982E+01  7.59869910E+00  7.59869910E+00
 -1.51973982E+01  7.59869910E+00  7.59869910E+00 -1.51973982E+01  7.59869910E+00
  7.59869910E+00 -1.51973982E+01  7.59869910E+00  7.59869910E+00 -1.51973982E+01
  7.59869910E+00  7.59869910E+00 -1.51973982E+01  7.59869910E+00  7.59869910E+00
 -1.51973982E+01  7.59869910E+00  7.59869910E+00 -1.51973982E+01  7.59869910E+00
  7.59869910E+00 -1.51973982E+01  7.59869910E+00  7.59869910E+00 -1.51973982E+01
  7.59869910E+00  7.59869910E+00 -1.51973982E+01  7.59869910E+00  7.59869910E+00
 -1.51973982E+01  7.59869910E+00  7.59869910E+00 -1.51973982E+01  7.59869910E+00
  7.59869910E+00 -1.51973982E+01  7.59869910E+00  7.59869910E+00 -1.51973982E+01
  7.59869910E+00  7.59869910E+00 -1.51973982E+01  7.59869910E+00  7.59869910E+00
 -1.51973982E+01  7.59869910E+00  7.59869910E+00 -1.51973982E+01  7.59869910E+00
  7.59869910E+00 -1.51973982E+01  7.59869910E+00  7.59869910E+00 -1.51973982E+01
  7.59869910E+00  7.59869910E+00 -1.51973982E+01  7.59869910E+00  7.59869910E+00
 -1.51973982E+01  7.59869910E+00  7.59869910E+00 -1.51973982E+01  7.59869910E+00
  7.59869910E+00 -1.51973982E+01  7.59869910E+00  7.59869910E+00 -1.51973982E+01
  7.59869910E+00  7.59869910E+00 -1.51973982E+01  7.59869910E+00  7.59869910E+00
 -1.51973982E+01  7.59869910E+00  7.59869910E+00 -1.51973982E+01  7.59869910E+00
  7.59869910E+00 -1.51973982E+01  7.59869910E+00  7.59869910E+00 -1.51973982E+01
  7.59869910E+00  7.59869910E+00 -1.51973982E+01  7.59869910E+00  7.59869910E+00
 -1.51973982E+01  7.59869910E+00  7.59869910E+00 -1.51973982E+01  7.59869910E+00
  7.59869910E+00 -1.51973982E+01  7.59869910E+00  7.59869910E+00 -1.51973982E+01
  7.59869910E+00  7.59869910E+00 -1.51973982E+01  7.59869910E+00  7.59869910E+00
 -1.51973982E+01  7.59869910E+00  7.59869910E+00 -1.51973982E+01  7.59869910E+00
  7.59869910E+00 -1.51973982E+01  7.59869910E+00  7.59869910E+00 -1.51973982E+01
  7.59869910E+00  7.59869910E+00 -1.51973982E+01  7.59869910E+00  7.59869910E+00
 -1.51973982E+01  7.59869910E+00  7.59869910E+00 -1.51973982E+01  7.59869910E+00
  7.59869910E+00 -1.51973982E+01  7.59869910E+00  7.59869910E+00 -1.51973982E+01
  7.59869910E+00  7.59869910E+00 -1.51973982E+01  7.59869910E+00  7.59869910E+00
 -1.51973982E+01  7.59869910E+00  7.59869910E+00 -1.51973982E+01  7.59869910E+00
  7.59869910E+00 -1.51973982E+01  7.59869910E+00  7.59869910E+00 -1.51973982E+01
  7.59869910E+00  7.59869910E+00 -1.51973982E+01  7.59869910E+00  7.59869910E+00
 -1.51973982E+01  7.59869910E+00  7.59869910E+00 -1.51973982E+01  7.59869910E+00
  7.59869910E+00 -1.51973982E+01  7.59869910E+00  7.59869910E+00 -1.51973982E+01
  7.59869910E+00  7.59869910E+00 -1.51973982E+01  7.59869910E+00  7.59869910E+00
 -1.51973982E+01  7.59869910E+00  7.59869910E+00 -1.51973982E+01  7.59869910E+00
  7.59869910E+00 -1.51973982E+01  7.59869910E+00  7.59869910E+00 -1.51973982E+01
  7.59869910E+00  7.59869910E+00 -1.51973982E+01  7.59869910E+00  7.59869910E+00
 -1.51973982E+01  7.59869910E+00  7.59869910E+00 -1.51973982E+01  7.59869910E+00
  7.59869910E+00 -1.51973982E+01  7.59869910E+00  7.59869910E+00 -1.51973982E+01
  7.59869910E+00  7.59869910E+00 -1.51973982E+01  7.59869910E+00  7.59869910E+00
 -1.51973982E+01  7.59869910E+00  7.59869910E+00 -1.51973982E+01  7.59869910E+00
  7.59869910E+00 -1.51973982E+01  7.59869910E+00  7.59869910E+00 -1.51973982E+01
  7.59869910E+00  7.59869910E+00 -1.51973982E+01  7.59869910E+00  7.59869910E+00
 -1.51973982E+01  7.59869910E+00  7.59869910E+00 -1.51973982E+01  7.59869910E+00
  7.59869910E+00 -1.51973982E+01  7.59869910E+00  7.59869910E+00 -1.51973982E+01
  7.59869910E+00  7.59869910E+00 -1.51973982E+01  7.59869910E+00  7.59869910E+00
 -1.51973982E+01  7.59869910E+00  7.59869910E+00 -1.51973982E+01  7.59869910E+00
  7.59869910E+00 -1.51973982E+01  7.59869910E+00  7.59869910E+00 -1.51973982E+01
  7.59869910E+00  7.59869910E+00 -1.51973982E+01  7.59869910E+00  7.59869910E+00
 -1.51973982E+01  7.59869910E+00  7.59869910E+00 -1.51973982E+01  7.59869910E+00
  7.59869910E+00 -1.51973982E+01  7.59869910E+00  7.59869910E+00 -1.51973982E+01
  7.59869910E+00  7.59869910E+00 -1.51973982E+01  7.59869910E+00  7.59869910E+00
 -1.51973982E+01  7.59869910E+00  7.59869910E+00 -1.51973982E+01  7.59869910E+00
  7.59869910E+00 -1.51973982E+01  7.59869910E+00  7.59869910E+00 -1.51973982E+01
  7.59869910E+00  7.59869910E+00 -1.51973982E+01  7.59869910E+00  7.59869910E+00
 -1.51973982E+01  7.59869910E+00  7.59869910E+00 -1.51973982E+01  7.59869910E+00
  7.59869910E+00 -1.51973982E+01  7.59869910E+00  7.59869910E+00 -1.51973982E+01
  7.59869910E+00  7.59869910E+00 -1.51973982E+01  7.59869910E+00  7.59869910E+00
 -1.51973982E+01  7.59869910E+00  7.59869910E+00 -1.51973982E+01  7.59869910E+00
  7.59869910E+00 -1.51973982E+01  7.59869910E+00  7.59869910E+00 -1.51973982E+01
  7.59869910E+00  7.59869910E+00 -1.51973982E+01  7.59869910E+00  7.59869910E+00
 -1.51973982E+01  7.59869910E+00  7.59869910E+00 -1.51973982E+01  7.59869910E+00
  7.59869910E+00 -1.51973982E+01  7.59869910E+00  7.59869910E+00 -1.51973982E+01
  7.59869910E+00  7.59869910E+00 -1.51973982E+01  7.59869910E+00  7.59869910E+00
 -1.51973982E+01  7.59869910E+00  7.59869910E+00 -1.51973982E+01  7.59869910E+00
  7.59869910E+00 -1.51973982E+01  7.59869910E+00  7.59869910E+00 -1.51973982E+01
  7.59869910E+00  7.59869910E+00 -1.51973982E+01  7.59869910E+00  7.59869910E+00
 -1.51973982E+01  7.59869910E+00  7.59869910E+00 -1.51973982E+01  7.59869910E+00
  7.59869910E+00 -1.51973982E+01  7.59869910E+00  7.59869910E+00 -1.51973982E+01
  7.59869910E+00  7.59869910E+00 -1.51973982E+01  7.59869910E+00  7.59869910E+00
 -1.51973982E+01  7.59869910E+00  7.59869910E+00 -1.51973982E+01  7.59869910E+00
  7.59869910E+00 -1.51973982E+01  7.59869910E+00  7.59869910E+00 -1.51973982E+01
  7.59869910E+00  7.59869910E+00 -1.51973982E+01  7.59869910E+00  7.59869910E+00
 -1.51973982E+01  7.59869910E+00  7.59869910E+00 -1.51973982E+01  7.59869910E+00
  7.59869910E+00 -1.51973982E+01  7.59869910E+00  7.59869910E+00 -1.51973982E+01
  7.59869910E+00  7.59869910E+00 -1.51973982E+01  7.59869910E+00  7.59869910E+00
 -1.51973982E+01  7.59869910E+00  7.59869910E+00 -1.51973982E+01  7.59869910E+00
  7.59869910E+00 -1.51973982E+01  7.59869910E+00  7.59869910E+00 -1.51973982E+01
  7.59869910E+00  7.59869910E+00 -1.51973982E+01  7.59869910E+00  7.59869910E+00
 -1.51973982E+01  7.59869910E+00  7.59869910E+00 -1.51973982E+01  7.59869910E+00
  7.59869910E+00 -1.51973982E+01  7.59869910E+00  7.59869910E+00 -1.51973982E+01
  7.59869910E+00  7.59869910E+00 -1.51973982E+01  7.59869910E+00  7.59869910E+00
 -1.51973982E+01  7.59869910E+00  7.59869910E+00 -1.51973982E+01  7.59869910E+00
  7.59869910E+00 -1.51973982E+01  7.59869910E+00  7.59869910E+00 -1.51973982E+01
  7.59869910E+00  7.59869910E+00 -1.51973982E+01  7.59869910E+00  7.59869910E+00
 -1.51973982E+01  7.59869910E+00  7.59869910E+00 -1.51973982E+01  7.59869910E+00
  7.59869910E+00 -1.51973982E+01  7.59869910E+00  7.59869910E+00 -1.51973982E+01
  7.59869910E+00  7.59869910E+00 -1.51973982E+01  7.59869910E+00  7.59869910E+00
 -1.51973982E+01  7.59869910E+00  7.59869910E+00 -1.51973982E+01  7.59869910E+00
  7.59869910E+00 -1.51973982E+01  7.59869910E+00  7.59869910E+00 -1.51973982E+01
  7.59869910E+00  7.59869910E+00 -1.51973982E+01  7.59869910E+00  7.59869910E+00
 -1.51973982E+01  7.59869910E+00  7.59869910E+00 -1.51973982E+01  7.59869910E+00
  7.59869910E+00 -1.51973982E+01  7.59869910E+00  7.59869910E+00 -1.51973982E+01
  7.59869910E+00  7.59869910E+00 -1.51973982E+01  7.59869910E+00  7.59869910E+00
 -1.51973982E+01  7.59869910E+00  7.59869910E+00 -1.51973982E+01  7.59869910E+00
  7.59869910E+00 -1.51973982E+01  7.59869910E+00  7.59869910E+00 -1.51973982E+01
  7.59869910E+00  7.59869910E+00 -1.51973982E+01  7.59869910E+00  7.59869910E+00
 -1.51973982E+01  7.59869910E+00  7.59869910E+00 -1.51973982E+01  7.59869910E+00
  7.59869910E+00 -1.51973982E+01  7.59869910E+00  7.59869910E+00 -1.51973982E+01
  7.59869910E+00  7.59869910E+00 -1.51973982E+01  7.59869910E+00  7.59869910E+00
 -1.51973982E+01  7.59869910E+00  7.59869910E+00 -1.51973982E+01  7.59869910E+00
  7.59869910E+00 -1.51973982E+01  7.59869910E+00  7.59869910E+00 -1.51973982E+01
  7.59869910E+00  7.59869910E+00 -1.51973982E+01  7.59869910E+00  7.59869910E+00
 -1.51973982E+01  7.59869910E+00  7.59869910E+00 -1.51973982E+01  7.59869910E+00
  7.59869910E+00 -1.51973982E+01  7.59869910E+00  7.59869910E+00 -1.51973982E+01
  7.59869910E+00  7.59869910E+00 -1.51973982E+01  7.59869910E+00  7.59869910E+00
 -1.51973982E+01  7.59869910E+00  7.59869910E+00 -1.51973982E+01  7.59869910E+00
  7.59869910E+00 -1.51973982E+01  7.59869910E+00  7.59869910E+00 -1.51973982E+01
  7.59869910E+00  7.59869910E+00 -1.51973982E+01  7.59869910E+00  7.59869910E+00
 -1.51973982E+01  7.59869910E+00  7.59869910E+00 -1.51973982E+01  7.59869910E+00
  7.59869910E+00 -1.51973982E+01  7.59869910E+00  7.59869910E+00 -1.51973982E+01
  7.59869910E+00  7.59869910E+00 -1.51973982E+01  7.59869910E+00  7.59869910E+00
 -1.51973982E+01  7.59869910E+00  7.59869910E+00 -1.51973982E+01  7.59869910E+00
  7.59869910E+00 -1.51973982E+01  7.59869910E+00  7.59869910E+00 -1.51973982E+01
  7.59869910E+00  7.59869910E+00 -1.51973982E+01  7.59869910E+00  7.59869910E+00
 -1.51973982E+01  7.59869910E+00  7.59869910E+00 -1.51973982E+01  7.59869910E+00
  7.59869910E+00 -1.51973982E+01  7.59869910E+00  7.59869910E+00 -1.51973982E+01
  7.59869910E+00  7.59869910E+00 -1.51973982E+01  7.59869910E+00  7.59869910E+00
 -1.51973982E+01  7.59869910E+00  7.59869910E+00 -1.51973982E+01  7.59869910E+00
  7.59869910E+00 -1.51973982E+01  7.59869910E+00  7.59869910E+00 -1.51973982E+01
  7.59869910E+00  7.59869910E+00 -1.51973982E+01  7.59869910E+00  7.59869910E+00
 -1.51973982E+01  7.59869910E+00  7.59869910E+00 -1.51973982E+01  7.59869910E+00
  7.59869910E+00 -1.51973982E+01  7.59869910E+00  7.59869910E+00 -1.51973982E+01
  7.59869910E+00  7.59869910E+00 -1.51973982E+01  7.59869910E+00  7.59869910E+00
 -1.51973982E+01  7.59869910E+00  7.59869910E+00 -1.51973982E+01  7.59869910E+00
  7.59869910E+00 -1.51973982E+01  7.59869910E+00  7.59869910E+00 -1.51973982E+01
  7.59869910E+00  7.59869910E+00 -1.51973982E+01  7.59869910E+00  7.59869910E+00
 -1.51973982E+01  7.59869910E+00  7.59869910E+00 -1.51973982E+01  7.59869910E+00
  7.59869910E+00 -1.51973982E+01  7.59869910E+00  7.59869910E+00 -1.51973982E+01
  7.59869910E+00  7.59869910E+00 -1.51973982E+01  7.59869910E+00  7.59869910E+00
 -1.51973982E+01  7.59869910E+00  7.59869910E+00 -1.51973982E+01  7.59869910E+00
  7.59869910E+00 -1.51973982E+01  7.59869910E+00  7.59869910E+00 -1.51973982E+01
  7.59869910E+00  7.59869910E+00 -1.51973982E+01  7.59869910E+00  7.59869910E+00
 -1.51973982E+01  7.59869910E+00  7.59869910E+00 -1.51973982E+01  7.59869910E+00
  7.59869910E+00 -1.51973982E+01  7.59869910E+00  7.59869910E+00 -1.51973982E+01
  7.59869910E+00  7.59869910E+00 -1.51973982E+01  7.59869910E+00  7.59869910E+00
 -1.51973982E+01  7.59869910E+00  7.59869910E+00 -1.51973982E+01  7.59869910E+00
  7.59869910E+00 -1.51973982E+01  7.59869910E+00  7.59869910E+00 -1.51973982E+01
  7.59869910E+00  7.59869910E+00 -1.51973982E+01  7.59869910E+00  7.59869910E+00
 -1.51973982E+01  7.59869910E+00  7.59869910E+00 -1.51973982E+01  7.59869910E+00
  7.59869910E+00 -1.51973982E+01  7.59869910E+00  7.59869910E+00 -1.51973982E+01
  7.59869910E+00  7.59869910E+00 -1.51973982E+01  7.59869910E+00  7.59869910E+00
 -1.51973982E+01  7.59869910E+00  7.59869910E+00 -1.51973982E+01  7.59869910E+00
  7.59869910E+00 -1.51973982E+01  7.59869910E+00  7.59869910E+00 -1.51973982E+01
  7.59869910E+00  7.59869910E+00 -1.51973982E+01  7.59869910E+00  7.59869910E+00
 -1.51973982E+01  7.59869910E+00  7.59869910E+00 -1.51973982E+01  7.59869910E+00
  7.59869910E+00 -1.51973982E+01  7.59869910E+00  7.59869910E+00 -1.51973982E+01
  7.59869910E+00  7.59869910E+00 -1.51973982E+01  7.59869910E+00  7.59869910E+00
 -1.51973982E+01  7.59869910E+00  7.59869910E+00 -1.51973982E+01  7.59869910E+00
  7.59869910E+00 -1.51973982E+01  7.59869910E+00  7.59869910E+00 -1.51973982E+01
  7.59869910E+00  7.59869910E+00 -1.51973982E+01  7.59869910E+00  7.59869910E+00
 -1.51973982E+01  7.59869910E+00  7.59869910E+00 -1.51973982E+01  7.59869910E+00
  7.59869910E+00 -1.51973982E+01  7.59869910E+00  7.59869910E+00 -1.51973982E+01
  7.59869910E+00  7.59869910E+00 -1.51973982E+01  7.59869910E+00  7.59869910E+00
 -1.51973982E+01  7.59869910E+00  7.59869910E+00 -1.51973982E+01  7.59869910E+00
  7.59869910E+00 -1.51973982E+01  7.59869910E+00  7.59869910E+00 -1.51973982E+01
  7.59869910E+00  7.59869910E+00 -1.51973982E+01  7.59869910E+00  7.59869910E+00
 -1.51973982E+01  7.59869910E+00  7.59869910E+00 -1.51973982E+01  7.59869910E+00
  7.59869910E+00 -1.51973982E+01  7.59869910E+00  7.59869910E+00 -1.51973982E+01
  7.59869910E+00  7.59869910E+00 -1.51973982E+01  7.59869910E+00  7.59869910E+00
 -1.51973982E+01  7.59869910E+00  7.59869910E+00 -1.51973982E+01  7.59869910E+00
  7.59869910E+00 -1.51973982E+01  7.59869910E+00  7.59869910E+00 -1.51973982E+01
  7.59869910E+00  7.59869910E+00 -1.51973982E+01  7.59869910E+00  7.59869910E+00
 -1.51973982E+01  7.59869910E+00  7.59869910E+00 -1.51973982E+01  7.59869910E+00
  7.59869910E+00 -1.51973982E+01  7.59869910E+00  7.59869910E+00 -1.51973982E+01
  7.59869910E+00  7.59869910E+00 -1.51973982E+01  7.59869910E+00  7.59869910E+00
 -1.51973982E+01  7.59869910E+00  7.59869910E+00 -1.51973982E+01  7.59869910E+00
  7.59869910E+00 -1.51973982E+01  7.59869910E+00  7.59869910E+00 -1.51973982E+01
  7.59869910E+00  7.59869910E+00 -1.51973982E+01  7.59869910E+00  7.59869910E+00
 -1.51973982E+01  7.59869910E+00  7.59869910E+00 -1.51973982E+01  7.59869910E+00
  7.59869910E+00 -1.51973982E+01  7.59869910E+00  7.59869910E+00 -1.51973982E+01
  7.59869910E+00  7.59869910E+00 -1.51973982E+01  7.59869910E+00  7.59869910E+00
 -1.51973982E+01  7.59869910E+00  7.59869910E+00 -1.51973982E+01  7.59869910E+00
  7.59869910E+00 -1.51973982E+01  7.59869910E+00  7.59869910E+00 -1.51973982E+01
  7.59869910E+00  7.59869910E+00 -1.51973982E+01  7.59869910E+00  7.59869910E+00
 -1.51973982E+01  7.59869910E+00  7.59869910E+00 -1.51973982E+01  7.59869910E+00
  7.59869910E+00 -1.51973982E+01  7.59869910E+00  7.59869910E+00 -1.51973982E+01
  7.59869910E+00  7.59869910E+00 -1.51973982E+01  7.59869910E+00  7.59869910E+00
 -1.51973982E+01  7.59869910E+00  7.59869910E+00 -1.51973982E+01  7.59869910E+00
  7.59869910E+00 -1.51973982E+01  7.59869910E+00  7.59869910E+00 -1.51973982E+01
  7.59869910E+00  7.59869910E+00 -1.51973982E+01  7.59869910E+00  7.59869910E+00
 -1.51973982E+01  7.59869910E+00  7.59869910E+00 -1.51973982E+01  7.59869910E+00
  7.59869910E+00 -1.51973982E+01  7.59869910E+00  7.59869910E+00 -1.51973982E+01
  7.59869910E+00  7.59869910E+00 -1.51973982E+01  7.59869910E+00  7.59869910E+00
 -1.51973982E+01  7.59869910E+00  7.59869910E+00 -1.51973982E+01  7.59869910E+00
  7.59869910E+00 -1.51973982E+01  7.59869910E+00  7.59869910E+00 -1.51973982E+01
  7.59869910E+00  7.59869910E+00 -1.51973982E+01  7.59869910E+00  7.59869910E+00
 -1.51973982E+01  7.59869910E+00  7.59869910E+00 -1.51973982E+01  7.59869910E+00
  7.59869910E+00 -1.51973982E+01  7.59869910E+00  7.59869910E+00 -1.51973982E+01
  7.59869910E+00  7.59869910E+00 -1.51973982E+01  7.59869910E+00  7.59869910E+00
 -1.51973982E+01  7.59869910E+00  7.59869910E+00 -1.51973982E+01  7.59869910E+00
  7.59869910E+00 -1.51973982E+01  7.59869910E+00  7.59869910E+00 -1.51973982E+01
  7.59869910E+00  7.59869910E+00 -1.51973982E+01  7.59869910E+00  7.59869910E+00
 -1.51973982E+01  7.59869910E+00  7.59869910E+00 -1.51973982E+01  7.59869910E+00
  7.59869910E+00 -1.51973982E+01  7.59869910E+00  7.59869910E+00 -1.51973982E+01
  7.59869910E+00  7.59869910E+00 -1.51973982E+01  7.59869910E+00  7.59869910E+00
 -1.51973982E+01  7.59869910E+00  7.59869910E+00 -1.51973982E+01  7.59869910E+00
  7.59869910E+00 -1.51973982E+01  7.59869910E+00  7.59869910E+00 -1.51973982E+01
  7.59869910E+00  7.59869910E+00 -1.51973982E+01  7.59869910E+00  7.59869910E+00
 -1.51973982E+01  7.59869910E+00  7.59869910E+00 -1.51973982E+01  7.59869910E+00
  7.59869910E+00 -1.51973982E+01  7.59869910E+00  7.59869910E+00 -1.51973982E+01
  7.59869910E+00  7.59869910E+00 -1.51973982E+01  7.59869910E+00  7.59869910E+00
 -1.51973982E+01  7.59869910E+00  7.59869910E+00 -1.51973982E+01  7.59869910E+00
  7.59869910E+00 -1.51973982E+01  7.59869910E+00  7.59869910E+00 -1.51973982E+01
  7.59869910E+00  7.59869910E+00 -1.51973982E+01  7.59869910E+00  7.59869910E+00
 -1.51973982E+01  7.59869910E+00  7.59869910E+00 -1.51973982E+01  7.59869910E+00
  7.59869910E+00 -1.51973982E+01  7.59869910E+00  7.59869910E+00 -1.51973982E+01
  7.59869910E+00  7.59869910E+00 -1.51973982E+01  7.59869910E+00  7.59869910E+00
 -1.51973982E+01  7.59869910E+00  7.59869910E+00 -1.51973982E+01  7.59869910E+00
  7.59869910E+00 -1.51973982E+01  7.59869910E+00  7.59869910E+00 -1.51973982E+01
  7.59869910E+00  7.59869910E+00 -1.51973982E+01  7.59869910E+00  7.59869910E+00
 -1.51973982E+01  7.59869910E+00  7.59869910E+00 -1.51973982E+01  7.59869910E+00
  7.59869910E+00 -1.51973982E+01  7.59869910E+00  7.59869910E+00 -1.51973982E+01
  7.59869910E+00  7.59869910E+00 -1.51973982E+01  7.59869910E+00  7.59869910E+00
 -1.51973982E+01  7.59869910E+00  7.59869910E+00 -1.51973982E+01  7.59869910E+00
  7.59869910E+00 -1.51973982E+01  7.59869910E+00  7.59869910E+00 -1.51973982E+01
  7.59869910E+00  7.59869910E+00 -1.51973982E+01  7.59869910E+00  7.59869910E+00
 -1.51973982E+01  7.59869910E+00  7.59869910E+00 -1.51973982E+01  7.59869910E+00
  7.59869910E+00 -1.51973982E+01  7.59869910E+00  7.59869910E+00 -1.51973982E+01
  7.59869910E+00  7.59869910E+00 -1.51973982E+01  7.59869910E+00  7.59869910E+00
 -1.51973982E+01  7.59869910E+00  7.59869910E+00 -1.51973982E+01  7.59869910E+00
  7.59869910E+00 -1.51973982E+01  7.59869910E+00  7.59869910E+00 -1.51973982E+01
  7.59869910E+00  7.59869910E+00 -1.51973982E+01  7.59869910E+00  7.59869910E+00
 -1.51973982E+01  7.59869910E+00  7.59869910E+00 -1.51973982E+01  7.59869910E+00
  7.59869910E+00 -1.51973982E+01  7.59869910E+00  7.59869910E+00 -1.51973982E+01
  7.59869910E+00  7.59869910E+00 -1.51973982E+01  7.59869910E+00  7.59869910E+00
 -1.51973982E+01  7.59869910E+00  7.59869910E+00 -1.51973982E+01  7.59869910E+00
  7.59869910E+00 -1.51973982E+01  7.59869910E+00  7.59869910E+00 -1.51973982E+01
  7.59869910E+00  7.59869910E+00 -1.51973982E+01  7.59869910E+00  7.59869910E+00
 -1.51973982E+01  7.59869910E+00  7.59869910E+00 -1.51973982E+01  7.59869910E+00
  7.59869910E+00 -1.51973982E+01  7.59869910E+00  7.59869910E+00 -1.51973982E+01
  7.59869910E+00  7.59869910E+00 -1.51973982E+01  7.59869910E+00  7.59869910E+00
 -1.51973982E+01  7.59869910E+00  7.59869910E+00 -1.51973982E+01  7.59869910E+00
  7.59869910E+00 -1.51973982E+01  7.59869910E+00  7.59869910E+00 -1.51973982E+01
  7.59869910E+00  7.59869910E+00 -1.51973982E+01  7.59869910E+00  7.59869910E+00
 -1.51973982E+01  7.59869910E+00  7.59869910E+00 -1.51973982E+01  7.59869910E+00
  7.59869910E+00 -1.51973982E+01  7.59869910E+00  7.59869910E+00 -1.51973982E+01
  7.59869910E+00  7.59869910E+00 -1.51973982E+01  7.59869910E+00  7.59869910E+00
 -1.51973982E+01  7.59869910E+00  7.59869910E+00 -1.51973982E+01  7.59869910E+00
  7.59869910E+00 -1.51973982E+01  7.59869910E+00  7.59869910E+00 -1.51973982E+01
  7.59869910E+00  7.59869910E+00 -1.51973982E+01  7.59869910E+00  7.59869910E+00
 -1.51973982E+01  7.59869910E+00  7.59869910E+00 -1.51973982E+01  7.59869910E+00
  7.59869910E+00 -1.51973982E+01  7.59869910E+00  7.59869910E+00 -1.51973982E+01
  7.59869910E+00  7.59869910E+00 -1.51973982E+01  7.59869910E+00  7.59869910E+00
 -1.51973982E+01  7.59869910E+00  7.59869910E+00 -1.51973982E+01  7.59869910E+00
  7.59869910E+00 -1.51973982E+01  7.59869910E+00  7.59869910E+00 -1.51973982E+01
  7.59869910E+00  7.59869910E+00 -1.51973982E+01  7.59869910E+00  7.59869910E+00
 -1.51973982E+01  7.59869910E+00  7.59869910E+00 -1.51973982E+01  7.59869910E+00
  7.59869910E+00 -1.51973982E+01  7.59869910E+00  7.59869910E+00 -1.51973982E+01
  7.59869910E+00  7.59869910E+00 -1.51973982E+01  7.59869910E+00  7.59869910E+00
 -1.51973982E+01  7.59869910E+00  7.59869910E+00 -1.51973982E+01  7.59869910E+00
  7.59869910E+00 -1.51973982E+01  7.59869910E+00  7.59869910E+00 -1.51973982E+01
  7.59869910E+00  7.59869910E+00 -1.51973982E+01  7.59869910E+00  7.59869910E+00
 -1.51973982E+01  7.59869910E+00  7.59869910E+00 -1.51973982E+01  7.59869910E+00
  7.59869910E+00 -1.51973982E+01  7.59869910E+00  7.59869910E+00 -1.51973982E+01
  7.59869910E+00  7.59869910E+00 -1.51973982E+01  7.59869910E+00  7.59869910E+00
 -1.51973982E+01  7.59869910E+00  7.59869910E+00 -1.51973982E+01  7.59869910E+00
  7.59869910E+00 -1.51973982E+01  7.59869910E+00  7.59869910E+00 -1.51973982E+01
  7.59869910E+00  7.59869910E+00 -1.51973982E+01  7.59869910E+00  7.59869910E+00
 -1.51973982E+01  7.59869910E+00  7.59869910E+00 -1.51973982E+01  7.59869910E+00
  7.59869910E+00 -1.51973982E+01  7.59869910E+00  7.59869910E+00 -1.51973982E+01
  7.59869910E+00  7.59869910E+00 -1.51973982E+01  7.59869910E+00  7.59869910E+00
 -1.51973982E+01  7.59869910E+00  7.59869910E+00 -1.51973982E+01  7.59869910E+00
  7.59869910E+00 -1.51973982E+01  7.59869910E+00  7.59869910E+00 -1.51973982E+01
  7.59869910E+00  7.59869910E+00 -1.51973982E+01  7.59869910E+00  7.59869910E+00
 -1.51973982E+01  7.59869910E+00  7.59869910E+00 -1.51973982E+01  7.59869910E+00
  7.59869910E+00 -1.51973982E+01  7.59869910E+00  7.59869910E+00 -1.51973982E+01
  7.59869910E+00  7.59869910E+00 -1.51973982E+01  7.59869910E+00  7.59869910E+00
 -1.51973982E+01  7.59869910E+00  7.59869910E+00 -1.51973982E+01  7.59869910E+00
  7.59869910E+00 -1.51973982E+01  7.59869910E+00  7.59869910E+00 -1.51973982E+01
  7.59869910E+00  7.59869910E+00 -1.51973982E+01  7.59869910E+00  7.59869910E+00
 -1.51973982E+01  7.59869910E+00  7.59869910E+00 -1.51973982E+01  7.59869910E+00
  7.59869910E+00 -1.51973982E+01  7.59869910E+00  7.59869910E+00 -1.51973982E+01
  7.59869910E+00  7.59869910E+00 -1.51973982E+01  7.59869910E+00  7.59869910E+00
 -1.51973982E+01  7.59869910E+00  7.59869910E+00 -1.51973982E+01  7.59869910E+00
  7.59869910E+00 -1.51973982E+01  7.59869910E+00  7.59869910E+00 -1.51973982E+01
  7.59869910E+00  7.59869910E+00 -1.51973982E+01  7.59869910E+00  7.59869910E+00
 -1.51973982E+01  7.59869910E+00  7.59869910E+00 -1.51973982E+01  7.59869910E+00
  7.59869910E+00 -1.51973982E+01  7.59869910E+00  7.59869910E+00 -1.51973982E+01
  7.59869910E+00  7.59869910E+00 -1.51973982E+01  7.59869910E+00  7.59869910E+00
 -1.51973982E+01  7.59869910E+00  7.59869910E+00 -1.51973982E+01  7.59869910E+00
  7.59869910E+00 -1.51973982E+01  7.59869910E+00  7.59869910E+00 -1.51973982E+01
  7.59869910E+00  7.59869910E+00 -1.51973982E+01  7.59869910E+00  7.59869910E+00
 -1.51973982E+01  7.59869910E+00  7.59869910E+00 -1.51973982E+01  7.59869910E+00
  7.59869910E+00 -1.51973982E+01  7.59869910E+00  7.59869910E+00 -1.51973982E+01
  7.59869910E+00  7.59869910E+00 -1.51973982E+01  7.59869910E+00  7.59869910E+00
 -1.51973982E+01  7.59869910E+00  7.59869910E+00 -1.51973982E+01  7.59869910E+00
  7.59869910E+00 -1.51973982E+01  7.59869910E+00  7.59869910E+00 -1.51973982E+01
  7.59869910E+00  7.59869910E+00 -1.51973982E+01  7.59869910E+00  7.59869910E+00
 -1.51973982E+01  7.59869910E+00  7.59869910E+00 -1.51973982E+01  7.59869910E+00
  7.59869910E+00 -1.51973982E+01  7.59869910E+00  7.59869910E+00 -1.51973982E+01
  7.59869910E+00  7.59869910E+00 -1.51973982E+01  7.59869910E+00  7.59869910E+00
 -1.51973982E+01  7.59869910E+00  7.59869910E+00 -1.51973982E+01  7.59869910E+00
  7.59869910E+00 -1.51973982E+01  7.59869910E+00  7.59869910E+00 -1.51973982E+01
  7.59869910E+00  7.59869910E+00 -1.51973982E+01  7.59869910E+00  7.59869910E+00
 -1.51973982E+01  7.59869910E+00  7.59869910E+00 -1.51973982E+01  7.59869910E+00
  7.59869910E+00 -1.51973982E+01  7.59869910E+00  7.59869910E+00 -1.51973982E+01
  7.59869910E+00  7.59869910E+00 -1.51973982E+01  7.59869910E+00  7.59869910E+00
 -1.51973982E+01  7.59869910E+00  7.59869910E+00 -1.51973982E+01  7.59869910E+00
  7.59869910E+00 -1.51973982E+01  7.59869910E+00  7.59869910E+00 -1.51973982E+01
  7.59869910E+00  7.59869910E+00 -1.51973982E+01  7.59869910E+00  7.59869910E+00
 -1.51973982E+01  7.59869910E+00  7.59869910E+00 -1.51973982E+01  7.59869910E+00
  7.59869910E+00 -1.51973982E+01  7.59869910E+00  7.59869910E+00 -1.51973982E+01
  7.59869910E+00  7.59869910E+00 -1.51973982E+01  7.59869910E+00  7.59869910E+00
 -1.51973982E+01  7.59869910E+00  7.59869910E+00 -1.51973982E+01  7.59869910E+00
  7.59869910E+00 -1.51973982E+01  7.59869910E+00  7.59869910E+00 -1.51973982E+01
  7.59869910E+00  7.59869910E+00 -1.51973982E+01  7.59869910E+00  7.59869910E+00
 -1.51973982E+01  7.59869910E+00  7.59869910E+00 -1.51973982E+01  7.59869910E+00
  7.59869910E+00 -1.51973982E+01  7.59869910E+00  7.59869910E+00 -1.51973982E+01
  7.59869910E+00  7.59869910E+00 -1.51973982E+01  7.59869910E+00  7.59869910E+00
 -1.51973982E+01  7.59869910E+00  7.59869910E+00 -1.51973982E+01  7.59869910E+00
  7.59869910E+00 -1.51973982E+01  7.59869910E+00  7.59869910E+00 -1.51973982E+01
  7.59869910E+00  7.59869910E+00 -1.51973982E+01  7.59869910E+00  7.59869910E+00
 -1.51973982E+01  7.59869910E+00  7.59869910E+00 -1.51973982E+01  7.59869910E+00
  7.59869910E+00 -1.51973982E+01  7.59869910E+00  7.59869910E+00 -1.51973982E+01
  7.59869910E+00  7.59869910E+00 -1.51973982E+01  7.59869910E+00  7.59869910E+00
 -1.51973982E+01  7.59869910E+00  7.59869910E+00 -1.51973982E+01  7.59869910E+00
  7.59869910E+00 -1.51973982E+01  7.59869910E+00  7.59869910E+00 -1.51973982E+01
  7.59869910E+00  7.59869910E+00 -1.51973982E+01  7.59869910E+00  7.59869910E+00
 -1.51973982E+01  7.59869910E+00  7.59869910E+00 -1.51973982E+01  7.59869910E+00
  7.59869910E+00 -1.51973982E+01  7.59869910E+00  7.59869910E+00 -1.51973982E+01
  7.59869910E+00  7.59869910E+00 -1.51973982E+01  7.59869910E+00  7.59869910E+00
 -1.51973982E+01  7.59869910E+00  7.59869910E+00 -1.51973982E+01  7.59869910E+00
  7.59869910E+00 -1.51973982E+01  7.59869910E+00  7.59869910E+00 -1.51973982E+01
  7.59869910E+00  7.59869910E+00 -1.51973982E+01  7.59869910E+00  7.59869910E+00
 -1.51973982E+01  7.59869910E+00  7.59869910E+00 -1.51973982E+01  7.59869910E+00
  7.59869910E+00 -1.51973982E+01  7.59869910E+00  7.59869910E+00 -1.51973982E+01
  7.59869910E+00  7.59869910E+00 -1.51973982E+01  7.59869910E+00  7.59869910E+00
 -1.51973982E+01  7.59869910E+00  7.59869910E+00 -1.51973982E+01  7.59869910E+00
  7.59869910E+00 -1.51973982E+01  7.59869910E+00  7.59869910E+00 -1.51973982E+01
  7.59869910E+00  7.59869910E+00 -1.51973982E+01  7.59869910E+00  7.59869910E+00
 -1.51973982E+01  7.59869910E+00  7.59869910E+00 -1.51973982E+01  7.59869910E+00
  7.59869910E+00 -1.51973982E+01  7.59869910E+00  7.59869910E+00 -1.51973982E+01
  7.59869910E+00  7.59869910E+00 -1.51973982E+01  7.59869910E+00  7.59869910E+00
 -1.51973982E+01  7.59869910E+00  7.59869910E+00 -1.51973982E+01  7.59869910E+00
  7.59869910E+00 -1.51973982E+01  7.59869910E+00  7.59869910E+00 -1.51973982E+01
  7.59869910E+00  7.59869910E+00 -1.51973982E+01  7.59869910E+00  7.59869910E+00
 -1.51973982E+01  7.59869910E+00  7.59869910E+00 -1.51973982E+01  7.59869910E+00
  7.59869910E+00 -1.51973982E+01  7.59869910E+00  7.59869910E+00 -1.51973982E+01
  7.59869910E+00  7.59869910E+00 -1.51973982E+01  7.59869910E+00  7.59869910E+00
 -1.51973982E+01  7.59869910E+00  7.59869910E+00 -1.51973982E+01  7.59869910E+00
  7.59869910E+00 -1.51973982E+01  7.59869910E+00  7.59869910E+00 -1.51973982E+01
  7.59869910E+00  7.59869910E+00 -1.51973982E+01  7.59869910E+00  7.59869910E+00
 -1.51973982E+01  7.59869910E+00  7.59869910E+00 -1.51973982E+01  7.59869910E+00
  7.59869910E+00 -1.51973982E+01  7.59869910E+00  7.59869910E+00 -1.51973982E+01
  7.59869910E+00  7.59869910E+00 -1.51973982E+01  7.59869910E+00  7.59869910E+00
 -1.51973982E+01  7.59869910E+00  7.59869910E+00 -1.51973982E+01  7.59869910E+00
  7.59869910E+00 -1.51973982E+01  7.59869910E+00  7.59869910E+00 -1.51973982E+01
  7.59869910E+00  7.59869910E+00 -1.51973982E+01  7.59869910E+00  7.59869910E+00
 -1.51973982E+01  7.59869910E+00  7.59869910E+00 -1.51973982E+01  7.59869910E+00
  7.59869910E+00 -1.51973982E+01  7.59869910E+00  7.59869910E+00 -1.51973982E+01
  7.59869910E+00  7.59869910E+00 -1.51973982E+01  7.59869910E+00  7.59869910E+00
 -1.51973982E+01  7.59869910E+00  7.59869910E+00 -1.51973982E+01  7.59869910E+00
  7.59869910E+00 -1.51973982E+01  7.59869910E+00  7.59869910E+00 -1.51973982E+01
  7.59869910E+00  7.59869910E+00 -1.51973982E+01  7.59869910E+00  7.59869910E+00
 -1.51973982E+01  7.59869910E+00  7.59869910E+00 -1.51973982E+01  7.59869910E+00
  7.59869910E+00 -1.51973982E+01  7.59869910E+00  7.59869910E+00 -1.51973982E+01
  7.59869910E+00  7.59869910E+00 -1.51973982E+01  7.59869910E+00  7.59869910E+00
 -1.51973982E+01  7.59869910E+00  7.59869910E+00 -1.51973982E+01  7.59869910E+00
  7.59869910E+00 -1.51973982E+01  7.59869910E+00  7.59869910E+00 -1.51973982E+01
  7.59869910E+00  7.59869910E+00 -1.51973982E+01  7.59869910E+00  7.59869910E+00
 -1.51973982E+01  7.59869910E+00  7.59869910E+00 -1.51973982E+01  7.59869910E+00
  7.59869910E+00 -1.51973982E+01  7.59869910E+00  7.59869910E+00 -1.51973982E+01
  7.59869910E+00  7.59869910E+00 -1.51973982E+01  7.59869910E+00  7.59869910E+00
 -1.51973982E+01  7.59869910E+00  7.59869910E+00 -1.51973982E+01  7.59869910E+00
  7.59869910E+00 -1.51973982E+01  7.59869910E+00  7.59869910E+00 -1.51973982E+01
  7.59869910E+00  7.59869910E+00 -1.51973982E+01  7.59869910E+00  7.59869910E+00
 -1.51973982E+01  7.59869910E+00  7.59869910E+00 -1.51973982E+01  7.59869910E+00
  7.59869910E+00 -1.51973982E+01  7.59869910E+00  7.59869910E+00 -1.51973982E+01
  7.59869910E+00  7.59869910E+00 -1.51973982E+01  7.59869910E+00  7.59869910E+00
 -1.51973982E+01  7.59869910E+00  7.59869910E+00 -1.51973982E+01  7.59869910E+00
  7.59869910E+00 -1.51973982E+01  7.59869910E+00  7.59869910E+00 -1.51973982E+01
  7.59869910E+00  7.59869910E+00 -1.51973982E+01  7.59869910E+00  7.59869910E+00
 -1.51973982E+01  7.59869910E+00  7.59869910E+00 -1.51973982E+01  7.59869910E+00
  7.59869910E+00 -1.51973982E+01  7.59869910E+00  7.59869910E+00 -1.51973982E+01
  7.59869910E+00  7.59869910E+00 -1.51973982E+01  7.59869910E+00  7.59869910E+00
 -1.51973982E+01  7.59869910E+00  7.59869910E+00 -1.51973982E+01  7.59869910E+00
  7.59869910E+00 -1.51973982E+01  7.59869910E+00  7.59869910E+00 -1.51973982E+01
  7.59869910E+00  7.59869910E+00 -1.51973982E+01  7.59869910E+00  7.59869910E+00
 -1.51973982E+01  7.59869910E+00  7.59869910E+00 -1.51973982E+01  7.59869910E+00
  7.59869910E+00 -1.51973982E+01  7.59869910E+00  7.59869910E+00 -1.51973982E+01
  7.59869910E+00  7.59869910E+00 -1.51973982E+01  7.59869910E+00  7.59869910E+00
 -1.51973982E+01  7.59869910E+00  7.59869910E+00 -1.51973982E+01  7.59869910E+00
  7.59869910E+00 -1.51973982E+01  7.59869910E+00  7.59869910E+00 -1.51973982E+01
  7.59869910E+00  7.59869910E+00 -1.51973982E+01  7.59869910E+00  7.59869910E+00
 -1.51973982E+01  7.59869910E+00  7.59869910E+00 -1.51973982E+01  7.59869910E+00
  7.59869910E+00 -1.51973982E+01  7.59869910E+00  7.59869910E+00 -1.51973982E+01
  7.59869910E+00  7.59869910E+00 -1.51973982E+01  7.59869910E+00  7.59869910E+00
 -1.51973982E+01  7.59869910E+00  7.59869910E+00 -1.51973982E+01  7.59869910E+00
  7.59869910E+00 -1.51973982E+01  7.59869910E+00  7.59869910E+00 -1.51973982E+01
  7.59869910E+00  7.59869910E+00 -1.51973982E+01  7.59869910E+00  7.59869910E+00
 -1.51973982E+01  7.59869910E+00  7.59869910E+00 -1.51973982E+01  7.59869910E+00
  7.59869910E+00 -1.51973982E+01  7.59869910E+00  7.59869910E+00 -1.51973982E+01
  7.59869910E+00  7.59869910E+00 -1.51973982E+01  7.59869910E+00  7.59869910E+00
 -1.51973982E+01  7.59869910E+00  7.59869910E+00 -1.51973982E+01  7.59869910E+00
  7.59869910E+00 -1.51973982E+01  7.59869910E+00  7.59869910E+00 -1.51973982E+01
  7.59869910E+00  7.59869910E+00 -1.51973982E+01  7.59869910E+00  7.59869910E+00
 -1.51973982E+01  7.59869910E+00  7.59869910E+00 -1.51973982E+01  7.59869910E+00
  7.59869910E+00 -1.51973982E+01  7.59869910E+00  7.59869910E+00 -1.51973982E+01
  7.59869910E+00  7.59869910E+00 -1.51973982E+01  7.59869910E+00  7.59869910E+00
 -1.51973982E+01  7.59869910E+00  7.59869910E+00 -1.51973982E+01  7.59869910E+00
  7.59869910E+00 -1.51973982E+01  7.59869910E+00  7.59869910E+00 -1.51973982E+01
  7.59869910E+00  7.59869910E+00 -1.51973982E+01  7.59869910E+00  7.59869910E+00
 -1.51973982E+01  7.59869910E+00  7.59869910E+00 -1.51973982E+01  7.59869910E+00
  7.59869910E+00 -1.51973982E+01  7.59869910E+00  7.59869910E+00 -1.51973982E+01
  7.59869910E+00  7.59869910E+00 -1.51973982E+01  7.59869910E+00  7.59869910E+00
 -1.51973982E+01  7.59869910E+00  7.59869910E+00 -1.51973982E+01  7.59869910E+00
  7.59869910E+00 -1.51973982E+01  7.59869910E+00  7.59869910E+00 -1.51973982E+01
  7.59869910E+00  7.59869910E+00 -1.51973982E+01  7.59869910E+00  7.59869910E+00
 -1.51973982E+01  7.59869910E+00  7.59869910E+00 -1.51973982E+01  7.59869910E+00
  7.59869910E+00 -1.51973982E+01  7.59869910E+00  7.59869910E+00 -1.51973982E+01
  7.59869910E+00  7.59869910E+00 -1.51973982E+01  7.59869910E+00  7.59869910E+00
 -1.51973982E+01  7.59869910E+00  7.59869910E+00 -1.51973982E+01  7.59869910E+00
  7.59869910E+00 -1.51973982E+01  7.59869910E+00  7.59869910E+00 -1.51973982E+01
  7.59869910E+00  7.59869910E+00 -1.51973982E+01  7.59869910E+00  7.59869910E+00
 -1.51973982E+01  7.59869910E+00  7.59869910E+00 -1.51973982E+01  7.59869910E+00
  7.59869910E+00 -1.51973982E+01  7.59869910E+00  7.59869910E+00 -1.51973982E+01
  7.59869910E+00  7.59869910E+00 -1.51973982E+01  7.59869910E+00  7.59869910E+00
 -1.51973982E+01  7.59869910E+00  7.59869910E+00 -1.51973982E+01  7.59869910E+00
  7.59869910E+00 -1.51973982E+01  7.59869910E+00  7.59869910E+00 -1.51973982E+01
  7.59869910E+00  7.59869910E+00 -1.51973982E+01  7.59869910E+00  7.59869910E+00
 -1.51973982E+01  7.59869910E+00  7.59869910E+00 -1.51973982E+01  7.59869910E+00
  7.59869910E+00 -1.51973982E+01  7.59869910E+00  7.59869910E+00 -1.51973982E+01
  7.59869910E+00  7.59869910E+00 -1.51973982E+01  7.59869910E+00  7.59869910E+00
 -1.51973982E+01  7.59869910E+00  7.59869910E+00 -1.51973982E+01  7.59869910E+00
  7.59869910E+00 -1.51973982E+01  7.59869910E+00  7.59869910E+00 -1.51973982E+01
  7.59869910E+00  7.59869910E+00 -1.51973982E+01  7.59869910E+00  7.59869910E+00
 -1.51973982E+01  7.59869910E+00  7.59869910E+00 -1.51973982E+01  7.59869910E+00
  7.59869910E+00 -1.51973982E+01  7.59869910E+00  7.59869910E+00 -1.51973982E+01
  7.59869910E+00  7.59869910E+00 -1.51973982E+01  7.59869910E+00  7.59869910E+00
 -1.51973982E+01  7.59869910E+00  7.59869910E+00 -1.51973982E+01  7.59869910E+00
  7.59869910E+00 -1.51973982E+01  7.59869910E+00  7.59869910E+00 -1.51973982E+01
  7.59869910E+00  7.59869910E+00 -1.51973982E+01  7.59869910E+00  7.59869910E+00
 -1.51973982E+01  7.59869910E+00  7.59869910E+00 -1.51973982E+01  7.59869910E+00
  7.59869910E+00 -1.51973982E+01  7.59869910E+00  7.59869910E+00 -1.51973982E+01
  7.59869910E+00  7.59869910E+00 -1.51973982E+01  7.59869910E+00  7.59869910E+00
 -1.51973982E+01  7.59869910E+00  7.59869910E+00 -1.51973982E+01  7.59869910E+00
  7.59869910E+00 -1.51973982E+01  7.59869910E+00  7.59869910E+00 -1.51973982E+01
  7.59869910E+00  7.59869910E+00 -1.51973982E+01  7.59869910E+00  7.59869910E+00
 -1.51973982E+01  7.59869910E+00  7.59869910E+00 -1.51973982E+01  7.59869910E+00
  7.59869910E+00 -1.51973982E+01  7.59869910E+00  7.59869910E+00 -1.51973982E+01
  7.59869910E+00  7.59869910E+00 -1.51973982E+01  7.59869910E+00  7.59869910E+00
 -1.51973982E+01  7.59869910E+00  7.59869910E+00 -1.51973982E+01  7.59869910E+00
  7.59869910E+00 -1.51973982E+01  7.59869910E+00  7.59869910E+00 -1.51973982E+01
  7.59869910E+00  7.59869910E+00 -1.51973982E+01  7.59869910E+00  7.59869910E+00
 -1.51973982E+01  7.59869910E+00  7.59869910E+00 -1.51973982E+01  7.59869910E+00
  7.59869910E+00 -1.51973982E+01  7.59869910E+00  7.59869910E+00 -1.51973982E+01
  7.59869910E+00  7.59869910E+00 -1.51973982E+01  7.59869910E+00  7.59869910E+00
 -1.51973982E+01  7.59869910E+00  7.59869910E+00 -1.51973982E+01  7.59869910E+00
  7.59869910E+00 -1.51973982E+01  7.59869910E+00  7.59869910E+00 -1.51973982E+01
  7.59869910E+00  7.59869910E+00 -1.51973982E+01  7.59869910E+00  7.59869910E+00
 -1.51973982E+01  7.59869910E+00  7.59869910E+00 -1.51973982E+01  7.59869910E+00
  7.59869910E+00 -1.51973982E+01  7.59869910E+00  7.59869910E+00 -1.51973982E+01
  7.59869910E+00  7.59869910E+00 -1.51973982E+01  7.59869910E+00  7.59869910E+00
 -1.51973982E+01  7.59869910E+00  7.59869910E+00 -1.51973982E+01  7.59869910E+00
  7.59869910E+00 -1.51973982E+01  7.59869910E+00  7.59869910E+00 -1.51973982E+01
  7.59869910E+00  7.59869910E+00 -1.51973982E+01  7.59869910E+00  7.59869910E+00
 -1.51973982E+01  7.59869910E+00  7.59869910E+00 -1.51973982E+01  7.59869910E+00
  7.59869910E+00 -1.51973982E+01  7.59869910E+00  7.59869910E+00 -1.51973982E+01
  7.59869910E+00  7.59869910E+00 -1.51973982E+01  7.59869910E+00  7.59869910E+00
 -1.51973982E+01  7.59869910E+00  7.59869910E+00 -1.51973982E+01  7.59869910E+00
  7.59869910E+00 -1.51973982E+01  7.59869910E+00  7.59869910E+00 -1.51973982E+01
  7.59869910E+00  7.59869910E+00 -1.51973982E+01  7.59869910E+00  7.59869910E+00
 -1.51973982E+01  7.59869910E+00  7.59869910E+00 -1.51973982E+01  7.59869910E+00
  7.59869910E+00 -1.51973982E+01  7.59869910E+00  7.59869910E+00 -1.51973982E+01
  7.59869910E+00  7.59869910E+00 -1.51973982E+01  7.59869910E+00  7.59869910E+00
 -1.51973982E+01  7.59869910E+00  7.59869910E+00 -1.51973982E+01  7.59869910E+00
  7.59869910E+00 -1.51973982E+01  7.59869910E+00  7.59869910E+00 -1.51973982E+01
  7.59869910E+00  7.59869910E+00 -1.51973982E+01  7.59869910E+00  7.59869910E+00
 -1.51973982E+01  7.59869910E+00  7.59869910E+00 -1.51973982E+01  7.59869910E+00
  7.59869910E+00 -1.51973982E+01  7.59869910E+00  7.59869910E+00 -1.51973982E+01
  7.59869910E+00  7.59869910E+00 -1.51973982E+01  7.59869910E+00  7.59869910E+00
 -1.51973982E+01  7.59869910E+00  7.59869910E+00 -1.51973982E+01  7.59869910E+00
  7.59869910E+00 -1.51973982E+01  7.59869910E+00  7.59869910E+00 -1.51973982E+01
  7.59869910E+00  7.59869910E+00 -1.51973982E+01  7.59869910E+00  7.59869910E+00
 -1.51973982E+01  7.59869910E+00  7.59869910E+00 -1.51973982E+01  7.59869910E+00
  7.59869910E+00 -1.51973982E+01  7.59869910E+00  7.59869910E+00 -1.51973982E+01
  7.59869910E+00  7.59869910E+00 -1.51973982E+01  7.59869910E+00  7.59869910E+00
 -1.51973982E+01  7.59869910E+00  7.59869910E+00 -1.51973982E+01  7.59869910E+00
  7.59869910E+00 -1.51973982E+01  7.59869910E+00  7.59869910E+00 -1.51973982E+01
  7.59869910E+00  7.59869910E+00 -1.51973982E+01  7.59869910E+00  7.59869910E+00
 -1.51973982E+01  7.59869910E+00  7.59869910E+00 -1.51973982E+01  7.59869910E+00
  7.59869910E+00 -1.51973982E+01  7.59869910E+00  7.59869910E+00 -1.51973982E+01
  7.59869910E+00  7.59869910E+00 -1.51973982E+01  7.59869910E+00  7.59869910E+00
 -1.51973982E+01  7.59869910E+00  7.59869910E+00 -1.51973982E+01  7.59869910E+00
  7.59869910E+00 -1.51973982E+01  7.59869910E+00  7.59869910E+00 -1.51973982E+01
  7.59869910E+00  7.59869910E+00 -1.51973982E+01  7.59869910E+00  7.59869910E+00
 -1.51973982E+01  7.59869910E+00  7.59869910E+00 -1.51973982E+01  7.59869910E+00
  7.59869910E+00 -1.51973982E+01  7.59869910E+00  7.59869910E+00 -1.51973982E+01
  7.59869910E+00  7.59869910E+00 -1.51973982E+01  7.59869910E+00  7.59869910E+00
 -1.51973982E+01  7.59869910E+00  7.59869910E+00 -1.51973982E+01  7.59869910E+00
  7.59869910E+00 -1.51973982E+01  7.59869910E+00  7.59869910E+00 -1.51973982E+01
  7.59869910E+00  7.59869910E+00 -1.51973982E+01  7.59869910E+00  7.59869910E+00
 -1.51973982E+01  7.59869910E+00  7.59869910E+00 -1.51973982E+01  7.59869910E+00
  7.59869910E+00 -1.51973982E+01  7.59869910E+00  7.59869910E+00 -1.51973982E+01
  7.59869910E+00  7.59869910E+00 -1.51973982E+01  7.59869910E+00  7.59869910E+00
 -1.51973982E+01  7.59869910E+00  7.59869910E+00 -1.51973982E+01  7.59869910E+00
  7.59869910E+00 -1.51973982E+01  7.59869910E+00  7.59869910E+00 -1.51973982E+01
  7.59869910E+00  7.59869910E+00 -1.51973982E+01  7.59869910E+00  7.59869910E+00
 -1.51973982E+01  7.59869910E+00  7.59869910E+00 -1.51973982E+01  7.59869910E+00
  7.59869910E+00 -1.51973982E+01  7.59869910E+00  7.59869910E+00 -1.51973982E+01
  7.59869910E+00  7.59869910E+00 -1.51973982E+01  7.59869910E+00  7.59869910E+00
 -1.51973982E+01  7.59869910E+00  7.59869910E+00 -1.51973982E+01  7.59869910E+00
  7.59869910E+00 -1.51973982E+01  7.59869910E+00  7.59869910E+00 -1.51973982E+01
  7.59869910E+00  7.59869910E+00 -1.51973982E+01  7.59869910E+00  7.59869910E+00
 -1.51973982E+01  7.59869910E+00  7.59869910E+00 -1.51973982E+01  7.59869910E+00
  7.59869910E+00 -1.51973982E+01  7.59869910E+00  7.59869910E+00 -1.51973982E+01
  7.59869910E+00  7.59869910E+00 -1.51973982E+01  7.59869910E+00  7.59869910E+00
 -1.51973982E+01  7.59869910E+00  7.59869910E+00 -1.51973982E+01  7.59869910E+00
  7.59869910E+00 -1.51973982E+01  7.59869910E+00  7.59869910E+00 -1.51973982E+01
  7.59869910E+00  7.59869910E+00 -1.51973982E+01  7.59869910E+00  7.59869910E+00
 -1.51973982E+01  7.59869910E+00  7.59869910E+00 -1.51973982E+01  7.59869910E+00
  7.59869910E+00 -1.51973982E+01  7.59869910E+00  7.59869910E+00 -1.51973982E+01
  7.59869910E+00  7.59869910E+00 -1.51973982E+01  7.59869910E+00  7.59869910E+00
 -1.51973982E+01  7.59869910E+00  7.59869910E+00 -1.51973982E+01  7.59869910E+00
  7.59869910E+00 -1.51973982E+01  7.59869910E+00  7.59869910E+00 -1.51973982E+01
  7.59869910E+00  7.59869910E+00 -1.51973982E+01  7.59869910E+00  7.59869910E+00
 -1.51973982E+01  7.59869910E+00  7.59869910E+00 -1.51973982E+01  7.59869910E+00
  7.59869910E+00 -1.51973982E+01  7.59869910E+00  7.59869910E+00 -1.51973982E+01
  7.59869910E+00  7.59869910E+00 -1.51973982E+01  7.59869910E+00  7.59869910E+00
 -1.51973982E+01  7.59869910E+00  7.59869910E+00 -1.51973982E+01  7.59869910E+00
  7.59869910E+00 -1.51973982E+01  7.59869910E+00  7.59869910E+00 -1.51973982E+01
  7.59869910E+00  7.59869910E+00 -1.51973982E+01  7.59869910E+00  7.59869910E+00
 -1.51973982E+01  7.59869910E+00  7.59869910E+00 -1.51973982E+01  7.59869910E+00
  7.59869910E+00 -1.51973982E+01  7.59869910E+00  7.59869910E+00 -1.51973982E+01
  7.59869910E+00  7.59869910E+00 -1.51973982E+01  7.59869910E+00  7.59869910E+00
 -1.51973982E+01  7.59869910E+00  7.59869910E+00 -1.51973982E+01  7.59869910E+00
  7.59869910E+00 -1.51973982E+01  7.59869910E+00  7.59869910E+00 -1.51973982E+01
  7.59869910E+00  7.59869910E+00 -1.51973982E+01  7.59869910E+00  7.59869910E+00
 -1.51973982E+01  7.59869910E+00  7.59869910E+00 -1.51973982E+01  7.59869910E+00
  7.59869910E+00 -1.51973982E+01  7.59869910E+00  7.59869910E+00 -1.51973982E+01
  7.59869910E+00  7.59869910E+00 -1.51973982E+01  7.59869910E+00  7.59869910E+00
 -1.51973982E+01  7.59869910E+00  7.59869910E+00 -1.51973982E+01  7.59869910E+00
  7.59869910E+00 -1.51973982E+01  7.59869910E+00  7.59869910E+00 -1.51973982E+01
  7.59869910E+00  7.59869910E+00 -1.51973982E+01  7.59869910E+00  7.59869910E+00
 -1.51973982E+01  7.59869910E+00  7.59869910E+00 -1.51973982E+01  7.59869910E+00
  7.59869910E+00 -1.51973982E+01  7.59869910E+00  7.59869910E+00 -1.51973982E+01
  7.59869910E+00  7.59869910E+00 -1.51973982E+01  7.59869910E+00  7.59869910E+00
 -1.51973982E+01  7.59869910E+00  7.59869910E+00 -1.51973982E+01  7.59869910E+00
  7.59869910E+00 -1.51973982E+01  7.59869910E+00  7.59869910E+00 -1.51973982E+01
  7.59869910E+00  7.59869910E+00 -1.51973982E+01  7.59869910E+00  7.59869910E+00
 -1.51973982E+01  7.59869910E+00  7.59869910E+00 -1.51973982E+01  7.59869910E+00
  7.59869910E+00 -1.51973982E+01  7.59869910E+00  7.59869910E+00 -1.51973982E+01
  7.59869910E+00  7.59869910E+00 -1.51973982E+01  7.59869910E+00  7.59869910E+00
 -1.51973982E+01  7.59869910E+00  7.59869910E+00 -1.51973982E+01  7.59869910E+00
  7.59869910E+00 -1.51973982E+01  7.59869910E+00  7.59869910E+00 -1.51973982E+01
  7.59869910E+00  7.59869910E+00 -1.51973982E+01  7.59869910E+00  7.59869910E+00
 -1.51973982E+01  7.59869910E+00  7.59869910E+00 -1.51973982E+01  7.59869910E+00
  7.59869910E+00 -1.51973982E+01  7.59869910E+00  7.59869910E+00 -1.51973982E+01
  7.59869910E+00  7.59869910E+00 -1.51973982E+01  7.59869910E+00  7.59869910E+00
 -1.51973982E+01  7.59869910E+00  7.59869910E+00 -1.51973982E+01  7.59869910E+00
  7.59869910E+00 -1.51973982E+01  7.59869910E+00  7.59869910E+00 -1.51973982E+01
  7.59869910E+00  7.59869910E+00 -1.51973982E+01  7.59869910E+00  7.59869910E+00
 -1.51973982E+01  7.59869910E+00  7.59869910E+00 -1.51973982E+01  7.59869910E+00
  7.59869910E+00 -1.51973982E+01  7.59869910E+00  7.59869910E+00 -1.51973982E+01
  7.59869910E+00  7.59869910E+00 -1.51973982E+01  7.59869910E+00  7.59869910E+00
 -1.51973982E+01  7.59869910E+00  7.59869910E+00 -1.51973982E+01  7.59869910E+00
  7.59869910E+00 -1.51973982E+01  7.59869910E+00  7.59869910E+00 -1.51973982E+01
  7.59869910E+00  7.59869910E+00 -1.51973982E+01  7.59869910E+00  7.59869910E+00
 -1.51973982E+01  7.59869910E+00  7.59869910E+00 -1.51973982E+01  7.59869910E+00
  7.59869910E+00 -1.51973982E+01  7.59869910E+00  7.59869910E+00 -1.51973982E+01
  7.59869910E+00  7.59869910E+00 -1.51973982E+01  7.59869910E+00  7.59869910E+00
 -1.51973982E+01  7.59869910E+00  7.59869910E+00 -1.51973982E+01  7.59869910E+00
  7.59869910E+00 -1.51973982E+01  7.59869910E+00  7.59869910E+00 -1.51973982E+01
  7.59869910E+00  7.59869910E+00 -1.51973982E+01  7.59869910E+00  7.59869910E+00
 -1.51973982E+01  7.59869910E+00  7.59869910E+00 -1.51973982E+01  7.59869910E+00
  7.59869910E+00 -1.51973982E+01  7.59869910E+00  7.59869910E+00 -1.51973982E+01
  7.59869910E+00  7.59869910E+00 -1.51973982E+01  7.59869910E+00  7.59869910E+00
 -1.51973982E+01  7.59869910E+00  7.59869910E+00 -1.51973982E+01  7.59869910E+00
  7.59869910E+00 -1.51973982E+01  7.59869910E+00  7.59869910E+00 -1.51973982E+01
  7.59869910E+00  7.59869910E+00 -1.51973982E+01  7.59869910E+00  7.59869910E+00
 -1.51973982E+01  7.59869910E+00  7.59869910E+00 -1.51973982E+01  7.59869910E+00
  7.59869910E+00 -1.51973982E+01  7.59869910E+00  7.59869910E+00 -1.51973982E+01
  7.59869910E+00  7.59869910E+00 -1.51973982E+01  7.59869910E+00  7.59869910E+00
 -1.51973982E+01  7.59869910E+00  7.59869910E+00 -1.51973982E+01  7.59869910E+00
  7.59869910E+00 -1.51973982E+01  7.59869910E+00  7.59869910E+00 -1.51973982E+01
  7.59869910E+00  7.59869910E+00 -1.51973982E+01  7.59869910E+00  7.59869910E+00
 -1.51973982E+01  7.59869910E+00  7.59869910E+00 -1.51973982E+01  7.59869910E+00
  7.59869910E+00 -1.51973982E+01  7.59869910E+00  7.59869910E+00 -1.51973982E+01
  7.59869910E+00  7.59869910E+00 -1.51973982E+01  7.59869910E+00  7.59869910E+00
 -1.51973982E+01  7.59869910E+00  7.59869910E+00 -1.51973982E+01  7.59869910E+00
  7.59869910E+00 -1.51973982E+01  7.59869910E+00  7.59869910E+00 -1.51973982E+01
  7.59869910E+00  7.59869910E+00 -1.51973982E+01  7.59869910E+00  7.59869910E+00
 -1.51973982E+01  7.59869910E+00  7.59869910E+00 -1.51973982E+01  7.59869910E+00
  7.59869910E+00 -1.51973982E+01  7.59869910E+00  7.59869910E+00 -1.51973982E+01
  7.59869910E+00  7.59869910E+00 -1.51973982E+01  7.59869910E+00  7.59869910E+00
 -1.51973982E+01  7.59869910E+00  7.59869910E+00 -1.51973982E+01  7.59869910E+00
  7.59869910E+00 -1.51973982E+01  7.59869910E+00  7.59869910E+00 -1.51973982E+01
  7.59869910E+00  7.59869910E+00 -1.51973982E+01  7.59869910E+00  7.59869910E+00
 -1.51973982E+01  7.59869910E+00  7.59869910E+00 -1.51973982E+01  7.59869910E+00
  7.59869910E+00 -1.51973982E+01  7.59869910E+00  7.59869910E+00 -1.51973982E+01
  7.59869910E+00  7.59869910E+00 -1.51973982E+01  7.59869910E+00  7.59869910E+00
 -1.51973982E+01  7.59869910E+00  7.59869910E+00 -1.51973982E+01  7.59869910E+00
  7.59869910E+00 -1.51973982E+01  7.59869910E+00  7.59869910E+00 -1.51973982E+01
  7.59869910E+00  7.59869910E+00 -1.51973982E+01  7.59869910E+00  7.59869910E+00
 -1.51973982E+01  7.59869910E+00  7.59869910E+00 -1.51973982E+01  7.59869910E+00
  7.59869910E+00 -1.51973982E+01  7.59869910E+00  7.59869910E+00 -1.51973982E+01
  7.59869910E+00  7.59869910E+00 -1.51973982E+01  7.59869910E+00  7.59869910E+00
 -1.51973982E+01  7.59869910E+00  7.59869910E+00 -1.51973982E+01  7.59869910E+00
  7.59869910E+00 -1.51973982E+01  7.59869910E+00  7.59869910E+00 -1.51973982E+01
  7.59869910E+00  7.59869910E+00 -1.51973982E+01  7.59869910E+00  7.59869910E+00
 -1.51973982E+01  7.59869910E+00  7.59869910E+00 -1.51973982E+01  7.59869910E+00
  7.59869910E+00 -1.51973982E+01  7.59869910E+00  7.59869910E+00 -1.51973982E+01
  7.59869910E+00  7.59869910E+00 -1.51973982E+01  7.59869910E+00  7.59869910E+00
 -1.51973982E+01  7.59869910E+00  7.59869910E+00 -1.51973982E+01  7.59869910E+00
  7.59869910E+00 -1.51973982E+01  7.59869910E+00  7.59869910E+00 -1.51973982E+01
  7.59869910E+00  7.59869910E+00 -1.51973982E+01  7.59869910E+00  7.59869910E+00
 -1.51973982E+01  7.59869910E+00  7.59869910E+00 -1.51973982E+01  7.59869910E+00
  7.59869910E+00 -1.51973982E+01  7.59869910E+00  7.59869910E+00 -1.51973982E+01
  7.59869910E+00  7.59869910E+00 -1.51973982E+01  7.59869910E+00  7.59869910E+00
 -1.51973982E+01  7.59869910E+00  7.59869910E+00 -1.51973982E+01  7.59869910E+00
  7.59869910E+00 -1.51973982E+01  7.59869910E+00  7.59869910E+00 -1.51973982E+01
  7.59869910E+00  7.59869910E+00 -1.51973982E+01  7.59869910E+00  7.59869910E+00
 -1.51973982E+01  7.59869910E+00  7.59869910E+00 -1.51973982E+01  7.59869910E+00
  7.59869910E+00 -1.51973982E+01  7.59869910E+00  7.59869910E+00 -1.51973982E+01
  7.59869910E+00  7.59869910E+00 -1.51973982E+01  7.59869910E+00  7.59869910E+00
 -1.51973982E+01  7.59869910E+00  7.59869910E+00 -1.51973982E+01  7.59869910E+00
  7.59869910E+00 -1.51973982E+01  7.59869910E+00  7.59869910E+00 -1.51973982E+01
  7.59869910E+00  7.59869910E+00 -1.51973982E+01  7.59869910E+00  7.59869910E+00
 -1.51973982E+01  7.59869910E+00  7.59869910E+00 -1.51973982E+01  7.59869910E+00
  7.59869910E+00 -1.51973982E+01  7.59869910E+00  7.59869910E+00 -1.51973982E+01
  7.59869910E+00  7.59869910E+00 -1.51973982E+01  7.59869910E+00  7.59869910E+00
 -1.51973982E+01  7.59869910E+00  7.59869910E+00 -1.51973982E+01  7.59869910E+00
  7.59869910E+00 -1.51973982E+01  7.59869910E+00  7.59869910E+00 -1.51973982E+01
  7.59869910E+00  7.59869910E+00 -1.51973982E+01  7.59869910E+00  7.59869910E+00
 -1.51973982E+01  7.59869910E+00  7.59869910E+00 -1.51973982E+01  7.59869910E+00
  7.59869910E+00 -1.51973982E+01  7.59869910E+00  7.59869910E+00 -1.51973982E+01
  7.59869910E+00  7.59869910E+00 -1.51973982E+01  7.59869910E+00  7.59869910E+00
 -1.51973982E+01  7.59869910E+00  7.59869910E+00 -1.51973982E+01  7.59869910E+00
  7.59869910E+00 -1.51973982E+01  7.59869910E+00  7.59869910E+00 -1.51973982E+01
  7.59869910E+00  7.59869910E+00 -1.51973982E+01  7.59869910E+00  7.59869910E+00
 -1.51973982E+01  7.59869910E+00  7.59869910E+00 -1.51973982E+01  7.59869910E+00
  7.59869910E+00 -1.51973982E+01  7.59869910E+00  7.59869910E+00 -1.51973982E+01
  7.59869910E+00  7.59869910E+00 -1.51973982E+01  7.59869910E+00  7.59869910E+00
 -1.51973982E+01  7.59869910E+00  7.59869910E+00 -1.51973982E+01  7.59869910E+00
  7.59869910E+00 -1.51973982E+01  7.59869910E+00  7.59869910E+00 -1.51973982E+01
  7.59869910E+00  7.59869910E+00 -1.51973982E+01  7.59869910E+00  7.59869910E+00
 -1.51973982E+01  7.59869910E+00  7.59869910E+00 -1.51973982E+01  7.59869910E+00
  7.59869910E+00 -1.51973982E+01  7.59869910E+00  7.59869910E+00 -1.51973982E+01
  7.59869910E+00  7.59869910E+00 -1.51973982E+01  7.59869910E+00  7.59869910E+00
 -1.51973982E+01  7.59869910E+00  7.59869910E+00 -1.51973982E+01  7.59869910E+00
  7.59869910E+00 -1.51973982E+01  7.59869910E+00  7.59869910E+00 -1.51973982E+01
  7.59869910E+00  7.59869910E+00 -1.51973982E+01  7.59869910E+00  7.59869910E+00
 -1.51973982E+01  7.59869910E+00  7.59869910E+00 -1.51973982E+01  7.59869910E+00
  7.59869910E+00 -1.51973982E+01  7.59869910E+00  7.59869910E+00 -1.51973982E+01
  7.59869910E+00  7.59869910E+00 -1.51973982E+01  7.59869910E+00  7.59869910E+00
 -1.51973982E+01  7.59869910E+00  7.59869910E+00 -1.51973982E+01  7.59869910E+00
  7.59869910E+00 -1.51973982E+01  7.59869910E+00  7.59869910E+00 -1.51973982E+01
  7.59869910E+00  7.59869910E+00 -1.51973982E+01  7.59869910E+00  7.59869910E+00
 -1.51973982E+01  7.59869910E+00  7.59869910E+00 -1.51973982E+01  7.59869910E+00
  7.59869910E+00 -1.51973982E+01  7.59869910E+00  7.59869910E+00 -1.51973982E+01
  7.59869910E+00  7.59869910E+00 -1.51973982E+01  7.59869910E+00  7.59869910E+00
 -1.51973982E+01  7.59869910E+00  7.59869910E+00 -1.51973982E+01  7.59869910E+00
  7.59869910E+00 -1.51973982E+01  7.59869910E+00  7.59869910E+00 -1.51973982E+01
  7.59869910E+00  7.59869910E+00 -1.51973982E+01  7.59869910E+00  7.59869910E+00
 -1.51973982E+01  7.59869910E+00  7.59869910E+00 -1.51973982E+01  7.59869910E+00
  7.59869910E+00 -1.51973982E+01  7.59869910E+00  7.59869910E+00 -1.51973982E+01
  7.59869910E+00  7.59869910E+00 -1.51973982E+01  7.59869910E+00  7.59869910E+00
 -1.51973982E+01  7.59869910E+00  7.59869910E+00 -1.51973982E+01  7.59869910E+00
  7.59869910E+00 -1.51973982E+01  7.59869910E+00  7.59869910E+00 -1.51973982E+01
  7.59869910E+00  7.59869910E+00 -1.51973982E+01  7.59869910E+00  7.59869910E+00
 -1.51973982E+01  7.59869910E+00  7.59869910E+00 -1.51973982E+01  7.59869910E+00
  7.59869910E+00 -1.51973982E+01  7.59869910E+00  7.59869910E+00 -1.51973982E+01
  7.59869910E+00  7.59869910E+00 -1.51973982E+01  7.59869910E+00  7.59869910E+00
 -1.51973982E+01  7.59869910E+00  7.59869910E+00 -1.51973982E+01  7.59869910E+00
  7.59869910E+00 -1.51973982E+01  7.59869910E+00  7.59869910E+00 -1.51973982E+01
  7.59869910E+00  7.59869910E+00 -1.51973982E+01  7.59869910E+00  7.59869910E+00
 -1.51973982E+01  7.59869910E+00  7.59869910E+00 -1.51973982E+01  7.59869910E+00
  7.59869910E+00 -1.51973982E+01  7.59869910E+00  7.59869910E+00 -1.51973982E+01
  7.59869910E+00  7.59869910E+00 -1.51973982E+01  7.59869910E+00  7.59869910E+00
 -1.51973982E+01  7.59869910E+00  7.59869910E+00 -1.51973982E+01  7.59869910E+00
  7.59869910E+00 -1.51973982E+01  7.59869910E+00  7.59869910E+00 -1.51973982E+01
  7.59869910E+00  7.59869910E+00 -1.51973982E+01  7.59869910E+00  7.59869910E+00
 -1.51973982E+01  7.59869910E+00  7.59869910E+00 -1.51973982E+01  7.59869910E+00
  7.59869910E+00 -1.51973982E+01  7.59869910E+00  7.59869910E+00 -1.51973982E+01
  7.59869910E+00  7.59869910E+00 -1.51973982E+01  7.59869910E+00  7.59869910E+00
 -1.51973982E+01  7.59869910E+00  7.59869910E+00 -1.51973982E+01  7.59869910E+00
  7.59869910E+00 -1.51973982E+01  7.59869910E+00  7.59869910E+00 -1.51973982E+01
  7.59869910E+00  7.59869910E+00 -1.51973982E+01  7.59869910E+00  7.59869910E+00
 -1.51973982E+01  7.59869910E+00  7.59869910E+00 -1.51973982E+01  7.59869910E+00
  7.59869910E+00 -1.51973982E+01  7.59869910E+00  7.59869910E+00 -1.51973982E+01
  7.59869910E+00  7.59869910E+00 -1.51973982E+01  7.59869910E+00  7.59869910E+00
 -1.51973982E+01  7.59869910E+00  7.59869910E+00 -1.51973982E+01  7.59869910E+00
  7.59869910E+00 -1.51973982E+01  7.59869910E+00  7.59869910E+00 -1.51973982E+01
  7.59869910E+00  7.59869910E+00 -1.51973982E+01  7.59869910E+00  7.59869910E+00
 -1.51973982E+01  7.59869910E+00  7.59869910E+00 -1.51973982E+01  7.59869910E+00
  7.59869910E+00 -1.51973982E+01  7.59869910E+00  7.59869910E+00 -1.51973982E+01
  7.59869910E+00  7.59869910E+00 -1.51973982E+01  7.59869910E+00  7.59869910E+00
 -1.51973982E+01  7.59869910E+00  7.59869910E+00 -1.51973982E+01  7.59869910E+00
  7.59869910E+00 -1.51973982E+01  7.59869910E+00  7.59869910E+00 -1.51973982E+01
  7.59869910E+00  7.59869910E+00 -1.51973982E+01  7.59869910E+00  7.59869910E+00
 -1.51973982E+01  7.59869910E+00  7.59869910E+00 -1.51973982E+01  7.59869910E+00
  7.59869910E+00 -1.51973982E+01  7.59869910E+00  7.59869910E+00 -1.51973982E+01
  7.59869910E+00  7.59869910E+00 -1.51973982E+01  7.59869910E+00  7.59869910E+00
 -1.51973982E+01  7.59869910E+00  7.59869910E+00 -1.51973982E+01  7.59869910E+00
  7.59869910E+00 -1.51973982E+01  7.59869910E+00  7.59869910E+00 -1.51973982E+01
  7.59869910E+00  7.59869910E+00 -1.51973982E+01  7.59869910E+00  7.59869910E+00
 -1.51973982E+01  7.59869910E+00  7.59869910E+00 -1.51973982E+01  7.59869910E+00
  7.59869910E+00 -1.51973982E+01  7.59869910E+00  7.59869910E+00 -1.51973982E+01
  7.59869910E+00  7.59869910E+00 -1.51973982E+01  7.59869910E+00  7.59869910E+00
 -1.51973982E+01  7.59869910E+00  7.59869910E+00 -1.51973982E+01  7.59869910E+00
  7.59869910E+00 -1.51973982E+01  7.59869910E+00  7.59869910E+00 -1.51973982E+01
  7.59869910E+00  7.59869910E+00 -1.51973982E+01  7.59869910E+00  7.59869910E+00
 -1.51973982E+01  7.59869910E+00  7.59869910E+00 -1.51973982E+01  7.59869910E+00
  7.59869910E+00 -1.51973982E+01  7.59869910E+00  7.59869910E+00 -1.51973982E+01
  7.59869910E+00  7.59869910E+00 -1.51973982E+01  7.59869910E+00  7.59869910E+00
 -1.51973982E+01  7.59869910E+00  7.59869910E+00 -1.51973982E+01  7.59869910E+00
  7.59869910E+00 -1.51973982E+01  7.59869910E+00  7.59869910E+00 -1.51973982E+01
  7.59869910E+00  7.59869910E+00 -1.51973982E+01  7.59869910E+00  7.59869910E+00
 -1.51973982E+01  7.59869910E+00  7.59869910E+00 -1.51973982E+01  7.59869910E+00
  7.59869910E+00 -1.51973982E+01  7.59869910E+00  7.59869910E+00 -1.51973982E+01
  7.59869910E+00  7.59869910E+00 -1.51973982E+01  7.59869910E+00  7.59869910E+00
 -1.51973982E+01  7.59869910E+00  7.59869910E+00 -1.51973982E+01  7.59869910E+00
  7.59869910E+00 -1.51973982E+01  7.59869910E+00  7.59869910E+00 -1.51973982E+01
  7.59869910E+00  7.59869910E+00 -1.51973982E+01  7.59869910E+00  7.59869910E+00
 -1.51973982E+01  7.59869910E+00  7.59869910E+00 -1.51973982E+01  7.59869910E+00
  7.59869910E+00 -1.51973982E+01  7.59869910E+00  7.59869910E+00 -1.51973982E+01
  7.59869910E+00  7.59869910E+00 -1.51973982E+01  7.59869910E+00  7.59869910E+00
 -1.51973982E+01  7.59869910E+00  7.59869910E+00 -1.51973982E+01  7.59869910E+00
  7.59869910E+00 -1.51973982E+01  7.59869910E+00  7.59869910E+00 -1.51973982E+01
  7.59869910E+00  7.59869910E+00 -1.51973982E+01  7.59869910E+00  7.59869910E+00
 -1.51973982E+01  7.59869910E+00  7.59869910E+00 -1.51973982E+01  7.59869910E+00
  7.59869910E+00 -1.51973982E+01  7.59869910E+00  7.59869910E+00 -1.51973982E+01
  7.59869910E+00  7.59869910E+00 -1.51973982E+01  7.59869910E+00  7.59869910E+00
 -1.51973982E+01  7.59869910E+00  7.59869910E+00 -1.51973982E+01  7.59869910E+00
  7.59869910E+00 -1.51973982E+01  7.59869910E+00  7.59869910E+00 -1.51973982E+01
  7.59869910E+00  7.59869910E+00 -1.51973982E+01  7.59869910E+00  7.59869910E+00
 -1.51973982E+01  7.59869910E+00  7.59869910E+00 -1.51973982E+01  7.59869910E+00
  7.59869910E+00 -1.51973982E+01  7.59869910E+00  7.59869910E+00 -1.51973982E+01
  7.59869910E+00  7.59869910E+00 -1.51973982E+01  7.59869910E+00  7.59869910E+00
 -1.51973982E+01  7.59869910E+00  7.59869910E+00 -1.51973982E+01  7.59869910E+00
  7.59869910E+00 -1.51973982E+01  7.59869910E+00  7.59869910E+00 -1.51973982E+01
  7.59869910E+00  7.59869910E+00 -1.51973982E+01  7.59869910E+00  7.59869910E+00
 -1.51973982E+01  7.59869910E+00  7.59869910E+00 -1.51973982E+01  7.59869910E+00
  7.59869910E+00 -1.51973982E+01  7.59869910E+00  7.59869910E+00 -1.51973982E+01
  7.59869910E+00  7.59869910E+00 -1.51973982E+01  7.59869910E+00  7.59869910E+00
 -1.51973982E+01  7.59869910E+00  7.59869910E+00 -1.51973982E+01  7.59869910E+00
  7.59869910E+00 -1.51973982E+01  7.59869910E+00  7.59869910E+00 -1.51973982E+01
  7.59869910E+00  7.59869910E+00 -1.51973982E+01  7.59869910E+00  7.59869910E+00
 -1.51973982E+01  7.59869910E+00  7.59869910E+00 -1.51973982E+01  7.59869910E+00
  7.59869910E+00 -1.51973982E+01  7.59869910E+00  7.59869910E+00 -1.51973982E+01
  7.59869910E+00  7.59869910E+00 -1.51973982E+01  7.59869910E+00  7.59869910E+00
 -1.51973982E+01  7.59869910E+00  7.59869910E+00 -1.51973982E+01  7.59869910E+00
  7.59869910E+00 -1.51973982E+01  7.59869910E+00  7.59869910E+00 -1.51973982E+01
  7.59869910E+00  7.59869910E+00 -1.51973982E+01  7.59869910E+00  7.59869910E+00
 -1.51973982E+01  7.59869910E+00  7.59869910E+00 -1.51973982E+01  7.59869910E+00
  7.59869910E+00 -1.51973982E+01  7.59869910E+00  7.59869910E+00 -1.51973982E+01
  7.59869910E+00  7.59869910E+00 -1.51973982E+01  7.59869910E+00  7.59869910E+00
 -1.51973982E+01  7.59869910E+00  7.59869910E+00 -1.51973982E+01  7.59869910E+00
  7.59869910E+00 -1.51973982E+01  7.59869910E+00  7.59869910E+00 -1.51973982E+01
  7.59869910E+00  7.59869910E+00 -1.51973982E+01  7.59869910E+00  7.59869910E+00
 -1.51973982E+01  7.59869910E+00  7.59869910E+00 -1.51973982E+01  7.59869910E+00
  7.59869910E+00 -1.51973982E+01  7.59869910E+00  7.59869910E+00 -1.51973982E+01
  7.59869910E+00  7.59869910E+00 -1.51973982E+01  7.59869910E+00  7.59869910E+00
 -1.51973982E+01  7.59869910E+00  7.59869910E+00 -1.51973982E+01  7.59869910E+00
  7.59869910E+00 -1.51973982E+01  7.59869910E+00  7.59869910E+00 -1.51973982E+01
  7.59869910E+00  7.59869910E+00 -1.51973982E+01  7.59869910E+00  7.59869910E+00
 -1.51973982E+01  7.59869910E+00  7.59869910E+00 -1.51973982E+01  7.59869910E+00
  7.59869910E+00 -1.51973982E+01  7.59869910E+00  7.59869910E+00 -1.51973982E+01
  7.59869910E+00  7.59869910E+00 -1.51973982E+01  7.59869910E+00  7.59869910E+00
 -1.51973982E+01  7.59869910E+00  7.59869910E+00 -1.51973982E+01  7.59869910E+00
  7.59869910E+00 -1.51973982E+01  7.59869910E+00  7.59869910E+00 -1.51973982E+01
  7.59869910E+00  7.59869910E+00 -1.51973982E+01  7.59869910E+00  7.59869910E+00
 -1.51973982E+01  7.59869910E+00  7.59869910E+00 -1.51973982E+01  7.59869910E+00
  7.59869910E+00 -1.51973982E+01  7.59869910E+00  7.59869910E+00 -1.51973982E+01
  7.59869910E+00  7.59869910E+00 -1.51973982E+01  7.59869910E+00  7.59869910E+00
 -1.51973982E+01  7.59869910E+00  7.59869910E+00 -1.51973982E+01  7.59869910E+00
  7.59869910E+00 -1.51973982E+01  7.59869910E+00  7.59869910E+00 -1.51973982E+01
  7.59869910E+00  7.59869910E+00 -1.51973982E+01  7.59869910E+00  7.59869910E+00
 -1.51973982E+01  7.59869910E+00  7.59869910E+00 -1.51973982E+01  7.59869910E+00
  7.59869910E+00 -1.51973982E+01  7.59869910E+00  7.59869910E+00 -1.51973982E+01
  7.59869910E+00  7.59869910E+00 -1.51973982E+01  7.59869910E+00  7.59869910E+00
 -1.51973982E+01  7.59869910E+00  7.59869910E+00 -1.51973982E+01  7.59869910E+00
  7.59869910E+00 -1.51973982E+01  7.59869910E+00  7.59869910E+00 -1.51973982E+01
  7.59869910E+00  7.59869910E+00 -1.51973982E+01  7.59869910E+00  7.59869910E+00
 -1.51973982E+01  7.59869910E+00  7.59869910E+00 -1.51973982E+01  7.59869910E+00
  7.59869910E+00 -1.51973982E+01  7.59869910E+00  7.59869910E+00 -1.51973982E+01
  7.59869910E+00  7.59869910E+00 -1.51973982E+01  7.59869910E+00  7.59869910E+00
 -1.51973982E+01  7.59869910E+00  7.59869910E+00 -1.51973982E+01  7.59869910E+00
  7.59869910E+00 -1.51973982E+01  7.59869910E+00  7.59869910E+00 -1.51973982E+01
  7.59869910E+00  7.59869910E+00 -1.51973982E+01  7.59869910E+00  7.59869910E+00
 -1.51973982E+01  7.59869910E+00  7.59869910E+00 -1.51973982E+01  7.59869910E+00
  7.59869910E+00 -1.51973982E+01  7.59869910E+00  7.59869910E+00 -1.51973982E+01
  7.59869910E+00  7.59869910E+00 -1.51973982E+01  7.59869910E+00  7.59869910E+00
 -1.51973982E+01  7.59869910E+00  7.59869910E+00 -1.51973982E+01  7.59869910E+00
  7.59869910E+00 -1.51973982E+01  7.59869910E+00  7.59869910E+00 -1.51973982E+01
  7.59869910E+00  7.59869910E+00 -1.51973982E+01  7.59869910E+00  7.59869910E+00
 -1.51973982E+01  7.59869910E+00  7.59869910E+00 -1.51973982E+01  7.59869910E+00
  7.59869910E+00 -1.51973982E+01  7.59869910E+00  7.59869910E+00 -1.51973982E+01
  7.59869910E+00  7.59869910E+00 -1.51973982E+01  7.59869910E+00  7.59869910E+00
 -1.51973982E+01  7.59869910E+00  7.59869910E+00 -1.51973982E+01  7.59869910E+00
  7.59869910E+00 -1.51973982E+01  7.59869910E+00  7.59869910E+00 -1.51973982E+01
  7.59869910E+00  7.59869910E+00 -1.51973982E+01  7.59869910E+00  7.59869910E+00
 -1.51973982E+01  7.59869910E+00  7.59869910E+00 -1.51973982E+01  7.59869910E+00
  7.59869910E+00 -1.51973982E+01  7.59869910E+00  7.59869910E+00 -1.51973982E+01
  7.59869910E+00  7.59869910E+00 -1.51973982E+01  7.59869910E+00  7.59869910E+00
 -1.51973982E+01  7.59869910E+00  7.59869910E+00 -1.51973982E+01  7.59869910E+00
  7.59869910E+00 -1.51973982E+01  7.59869910E+00  7.59869910E+00 -1.51973982E+01
  7.59869910E+00  7.59869910E+00 -1.51973982E+01  7.59869910E+00  7.59869910E+00
 -1.51973982E+01  7.59869910E+00  7.59869910E+00 -1.51973982E+01  7.59869910E+00
  7.59869910E+00 -1.51973982E+01  7.59869910E+00  7.59869910E+00 -1.51973982E+01
  7.59869910E+00  7.59869910E+00 -1.51973982E+01  7.59869910E+00  7.59869910E+00
 -1.51973982E+01  7.59869910E+00  7.59869910E+00 -1.51973982E+01  7.59869910E+00
  7.59869910E+00 -1.51973982E+01  7.59869910E+00  7.59869910E+00 -1.51973982E+01
  7.59869910E+00  7.59869910E+00 -1.51973982E+01  7.59869910E+00  7.59869910E+00
 -1.51973982E+01  7.59869910E+00  7.59869910E+00 -1.51973982E+01  7.59869910E+00
  7.59869910E+00 -1.51973982E+01  7.59869910E+00  7.59869910E+00 -1.51973982E+01
  7.59869910E+00  7.59869910E+00 -1.51973982E+01  7.59869910E+00  7.59869910E+00
 -1.51973982E+01  7.59869910E+00  7.59869910E+00 -1.51973982E+01  7.59869910E+00
  7.59869910E+00 -1.51973982E+01  7.59869910E+00  7.59869910E+00 -1.51973982E+01
  7.59869910E+00  7.59869910E+00 -1.51973982E+01  7.59869910E+00  7.59869910E+00
 -1.51973982E+01  7.59869910E+00  7.59869910E+00 -1.51973982E+01  7.59869910E+00
  7.59869910E+00 -1.51973982E+01  7.59869910E+00  7.59869910E+00 -1.51973982E+01
  7.59869910E+00  7.59869910E+00 -1.51973982E+01  7.59869910E+00  7.59869910E+00
 -1.51973982E+01  7.59869910E+00  7.59869910E+00 -1.51973982E+01  7.59869910E+00
  7.59869910E+00 -1.51973982E+01  7.59869910E+00  7.59869910E+00 -1.51973982E+01
  7.59869910E+00  7.59869910E+00 -1.51973982E+01  7.59869910E+00  7.59869910E+00
 -1.51973982E+01  7.59869910E+00  7.59869910E+00 -1.51973982E+01  7.59869910E+00
  7.59869910E+00 -1.51973982E+01  7.59869910E+00  7.59869910E+00 -1.51973982E+01
  7.59869910E+00  7.59869910E+00 -1.51973982E+01  7.59869910E+00  7.59869910E+00
 -1.51973982E+01  7.59869910E+00  7.59869910E+00 -1.51973982E+01  7.59869910E+00
  7.59869910E+00 -1.51973982E+01  7.59869910E+00  7.59869910E+00 -1.51973982E+01
  7.59869910E+00  7.59869910E+00 -1.51973982E+01  7.59869910E+00  7.59869910E+00
 -1.51973982E+01  7.59869910E+00  7.59869910E+00 -1.51973982E+01  7.59869910E+00
  7.59869910E+00 -1.51973982E+01  7.59869910E+00  7.59869910E+00 -1.51973982E+01
  7.59869910E+00  7.59869910E+00 -1.51973982E+01  7.59869910E+00  7.59869910E+00
 -1.51973982E+01  7.59869910E+00  7.59869910E+00 -1.51973982E+01  7.59869910E+00
  7.59869910E+00 -1.51973982E+01  7.59869910E+00  7.59869910E+00 -1.51973982E+01
  7.59869910E+00  7.59869910E+00 -1.51973982E+01  7.59869910E+00  7.59869910E+00
 -1.51973982E+01  7.59869910E+00  7.59869910E+00 -1.51973982E+01  7.59869910E+00
  7.59869910E+00 -1.51973982E+01  7.59869910E+00  7.59869910E+00 -1.51973982E+01
  7.59869910E+00  7.59869910E+00 -1.51973982E+01  7.59869910E+00  7.59869910E+00
 -1.51973982E+01  7.59869910E+00  7.59869910E+00 -1.51973982E+01  7.59869910E+00
  7.59869910E+00 -1.51973982E+01  7.59869910E+00  7.59869910E+00 -1.51973982E+01
  7.59869910E+00  7.59869910E+00 -1.51973982E+01  7.59869910E+00  7.59869910E+00
 -1.51973982E+01  7.59869910E+00  7.59869910E+00 -1.51973982E+01  7.59869910E+00
  7.59869910E+00 -1.51973982E+01  7.59869910E+00  7.59869910E+00 -1.51973982E+01
  7.59869910E+00  7.59869910E+00 -1.51973982E+01  7.59869910E+00  7.59869910E+00
 -1.51973982E+01  7.59869910E+00  7.59869910E+00 -1.51973982E+01  7.59869910E+00
  7.59869910E+00 -1.51973982E+01  7.59869910E+00  7.59869910E+00 -1.51973982E+01
  7.59869910E+00  7.59869910E+00 -1.51973982E+01  7.59869910E+00  7.59869910E+00
 -1.51973982E+01  7.59869910E+00  7.59869910E+00 -1.51973982E+01  7.59869910E+00
  7.59869910E+00 -1.51973982E+01  7.59869910E+00  7.59869910E+00 -1.51973982E+01
  7.59869910E+00  7.59869910E+00 -1.51973982E+01  7.59869910E+00  7.59869910E+00
 -1.51973982E+01  7.59869910E+00  7.59869910E+00 -1.51973982E+01  7.59869910E+00
  7.59869910E+00 -1.51973982E+01  7.59869910E+00  7.59869910E+00 -1.51973982E+01
  7.59869910E+00  7.59869910E+00 -1.51973982E+01  7.59869910E+00  7.59869910E+00
 -1.51973982E+01  7.59869910E+00  7.59869910E+00 -1.51973982E+01  7.59869910E+00
  7.59869910E+00 -1.51973982E+01  7.59869910E+00  7.59869910E+00 -1.51973982E+01
  7.59869910E+00  7.59869910E+00 -1.51973982E+01  7.59869910E+00  7.59869910E+00
 -1.51973982E+01  7.59869910E+00  7.59869910E+00 -1.51973982E+01  7.59869910E+00
  7.59869910E+00 -1.51973982E+01  7.59869910E+00  7.59869910E+00 -1.51973982E+01
  7.59869910E+00  7.59869910E+00 -1.51973982E+01  7.59869910E+00  7.59869910E+00
 -1.51973982E+01  7.59869910E+00  7.59869910E+00 -1.51973982E+01  7.59869910E+00
  7.59869910E+00 -1.51973982E+01  7.59869910E+00  7.59869910E+00 -1.51973982E+01
  7.59869910E+00  7.59869910E+00 -1.51973982E+01  7.59869910E+00  7.59869910E+00
 -1.51973982E+01  7.59869910E+00  7.59869910E+00 -1.51973982E+01  7.59869910E+00
  7.59869910E+00 -1.51973982E+01  7.59869910E+00  7.59869910E+00 -1.51973982E+01
  7.59869910E+00  7.59869910E+00 -1.51973982E+01  7.59869910E+00  7.59869910E+00
 -1.51973982E+01  7.59869910E+00  7.59869910E+00 -1.51973982E+01  7.59869910E+00
  7.59869910E+00 -1.51973982E+01  7.59869910E+00  7.59869910E+00 -1.51973982E+01
  7.59869910E+00  7.59869910E+00 -1.51973982E+01  7.59869910E+00  7.59869910E+00
 -1.51973982E+01  7.59869910E+00  7.59869910E+00 -1.51973982E+01  7.59869910E+00
  7.59869910E+00 -1.51973982E+01  7.59869910E+00  7.59869910E+00 -1.51973982E+01
  7.59869910E+00  7.59869910E+00 -1.51973982E+01  7.59869910E+00  7.59869910E+00
 -1.51973982E+01  7.59869910E+00  7.59869910E+00 -1.51973982E+01  7.59869910E+00
  7.59869910E+00 -1.51973982E+01  7.59869910E+00  7.59869910E+00 -1.51973982E+01
  7.59869910E+00  7.59869910E+00 -1.51973982E+01  7.59869910E+00  7.59869910E+00
 -1.51973982E+01  7.59869910E+00  7.59869910E+00 -1.51973982E+01  7.59869910E+00
  7.59869910E+00 -1.51973982E+01  7.59869910E+00  7.59869910E+00 -1.51973982E+01
  7.59869910E+00  7.59869910E+00 -1.51973982E+01  7.59869910E+00  7.59869910E+00
 -1.51973982E+01  7.59869910E+00  7.59869910E+00 -1.51973982E+01  7.59869910E+00
  7.59869910E+00 -1.51973982E+01  7.59869910E+00  7.59869910E+00 -1.51973982E+01
  7.59869910E+00  7.59869910E+00 -1.51973982E+01  7.59869910E+00  7.59869910E+00
 -1.51973982E+01  7.59869910E+00  7.59869910E+00 -1.51973982E+01  7.59869910E+00
  7.59869910E+00 -1.51973982E+01  7.59869910E+00  7.59869910E+00 -1.51973982E+01
  7.59869910E+00  7.59869910E+00 -1.51973982E+01  7.59869910E+00  7.59869910E+00
 -1.51973982E+01  7.59869910E+00  7.59869910E+00 -1.51973982E+01  7.59869910E+00
  7.59869910E+00 -1.51973982E+01  7.59869910E+00  7.59869910E+00 -1.51973982E+01
  7.59869910E+00  7.59869910E+00 -1.51973982E+01  7.59869910E+00  7.59869910E+00
 -1.51973982E+01  7.59869910E+00  7.59869910E+00 -1.51973982E+01  7.59869910E+00
  7.59869910E+00 -1.51973982E+01  7.59869910E+00  7.59869910E+00 -1.51973982E+01
  7.59869910E+00  7.59869910E+00 -1.51973982E+01  7.59869910E+00  7.59869910E+00
 -1.51973982E+01  7.59869910E+00  7.59869910E+00 -1.51973982E+01  7.59869910E+00
  7.59869910E+00 -1.51973982E+01  7.59869910E+00  7.59869910E+00 -1.51973982E+01
  7.59869910E+00  7.59869910E+00 -1.51973982E+01  7.59869910E+00  7.59869910E+00
 -1.51973982E+01  7.59869910E+00  7.59869910E+00 -1.51973982E+01  7.59869910E+00
  7.59869910E+00 -1.51973982E+01  7.59869910E+00  7.59869910E+00 -1.51973982E+01
  7.59869910E+00  7.59869910E+00 -1.51973982E+01  7.59869910E+00  7.59869910E+00
 -1.51973982E+01  7.59869910E+00  7.59869910E+00 -1.51973982E+01  7.59869910E+00
  7.59869910E+00 -1.51973982E+01  7.59869910E+00  7.59869910E+00 -1.51973982E+01
  7.59869910E+00  7.59869910E+00 -1.51973982E+01  7.59869910E+00  7.59869910E+00
 -1.51973982E+01  7.59869910E+00  7.59869910E+00 -1.51973982E+01  7.59869910E+00
  7.59869910E+00 -1.51973982E+01  7.59869910E+00  7.59869910E+00 -1.51973982E+01
  7.59869910E+00  7.59869910E+00 -1.51973982E+01  7.59869910E+00  7.59869910E+00
 -1.51973982E+01  7.59869910E+00  7.59869910E+00 -1.51973982E+01  7.59869910E+00
  7.59869910E+00 -1.51973982E+01  7.59869910E+00  7.59869910E+00 -1.51973982E+01
  7.59869910E+00  7.59869910E+00 -1.51973982E+01  7.59869910E+00  7.59869910E+00
 -1.51973982E+01  7.59869910E+00  7.59869910E+00 -1.51973982E+01  7.59869910E+00
  7.59869910E+00 -1.51973982E+01  7.59869910E+00  7.59869910E+00 -1.51973982E+01
  7.59869910E+00  7.59869910E+00 -1.51973982E+01  7.59869910E+00  7.59869910E+00
 -1.51973982E+01  7.59869910E+00  7.59869910E+00 -1.51973982E+01  7.59869910E+00
  7.59869910E+00 -1.51973982E+01  7.59869910E+00  7.59869910E+00 -1.51973982E+01
  7.59869910E+00  7.59869910E+00 -1.51973982E+01  7.59869910E+00  7.59869910E+00
 -1.51973982E+01  7.59869910E+00  7.59869910E+00 -1.51973982E+01  7.59869910E+00
  7.59869910E+00 -1.51973982E+01  7.59869910E+00  7.59869910E+00 -1.51973982E+01
  7.59869910E+00  7.59869910E+00 -1.51973982E+01  7.59869910E+00  7.59869910E+00
 -1.51973982E+01  7.59869910E+00  7.59869910E+00 -1.51973982E+01  7.59869910E+00
  7.59869910E+00 -1.51973982E+01  7.59869910E+00  7.59869910E+00 -1.51973982E+01
  7.59869910E+00  7.59869910E+00 -1.51973982E+01  7.59869910E+00  7.59869910E+00
 -1.51973982E+01  7.59869910E+00  7.59869910E+00 -1.51973982E+01  7.59869910E+00
  7.59869910E+00 -1.51973982E+01  7.59869910E+00  7.59869910E+00 -1.51973982E+01
  7.59869910E+00  7.59869910E+00 -1.51973982E+01  7.59869910E+00  7.59869910E+00
 -1.51973982E+01  7.59869910E+00  7.59869910E+00 -1.51973982E+01  7.59869910E+00
  7.59869910E+00 -1.51973982E+01  7.59869910E+00  7.59869910E+00 -1.51973982E+01
  7.59869910E+00  7.59869910E+00 -1.51973982E+01  7.59869910E+00  7.59869910E+00
 -1.51973982E+01  7.59869910E+00  7.59869910E+00 -1.51973982E+01  7.59869910E+00
  7.59869910E+00 -1.51973982E+01  7.59869910E+00  7.59869910E+00 -1.51973982E+01
  7.59869910E+00  7.59869910E+00 -1.51973982E+01  7.59869910E+00  7.59869910E+00
 -1.51973982E+01  7.59869910E+00  7.59869910E+00 -1.51973982E+01  7.59869910E+00
  7.59869910E+00 -1.51973982E+01  7.59869910E+00  7.59869910E+00 -1.51973982E+01
  7.59869910E+00  7.59869910E+00 -1.51973982E+01  7.59869910E+00  7.59869910E+00
 -1.51973982E+01  7.59869910E+00  7.59869910E+00 -1.51973982E+01  7.59869910E+00
  7.59869910E+00 -1.51973982E+01  7.59869910E+00  7.59869910E+00 -1.51973982E+01
  7.59869910E+00  7.59869910E+00 -1.51973982E+01  7.59869910E+00  7.59869910E+00
 -1.51973982E+01  7.59869910E+00  7.59869910E+00 -1.51973982E+01  7.59869910E+00
  7.59869910E+00 -1.51973982E+01  7.59869910E+00  7.59869910E+00 -1.51973982E+01
  7.59869910E+00  7.59869910E+00 -1.51973982E+01  7.59869910E+00  7.59869910E+00
 -1.51973982E+01  7.59869910E+00  7.59869910E+00 -1.51973982E+01  7.59869910E+00
  7.59869910E+00 -1.51973982E+01  7.59869910E+00  7.59869910E+00 -1.51973982E+01
  7.59869910E+00  7.59869910E+00 -1.51973982E+01  7.59869910E+00  7.59869910E+00
 -1.51973982E+01  7.59869910E+00  7.59869910E+00 -1.51973982E+01  7.59869910E+00
  7.59869910E+00 -1.51973982E+01  7.59869910E+00  7.59869910E+00 -1.51973982E+01
  7.59869910E+00  7.59869910E+00 -1.51973982E+01  7.59869910E+00  7.59869910E+00
 -1.51973982E+01  7.59869910E+00  7.59869910E+00 -1.51973982E+01  7.59869910E+00
  7.59869910E+00 -1.51973982E+01  7.59869910E+00  7.59869910E+00 -1.51973982E+01
  7.59869910E+00  7.59869910E+00 -1.51973982E+01  7.59869910E+00  7.59869910E+00
 -1.51973982E+01  7.59869910E+00  7.59869910E+00 -1.51973982E+01  7.59869910E+00
  7.59869910E+00 -1.51973982E+01  7.59869910E+00  7.59869910E+00 -1.51973982E+01
  7.59869910E+00  7.59869910E+00 -1.51973982E+01  7.59869910E+00  7.59869910E+00
 -1.51973982E+01  7.59869910E+00  7.59869910E+00 -1.51973982E+01  7.59869910E+00
  7.59869910E+00 -1.51973982E+01  7.59869910E+00  7.59869910E+00 -1.51973982E+01
  7.59869910E+00  7.59869910E+00 -1.51973982E+01  7.59869910E+00  7.59869910E+00
 -1.51973982E+01  7.59869910E+00  7.59869910E+00 -1.51973982E+01  7.59869910E+00
  7.59869910E+00 -1.51973982E+01  7.59869910E+00  7.59869910E+00 -1.51973982E+01
  7.59869910E+00  7.59869910E+00 -1.51973982E+01  7.59869910E+00  7.59869910E+00
 -1.51973982E+01  7.59869910E+00  7.59869910E+00 -1.51973982E+01  7.59869910E+00
  7.59869910E+00 -1.51973982E+01  7.59869910E+00  7.59869910E+00 -1.51973982E+01
  7.59869910E+00  7.59869910E+00 -1.51973982E+01  7.59869910E+00  7.59869910E+00
 -1.51973982E+01  7.59869910E+00  7.59869910E+00 -1.51973982E+01  7.59869910E+00
  7.59869910E+00 -1.51973982E+01  7.59869910E+00  7.59869910E+00 -1.51973982E+01
  7.59869910E+00  7.59869910E+00 -1.51973982E+01  7.59869910E+00  7.59869910E+00
 -1.51973982E+01  7.59869910E+00  7.59869910E+00 -1.51973982E+01  7.59869910E+00
  7.59869910E+00 -1.51973982E+01  7.59869910E+00  7.59869910E+00 -1.51973982E+01
  7.59869910E+00  7.59869910E+00 -1.51973982E+01  7.59869910E+00  7.59869910E+00
 -1.51973982E+01  7.59869910E+00  7.59869910E+00 -1.51973982E+01  7.59869910E+00
  7.59869910E+00 -1.51973982E+01  7.59869910E+00  7.59869910E+00 -1.51973982E+01
  7.59869910E+00  7.59869910E+00 -1.51973982E+01  7.59869910E+00  7.59869910E+00
 -1.51973982E+01  7.59869910E+00  7.59869910E+00 -1.51973982E+01  7.59869910E+00
  7.59869910E+00 -1.51973982E+01  7.59869910E+00  7.59869910E+00 -1.51973982E+01
  7.59869910E+00  7.59869910E+00 -1.51973982E+01  7.59869910E+00  7.59869910E+00
 -1.51973982E+01  7.59869910E+00  7.59869910E+00 -1.51973982E+01  7.59869910E+00
  7.59869910E+00 -1.51973982E+01  7.59869910E+00  7.59869910E+00 -1.51973982E+01
  7.59869910E+00  7.59869910E+00 -1.51973982E+01  7.59869910E+00  7.59869910E+00
 -1.51973982E+01  7.59869910E+00  7.59869910E+00 -1.51973982E+01  7.59869910E+00
  7.59869910E+00 -1.51973982E+01  7.59869910E+00  7.59869910E+00 -1.51973982E+01
  7.59869910E+00  7.59869910E+00 -1.51973982E+01  7.59869910E+00  7.59869910E+00
 -1.51973982E+01  7.59869910E+00  7.59869910E+00 -1.51973982E+01  7.59869910E+00
  7.59869910E+00 -1.51973982E+01  7.59869910E+00  7.59869910E+00 -1.51973982E+01
  7.59869910E+00  7.59869910E+00 -1.51973982E+01  7.59869910E+00  7.59869910E+00
 -1.51973982E+01  7.59869910E+00  7.59869910E+00 -1.51973982E+01  7.59869910E+00
  7.59869910E+00 -1.51973982E+01  7.59869910E+00  7.59869910E+00 -1.51973982E+01
  7.59869910E+00  7.59869910E+00 -1.51973982E+01  7.59869910E+00  7.59869910E+00
 -1.51973982E+01  7.59869910E+00  7.59869910E+00 -1.51973982E+01  7.59869910E+00
  7.59869910E+00 -1.51973982E+01  7.59869910E+00  7.59869910E+00 -1.51973982E+01
  7.59869910E+00  7.59869910E+00 -1.51973982E+01  7.59869910E+00  7.59869910E+00
 -1.51973982E+01  7.59869910E+00  7.59869910E+00 -1.51973982E+01  7.59869910E+00
  7.59869910E+00 -1.51973982E+01  7.59869910E+00  7.59869910E+00 -1.51973982E+01
  7.59869910E+00  7.59869910E+00 -1.51973982E+01  7.59869910E+00  7.59869910E+00
 -1.51973982E+01  7.59869910E+00  7.59869910E+00 -1.51973982E+01  7.59869910E+00
  7.59869910E+00 -1.51973982E+01  7.59869910E+00  7.59869910E+00 -1.51973982E+01
  7.59869910E+00  7.59869910E+00 -1.51973982E+01  7.59869910E+00  7.59869910E+00
 -1.51973982E+01  7.59869910E+00  7.59869910E+00 -1.51973982E+01  7.59869910E+00
  7.59869910E+00 -1.51973982E+01  7.59869910E+00  7.59869910E+00 -1.51973982E+01
  7.59869910E+00  7.59869910E+00 -1.51973982E+01  7.59869910E+00  7.59869910E+00
 -1.51973982E+01  7.59869910E+00  7.59869910E+00 -1.51973982E+01  7.59869910E+00
  7.59869910E+00 -1.51973982E+01  7.59869910E+00  7.59869910E+00 -1.51973982E+01
  7.59869910E+00  7.59869910E+00 -1.51973982E+01  7.59869910E+00  7.59869910E+00
 -1.51973982E+01  7.59869910E+00  7.59869910E+00 -1.51973982E+01  7.59869910E+00
  7.59869910E+00 -1.51973982E+01  7.59869910E+00  7.59869910E+00 -1.51973982E+01
  7.59869910E+00  7.59869910E+00 -1.51973982E+01  7.59869910E+00  7.59869910E+00
 -1.51973982E+01  7.59869910E+00  7.59869910E+00 -1.51973982E+01  7.59869910E+00
  7.59869910E+00 -1.51973982E+01  7.59869910E+00  7.59869910E+00 -1.51973982E+01
  7.59869910E+00  7.59869910E+00 -1.51973982E+01  7.59869910E+00  7.59869910E+00
 -1.51973982E+01  7.59869910E+00  7.59869910E+00 -1.51973982E+01  7.59869910E+00
  7.59869910E+00 -1.51973982E+01  7.59869910E+00  7.59869910E+00 -1.51973982E+01
  7.59869910E+00  7.59869910E+00 -1.51973982E+01  7.59869910E+00  7.59869910E+00
 -1.51973982E+01  7.59869910E+00  7.59869910E+00 -1.51973982E+01  7.59869910E+00
  7.59869910E+00 -1.51973982E+01  7.59869910E+00  7.59869910E+00 -1.51973982E+01
  7.59869910E+00  7.59869910E+00 -1.51973982E+01  7.59869910E+00  7.59869910E+00
 -1.51973982E+01  7.59869910E+00  7.59869910E+00 -1.51973982E+01  7.59869910E+00
  7.59869910E+00 -1.51973982E+01  7.59869910E+00  7.59869910E+00 -1.51973982E+01
  7.59869910E+00  7.59869910E+00 -1.51973982E+01  7.59869910E+00  7.59869910E+00
 -1.51973982E+01  7.59869910E+00  7.59869910E+00 -1.51973982E+01  7.59869910E+00
  7.59869910E+00 -1.51973982E+01  7.59869910E+00  7.59869910E+00 -1.51973982E+01
  7.59869910E+00  7.59869910E+00 -1.51973982E+01  7.59869910E+00  7.59869910E+00
 -1.51973982E+01  7.59869910E+00  7.59869910E+00 -1.51973982E+01  7.59869910E+00
  7.59869910E+00 -1.51973982E+01  7.59869910E+00  7.59869910E+00 -1.51973982E+01
  7.59869910E+00  7.59869910E+00 -1.51973982E+01  7.59869910E+00  7.59869910E+00
 -1.51973982E+01  7.59869910E+00  7.59869910E+00 -1.51973982E+01  7.59869910E+00
  7.59869910E+00 -1.51973982E+01  7.59869910E+00  7.59869910E+00 -1.51973982E+01
  7.59869910E+00  7.59869910E+00 -1.51973982E+01  7.59869910E+00  7.59869910E+00
 -1.51973982E+01  7.59869910E+00  7.59869910E+00 -1.51973982E+01  7.59869910E+00
  7.59869910E+00 -1.51973982E+01  7.59869910E+00  7.59869910E+00 -1.51973982E+01
  7.59869910E+00  7.59869910E+00 -1.51973982E+01  7.59869910E+00  7.59869910E+00
 -1.51973982E+01  7.59869910E+00  7.59869910E+00 -1.51973982E+01  7.59869910E+00
  7.59869910E+00 -1.51973982E+01  7.59869910E+00  7.59869910E+00 -1.51973982E+01
  7.59869910E+00  7.59869910E+00 -1.51973982E+01  7.59869910E+00  7.59869910E+00
 -1.51973982E+01  7.59869910E+00  7.59869910E+00 -1.51973982E+01  7.59869910E+00
  7.59869910E+00 -1.51973982E+01  7.59869910E+00  7.59869910E+00 -1.51973982E+01
  7.59869910E+00  7.59869910E+00 -1.51973982E+01  7.59869910E+00  7.59869910E+00
 -1.51973982E+01  7.59869910E+00  7.59869910E+00 -1.51973982E+01  7.59869910E+00
  7.59869910E+00 -1.51973982E+01  7.59869910E+00  7.59869910E+00 -1.51973982E+01
  7.59869910E+00  7.59869910E+00 -1.51973982E+01  7.59869910E+00  7.59869910E+00
 -1.51973982E+01  7.59869910E+00  7.59869910E+00 -1.51973982E+01  7.59869910E+00
  7.59869910E+00 -1.51973982E+01  7.59869910E+00  7.59869910E+00 -1.51973982E+01
  7.59869910E+00  7.59869910E+00 -1.51973982E+01  7.59869910E+00  7.59869910E+00
 -1.51973982E+01  7.59869910E+00  7.59869910E+00 -1.51973982E+01  7.59869910E+00
  7.59869910E+00 -1.51973982E+01  7.59869910E+00  7.59869910E+00 -1.51973982E+01
  7.59869910E+00  7.59869910E+00 -1.51973982E+01  7.59869910E+00  7.59869910E+00
 -1.51973982E+01  7.59869910E+00  7.59869910E+00 -1.51973982E+01  7.59869910E+00
  7.59869910E+00 -1.51973982E+01  7.59869910E+00  7.59869910E+00 -1.51973982E+01
  7.59869910E+00  7.59869910E+00 -1.51973982E+01  7.59869910E+00  7.59869910E+00
 -1.51973982E+01  7.59869910E+00  7.59869910E+00 -1.51973982E+01  7.59869910E+00
  7.59869910E+00 -1.51973982E+01  7.59869910E+00  7.59869910E+00 -1.51973982E+01
  7.59869910E+00  7.59869910E+00 -1.51973982E+01  7.59869910E+00  7.59869910E+00
 -1.51973982E+01  7.59869910E+00  7.59869910E+00 -1.51973982E+01  7.59869910E+00
  7.59869910E+00 -1.51973982E+01  7.59869910E+00  7.59869910E+00 -1.51973982E+01
  7.59869910E+00  7.59869910E+00 -1.51973982E+01  7.59869910E+00  7.59869910E+00
 -1.51973982E+01  7.59869910E+00  7.59869910E+00 -1.51973982E+01  7.59869910E+00
  7.59869910E+00 -1.51973982E+01  7.59869910E+00  7.59869910E+00 -1.51973982E+01
  7.59869910E+00  7.59869910E+00 -1.51973982E+01  7.59869910E+00  7.59869910E+00
 -1.51973982E+01  7.59869910E+00  7.59869910E+00 -1.51973982E+01  7.59869910E+00
  7.59869910E+00 -1.51973982E+01  7.59869910E+00  7.59869910E+00 -1.51973982E+01
  7.59869910E+00  7.59869910E+00 -1.51973982E+01  7.59869910E+00  7.59869910E+00
 -1.51973982E+01  7.59869910E+00  7.59869910E+00 -1.51973982E+01  7.59869910E+00
  7.59869910E+00 -1.51973982E+01  7.59869910E+00  7.59869910E+00 -1.51973982E+01
  7.59869910E+00  7.59869910E+00 -1.51973982E+01  7.59869910E+00  7.59869910E+00
 -1.51973982E+01  7.59869910E+00  7.59869910E+00 -1.51973982E+01  7.59869910E+00
  7.59869910E+00 -1.51973982E+01  7.59869910E+00  7.59869910E+00 -1.51973982E+01
  7.59869910E+00  7.59869910E+00 -1.51973982E+01  7.59869910E+00  7.59869910E+00
 -1.51973982E+01  7.59869910E+00  7.59869910E+00 -1.51973982E+01  7.59869910E+00
  7.59869910E+00 -1.51973982E+01  7.59869910E+00  7.59869910E+00 -1.51973982E+01
  7.59869910E+00  7.59869910E+00 -1.51973982E+01  7.59869910E+00  7.59869910E+00
 -1.51973982E+01  7.59869910E+00  7.59869910E+00 -1.51973982E+01  7.59869910E+00
  7.59869910E+00 -1.51973982E+01  7.59869910E+00  7.59869910E+00 -1.51973982E+01
  7.59869910E+00  7.59869910E+00 -1.51973982E+01  7.59869910E+00  7.59869910E+00
 -1.51973982E+01  7.59869910E+00  7.59869910E+00 -1.51973982E+01  7.59869910E+00
  7.59869910E+00 -1.51973982E+01  7.59869910E+00  7.59869910E+00 -1.51973982E+01
  7.59869910E+00  7.59869910E+00 -1.51973982E+01  7.59869910E+00  7.59869910E+00
 -1.51973982E+01  7.59869910E+00  7.59869910E+00 -1.51973982E+01  7.59869910E+00
  7.59869910E+00 -1.51973982E+01  7.59869910E+00  7.59869910E+00 -1.51973982E+01
  7.59869910E+00  7.59869910E+00 -1.51973982E+01  7.59869910E+00  7.59869910E+00
 -1.51973982E+01  7.59869910E+00  7.59869910E+00 -1.51973982E+01  7.59869910E+00
  7.59869910E+00 -1.51973982E+01  7.59869910E+00  7.59869910E+00 -1.51973982E+01
  7.59869910E+00  7.59869910E+00 -1.51973982E+01  7.59869910E+00  7.59869910E+00
 -1.51973982E+01  7.59869910E+00  7.59869910E+00 -1.51973982E+01  7.59869910E+00
  7.59869910E+00 -1.51973982E+01  7.59869910E+00  7.59869910E+00 -1.51973982E+01
  7.59869910E+00  7.59869910E+00 -1.51973982E+01  7.59869910E+00  7.59869910E+00
 -1.51973982E+01  7.59869910E+00  7.59869910E+00 -1.51973982E+01  7.59869910E+00
  7.59869910E+00 -1.51973982E+01  7.59869910E+00  7.59869910E+00 -1.51973982E+01
  7.59869910E+00  7.59869910E+00 -1.51973982E+01  7.59869910E+00  7.59869910E+00
 -1.51973982E+01  7.59869910E+00  7.59869910E+00 -1.51973982E+01  7.59869910E+00
  7.59869910E+00 -1.51973982E+01  7.59869910E+00  7.59869910E+00 -1.51973982E+01
  7.59869910E+00  7.59869910E+00 -1.51973982E+01  7.59869910E+00  7.59869910E+00
 -1.51973982E+01  7.59869910E+00  7.59869910E+00 -1.51973982E+01  7.59869910E+00
  7.59869910E+00 -1.51973982E+01  7.59869910E+00  7.59869910E+00 -1.51973982E+01
  7.59869910E+00  7.59869910E+00 -1.51973982E+01  7.59869910E+00  7.59869910E+00
 -1.51973982E+01  7.59869910E+00  7.59869910E+00 -1.51973982E+01  7.59869910E+00
  7.59869910E+00 -1.51973982E+01  7.59869910E+00  7.59869910E+00 -1.51973982E+01
  7.59869910E+00  7.59869910E+00 -1.51973982E+01  7.59869910E+00  7.59869910E+00
 -1.51973982E+01  7.59869910E+00  7.59869910E+00 -1.51973982E+01  7.59869910E+00
  7.59869910E+00 -1.51973982E+01  7.59869910E+00  7.59869910E+00 -1.51973982E+01
  7.59869910E+00  7.59869910E+00 -1.51973982E+01  7.59869910E+00  7.59869910E+00
 -1.51973982E+01  7.59869910E+00  7.59869910E+00 -1.51973982E+01  7.59869910E+00
  7.59869910E+00 -1.51973982E+01  7.59869910E+00  7.59869910E+00 -1.51973982E+01
  7.59869910E+00  7.59869910E+00 -1.51973982E+01  7.59869910E+00  7.59869910E+00
 -1.51973982E+01  7.59869910E+00  7.59869910E+00 -1.51973982E+01  7.59869910E+00
  7.59869910E+00 -1.51973982E+01  7.59869910E+00  7.59869910E+00 -1.51973982E+01
  7.59869910E+00  7.59869910E+00 -1.51973982E+01  7.59869910E+00  7.59869910E+00
 -1.51973982E+01  7.59869910E+00  7.59869910E+00 -1.51973982E+01  7.59869910E+00
  7.59869910E+00 -1.51973982E+01  7.59869910E+00  7.59869910E+00 -1.51973982E+01
  7.59869910E+00  7.59869910E+00 -1.51973982E+01  7.59869910E+00  7.59869910E+00
 -1.51973982E+01  7.59869910E+00  7.59869910E+00 -1.51973982E+01  7.59869910E+00
  7.59869910E+00 -1.51973982E+01  7.59869910E+00  7.59869910E+00 -1.51973982E+01
  7.59869910E+00  7.59869910E+00 -1.51973982E+01  7.59869910E+00  7.59869910E+00
 -1.51973982E+01  7.59869910E+00  7.59869910E+00 -1.51973982E+01  7.59869910E+00
  7.59869910E+00 -1.51973982E+01  7.59869910E+00  7.59869910E+00 -1.51973982E+01
  7.59869910E+00  7.59869910E+00 -1.51973982E+01  7.59869910E+00  7.59869910E+00
 -1.51973982E+01  7.59869910E+00  7.59869910E+00 -1.51973982E+01  7.59869910E+00
  7.59869910E+00 -1.51973982E+01  7.59869910E+00  7.59869910E+00 -1.51973982E+01
  7.59869910E+00  7.59869910E+00 -1.51973982E+01  7.59869910E+00  7.59869910E+00
 -1.51973982E+01  7.59869910E+00  7.59869910E+00 -1.51973982E+01  7.59869910E+00
  7.59869910E+00 -1.51973982E+01  7.59869910E+00  7.59869910E+00 -1.51973982E+01
  7.59869910E+00  7.59869910E+00 -1.51973982E+01  7.59869910E+00  7.59869910E+00
 -1.51973982E+01  7.59869910E+00  7.59869910E+00 -1.51973982E+01  7.59869910E+00
  7.59869910E+00 -1.51973982E+01  7.59869910E+00  7.59869910E+00 -1.51973982E+01
  7.59869910E+00  7.59869910E+00 -1.51973982E+01  7.59869910E+00  7.59869910E+00
 -1.51973982E+01  7.59869910E+00  7.59869910E+00 -1.51973982E+01  7.59869910E+00
  7.59869910E+00 -1.51973982E+01  7.59869910E+00  7.59869910E+00 -1.51973982E+01
  7.59869910E+00  7.59869910E+00 -1.51973982E+01  7.59869910E+00  7.59869910E+00
 -1.51973982E+01  7.59869910E+00  7.59869910E+00 -1.51973982E+01  7.59869910E+00
  7.59869910E+00 -1.51973982E+01  7.59869910E+00  7.59869910E+00 -1.51973982E+01
  7.59869910E+00  7.59869910E+00 -1.51973982E+01  7.59869910E+00  7.59869910E+00
 -1.51973982E+01  7.59869910E+00  7.59869910E+00 -1.51973982E+01  7.59869910E+00
  7.59869910E+00 -1.51973982E+01  7.59869910E+00  7.59869910E+00 -1.51973982E+01
  7.59869910E+00  7.59869910E+00 -1.51973982E+01  7.59869910E+00  7.59869910E+00
 -1.51973982E+01  7.59869910E+00  7.59869910E+00 -1.51973982E+01  7.59869910E+00
  7.59869910E+00 -1.51973982E+01  7.59869910E+00  7.59869910E+00 -1.51973982E+01
  7.59869910E+00  7.59869910E+00 -1.51973982E+01  7.59869910E+00  7.59869910E+00
 -1.51973982E+01  7.59869910E+00  7.59869910E+00 -1.51973982E+01  7.59869910E+00
  7.59869910E+00 -1.51973982E+01  7.59869910E+00  7.59869910E+00 -1.51973982E+01
  7.59869910E+00  7.59869910E+00 -1.51973982E+01  7.59869910E+00  7.59869910E+00
 -1.51973982E+01  7.59869910E+00  7.59869910E+00 -1.51973982E+01  7.59869910E+00
  7.59869910E+00 -1.51973982E+01  7.59869910E+00  7.59869910E+00 -1.51973982E+01
  7.59869910E+00  7.59869910E+00 -1.51973982E+01  7.59869910E+00  7.59869910E+00
 -1.51973982E+01  7.59869910E+00  7.59869910E+00 -1.51973982E+01  7.59869910E+00
  7.59869910E+00 -1.51973982E+01  7.59869910E+00  7.59869910E+00 -1.51973982E+01
  7.59869910E+00  7.59869910E+00 -1.51973982E+01  7.59869910E+00  7.59869910E+00
 -1.51973982E+01  7.59869910E+00  7.59869910E+00 -1.51973982E+01  7.59869910E+00
  7.59869910E+00 -1.51973982E+01  7.59869910E+00  7.59869910E+00 -1.51973982E+01
  7.59869910E+00  7.59869910E+00 -1.51973982E+01  7.59869910E+00  7.59869910E+00
 -1.51973982E+01  7.59869910E+00  7.59869910E+00 -1.51973982E+01  7.59869910E+00
  7.59869910E+00 -1.51973982E+01  7.59869910E+00  7.59869910E+00 -1.51973982E+01
  7.59869910E+00  7.59869910E+00 -1.51973982E+01  7.59869910E+00  7.59869910E+00
 -1.51973982E+01  7.59869910E+00  7.59869910E+00 -1.51973982E+01  7.59869910E+00
  7.59869910E+00 -1.51973982E+01  7.59869910E+00  7.59869910E+00 -1.51973982E+01
  7.59869910E+00  7.59869910E+00 -1.51973982E+01  7.59869910E+00  7.59869910E+00
 -1.51973982E+01  7.59869910E+00  7.59869910E+00 -1.51973982E+01  7.59869910E+00
  7.59869910E+00 -1.51973982E+01  7.59869910E+00  7.59869910E+00 -1.51973982E+01
  7.59869910E+00  7.59869910E+00 -1.51973982E+01  7.59869910E+00  7.59869910E+00
 -1.51973982E+01  7.59869910E+00  7.59869910E+00 -1.51973982E+01  7.59869910E+00
  7.59869910E+00 -1.51973982E+01  7.59869910E+00  7.59869910E+00 -1.51973982E+01
  7.59869910E+00  7.59869910E+00 -1.51973982E+01  7.59869910E+00  7.59869910E+00
 -1.51973982E+01  7.59869910E+00  7.59869910E+00 -1.51973982E+01  7.59869910E+00
  7.59869910E+00 -1.51973982E+01  7.59869910E+00  7.59869910E+00 -1.51973982E+01
  7.59869910E+00  7.59869910E+00 -1.51973982E+01  7.59869910E+00  7.59869910E+00
 -1.51973982E+01  7.59869910E+00  7.59869910E+00 -1.51973982E+01  7.59869910E+00
  7.59869910E+00 -1.51973982E+01  7.59869910E+00  7.59869910E+00 -1.51973982E+01
  7.59869910E+00  7.59869910E+00 -1.51973982E+01  7.59869910E+00  7.59869910E+00
 -1.51973982E+01  7.59869910E+00  7.59869910E+00 -1.51973982E+01  7.59869910E+00
  7.59869910E+00 -1.51973982E+01  7.59869910E+00  7.59869910E+00 -1.51973982E+01
  7.59869910E+00  7.59869910E+00 -1.51973982E+01  7.59869910E+00  7.59869910E+00
 -1.51973982E+01  7.59869910E+00  7.59869910E+00 -1.51973982E+01  7.59869910E+00
  7.59869910E+00 -1.51973982E+01  7.59869910E+00  7.59869910E+00 -1.51973982E+01
  7.59869910E+00  7.59869910E+00 -1.51973982E+01  7.59869910E+00  7.59869910E+00
 -1.51973982E+01  7.59869910E+00  7.59869910E+00 -1.51973982E+01  7.59869910E+00
  7.59869910E+00 -1.51973982E+01  7.59869910E+00  7.59869910E+00 -1.51973982E+01
  7.59869910E+00  7.59869910E+00 -1.51973982E+01  7.59869910E+00  7.59869910E+00
 -1.51973982E+01  7.59869910E+00  7.59869910E+00 -1.51973982E+01  7.59869910E+00
  7.59869910E+00 -1.51973982E+01  7.59869910E+00  7.59869910E+00 -1.51973982E+01
  7.59869910E+00  7.59869910E+00 -1.51973982E+01  7.59869910E+00  7.59869910E+00
 -1.51973982E+01  7.59869910E+00  7.59869910E+00 -1.51973982E+01  7.59869910E+00
  7.59869910E+00 -1.51973982E+01  7.59869910E+00  7.59869910E+00 -1.51973982E+01
  7.59869910E+00  7.59869910E+00 -1.51973982E+01  7.59869910E+00  7.59869910E+00
 -1.51973982E+01  7.59869910E+00  7.59869910E+00 -1.51973982E+01  7.59869910E+00
  7.59869910E+00 -1.51973982E+01  7.59869910E+00  7.59869910E+00 -1.51973982E+01
  7.59869910E+00  7.59869910E+00 -1.51973982E+01  7.59869910E+00  7.59869910E+00
 -1.51973982E+01  7.59869910E+00  7.59869910E+00 -1.51973982E+01  7.59869910E+00
  7.59869910E+00 -1.51973982E+01  7.59869910E+00  7.59869910E+00 -1.51973982E+01
  7.59869910E+00  7.59869910E+00 -1.51973982E+01  7.59869910E+00  7.59869910E+00
 -1.51973982E+01  7.59869910E+00  7.59869910E+00 -1.51973982E+01  7.59869910E+00
  7.59869910E+00 -1.51973982E+01  7.59869910E+00  7.59869910E+00 -1.51973982E+01
  7.59869910E+00  7.59869910E+00 -1.51973982E+01  7.59869910E+00  7.59869910E+00
 -1.51973982E+01  7.59869910E+00  7.59869910E+00 -1.51973982E+01  7.59869910E+00
  7.59869910E+00 -1.51973982E+01  7.59869910E+00  7.59869910E+00 -1.51973982E+01
  7.59869910E+00  7.59869910E+00 -1.51973982E+01  7.59869910E+00  7.59869910E+00
 -1.51973982E+01  7.59869910E+00  7.59869910E+00 -1.51973982E+01  7.59869910E+00
  7.59869910E+00 -1.51973982E+01  7.59869910E+00  7.59869910E+00 -1.51973982E+01
  7.59869910E+00  7.59869910E+00 -1.51973982E+01  7.59869910E+00  7.59869910E+00
 -1.51973982E+01  7.59869910E+00  7.59869910E+00 -1.51973982E+01  7.59869910E+00
  7.59869910E+00 -1.51973982E+01  7.59869910E+00  7.59869910E+00 -1.51973982E+01
  7.59869910E+00  7.59869910E+00 -1.51973982E+01  7.59869910E+00  7.59869910E+00
 -1.51973982E+01  7.59869910E+00  7.59869910E+00 -1.51973982E+01  7.59869910E+00
  7.59869910E+00 -1.51973982E+01  7.59869910E+00  7.59869910E+00 -1.51973982E+01
  7.59869910E+00  7.59869910E+00 -1.51973982E+01  7.59869910E+00  7.59869910E+00
 -1.51973982E+01  7.59869910E+00  7.59869910E+00 -1.51973982E+01  7.59869910E+00
  7.59869910E+00 -1.51973982E+01  7.59869910E+00  7.59869910E+00 -1.51973982E+01
  7.59869910E+00  7.59869910E+00 -1.51973982E+01  7.59869910E+00  7.59869910E+00
 -1.51973982E+01  7.59869910E+00  7.59869910E+00 -1.51973982E+01  7.59869910E+00
  7.59869910E+00 -1.51973982E+01  7.59869910E+00  7.59869910E+00 -1.51973982E+01
  7.59869910E+00  7.59869910E+00 -1.51973982E+01  7.59869910E+00  7.59869910E+00
 -1.51973982E+01  7.59869910E+00  7.59869910E+00 -1.51973982E+01  7.59869910E+00
  7.59869910E+00 -1.51973982E+01  7.59869910E+00  7.59869910E+00 -1.51973982E+01
  7.59869910E+00  7.59869910E+00 -1.51973982E+01  7.59869910E+00  7.59869910E+00
 -1.51973982E+01  7.59869910E+00  7.59869910E+00 -1.51973982E+01  7.59869910E+00
  7.59869910E+00 -1.51973982E+01  7.59869910E+00  7.59869910E+00 -1.51973982E+01
  7.59869910E+00  7.59869910E+00 -1.51973982E+01  7.59869910E+00  7.59869910E+00
 -1.51973982E+01  7.59869910E+00  7.59869910E+00 -1.51973982E+01  7.59869910E+00
  7.59869910E+00 -1.51973982E+01  7.59869910E+00  7.59869910E+00 -1.51973982E+01
  7.59869910E+00  7.59869910E+00 -1.51973982E+01  7.59869910E+00  7.59869910E+00
 -1.51973982E+01  7.59869910E+00  7.59869910E+00 -1.51973982E+01  7.59869910E+00
  7.59869910E+00 -1.51973982E+01  7.59869910E+00  7.59869910E+00 -1.51973982E+01
  7.59869910E+00  7.59869910E+00 -1.51973982E+01  7.59869910E+00  7.59869910E+00
 -1.51973982E+01  7.59869910E+00  7.59869910E+00 -1.51973982E+01  7.59869910E+00
  7.59869910E+00 -1.51973982E+01  7.59869910E+00  7.59869910E+00 -1.51973982E+01
  7.59869910E+00  7.59869910E+00 -1.51973982E+01  7.59869910E+00  7.59869910E+00
 -1.51973982E+01  7.59869910E+00  7.59869910E+00 -1.51973982E+01  7.59869910E+00
  7.59869910E+00 -1.51973982E+01  7.59869910E+00  7.59869910E+00 -1.51973982E+01
  7.59869910E+00  7.59869910E+00 -1.51973982E+01  7.59869910E+00  7.59869910E+00
 -1.51973982E+01  7.59869910E+00  7.59869910E+00 -1.51973982E+01  7.59869910E+00
  7.59869910E+00 -1.51973982E+01  7.59869910E+00  7.59869910E+00 -1.51973982E+01
  7.59869910E+00  7.59869910E+00 -1.51973982E+01  7.59869910E+00  7.59869910E+00
 -1.51973982E+01  7.59869910E+00  7.59869910E+00 -1.51973982E+01  7.59869910E+00
  7.59869910E+00 -1.51973982E+01  7.59869910E+00  7.59869910E+00 -1.51973982E+01
  7.59869910E+00  7.59869910E+00 -1.51973982E+01  7.59869910E+00  7.59869910E+00
 -1.51973982E+01  7.59869910E+00  7.59869910E+00 -1.51973982E+01  7.59869910E+00
  7.59869910E+00 -1.51973982E+01  7.59869910E+00  7.59869910E+00 -1.51973982E+01
  7.59869910E+00  7.59869910E+00 -1.51973982E+01  7.59869910E+00  7.59869910E+00
 -1.51973982E+01  7.59869910E+00  7.59869910E+00 -1.51973982E+01  7.59869910E+00
  7.59869910E+00 -1.51973982E+01  7.59869910E+00  7.59869910E+00 -1.51973982E+01
  7.59869910E+00  7.59869910E+00 -1.51973982E+01  7.59869910E+00  7.59869910E+00
 -1.51973982E+01  7.59869910E+00  7.59869910E+00 -1.51973982E+01  7.59869910E+00
  7.59869910E+00 -1.51973982E+01  7.59869910E+00  7.59869910E+00 -1.51973982E+01
  7.59869910E+00  7.59869910E+00 -1.51973982E+01  7.59869910E+00  7.59869910E+00
 -1.51973982E+01  7.59869910E+00  7.59869910E+00 -1.51973982E+01  7.59869910E+00
  7.59869910E+00 -1.51973982E+01  7.59869910E+00  7.59869910E+00 -1.51973982E+01
  7.59869910E+00  7.59869910E+00 -1.51973982E+01  7.59869910E+00  7.59869910E+00
 -1.51973982E+01  7.59869910E+00  7.59869910E+00 -1.51973982E+01  7.59869910E+00
  7.59869910E+00 -1.51973982E+01  7.59869910E+00  7.59869910E+00 -1.51973982E+01
  7.59869910E+00  7.59869910E+00 -1.51973982E+01  7.59869910E+00  7.59869910E+00
 -1.51973982E+01  7.59869910E+00  7.59869910E+00 -1.51973982E+01  7.59869910E+00
  7.59869910E+00 -1.51973982E+01  7.59869910E+00  7.59869910E+00 -1.51973982E+01
  7.59869910E+00  7.59869910E+00 -1.51973982E+01  7.59869910E+00  7.59869910E+00
 -1.51973982E+01  7.59869910E+00  7.59869910E+00 -1.51973982E+01  7.59869910E+00
  7.59869910E+00 -1.51973982E+01  7.59869910E+00  7.59869910E+00 -1.51973982E+01
  7.59869910E+00  7.59869910E+00 -1.51973982E+01  7.59869910E+00  7.59869910E+00
 -1.51973982E+01  7.59869910E+00  7.59869910E+00 -1.51973982E+01  7.59869910E+00
  7.59869910E+00 -1.51973982E+01  7.59869910E+00  7.59869910E+00 -1.51973982E+01
  7.59869910E+00  7.59869910E+00 -1.51973982E+01  7.59869910E+00  7.59869910E+00
 -1.51973982E+01  7.59869910E+00  7.59869910E+00 -1.51973982E+01  7.59869910E+00
  7.59869910E+00 -1.51973982E+01  7.59869910E+00  7.59869910E+00 -1.51973982E+01
  7.59869910E+00  7.59869910E+00 -1.51973982E+01  7.59869910E+00  7.59869910E+00
 -1.51973982E+01  7.59869910E+00  7.59869910E+00 -1.51973982E+01  7.59869910E+00
  7.59869910E+00 -1.51973982E+01  7.59869910E+00  7.59869910E+00 -1.51973982E+01
  7.59869910E+00  7.59869910E+00 -1.51973982E+01  7.59869910E+00  7.59869910E+00
 -1.51973982E+01  7.59869910E+00  7.59869910E+00 -1.51973982E+01  7.59869910E+00
  7.59869910E+00 -1.51973982E+01  7.59869910E+00  7.59869910E+00 -1.51973982E+01
  7.59869910E+00  7.59869910E+00 -1.51973982E+01  7.59869910E+00  7.59869910E+00
 -1.51973982E+01  7.59869910E+00  7.59869910E+00 -1.51973982E+01  7.59869910E+00
  7.59869910E+00 -1.51973982E+01  7.59869910E+00  7.59869910E+00 -1.51973982E+01
  7.59869910E+00  7.59869910E+00 -1.51973982E+01  7.59869910E+00  7.59869910E+00
 -1.51973982E+01  7.59869910E+00  7.59869910E+00 -1.51973982E+01  7.59869910E+00
  7.59869910E+00 -1.51973982E+01  7.59869910E+00  7.59869910E+00 -1.51973982E+01
  7.59869910E+00  7.59869910E+00 -1.51973982E+01  7.59869910E+00  7.59869910E+00
 -1.51973982E+01  7.59869910E+00  7.59869910E+00 -1.51973982E+01  7.59869910E+00
  7.59869910E+00 -1.51973982E+01  7.59869910E+00  7.59869910E+00 -1.51973982E+01
  7.59869910E+00  7.59869910E+00 -1.51973982E+01  7.59869910E+00  7.59869910E+00
 -1.51973982E+01  7.59869910E+00  7.59869910E+00 -1.51973982E+01  7.59869910E+00
  7.59869910E+00 -1.51973982E+01  7.59869910E+00  7.59869910E+00 -1.51973982E+01
  7.59869910E+00  7.59869910E+00 -1.51973982E+01  7.59869910E+00  7.59869910E+00
 -1.51973982E+01  7.59869910E+00  7.59869910E+00 -1.51973982E+01  7.59869910E+00
  7.59869910E+00 -1.51973982E+01  7.59869910E+00  7.59869910E+00 -1.51973982E+01
  7.59869910E+00  7.59869910E+00 -1.51973982E+01  7.59869910E+00  7.59869910E+00
 -1.51973982E+01  7.59869910E+00  7.59869910E+00 -1.51973982E+01  7.59869910E+00
  7.59869910E+00 -1.51973982E+01  7.59869910E+00  7.59869910E+00 -1.51973982E+01
  7.59869910E+00  7.59869910E+00 -1.51973982E+01  7.59869910E+00  7.59869910E+00
 -1.51973982E+01  7.59869910E+00  7.59869910E+00 -1.51973982E+01  7.59869910E+00
  7.59869910E+00 -1.51973982E+01  7.59869910E+00  7.59869910E+00 -1.51973982E+01
  7.59869910E+00  7.59869910E+00 -1.51973982E+01  7.59869910E+00  7.59869910E+00
 -1.51973982E+01  7.59869910E+00  7.59869910E+00 -1.51973982E+01  7.59869910E+00
  7.59869910E+00 -1.51973982E+01  7.59869910E+00  7.59869910E+00 -1.51973982E+01
  7.59869910E+00  7.59869910E+00 -1.51973982E+01  7.59869910E+00  7.59869910E+00
 -1.51973982E+01  7.59869910E+00  7.59869910E+00 -1.51973982E+01  7.59869910E+00
  7.59869910E+00 -1.51973982E+01  7.59869910E+00  7.59869910E+00 -1.51973982E+01
  7.59869910E+00  7.59869910E+00 -1.51973982E+01  7.59869910E+00  7.59869910E+00
 -1.51973982E+01  7.59869910E+00  7.59869910E+00 -1.51973982E+01  7.59869910E+00
  7.59869910E+00 -1.51973982E+01  7.59869910E+00  7.59869910E+00 -1.51973982E+01
  7.59869910E+00  7.59869910E+00 -1.51973982E+01  7.59869910E+00  7.59869910E+00
 -1.51973982E+01  7.59869910E+00  7.59869910E+00 -1.51973982E+01  7.59869910E+00
  7.59869910E+00 -1.51973982E+01  7.59869910E+00  7.59869910E+00 -1.51973982E+01
  7.59869910E+00  7.59869910E+00 -1.51973982E+01  7.59869910E+00  7.59869910E+00
 -1.51973982E+01  7.59869910E+00  7.59869910E+00 -1.51973982E+01  7.59869910E+00
  7.59869910E+00 -1.51973982E+01  7.59869910E+00  7.59869910E+00 -1.51973982E+01
  7.59869910E+00  7.59869910E+00 -1.51973982E+01  7.59869910E+00  7.59869910E+00
 -1.51973982E+01  7.59869910E+00  7.59869910E+00 -1.51973982E+01  7.59869910E+00
  7.59869910E+00 -1.51973982E+01  7.59869910E+00  7.59869910E+00 -1.51973982E+01
  7.59869910E+00  7.59869910E+00 -1.51973982E+01  7.59869910E+00  7.59869910E+00
 -1.51973982E+01  7.59869910E+00  7.59869910E+00 -1.51973982E+01  7.59869910E+00
  7.59869910E+00 -1.51973982E+01  7.59869910E+00  7.59869910E+00 -1.51973982E+01
  7.59869910E+00  7.59869910E+00 -1.51973982E+01  7.59869910E+00  7.59869910E+00
 -1.51973982E+01  7.59869910E+00  7.59869910E+00 -1.51973982E+01  7.59869910E+00
  7.59869910E+00 -1.51973982E+01  7.59869910E+00  7.59869910E+00 -1.51973982E+01
  7.59869910E+00  7.59869910E+00 -1.51973982E+01  7.59869910E+00  7.59869910E+00
 -1.51973982E+01  7.59869910E+00  7.59869910E+00 -1.51973982E+01  7.59869910E+00
  7.59869910E+00 -1.51973982E+01  7.59869910E+00  7.59869910E+00 -1.51973982E+01
  7.59869910E+00  7.59869910E+00 -1.51973982E+01  7.59869910E+00  7.59869910E+00
 -1.51973982E+01  7.59869910E+00  7.59869910E+00 -1.51973982E+01  7.59869910E+00
  7.59869910E+00 -1.51973982E+01  7.59869910E+00  7.59869910E+00 -1.51973982E+01
  7.59869910E+00  7.59869910E+00 -1.51973982E+01  7.59869910E+00  7.59869910E+00
 -1.51973982E+01  7.59869910E+00  7.59869910E+00 -1.51973982E+01  7.59869910E+00
  7.59869910E+00 -1.51973982E+01  7.59869910E+00  7.59869910E+00 -1.51973982E+01
  7.59869910E+00  7.59869910E+00 -1.51973982E+01  7.59869910E+00  7.59869910E+00
 -1.51973982E+01  7.59869910E+00  7.59869910E+00 -1.51973982E+01  7.59869910E+00
  7.59869910E+00 -1.51973982E+01  7.59869910E+00  7.59869910E+00 -1.51973982E+01
  7.59869910E+00  7.59869910E+00 -1.51973982E+01  7.59869910E+00  7.59869910E+00
 -1.51973982E+01  7.59869910E+00  7.59869910E+00 -1.51973982E+01  7.59869910E+00
  7.59869910E+00 -1.51973982E+01  7.59869910E+00  7.59869910E+00 -1.51973982E+01
  7.59869910E+00  7.59869910E+00 -1.51973982E+01  7.59869910E+00  7.59869910E+00
 -1.51973982E+01  7.59869910E+00  7.59869910E+00 -1.51973982E+01  7.59869910E+00
  7.59869910E+00 -1.51973982E+01  7.59869910E+00  7.59869910E+00 -1.51973982E+01
  7.59869910E+00  7.59869910E+00 -1.51973982E+01  7.59869910E+00  7.59869910E+00
 -1.51973982E+01  7.59869910E+00  7.59869910E+00 -1.51973982E+01  7.59869910E+00
  7.59869910E+00 -1.51973982E+01  7.59869910E+00  7.59869910E+00 -1.51973982E+01
  7.59869910E+00  7.59869910E+00 -1.51973982E+01  7.59869910E+00  7.59869910E+00
 -1.51973982E+01  7.59869910E+00  7.59869910E+00 -1.51973982E+01  7.59869910E+00
  7.59869910E+00 -1.51973982E+01  7.59869910E+00  7.59869910E+00 -1.51973982E+01
  7.59869910E+00  7.59869910E+00 -1.51973982E+01  7.59869910E+00  7.59869910E+00
 -1.51973982E+01  7.59869910E+00  7.59869910E+00 -1.51973982E+01  7.59869910E+00
  7.59869910E+00 -1.51973982E+01  7.59869910E+00  7.59869910E+00 -1.51973982E+01
  7.59869910E+00  7.59869910E+00 -1.51973982E+01  7.59869910E+00  7.59869910E+00
 -1.51973982E+01  7.59869910E+00  7.59869910E+00 -1.51973982E+01  7.59869910E+00
  7.59869910E+00 -1.51973982E+01  7.59869910E+00  7.59869910E+00 -1.51973982E+01
  7.59869910E+00  7.59869910E+00 -1.51973982E+01  7.59869910E+00  7.59869910E+00
 -1.51973982E+01  7.59869910E+00  7.59869910E+00 -1.51973982E+01  7.59869910E+00
  7.59869910E+00 -1.51973982E+01  7.59869910E+00  7.59869910E+00 -1.51973982E+01
  7.59869910E+00  7.59869910E+00 -1.51973982E+01  7.59869910E+00  7.59869910E+00
 -1.51973982E+01  7.59869910E+00  7.59869910E+00 -1.51973982E+01  7.59869910E+00
  7.59869910E+00 -1.51973982E+01  7.59869910E+00  7.59869910E+00 -1.51973982E+01
  7.59869910E+00  7.59869910E+00 -1.51973982E+01  7.59869910E+00  7.59869910E+00
 -1.51973982E+01  7.59869910E+00  7.59869910E+00 -1.51973982E+01  7.59869910E+00
  7.59869910E+00 -1.51973982E+01  7.59869910E+00  7.59869910E+00 -1.51973982E+01
  7.59869910E+00  7.59869910E+00 -1.51973982E+01  7.59869910E+00  7.59869910E+00
 -1.51973982E+01  7.59869910E+00  7.59869910E+00 -1.51973982E+01  7.59869910E+00
  7.59869910E+00 -1.51973982E+01  7.59869910E+00  7.59869910E+00 -1.51973982E+01
  7.59869910E+00  7.59869910E+00 -1.51973982E+01  7.59869910E+00  7.59869910E+00
 -1.51973982E+01  7.59869910E+00  7.59869910E+00 -1.51973982E+01  7.59869910E+00
  7.59869910E+00 -1.51973982E+01  7.59869910E+00  7.59869910E+00 -1.51973982E+01
  7.59869910E+00  7.59869910E+00 -1.51973982E+01  7.59869910E+00  7.59869910E+00
 -1.51973982E+01  7.59869910E+00  7.59869910E+00 -1.51973982E+01  7.59869910E+00
  7.59869910E+00 -1.51973982E+01  7.59869910E+00  7.59869910E+00 -1.51973982E+01
  7.59869910E+00  7.59869910E+00 -1.51973982E+01  7.59869910E+00  7.59869910E+00
 -1.51973982E+01  7.59869910E+00  7.59869910E+00 -1.51973982E+01  7.59869910E+00
  7.59869910E+00 -1.51973982E+01  7.59869910E+00  7.59869910E+00 -1.51973982E+01
  7.59869910E+00  7.59869910E+00 -1.51973982E+01  7.59869910E+00  7.59869910E+00
 -1.51973982E+01  7.59869910E+00  7.59869910E+00 -1.51973982E+01  7.59869910E+00
  7.59869910E+00 -1.51973982E+01  7.59869910E+00  7.59869910E+00 -1.51973982E+01
  7.59869910E+00  7.59869910E+00 -1.51973982E+01  7.59869910E+00  7.59869910E+00
 -1.51973982E+01  7.59869910E+00  7.59869910E+00 -1.51973982E+01  7.59869910E+00
  7.59869910E+00 -1.51973982E+01  7.59869910E+00  7.59869910E+00 -1.51973982E+01
  7.59869910E+00  7.59869910E+00 -1.51973982E+01  7.59869910E+00  7.59869910E+00
 -1.51973982E+01  7.59869910E+00  7.59869910E+00 -1.51973982E+01  7.59869910E+00
  7.59869910E+00 -1.51973982E+01  7.59869910E+00  7.59869910E+00 -1.51973982E+01
  7.59869910E+00  7.59869910E+00 -1.51973982E+01  7.59869910E+00  7.59869910E+00
 -1.51973982E+01  7.59869910E+00  7.59869910E+00 -1.51973982E+01  7.59869910E+00
  7.59869910E+00 -1.51973982E+01  7.59869910E+00  7.59869910E+00 -1.51973982E+01
  7.59869910E+00  7.59869910E+00 -1.51973982E+01  7.59869910E+00  7.59869910E+00
 -1.51973982E+01  7.59869910E+00  7.59869910E+00 -1.51973982E+01  7.59869910E+00
  7.59869910E+00 -1.51973982E+01  7.59869910E+00  7.59869910E+00 -1.51973982E+01
  7.59869910E+00  7.59869910E+00 -1.51973982E+01  7.59869910E+00  7.59869910E+00
 -1.51973982E+01  7.59869910E+00  7.59869910E+00 -1.51973982E+01  7.59869910E+00
  7.59869910E+00 -1.51973982E+01  7.59869910E+00  7.59869910E+00 -1.51973982E+01
  7.59869910E+00  7.59869910E+00 -1.51973982E+01  7.59869910E+00  7.59869910E+00
 -1.51973982E+01  7.59869910E+00  7.59869910E+00 -1.51973982E+01  7.59869910E+00
  7.59869910E+00 -1.51973982E+01  7.59869910E+00  7.59869910E+00 -1.51973982E+01
  7.59869910E+00  7.59869910E+00 -1.51973982E+01  7.59869910E+00  7.59869910E+00
 -1.51973982E+01  7.59869910E+00  7.59869910E+00 -1.51973982E+01  7.59869910E+00
  7.59869910E+00 -1.51973982E+01  7.59869910E+00  7.59869910E+00 -1.51973982E+01
  7.59869910E+00  7.59869910E+00 -1.51973982E+01  7.59869910E+00  7.59869910E+00
 -1.51973982E+01  7.59869910E+00  7.59869910E+00 -1.51973982E+01  7.59869910E+00
  7.59869910E+00 -1.51973982E+01  7.59869910E+00  7.59869910E+00 -1.51973982E+01
  7.59869910E+00  7.59869910E+00 -1.51973982E+01  7.59869910E+00  7.59869910E+00
 -1.51973982E+01  7.59869910E+00  7.59869910E+00 -1.51973982E+01  7.59869910E+00
  7.59869910E+00 -1.51973982E+01  7.59869910E+00  7.59869910E+00 -1.51973982E+01
  7.59869910E+00  7.59869910E+00 -1.51973982E+01  7.59869910E+00  7.59869910E+00
 -1.51973982E+01  7.59869910E+00  7.59869910E+00 -1.51973982E+01  7.59869910E+00
  7.59869910E+00 -1.51973982E+01  7.59869910E+00  7.59869910E+00 -1.51973982E+01
  7.59869910E+00  7.59869910E+00 -1.51973982E+01  7.59869910E+00  7.59869910E+00
 -1.51973982E+01  7.59869910E+00  7.59869910E+00 -1.51973982E+01  7.59869910E+00
  7.59869910E+00 -1.51973982E+01  7.59869910E+00  7.59869910E+00 -1.51973982E+01
  7.59869910E+00  7.59869910E+00 -1.51973982E+01  7.59869910E+00  7.59869910E+00
 -1.51973982E+01  7.59869910E+00  7.59869910E+00 -1.51973982E+01  7.59869910E+00
  7.59869910E+00 -1.51973982E+01  7.59869910E+00  7.59869910E+00 -1.51973982E+01
  7.59869910E+00  7.59869910E+00 -1.51973982E+01  7.59869910E+00  7.59869910E+00
 -1.51973982E+01  7.59869910E+00  7.59869910E+00 -1.51973982E+01  7.59869910E+00
  7.59869910E+00 -1.51973982E+01  7.59869910E+00  7.59869910E+00 -1.51973982E+01
  7.59869910E+00  7.59869910E+00 -1.51973982E+01  7.59869910E+00  7.59869910E+00
 -1.51973982E+01  7.59869910E+00  7.59869910E+00 -1.51973982E+01  7.59869910E+00
  7.59869910E+00 -1.51973982E+01  7.59869910E+00  7.59869910E+00 -1.51973982E+01
  7.59869910E+00  7.59869910E+00 -1.51973982E+01  7.59869910E+00  7.59869910E+00
 -1.51973982E+01  7.59869910E+00  7.59869910E+00 -1.51973982E+01  7.59869910E+00
  7.59869910E+00 -1.51973982E+01  7.59869910E+00  7.59869910E+00 -1.51973982E+01
  7.59869910E+00  7.59869910E+00 -1.51973982E+01  7.59869910E+00  7.59869910E+00
 -1.51973982E+01  7.59869910E+00  7.59869910E+00 -1.51973982E+01  7.59869910E+00
  7.59869910E+00 -1.51973982E+01  7.59869910E+00  7.59869910E+00 -1.51973982E+01
  7.59869910E+00  7.59869910E+00 -1.51973982E+01  7.59869910E+00  7.59869910E+00
 -1.51973982E+01  7.59869910E+00  7.59869910E+00 -1.51973982E+01  7.59869910E+00
  7.59869910E+00 -1.51973982E+01  7.59869910E+00  7.59869910E+00 -1.51973982E+01
  7.59869910E+00  7.59869910E+00 -1.51973982E+01  7.59869910E+00  7.59869910E+00
 -1.51973982E+01  7.59869910E+00  7.59869910E+00 -1.51973982E+01  7.59869910E+00
  7.59869910E+00 -1.51973982E+01  7.59869910E+00  7.59869910E+00 -1.51973982E+01
  7.59869910E+00  7.59869910E+00 -1.51973982E+01  7.59869910E+00  7.59869910E+00
 -1.51973982E+01  7.59869910E+00  7.59869910E+00 -1.51973982E+01  7.59869910E+00
  7.59869910E+00 -1.51973982E+01  7.59869910E+00  7.59869910E+00 -1.51973982E+01
  7.59869910E+00  7.59869910E+00 -1.51973982E+01  7.59869910E+00  7.59869910E+00
 -1.51973982E+01  7.59869910E+00  7.59869910E+00 -1.51973982E+01  7.59869910E+00
  7.59869910E+00 -1.51973982E+01  7.59869910E+00  7.59869910E+00 -1.51973982E+01
  7.59869910E+00  7.59869910E+00 -1.51973982E+01  7.59869910E+00  7.59869910E+00
 -1.51973982E+01  7.59869910E+00  7.59869910E+00 -1.51973982E+01  7.59869910E+00
  7.59869910E+00 -1.51973982E+01  7.59869910E+00  7.59869910E+00 -1.51973982E+01
  7.59869910E+00  7.59869910E+00 -1.51973982E+01  7.59869910E+00  7.59869910E+00
 -1.51973982E+01  7.59869910E+00  7.59869910E+00 -1.51973982E+01  7.59869910E+00
  7.59869910E+00 -1.51973982E+01  7.59869910E+00  7.59869910E+00 -1.51973982E+01
  7.59869910E+00  7.59869910E+00 -1.51973982E+01  7.59869910E+00  7.59869910E+00
 -1.51973982E+01  7.59869910E+00  7.59869910E+00 -1.51973982E+01  7.59869910E+00
  7.59869910E+00 -1.51973982E+01  7.59869910E+00  7.59869910E+00 -1.51973982E+01
  7.59869910E+00  7.59869910E+00 -1.51973982E+01  7.59869910E+00  7.59869910E+00
 -1.51973982E+01  7.59869910E+00  7.59869910E+00 -1.51973982E+01  7.59869910E+00
  7.59869910E+00 -1.51973982E+01  7.59869910E+00  7.59869910E+00 -1.51973982E+01
  7.59869910E+00  7.59869910E+00 -1.51973982E+01  7.59869910E+00  7.59869910E+00
 -1.51973982E+01  7.59869910E+00  7.59869910E+00 -1.51973982E+01  7.59869910E+00
  7.59869910E+00 -1.51973982E+01  7.59869910E+00  7.59869910E+00 -1.51973982E+01
  7.59869910E+00  7.59869910E+00 -1.51973982E+01  7.59869910E+00  7.59869910E+00
 -1.51973982E+01  7.59869910E+00  7.59869910E+00 -1.51973982E+01  7.59869910E+00
  7.59869910E+00 -1.51973982E+01  7.59869910E+00  7.59869910E+00 -1.51973982E+01
  7.59869910E+00  7.59869910E+00 -1.51973982E+01  7.59869910E+00  7.59869910E+00
 -1.51973982E+01  7.59869910E+00  7.59869910E+00 -1.51973982E+01  7.59869910E+00
  7.59869910E+00 -1.51973982E+01  7.59869910E+00  7.59869910E+00 -1.51973982E+01
  7.59869910E+00  7.59869910E+00 -1.51973982E+01  7.59869910E+00  7.59869910E+00
 -1.51973982E+01  7.59869910E+00  7.59869910E+00 -1.51973982E+01  7.59869910E+00
  7.59869910E+00 -1.51973982E+01  7.59869910E+00  7.59869910E+00 -1.51973982E+01
  7.59869910E+00  7.59869910E+00 -1.51973982E+01  7.59869910E+00  7.59869910E+00
 -1.51973982E+01  7.59869910E+00  7.59869910E+00 -1.51973982E+01  7.59869910E+00
  7.59869910E+00 -1.51973982E+01  7.59869910E+00  7.59869910E+00 -1.51973982E+01
  7.59869910E+00  7.59869910E+00 -1.51973982E+01  7.59869910E+00  7.59869910E+00
 -1.51973982E+01  7.59869910E+00  7.59869910E+00 -1.51973982E+01  7.59869910E+00
  7.59869910E+00 -1.51973982E+01  7.59869910E+00  7.59869910E+00 -1.51973982E+01
  7.59869910E+00  7.59869910E+00 -1.51973982E+01  7.59869910E+00  7.59869910E+00
 -1.51973982E+01  7.59869910E+00  7.59869910E+00 -1.51973982E+01  7.59869910E+00
  7.59869910E+00 -1.51973982E+01  7.59869910E+00  7.59869910E+00 -1.51973982E+01
  7.59869910E+00  7.59869910E+00 -1.51973982E+01  7.59869910E+00  7.59869910E+00
 -1.51973982E+01  7.59869910E+00  7.59869910E+00 -1.51973982E+01  7.59869910E+00
  7.59869910E+00 -1.51973982E+01  7.59869910E+00  7.59869910E+00 -1.51973982E+01
  7.59869910E+00  7.59869910E+00 -1.51973982E+01  7.59869910E+00  7.59869910E+00
 -1.51973982E+01  7.59869910E+00  7.59869910E+00 -1.51973982E+01  7.59869910E+00
  7.59869910E+00 -1.51973982E+01  7.59869910E+00  7.59869910E+00 -1.51973982E+01
  7.59869910E+00  7.59869910E+00 -1.51973982E+01  7.59869910E+00  7.59869910E+00
 -1.51973982E+01  7.59869910E+00  7.59869910E+00 -1.51973982E+01  7.59869910E+00
  7.59869910E+00 -1.51973982E+01  7.59869910E+00  7.59869910E+00 -1.51973982E+01
  7.59869910E+00  7.59869910E+00 -1.51973982E+01  7.59869910E+00  7.59869910E+00
 -1.51973982E+01  7.59869910E+00  7.59869910E+00 -1.51973982E+01  7.59869910E+00
  7.59869910E+00 -1.51973982E+01  7.59869910E+00  7.59869910E+00 -1.51973982E+01
  7.59869910E+00  7.59869910E+00 -1.51973982E+01  7.59869910E+00  7.59869910E+00
 -1.51973982E+01  7.59869910E+00  7.59869910E+00 -1.51973982E+01  7.59869910E+00
  7.59869910E+00 -1.51973982E+01  7.59869910E+00  7.59869910E+00 -1.51973982E+01
  7.59869910E+00  7.59869910E+00 -1.51973982E+01  7.59869910E+00  7.59869910E+00
 -1.51973982E+01  7.59869910E+00  7.59869910E+00 -1.51973982E+01  7.59869910E+00
  7.59869910E+00 -1.51973982E+01  7.59869910E+00  7.59869910E+00 -1.51973982E+01
  7.59869910E+00  7.59869910E+00 -1.51973982E+01  7.59869910E+00  7.59869910E+00
 -1.51973982E+01  7.59869910E+00  7.59869910E+00 -1.51973982E+01  7.59869910E+00
  7.59869910E+00 -1.51973982E+01  7.59869910E+00  7.59869910E+00 -1.51973982E+01
  7.59869910E+00  7.59869910E+00 -1.51973982E+01  7.59869910E+00  7.59869910E+00
 -1.51973982E+01  7.59869910E+00  7.59869910E+00 -1.51973982E+01  7.59869910E+00
  7.59869910E+00 -1.51973982E+01  7.59869910E+00  7.59869910E+00 -1.51973982E+01
  7.59869910E+00  7.59869910E+00 -1.51973982E+01  7.59869910E+00  7.59869910E+00
 -1.51973982E+01  7.59869910E+00  7.59869910E+00 -1.51973982E+01  7.59869910E+00
  7.59869910E+00 -1.51973982E+01  7.59869910E+00  7.59869910E+00 -1.51973982E+01
  7.59869910E+00  7.59869910E+00 -1.51973982E+01  7.59869910E+00  7.59869910E+00
 -1.51973982E+01  7.59869910E+00  7.59869910E+00 -1.51973982E+01  7.59869910E+00
  7.59869910E+00 -1.51973982E+01  7.59869910E+00  7.59869910E+00 -1.51973982E+01
  7.59869910E+00  7.59869910E+00 -1.51973982E+01  7.59869910E+00  7.59869910E+00
 -1.51973982E+01  7.59869910E+00  7.59869910E+00 -1.51973982E+01  7.59869910E+00
  7.59869910E+00 -1.51973982E+01  7.59869910E+00  7.59869910E+00 -1.51973982E+01
  7.59869910E+00  7.59869910E+00 -1.51973982E+01  7.59869910E+00  7.59869910E+00
 -1.51973982E+01  7.59869910E+00  7.59869910E+00 -1.51973982E+01  7.59869910E+00
  7.59869910E+00 -1.51973982E+01  7.59869910E+00  7.59869910E+00 -1.51973982E+01
  7.59869910E+00  7.59869910E+00 -1.51973982E+01  7.59869910E+00  7.59869910E+00
 -1.51973982E+01  7.59869910E+00  7.59869910E+00 -1.51973982E+01  7.59869910E+00
  7.59869910E+00 -1.51973982E+01  7.59869910E+00  7.59869910E+00 -1.51973982E+01
  7.59869910E+00  7.59869910E+00 -1.51973982E+01  7.59869910E+00  7.59869910E+00
 -1.51973982E+01  7.59869910E+00  7.59869910E+00 -1.51973982E+01  7.59869910E+00
  7.59869910E+00 -1.51973982E+01  7.59869910E+00  7.59869910E+00 -1.51973982E+01
  7.59869910E+00  7.59869910E+00 -1.51973982E+01  7.59869910E+00  7.59869910E+00
 -1.51973982E+01  7.59869910E+00  7.59869910E+00 -1.51973982E+01  7.59869910E+00
  7.59869910E+00 -1.51973982E+01  7.59869910E+00  7.59869910E+00 -1.51973982E+01
  7.59869910E+00  7.59869910E+00 -1.51973982E+01  7.59869910E+00  7.59869910E+00
 -1.51973982E+01  7.59869910E+00  7.59869910E+00 -1.51973982E+01  7.59869910E+00
  7.59869910E+00 -1.51973982E+01  7.59869910E+00  7.59869910E+00 -1.51973982E+01
  7.59869910E+00  7.59869910E+00 -1.51973982E+01  7.59869910E+00  7.59869910E+00
 -1.51973982E+01  7.59869910E+00  7.59869910E+00 -1.51973982E+01  7.59869910E+00
  7.59869910E+00 -1.51973982E+01  7.59869910E+00  7.59869910E+00 -1.51973982E+01
  7.59869910E+00  7.59869910E+00 -1.51973982E+01  7.59869910E+00  7.59869910E+00
 -1.51973982E+01  7.59869910E+00  7.59869910E+00 -1.51973982E+01  7.59869910E+00
  7.59869910E+00 -1.51973982E+01  7.59869910E+00  7.59869910E+00 -1.51973982E+01
  7.59869910E+00  7.59869910E+00 -1.51973982E+01  7.59869910E+00  7.59869910E+00
 -1.51973982E+01  7.59869910E+00  7.59869910E+00 -1.51973982E+01  7.59869910E+00
  7.59869910E+00 -1.51973982E+01  7.59869910E+00  7.59869910E+00 -1.51973982E+01
  7.59869910E+00  7.59869910E+00 -1.51973982E+01  7.59869910E+00  7.59869910E+00
 -1.51973982E+01  7.59869910E+00  7.59869910E+00 -1.51973982E+01  7.59869910E+00
  7.59869910E+00 -1.51973982E+01  7.59869910E+00  7.59869910E+00 -1.51973982E+01
  7.59869910E+00  7.59869910E+00 -1.51973982E+01  7.59869910E+00  7.59869910E+00
 -1.51973982E+01  7.59869910E+00  7.59869910E+00 -1.51973982E+01  7.59869910E+00
  7.59869910E+00 -1.51973982E+01  7.59869910E+00  7.59869910E+00 -1.51973982E+01
  7.59869910E+00  7.59869910E+00 -1.51973982E+01  7.59869910E+00  7.59869910E+00
 -1.51973982E+01  7.59869910E+00  7.59869910E+00 -1.51973982E+01  7.59869910E+00
  7.59869910E+00 -1.51973982E+01  7.59869910E+00  7.59869910E+00 -1.51973982E+01
  7.59869910E+00  7.59869910E+00 -1.51973982E+01  7.59869910E+00  7.59869910E+00
 -1.51973982E+01  7.59869910E+00  7.59869910E+00 -1.51973982E+01  7.59869910E+00
  7.59869910E+00 -1.51973982E+01  7.59869910E+00  7.59869910E+00 -1.51973982E+01
  7.59869910E+00  7.59869910E+00 -1.51973982E+01  7.59869910E+00  7.59869910E+00
 -1.51973982E+01  7.59869910E+00  7.59869910E+00 -1.51973982E+01  7.59869910E+00
  7.59869910E+00 -1.51973982E+01  7.59869910E+00  7.59869910E+00 -1.51973982E+01
  7.59869910E+00  7.59869910E+00 -1.51973982E+01  7.59869910E+00  7.59869910E+00
 -1.51973982E+01  7.59869910E+00  7.59869910E+00 -1.51973982E+01  7.59869910E+00
  7.59869910E+00 -1.51973982E+01  7.59869910E+00  7.59869910E+00 -1.51973982E+01
  7.59869910E+00  7.59869910E+00 -1.51973982E+01  7.59869910E+00  7.59869910E+00
 -1.51973982E+01  7.59869910E+00  7.59869910E+00 -1.51973982E+01  7.59869910E+00
  7.59869910E+00 -1.51973982E+01  7.59869910E+00  7.59869910E+00 -1.51973982E+01
  7.59869910E+00  7.59869910E+00 -1.51973982E+01  7.59869910E+00  7.59869910E+00
 -1.51973982E+01  7.59869910E+00  7.59869910E+00 -1.51973982E+01  7.59869910E+00
  7.59869910E+00 -1.51973982E+01  7.59869910E+00  7.59869910E+00 -1.51973982E+01
  7.59869910E+00  7.59869910E+00 -1.51973982E+01  7.59869910E+00  7.59869910E+00
 -1.51973982E+01  7.59869910E+00  7.59869910E+00 -1.51973982E+01  7.59869910E+00
  7.59869910E+00 -1.51973982E+01  7.59869910E+00  7.59869910E+00 -1.51973982E+01
  7.59869910E+00  7.59869910E+00 -1.51973982E+01  7.59869910E+00  7.59869910E+00
 -1.51973982E+01  7.59869910E+00  7.59869910E+00 -1.51973982E+01  7.59869910E+00
  7.59869910E+00 -1.51973982E+01  7.59869910E+00  7.59869910E+00 -1.51973982E+01
  7.59869910E+00  7.59869910E+00 -1.51973982E+01  7.59869910E+00  7.59869910E+00
 -1.51973982E+01  7.59869910E+00  7.59869910E+00 -1.51973982E+01  7.59869910E+00
  7.59869910E+00 -1.51973982E+01  7.59869910E+00  7.59869910E+00 -1.51973982E+01
  7.59869910E+00  7.59869910E+00 -1.51973982E+01  7.59869910E+00  7.59869910E+00
 -1.51973982E+01  7.59869910E+00  7.59869910E+00 -1.51973982E+01  7.59869910E+00
  7.59869910E+00 -1.51973982E+01  7.59869910E+00  7.59869910E+00 -1.51973982E+01
  7.59869910E+00  7.59869910E+00 -1.51973982E+01  7.59869910E+00  7.59869910E+00
 -1.51973982E+01  7.59869910E+00  7.59869910E+00 -1.51973982E+01  7.59869910E+00
  7.59869910E+00 -1.51973982E+01  7.59869910E+00  7.59869910E+00 -1.51973982E+01
  7.59869910E+00  7.59869910E+00 -1.51973982E+01  7.59869910E+00  7.59869910E+00
 -1.51973982E+01  7.59869910E+00  7.59869910E+00 -1.51973982E+01  7.59869910E+00
  7.59869910E+00 -1.51973982E+01  7.59869910E+00  7.59869910E+00 -1.51973982E+01
  7.59869910E+00  7.59869910E+00 -1.51973982E+01  7.59869910E+00  7.59869910E+00
 -1.51973982E+01  7.59869910E+00  7.59869910E+00 -1.51973982E+01  7.59869910E+00
  7.59869910E+00 -1.51973982E+01  7.59869910E+00  7.59869910E+00 -1.51973982E+01
  7.59869910E+00  7.59869910E+00 -1.51973982E+01  7.59869910E+00  7.59869910E+00
 -1.51973982E+01  7.59869910E+00  7.59869910E+00 -1.51973982E+01  7.59869910E+00
  7.59869910E+00 -1.51973982E+01  7.59869910E+00  7.59869910E+00 -1.51973982E+01
  7.59869910E+00  7.59869910E+00 -1.51973982E+01  7.59869910E+00  7.59869910E+00
 -1.51973982E+01  7.59869910E+00  7.59869910E+00 -1.51973982E+01  7.59869910E+00
  7.59869910E+00 -1.51973982E+01  7.59869910E+00  7.59869910E+00 -1.51973982E+01
  7.59869910E+00  7.59869910E+00 -1.51973982E+01  7.59869910E+00  7.59869910E+00
 -1.51973982E+01  7.59869910E+00  7.59869910E+00 -1.51973982E+01  7.59869910E+00
  7.59869910E+00 -1.51973982E+01  7.59869910E+00  7.59869910E+00 -1.51973982E+01
  7.59869910E+00  7.59869910E+00 -1.51973982E+01  7.59869910E+00  7.59869910E+00
 -1.51973982E+01  7.59869910E+00  7.59869910E+00 -1.51973982E+01  7.59869910E+00
  7.59869910E+00 -1.51973982E+01  7.59869910E+00  7.59869910E+00 -1.51973982E+01
  7.59869910E+00  7.59869910E+00 -1.51973982E+01  7.59869910E+00  7.59869910E+00
 -1.51973982E+01  7.59869910E+00  7.59869910E+00 -1.51973982E+01  7.59869910E+00
  7.59869910E+00 -1.51973982E+01  7.59869910E+00  7.59869910E+00 -1.51973982E+01
  7.59869910E+00  7.59869910E+00 -1.51973982E+01  7.59869910E+00  7.59869910E+00
 -1.51973982E+01  7.59869910E+00  7.59869910E+00 -1.51973982E+01  7.59869910E+00
  7.59869910E+00 -1.51973982E+01  7.59869910E+00  7.59869910E+00 -1.51973982E+01
  7.59869910E+00  7.59869910E+00 -1.51973982E+01  7.59869910E+00  7.59869910E+00
 -1.51973982E+01  7.59869910E+00  7.59869910E+00 -1.51973982E+01  7.59869910E+00
  7.59869910E+00 -1.51973982E+01  7.59869910E+00  7.59869910E+00 -1.51973982E+01
  7.59869910E+00  7.59869910E+00 -1.51973982E+01  7.59869910E+00  7.59869910E+00
 -1.51973982E+01  7.59869910E+00  7.59869910E+00 -1.51973982E+01  7.59869910E+00
  7.59869910E+00 -1.51973982E+01  7.59869910E+00  7.59869910E+00 -1.51973982E+01
  7.59869910E+00  7.59869910E+00 -1.51973982E+01  7.59869910E+00  7.59869910E+00
 -1.51973982E+01  7.59869910E+00  7.59869910E+00 -1.51973982E+01  7.59869910E+00
  7.59869910E+00 -1.51973982E+01  7.59869910E+00  7.59869910E+00 -1.51973982E+01
  7.59869910E+00  7.59869910E+00 -1.51973982E+01  7.59869910E+00  7.59869910E+00
 -1.51973982E+01  7.59869910E+00  7.59869910E+00 -1.51973982E+01  7.59869910E+00
  7.59869910E+00 -1.51973982E+01  7.59869910E+00  7.59869910E+00 -1.51973982E+01
  7.59869910E+00  7.59869910E+00 -1.51973982E+01  7.59869910E+00  7.59869910E+00
 -1.51973982E+01  7.59869910E+00  7.59869910E+00 -1.51973982E+01  7.59869910E+00
  7.59869910E+00 -1.51973982E+01  7.59869910E+00  7.59869910E+00 -1.51973982E+01
  7.59869910E+00  7.59869910E+00 -1.51973982E+01  7.59869910E+00  7.59869910E+00
 -1.51973982E+01  7.59869910E+00  7.59869910E+00 -1.51973982E+01  7.59869910E+00
  7.59869910E+00 -1.51973982E+01  7.59869910E+00  7.59869910E+00 -1.51973982E+01
  7.59869910E+00  7.59869910E+00 -1.51973982E+01  7.59869910E+00  7.59869910E+00
 -1.51973982E+01  7.59869910E+00  7.59869910E+00 -1.51973982E+01  7.59869910E+00
  7.59869910E+00 -1.51973982E+01  7.59869910E+00  7.59869910E+00 -1.51973982E+01
  7.59869910E+00  7.59869910E+00 -1.51973982E+01  7.59869910E+00  7.59869910E+00
 -1.51973982E+01  7.59869910E+00  7.59869910E+00 -1.51973982E+01  7.59869910E+00
  7.59869910E+00 -1.51973982E+01  7.59869910E+00  7.59869910E+00 -1.51973982E+01
  7.59869910E+00  7.59869910E+00 -1.51973982E+01  7.59869910E+00  7.59869910E+00
 -1.51973982E+01  7.59869910E+00  7.59869910E+00 -1.51973982E+01  7.59869910E+00
  7.59869910E+00 -1.51973982E+01  7.59869910E+00  7.59869910E+00 -1.51973982E+01
  7.59869910E+00  7.59869910E+00 -1.51973982E+01  7.59869910E+00  7.59869910E+00
 -1.51973982E+01  7.59869910E+00  7.59869910E+00 -1.51973982E+01  7.59869910E+00
  7.59869910E+00 -1.51973982E+01  7.59869910E+00  7.59869910E+00 -1.51973982E+01
  7.59869910E+00  7.59869910E+00 -1.51973982E+01  7.59869910E+00  7.59869910E+00
 -1.51973982E+01  7.59869910E+00  7.59869910E+00 -1.51973982E+01  7.59869910E+00
  7.59869910E+00 -1.51973982E+01  7.59869910E+00  7.59869910E+00 -1.51973982E+01
  7.59869910E+00  7.59869910E+00 -1.51973982E+01  7.59869910E+00  7.59869910E+00
 -1.51973982E+01  7.59869910E+00  7.59869910E+00 -1.51973982E+01  7.59869910E+00
  7.59869910E+00 -1.51973982E+01  7.59869910E+00  7.59869910E+00 -1.51973982E+01
  7.59869910E+00  7.59869910E+00 -1.51973982E+01  7.59869910E+00  7.59869910E+00
 -1.51973982E+01  7.59869910E+00  7.59869910E+00 -1.51973982E+01  7.59869910E+00
  7.59869910E+00 -1.51973982E+01  7.59869910E+00  7.59869910E+00 -1.51973982E+01
  7.59869910E+00  7.59869910E+00 -1.51973982E+01  7.59869910E+00  7.59869910E+00
 -1.51973982E+01  7.59869910E+00  7.59869910E+00 -1.51973982E+01  7.59869910E+00
  7.59869910E+00 -1.51973982E+01  7.59869910E+00  7.59869910E+00 -1.51973982E+01
  7.59869910E+00  7.59869910E+00 -1.51973982E+01  7.59869910E+00  7.59869910E+00
 -1.51973982E+01  7.59869910E+00  7.59869910E+00 -1.51973982E+01  7.59869910E+00
  7.59869910E+00 -1.51973982E+01  7.59869910E+00  7.59869910E+00 -1.51973982E+01
  7.59869910E+00  7.59869910E+00 -1.51973982E+01  7.59869910E+00  7.59869910E+00
 -1.51973982E+01  7.59869910E+00  7.59869910E+00 -1.51973982E+01  7.59869910E+00
  7.59869910E+00 -1.51973982E+01  7.59869910E+00  7.59869910E+00 -1.51973982E+01
  7.59869910E+00  7.59869910E+00 -1.51973982E+01  7.59869910E+00  7.59869910E+00
 -1.51973982E+01  7.59869910E+00  7.59869910E+00 -1.51973982E+01  7.59869910E+00
  7.59869910E+00 -1.51973982E+01  7.59869910E+00  7.59869910E+00 -1.51973982E+01
  7.59869910E+00  7.59869910E+00 -1.51973982E+01  7.59869910E+00  7.59869910E+00
 -1.51973982E+01  7.59869910E+00  7.59869910E+00 -1.51973982E+01  7.59869910E+00
  7.59869910E+00 -1.51973982E+01  7.59869910E+00  7.59869910E+00 -1.51973982E+01
  7.59869910E+00  7.59869910E+00 -1.51973982E+01  7.59869910E+00  7.59869910E+00
 -1.51973982E+01  7.59869910E+00  7.59869910E+00 -1.51973982E+01  7.59869910E+00
  7.59869910E+00 -1.51973982E+01  7.59869910E+00  7.59869910E+00 -1.51973982E+01
  7.59869910E+00  7.59869910E+00 -1.51973982E+01  7.59869910E+00  7.59869910E+00
 -1.51973982E+01  7.59869910E+00  7.59869910E+00 -1.51973982E+01  7.59869910E+00
  7.59869910E+00 -1.51973982E+01  7.59869910E+00  7.59869910E+00 -1.51973982E+01
  7.59869910E+00  7.59869910E+00 -1.51973982E+01  7.59869910E+00  7.59869910E+00
 -1.51973982E+01  7.59869910E+00  7.59869910E+00 -1.51973982E+01  7.59869910E+00
  7.59869910E+00 -1.51973982E+01  7.59869910E+00  7.59869910E+00 -1.51973982E+01
  7.59869910E+00  7.59869910E+00 -1.51973982E+01  7.59869910E+00  7.59869910E+00
 -1.51973982E+01  7.59869910E+00  7.59869910E+00 -1.51973982E+01  7.59869910E+00
  7.59869910E+00 -1.51973982E+01  7.59869910E+00  7.59869910E+00 -1.51973982E+01
  7.59869910E+00  7.59869910E+00 -1.51973982E+01  7.59869910E+00  7.59869910E+00
 -1.51973982E+01  7.59869910E+00  7.59869910E+00 -1.51973982E+01  7.59869910E+00
  7.59869910E+00 -1.51973982E+01  7.59869910E+00  7.59869910E+00 -1.51973982E+01
  7.59869910E+00  7.59869910E+00 -1.51973982E+01  7.59869910E+00  7.59869910E+00
 -1.51973982E+01  7.59869910E+00  7.59869910E+00 -1.51973982E+01  7.59869910E+00
  7.59869910E+00 -1.51973982E+01  7.59869910E+00  7.59869910E+00 -1.51973982E+01
  7.59869910E+00  7.59869910E+00 -1.51973982E+01  7.59869910E+00  7.59869910E+00
 -1.51973982E+01  7.59869910E+00  7.59869910E+00 -1.51973982E+01  7.59869910E+00
  7.59869910E+00 -1.51973982E+01  7.59869910E+00  7.59869910E+00 -1.51973982E+01
  7.59869910E+00  7.59869910E+00 -1.51973982E+01  7.59869910E+00  7.59869910E+00
 -1.51973982E+01  7.59869910E+00  7.59869910E+00 -1.51973982E+01  7.59869910E+00
  7.59869910E+00 -1.51973982E+01  7.59869910E+00  7.59869910E+00 -1.51973982E+01
  7.59869910E+00  7.59869910E+00 -1.51973982E+01  7.59869910E+00  7.59869910E+00
 -1.51973982E+01  7.59869910E+00  7.59869910E+00 -1.51973982E+01  7.59869910E+00
  7.59869910E+00 -1.51973982E+01  7.59869910E+00  7.59869910E+00 -1.51973982E+01
  7.59869910E+00  7.59869910E+00 -1.51973982E+01  7.59869910E+00  7.59869910E+00
 -1.51973982E+01  7.59869910E+00  7.59869910E+00 -1.51973982E+01  7.59869910E+00
  7.59869910E+00 -1.51973982E+01  7.59869910E+00  7.59869910E+00 -1.51973982E+01
  7.59869910E+00  7.59869910E+00 -1.51973982E+01  7.59869910E+00  7.59869910E+00
 -1.51973982E+01  7.59869910E+00  7.59869910E+00 -1.51973982E+01  7.59869910E+00
  7.59869910E+00 -1.51973982E+01  7.59869910E+00  7.59869910E+00 -1.51973982E+01
  7.59869910E+00  7.59869910E+00 -1.51973982E+01  7.59869910E+00  7.59869910E+00
 -1.51973982E+01  7.59869910E+00  7.59869910E+00 -1.51973982E+01  7.59869910E+00
  7.59869910E+00 -1.51973982E+01  7.59869910E+00  7.59869910E+00 -1.51973982E+01
  7.59869910E+00  7.59869910E+00 -1.51973982E+01  7.59869910E+00  7.59869910E+00
 -1.51973982E+01  7.59869910E+00  7.59869910E+00 -1.51973982E+01  7.59869910E+00
  7.59869910E+00 -1.51973982E+01  7.59869910E+00  7.59869910E+00 -1.51973982E+01
  7.59869910E+00  7.59869910E+00 -1.51973982E+01  7.59869910E+00  7.59869910E+00
 -1.51973982E+01  7.59869910E+00  7.59869910E+00 -1.51973982E+01  7.59869910E+00
  7.59869910E+00 -1.51973982E+01  7.59869910E+00  7.59869910E+00 -1.51973982E+01
  7.59869910E+00  7.59869910E+00 -1.51973982E+01  7.59869910E+00  7.59869910E+00
 -1.51973982E+01  7.59869910E+00  7.59869910E+00 -1.51973982E+01  7.59869910E+00
  7.59869910E+00 -1.51973982E+01  7.59869910E+00  7.59869910E+00 -1.51973982E+01
  7.59869910E+00  7.59869910E+00 -1.51973982E+01  7.59869910E+00  7.59869910E+00
 -1.51973982E+01  7.59869910E+00  7.59869910E+00 -1.51973982E+01  7.59869910E+00
  7.59869910E+00 -1.51973982E+01  7.59869910E+00  7.59869910E+00 -1.51973982E+01
  7.59869910E+00  7.59869910E+00 -1.51973982E+01  7.59869910E+00  7.59869910E+00
 -1.51973982E+01  7.59869910E+00  7.59869910E+00 -1.51973982E+01  7.59869910E+00
  7.59869910E+00 -1.51973982E+01  7.59869910E+00  7.59869910E+00 -1.51973982E+01
  7.59869910E+00  7.59869910E+00 -1.51973982E+01  7.59869910E+00  7.59869910E+00
 -1.51973982E+01  7.59869910E+00  7.59869910E+00 -1.51973982E+01  7.59869910E+00
  7.59869910E+00 -1.51973982E+01  7.59869910E+00  7.59869910E+00 -1.51973982E+01
  7.59869910E+00  7.59869910E+00 -1.51973982E+01  7.59869910E+00  7.59869910E+00
 -1.51973982E+01  7.59869910E+00  7.59869910E+00 -1.51973982E+01  7.59869910E+00
  7.59869910E+00 -1.51973982E+01  7.59869910E+00  7.59869910E+00 -1.51973982E+01
  7.59869910E+00  7.59869910E+00 -1.51973982E+01  7.59869910E+00  7.59869910E+00
 -1.51973982E+01  7.59869910E+00  7.59869910E+00 -1.51973982E+01  7.59869910E+00
  7.59869910E+00 -1.51973982E+01  7.59869910E+00  7.59869910E+00 -1.51973982E+01
  7.59869910E+00  7.59869910E+00 -1.51973982E+01  7.59869910E+00  7.59869910E+00
 -1.51973982E+01  7.59869910E+00  7.59869910E+00 -1.51973982E+01  7.59869910E+00
  7.59869910E+00 -1.51973982E+01  7.59869910E+00  7.59869910E+00 -1.51973982E+01
  7.59869910E+00  7.59869910E+00 -1.51973982E+01  7.59869910E+00  7.59869910E+00
 -1.51973982E+01  7.59869910E+00  7.59869910E+00 -1.51973982E+01  7.59869910E+00
  7.59869910E+00 -1.51973982E+01  7.59869910E+00  7.59869910E+00 -1.51973982E+01
  7.59869910E+00  7.59869910E+00 -1.51973982E+01  7.59869910E+00  7.59869910E+00
 -1.51973982E+01  7.59869910E+00  7.59869910E+00 -1.51973982E+01  7.59869910E+00
  7.59869910E+00 -1.51973982E+01  7.59869910E+00  7.59869910E+00 -1.51973982E+01
  7.59869910E+00  7.59869910E+00 -1.51973982E+01  7.59869910E+00  7.59869910E+00
 -1.51973982E+01  7.59869910E+00  7.59869910E+00 -1.51973982E+01  7.59869910E+00
  7.59869910E+00 -1.51973982E+01  7.59869910E+00  7.59869910E+00 -1.51973982E+01
  7.59869910E+00  7.59869910E+00 -1.51973982E+01  7.59869910E+00  7.59869910E+00
 -1.51973982E+01  7.59869910E+00  7.59869910E+00 -1.51973982E+01  7.59869910E+00
  7.59869910E+00 -1.51973982E+01  7.59869910E+00  7.59869910E+00 -1.51973982E+01
  7.59869910E+00  7.59869910E+00 -1.51973982E+01  7.59869910E+00  7.59869910E+00
 -1.51973982E+01  7.59869910E+00  7.59869910E+00 -1.51973982E+01  7.59869910E+00
  7.59869910E+00 -1.51973982E+01  7.59869910E+00  7.59869910E+00 -1.51973982E+01
  7.59869910E+00  7.59869910E+00 -1.51973982E+01  7.59869910E+00  7.59869910E+00
 -1.51973982E+01  7.59869910E+00  7.59869910E+00 -1.51973982E+01  7.59869910E+00
  7.59869910E+00 -1.51973982E+01  7.59869910E+00  7.59869910E+00 -1.51973982E+01
  7.59869910E+00  7.59869910E+00 -1.51973982E+01  7.59869910E+00  7.59869910E+00
 -1.51973982E+01  7.59869910E+00  7.59869910E+00 -1.51973982E+01  7.59869910E+00
  7.59869910E+00 -1.51973982E+01  7.59869910E+00  7.59869910E+00 -1.51973982E+01
  7.59869910E+00  7.59869910E+00 -1.51973982E+01  7.59869910E+00  7.59869910E+00
 -1.51973982E+01  7.59869910E+00  7.59869910E+00 -1.51973982E+01  7.59869910E+00
  7.59869910E+00 -1.51973982E+01  7.59869910E+00  7.59869910E+00 -1.51973982E+01
  7.59869910E+00  7.59869910E+00 -1.51973982E+01  7.59869910E+00  7.59869910E+00
 -1.51973982E+01  7.59869910E+00  7.59869910E+00 -1.51973982E+01  7.59869910E+00
  7.59869910E+00 -1.51973982E+01  7.59869910E+00  7.59869910E+00 -1.51973982E+01
  7.59869910E+00  7.59869910E+00 -1.51973982E+01  7.59869910E+00  7.59869910E+00
 -1.51973982E+01  7.59869910E+00  7.59869910E+00 -1.51973982E+01  7.59869910E+00
  7.59869910E+00 -1.51973982E+01  7.59869910E+00  7.59869910E+00 -1.51973982E+01
  7.59869910E+00  7.59869910E+00 -1.51973982E+01  7.59869910E+00  7.59869910E+00
 -1.51973982E+01  7.59869910E+00  7.59869910E+00 -1.51973982E+01  7.59869910E+00
  7.59869910E+00 -1.51973982E+01  7.59869910E+00  7.59869910E+00 -1.51973982E+01
  7.59869910E+00  7.59869910E+00 -1.51973982E+01  7.59869910E+00  7.59869910E+00
 -1.51973982E+01  7.59869910E+00  7.59869910E+00 -1.51973982E+01  7.59869910E+00
  7.59869910E+00 -1.51973982E+01  7.59869910E+00  7.59869910E+00 -1.51973982E+01
  7.59869910E+00  7.59869910E+00 -1.51973982E+01  7.59869910E+00  7.59869910E+00
 -1.51973982E+01  7.59869910E+00  7.59869910E+00 -1.51973982E+01  7.59869910E+00
  7.59869910E+00 -1.51973982E+01  7.59869910E+00  7.59869910E+00 -1.51973982E+01
  7.59869910E+00  7.59869910E+00 -1.51973982E+01  7.59869910E+00  7.59869910E+00
 -1.51973982E+01  7.59869910E+00  7.59869910E+00 -1.51973982E+01  7.59869910E+00
  7.59869910E+00 -1.51973982E+01  7.59869910E+00  7.59869910E+00 -1.51973982E+01
  7.59869910E+00  7.59869910E+00 -1.51973982E+01  7.59869910E+00  7.59869910E+00
 -1.51973982E+01  7.59869910E+00  7.59869910E+00 -1.51973982E+01  7.59869910E+00
  7.59869910E+00 -1.51973982E+01  7.59869910E+00  7.59869910E+00 -1.51973982E+01
  7.59869910E+00  7.59869910E+00 -1.51973982E+01  7.59869910E+00  7.59869910E+00
 -1.51973982E+01  7.59869910E+00  7.59869910E+00 -1.51973982E+01  7.59869910E+00
  7.59869910E+00 -1.51973982E+01  7.59869910E+00  7.59869910E+00 -1.51973982E+01
  7.59869910E+00  7.59869910E+00 -1.51973982E+01  7.59869910E+00  7.59869910E+00
 -1.51973982E+01  7.59869910E+00  7.59869910E+00 -1.51973982E+01  7.59869910E+00
  7.59869910E+00 -1.51973982E+01  7.59869910E+00  7.59869910E+00 -1.51973982E+01
  7.59869910E+00  7.59869910E+00 -1.51973982E+01  7.59869910E+00  7.59869910E+00
 -1.51973982E+01  7.59869910E+00  7.59869910E+00 -1.51973982E+01  7.59869910E+00
  7.59869910E+00 -1.51973982E+01  7.59869910E+00  7.59869910E+00 -1.51973982E+01
  7.59869910E+00  7.59869910E+00 -1.51973982E+01  7.59869910E+00  7.59869910E+00
 -1.51973982E+01  7.59869910E+00  7.59869910E+00 -1.51973982E+01  7.59869910E+00
  7.59869910E+00 -1.51973982E+01  7.59869910E+00  7.59869910E+00 -1.51973982E+01
  7.59869910E+00  7.59869910E+00 -1.51973982E+01  7.59869910E+00  7.59869910E+00
 -1.51973982E+01  7.59869910E+00  7.59869910E+00 -1.51973982E+01  7.59869910E+00
  7.59869910E+00 -1.51973982E+01  7.59869910E+00  7.59869910E+00 -1.51973982E+01
  7.59869910E+00  7.59869910E+00 -1.51973982E+01  7.59869910E+00  7.59869910E+00
 -1.51973982E+01  7.59869910E+00  7.59869910E+00 -1.51973982E+01  7.59869910E+00
  7.59869910E+00 -1.51973982E+01  7.59869910E+00  7.59869910E+00 -1.51973982E+01
  7.59869910E+00  7.59869910E+00 -1.51973982E+01  7.59869910E+00  7.59869910E+00
 -1.51973982E+01  7.59869910E+00  7.59869910E+00 -1.51973982E+01  7.59869910E+00
  7.59869910E+00 -1.51973982E+01  7.59869910E+00  7.59869910E+00 -1.51973982E+01
  7.59869910E+00  7.59869910E+00 -1.51973982E+01  7.59869910E+00  7.59869910E+00
 -1.51973982E+01  7.59869910E+00  7.59869910E+00 -1.51973982E+01  7.59869910E+00
  7.59869910E+00 -1.51973982E+01  7.59869910E+00  7.59869910E+00 -1.51973982E+01
  7.59869910E+00  7.59869910E+00 -1.51973982E+01  7.59869910E+00  7.59869910E+00
 -1.51973982E+01  7.59869910E+00  7.59869910E+00 -1.51973982E+01  7.59869910E+00
  7.59869910E+00 -1.51973982E+01  7.59869910E+00  7.59869910E+00 -1.51973982E+01
  7.59869910E+00  7.59869910E+00 -1.51973982E+01  7.59869910E+00  7.59869910E+00
 -1.51973982E+01  7.59869910E+00  7.59869910E+00 -1.51973982E+01  7.59869910E+00
  7.59869910E+00 -1.51973982E+01  7.59869910E+00  7.59869910E+00 -1.51973982E+01
  7.59869910E+00  7.59869910E+00 -1.51973982E+01  7.59869910E+00  7.59869910E+00
 -1.51973982E+01  7.59869910E+00  7.59869910E+00 -1.51973982E+01  7.59869910E+00
  7.59869910E+00 -1.51973982E+01  7.59869910E+00  7.59869910E+00 -1.51973982E+01
  7.59869910E+00  7.59869910E+00 -1.51973982E+01  7.59869910E+00  7.59869910E+00
 -1.51973982E+01  7.59869910E+00  7.59869910E+00 -1.51973982E+01  7.59869910E+00
  7.59869910E+00 -1.51973982E+01  7.59869910E+00  7.59869910E+00 -1.51973982E+01
  7.59869910E+00  7.59869910E+00 -1.51973982E+01  7.59869910E+00  7.59869910E+00
 -1.51973982E+01  7.59869910E+00  7.59869910E+00 -1.51973982E+01  7.59869910E+00
  7.59869910E+00 -1.51973982E+01  7.59869910E+00  7.59869910E+00 -1.51973982E+01
  7.59869910E+00  7.59869910E+00 -1.51973982E+01  7.59869910E+00  7.59869910E+00
 -1.51973982E+01  7.59869910E+00  7.59869910E+00 -1.51973982E+01  7.59869910E+00
  7.59869910E+00 -1.51973982E+01  7.59869910E+00  7.59869910E+00 -1.51973982E+01
  7.59869910E+00  7.59869910E+00 -1.51973982E+01  7.59869910E+00  7.59869910E+00
 -1.51973982E+01  7.59869910E+00  7.59869910E+00 -1.51973982E+01  7.59869910E+00
  7.59869910E+00 -1.51973982E+01  7.59869910E+00  7.59869910E+00 -1.51973982E+01
  7.59869910E+00  7.59869910E+00 -1.51973982E+01  7.59869910E+00  7.59869910E+00
 -1.51973982E+01  7.59869910E+00  7.59869910E+00 -1.51973982E+01  7.59869910E+00
  7.59869910E+00 -1.51973982E+01  7.59869910E+00  7.59869910E+00 -1.51973982E+01
  7.59869910E+00  7.59869910E+00 -1.51973982E+01  7.59869910E+00  7.59869910E+00
 -1.51973982E+01  7.59869910E+00  7.59869910E+00 -1.51973982E+01  7.59869910E+00
  7.59869910E+00 -1.51973982E+01  7.59869910E+00  7.59869910E+00 -1.51973982E+01
  7.59869910E+00  7.59869910E+00 -1.51973982E+01  7.59869910E+00  7.59869910E+00
 -1.51973982E+01  7.59869910E+00  7.59869910E+00 -1.51973982E+01  7.59869910E+00
  7.59869910E+00 -1.51973982E+01  7.59869910E+00  7.59869910E+00 -1.51973982E+01
  7.59869910E+00  7.59869910E+00 -1.51973982E+01  7.59869910E+00  7.59869910E+00
 -1.51973982E+01  7.59869910E+00  7.59869910E+00 -1.51973982E+01  7.59869910E+00
  7.59869910E+00 -1.51973982E+01  7.59869910E+00  7.59869910E+00 -1.51973982E+01
  7.59869910E+00  7.59869910E+00 -1.51973982E+01  7.59869910E+00  7.59869910E+00
 -1.51973982E+01  7.59869910E+00  7.59869910E+00 -1.51973982E+01  7.59869910E+00
  7.59869910E+00 -1.51973982E+01  7.59869910E+00  7.59869910E+00 -1.51973982E+01
  7.59869910E+00  7.59869910E+00 -1.51973982E+01  7.59869910E+00  7.59869910E+00
 -1.51973982E+01  7.59869910E+00  7.59869910E+00 -1.51973982E+01  7.59869910E+00
  7.59869910E+00 -1.51973982E+01  7.59869910E+00  7.59869910E+00 -1.51973982E+01
  7.59869910E+00  7.59869910E+00 -1.51973982E+01  7.59869910E+00  7.59869910E+00
 -1.51973982E+01  7.59869910E+00  7.59869910E+00 -1.51973982E+01  7.59869910E+00
  7.59869910E+00 -1.51973982E+01  7.59869910E+00  7.59869910E+00 -1.51973982E+01
  7.59869910E+00  7.59869910E+00 -1.51973982E+01  7.59869910E+00  7.59869910E+00
 -1.51973982E+01  7.59869910E+00  7.59869910E+00 -1.51973982E+01  7.59869910E+00
  7.59869910E+00 -1.51973982E+01  7.59869910E+00  7.59869910E+00 -1.51973982E+01
  7.59869910E+00  7.59869910E+00 -1.51973982E+01  7.59869910E+00  7.59869910E+00
 -1.51973982E+01  7.59869910E+00  7.59869910E+00 -1.51973982E+01  7.59869910E+00
  7.59869910E+00 -1.51973982E+01  7.59869910E+00  7.59869910E+00 -1.51973982E+01
  7.59869910E+00  7.59869910E+00 -1.51973982E+01  7.59869910E+00  7.59869910E+00
 -1.51973982E+01  7.59869910E+00  7.59869910E+00 -1.51973982E+01  7.59869910E+00
  7.59869910E+00 -1.51973982E+01  7.59869910E+00  7.59869910E+00 -1.51973982E+01
  7.59869910E+00  7.59869910E+00 -1.51973982E+01  7.59869910E+00  7.59869910E+00
 -1.51973982E+01  7.59869910E+00  7.59869910E+00 -1.51973982E+01  7.59869910E+00
  7.59869910E+00 -1.51973982E+01  7.59869910E+00  7.59869910E+00 -1.51973982E+01
  7.59869910E+00  7.59869910E+00 -1.51973982E+01  7.59869910E+00  7.59869910E+00
 -1.51973982E+01  7.59869910E+00  7.59869910E+00 -1.51973982E+01  7.59869910E+00
  7.59869910E+00 -1.51973982E+01  7.59869910E+00  7.59869910E+00 -1.51973982E+01
  7.59869910E+00  7.59869910E+00 -1.51973982E+01  7.59869910E+00  7.59869910E+00
 -1.51973982E+01  7.59869910E+00  7.59869910E+00 -1.51973982E+01  7.59869910E+00
  7.59869910E+00 -1.51973982E+01  7.59869910E+00  7.59869910E+00 -1.51973982E+01
  7.59869910E+00  7.59869910E+00 -1.51973982E+01  7.59869910E+00  7.59869910E+00
 -1.51973982E+01  7.59869910E+00  7.59869910E+00 -1.51973982E+01  7.59869910E+00
  7.59869910E+00 -1.51973982E+01  7.59869910E+00  7.59869910E+00 -1.51973982E+01
  7.59869910E+00  7.59869910E+00 -1.51973982E+01  7.59869910E+00  7.59869910E+00
 -1.51973982E+01  7.59869910E+00  7.59869910E+00 -1.51973982E+01  7.59869910E+00
  7.59869910E+00 -1.51973982E+01  7.59869910E+00  7.59869910E+00 -1.51973982E+01
  7.59869910E+00  7.59869910E+00 -1.51973982E+01  7.59869910E+00  7.59869910E+00
 -1.51973982E+01  7.59869910E+00  7.59869910E+00 -1.51973982E+01  7.59869910E+00
  7.59869910E+00 -1.51973982E+01  7.59869910E+00  7.59869910E+00 -1.51973982E+01
  7.59869910E+00  7.59869910E+00 -1.51973982E+01  7.59869910E+00  7.59869910E+00
 -1.51973982E+01  7.59869910E+00  7.59869910E+00 -1.51973982E+01  7.59869910E+00
  7.59869910E+00 -1.51973982E+01  7.59869910E+00  7.59869910E+00 -1.51973982E+01
  7.59869910E+00  7.59869910E+00 -1.51973982E+01  7.59869910E+00  7.59869910E+00
 -1.51973982E+01  7.59869910E+00  7.59869910E+00 -1.51973982E+01  7.59869910E+00
  7.59869910E+00 -1.51973982E+01  7.59869910E+00  7.59869910E+00 -1.51973982E+01
  7.59869910E+00  7.59869910E+00 -1.51973982E+01  7.59869910E+00  7.59869910E+00
 -1.51973982E+01  7.59869910E+00  7.59869910E+00 -1.51973982E+01  7.59869910E+00
  7.59869910E+00 -1.51973982E+01  7.59869910E+00  7.59869910E+00 -1.51973982E+01
  7.59869910E+00  7.59869910E+00 -1.51973982E+01  7.59869910E+00  7.59869910E+00
 -1.51973982E+01  7.59869910E+00  7.59869910E+00 -1.51973982E+01  7.59869910E+00
  7.59869910E+00 -1.51973982E+01  7.59869910E+00  7.59869910E+00 -1.51973982E+01
  7.59869910E+00  7.59869910E+00 -1.51973982E+01  7.59869910E+00  7.59869910E+00
 -1.51973982E+01  7.59869910E+00  7.59869910E+00 -1.51973982E+01  7.59869910E+00
  7.59869910E+00 -1.51973982E+01  7.59869910E+00  7.59869910E+00 -1.51973982E+01
  7.59869910E+00  7.59869910E+00 -1.51973982E+01  7.59869910E+00  7.59869910E+00
 -1.51973982E+01  7.59869910E+00  7.59869910E+00 -1.51973982E+01  7.59869910E+00
  7.59869910E+00 -1.51973982E+01  7.59869910E+00  7.59869910E+00 -1.51973982E+01
  7.59869910E+00  7.59869910E+00 -1.51973982E+01  7.59869910E+00  7.59869910E+00
 -1.51973982E+01  7.59869910E+00  7.59869910E+00 -1.51973982E+01  7.59869910E+00
  7.59869910E+00 -1.51973982E+01  7.59869910E+00  7.59869910E+00 -1.51973982E+01
  7.59869910E+00  7.59869910E+00 -1.51973982E+01  7.59869910E+00  7.59869910E+00
 -1.51973982E+01  7.59869910E+00  7.59869910E+00 -1.51973982E+01  7.59869910E+00
  7.59869910E+00 -1.51973982E+01  7.59869910E+00  7.59869910E+00 -1.51973982E+01
  7.59869910E+00  7.59869910E+00 -1.51973982E+01  7.59869910E+00  7.59869910E+00
 -1.51973982E+01  7.59869910E+00  7.59869910E+00 -1.51973982E+01  7.59869910E+00
  7.59869910E+00 -1.51973982E+01  7.59869910E+00  7.59869910E+00 -1.51973982E+01
  7.59869910E+00  7.59869910E+00 -1.51973982E+01  7.59869910E+00  7.59869910E+00
 -1.51973982E+01  7.59869910E+00  7.59869910E+00 -1.51973982E+01  7.59869910E+00
  7.59869910E+00 -1.51973982E+01  7.59869910E+00  7.59869910E+00 -1.51973982E+01
  7.59869910E+00  7.59869910E+00 -1.51973982E+01  7.59869910E+00  7.59869910E+00
 -1.51973982E+01  7.59869910E+00  7.59869910E+00 -1.51973982E+01  7.59869910E+00
  7.59869910E+00 -1.51973982E+01  7.59869910E+00  7.59869910E+00 -1.51973982E+01
  7.59869910E+00  7.59869910E+00 -1.51973982E+01  7.59869910E+00  7.59869910E+00
 -1.51973982E+01  7.59869910E+00  7.59869910E+00 -1.51973982E+01  7.59869910E+00
  7.59869910E+00 -1.51973982E+01  7.59869910E+00  7.59869910E+00 -1.51973982E+01
  7.59869910E+00  7.59869910E+00 -1.51973982E+01  7.59869910E+00  7.59869910E+00
 -1.51973982E+01  7.59869910E+00  7.59869910E+00 -1.51973982E+01  7.59869910E+00
  7.59869910E+00 -1.51973982E+01  7.59869910E+00  7.59869910E+00 -1.51973982E+01
  7.59869910E+00  7.59869910E+00 -1.51973982E+01  7.59869910E+00  7.59869910E+00
 -1.51973982E+01  7.59869910E+00  7.59869910E+00 -1.51973982E+01  7.59869910E+00
  7.59869910E+00 -1.51973982E+01  7.59869910E+00  7.59869910E+00 -1.51973982E+01
  7.59869910E+00  7.59869910E+00 -1.51973982E+01  7.59869910E+00  7.59869910E+00
 -1.51973982E+01  7.59869910E+00  7.59869910E+00 -1.51973982E+01  7.59869910E+00
  7.59869910E+00 -1.51973982E+01  7.59869910E+00  7.59869910E+00 -1.51973982E+01
  7.59869910E+00  7.59869910E+00 -1.51973982E+01  7.59869910E+00  7.59869910E+00
 -1.51973982E+01  7.59869910E+00  7.59869910E+00 -1.51973982E+01  7.59869910E+00
  7.59869910E+00 -1.51973982E+01  7.59869910E+00  7.59869910E+00 -1.51973982E+01
  7.59869910E+00  7.59869910E+00 -1.51973982E+01  7.59869910E+00  7.59869910E+00
 -1.51973982E+01  7.59869910E+00  7.59869910E+00 -1.51973982E+01  7.59869910E+00
  7.59869910E+00 -1.51973982E+01  7.59869910E+00  7.59869910E+00 -1.51973982E+01
  7.59869910E+00  7.59869910E+00 -1.51973982E+01  7.59869910E+00  7.59869910E+00
 -1.51973982E+01  7.59869910E+00  7.59869910E+00 -1.51973982E+01  7.59869910E+00
  7.59869910E+00 -1.51973982E+01  7.59869910E+00  7.59869910E+00 -1.51973982E+01
  7.59869910E+00  7.59869910E+00 -1.51973982E+01  7.59869910E+00  7.59869910E+00
 -1.51973982E+01  7.59869910E+00  7.59869910E+00 -1.51973982E+01  7.59869910E+00
  7.59869910E+00 -1.51973982E+01  7.59869910E+00  7.59869910E+00 -1.51973982E+01
  7.59869910E+00  7.59869910E+00 -1.51973982E+01  7.59869910E+00  7.59869910E+00
 -1.51973982E+01  7.59869910E+00  7.59869910E+00 -1.51973982E+01  7.59869910E+00
  7.59869910E+00 -1.51973982E+01  7.59869910E+00  7.59869910E+00 -1.51973982E+01
  7.59869910E+00  7.59869910E+00 -1.51973982E+01  7.59869910E+00  7.59869910E+00
 -1.51973982E+01  7.59869910E+00  7.59869910E+00 -1.51973982E+01  7.59869910E+00
  7.59869910E+00 -1.51973982E+01  7.59869910E+00  7.59869910E+00 -1.51973982E+01
  7.59869910E+00  7.59869910E+00 -1.51973982E+01  7.59869910E+00  7.59869910E+00
 -1.51973982E+01  7.59869910E+00  7.59869910E+00 -1.51973982E+01  7.59869910E+00
  7.59869910E+00 -1.51973982E+01  7.59869910E+00  7.59869910E+00 -1.51973982E+01
  7.59869910E+00  7.59869910E+00 -1.51973982E+01  7.59869910E+00  7.59869910E+00
 -1.51973982E+01  7.59869910E+00  7.59869910E+00 -1.51973982E+01  7.59869910E+00
  7.59869910E+00 -1.51973982E+01  7.59869910E+00  7.59869910E+00 -1.51973982E+01
  7.59869910E+00  7.59869910E+00 -1.51973982E+01  7.59869910E+00  7.59869910E+00
 -1.51973982E+01  7.59869910E+00  7.59869910E+00 -1.51973982E+01  7.59869910E+00
  7.59869910E+00 -1.51973982E+01  7.59869910E+00  7.59869910E+00 -1.51973982E+01
  7.59869910E+00  7.59869910E+00 -1.51973982E+01  7.59869910E+00  7.59869910E+00
 -1.51973982E+01  7.59869910E+00  7.59869910E+00 -1.51973982E+01  7.59869910E+00
  7.59869910E+00 -1.51973982E+01  7.59869910E+00  7.59869910E+00 -1.51973982E+01
  7.59869910E+00  7.59869910E+00 -1.51973982E+01  7.59869910E+00  7.59869910E+00
 -1.51973982E+01  7.59869910E+00  7.59869910E+00 -1.51973982E+01  7.59869910E+00
  7.59869910E+00 -1.51973982E+01  7.59869910E+00  7.59869910E+00 -1.51973982E+01
  7.59869910E+00  7.59869910E+00 -1.51973982E+01  7.59869910E+00  7.59869910E+00
 -1.51973982E+01  7.59869910E+00  7.59869910E+00 -1.51973982E+01  7.59869910E+00
  7.59869910E+00 -1.51973982E+01  7.59869910E+00  7.59869910E+00 -1.51973982E+01
  7.59869910E+00  7.59869910E+00 -1.51973982E+01  7.59869910E+00  7.59869910E+00
 -1.51973982E+01  7.59869910E+00  7.59869910E+00 -1.51973982E+01  7.59869910E+00
  7.59869910E+00 -1.51973982E+01  7.59869910E+00  7.59869910E+00 -1.51973982E+01
  7.59869910E+00  7.59869910E+00 -1.51973982E+01  7.59869910E+00  7.59869910E+00
 -1.51973982E+01  7.59869910E+00  7.59869910E+00 -1.51973982E+01  7.59869910E+00
  7.59869910E+00 -1.51973982E+01  7.59869910E+00  7.59869910E+00 -1.51973982E+01
  7.59869910E+00  7.59869910E+00 -1.51973982E+01  7.59869910E+00  7.59869910E+00
 -1.51973982E+01  7.59869910E+00  7.59869910E+00 -1.51973982E+01  7.59869910E+00
  7.59869910E+00 -1.51973982E+01  7.59869910E+00  7.59869910E+00 -1.51973982E+01
  7.59869910E+00  7.59869910E+00 -1.51973982E+01  7.59869910E+00  7.59869910E+00
 -1.51973982E+01  7.59869910E+00  7.59869910E+00 -1.51973982E+01  7.59869910E+00
  7.59869910E+00 -1.51973982E+01  7.59869910E+00  7.59869910E+00 -1.51973982E+01
  7.59869910E+00  7.59869910E+00 -1.51973982E+01  7.59869910E+00  7.59869910E+00
 -1.51973982E+01  7.59869910E+00  7.59869910E+00 -1.51973982E+01  7.59869910E+00
  7.59869910E+00 -1.51973982E+01  7.59869910E+00  7.59869910E+00 -1.51973982E+01
  7.59869910E+00  7.59869910E+00 -1.51973982E+01  7.59869910E+00  7.59869910E+00
 -1.51973982E+01  7.59869910E+00  7.59869910E+00 -1.51973982E+01  7.59869910E+00
  7.59869910E+00 -1.51973982E+01  7.59869910E+00  7.59869910E+00 -1.51973982E+01
  7.59869910E+00  7.59869910E+00 -1.51973982E+01  7.59869910E+00  7.59869910E+00
 -1.51973982E+01  7.59869910E+00  7.59869910E+00 -1.51973982E+01  7.59869910E+00
  7.59869910E+00 -1.51973982E+01  7.59869910E+00  7.59869910E+00 -1.51973982E+01
  7.59869910E+00  7.59869910E+00 -1.51973982E+01  7.59869910E+00  7.59869910E+00
 -1.51973982E+01  7.59869910E+00  7.59869910E+00 -1.51973982E+01  7.59869910E+00
  7.59869910E+00 -1.51973982E+01  7.59869910E+00  7.59869910E+00 -1.51973982E+01
  7.59869910E+00  7.59869910E+00 -1.51973982E+01  7.59869910E+00  7.59869910E+00
 -1.51973982E+01  7.59869910E+00  7.59869910E+00 -1.51973982E+01  7.59869910E+00
  7.59869910E+00 -1.51973982E+01  7.59869910E+00  7.59869910E+00 -1.51973982E+01
  7.59869910E+00  7.59869910E+00 -1.51973982E+01  7.59869910E+00  7.59869910E+00
 -1.51973982E+01  7.59869910E+00  7.59869910E+00 -1.51973982E+01  7.59869910E+00
  7.59869910E+00 -1.51973982E+01  7.59869910E+00  7.59869910E+00 -1.51973982E+01
  7.59869910E+00  7.59869910E+00 -1.51973982E+01  7.59869910E+00  7.59869910E+00
 -1.51973982E+01  7.59869910E+00  7.59869910E+00 -1.51973982E+01  7.59869910E+00
  7.59869910E+00 -1.51973982E+01  7.59869910E+00  7.59869910E+00 -1.51973982E+01
  7.59869910E+00  7.59869910E+00 -1.51973982E+01  7.59869910E+00  7.59869910E+00
 -1.51973982E+01  7.59869910E+00  7.59869910E+00 -1.51973982E+01  7.59869910E+00
  7.59869910E+00 -1.51973982E+01  7.59869910E+00  7.59869910E+00 -1.51973982E+01
  7.59869910E+00  7.59869910E+00 -1.51973982E+01  7.59869910E+00  7.59869910E+00
 -1.51973982E+01  7.59869910E+00  7.59869910E+00 -1.51973982E+01  7.59869910E+00
  7.59869910E+00 -1.51973982E+01  7.59869910E+00  7.59869910E+00 -1.51973982E+01
  7.59869910E+00  7.59869910E+00 -1.51973982E+01  7.59869910E+00  7.59869910E+00
 -1.51973982E+01  7.59869910E+00  7.59869910E+00 -1.51973982E+01  7.59869910E+00
  7.59869910E+00 -1.51973982E+01  7.59869910E+00  7.59869910E+00 -1.51973982E+01
  7.59869910E+00  7.59869910E+00 -1.51973982E+01  7.59869910E+00  7.59869910E+00
 -1.51973982E+01  7.59869910E+00  7.59869910E+00 -1.51973982E+01  7.59869910E+00
  7.59869910E+00 -1.51973982E+01  7.59869910E+00  7.59869910E+00 -1.51973982E+01
  7.59869910E+00  7.59869910E+00 -1.51973982E+01  7.59869910E+00  7.59869910E+00
 -1.51973982E+01  7.59869910E+00  7.59869910E+00 -1.51973982E+01  7.59869910E+00
  7.59869910E+00 -1.51973982E+01  7.59869910E+00  7.59869910E+00 -1.51973982E+01
  7.59869910E+00  7.59869910E+00 -1.51973982E+01  7.59869910E+00  7.59869910E+00
 -1.51973982E+01  7.59869910E+00  7.59869910E+00 -1.51973982E+01  7.59869910E+00
  7.59869910E+00 -1.51973982E+01  7.59869910E+00  7.59869910E+00 -1.51973982E+01
  7.59869910E+00  7.59869910E+00 -1.51973982E+01  7.59869910E+00  7.59869910E+00
 -1.51973982E+01  7.59869910E+00  7.59869910E+00 -1.51973982E+01  7.59869910E+00
  7.59869910E+00 -1.51973982E+01  7.59869910E+00  7.59869910E+00 -1.51973982E+01
  7.59869910E+00  7.59869910E+00 -1.51973982E+01  7.59869910E+00  7.59869910E+00
 -1.51973982E+01  7.59869910E+00  7.59869910E+00 -1.51973982E+01  7.59869910E+00
  7.59869910E+00 -1.51973982E+01  7.59869910E+00  7.59869910E+00 -1.51973982E+01
  7.59869910E+00  7.59869910E+00 -1.51973982E+01  7.59869910E+00  7.59869910E+00
 -1.51973982E+01  7.59869910E+00  7.59869910E+00 -1.51973982E+01  7.59869910E+00
  7.59869910E+00 -1.51973982E+01  7.59869910E+00  7.59869910E+00 -1.51973982E+01
  7.59869910E+00  7.59869910E+00 -1.51973982E+01  7.59869910E+00  7.59869910E+00
 -1.51973982E+01  7.59869910E+00  7.59869910E+00 -1.51973982E+01  7.59869910E+00
  7.59869910E+00 -1.51973982E+01  7.59869910E+00  7.59869910E+00 -1.51973982E+01
  7.59869910E+00  7.59869910E+00 -1.51973982E+01  7.59869910E+00  7.59869910E+00
 -1.51973982E+01  7.59869910E+00  7.59869910E+00 -1.51973982E+01  7.59869910E+00
  7.59869910E+00 -1.51973982E+01  7.59869910E+00  7.59869910E+00 -1.51973982E+01
  7.59869910E+00  7.59869910E+00 -1.51973982E+01  7.59869910E+00  7.59869910E+00
 -1.51973982E+01  7.59869910E+00  7.59869910E+00 -1.51973982E+01  7.59869910E+00
  7.59869910E+00 -1.51973982E+01  7.59869910E+00  7.59869910E+00 -1.51973982E+01
  7.59869910E+00  7.59869910E+00 -1.51973982E+01  7.59869910E+00  7.59869910E+00
 -1.51973982E+01  7.59869910E+00  7.59869910E+00 -1.51973982E+01  7.59869910E+00
  7.59869910E+00 -1.51973982E+01  7.59869910E+00  7.59869910E+00 -1.51973982E+01
  7.59869910E+00  7.59869910E+00 -1.51973982E+01  7.59869910E+00  7.59869910E+00
 -1.51973982E+01  7.59869910E+00  7.59869910E+00 -1.51973982E+01  7.59869910E+00
  7.59869910E+00 -1.51973982E+01  7.59869910E+00  7.59869910E+00 -1.51973982E+01
  7.59869910E+00  7.59869910E+00 -1.51973982E+01  7.59869910E+00  7.59869910E+00
 -1.51973982E+01  7.59869910E+00  7.59869910E+00 -1.51973982E+01  7.59869910E+00
  7.59869910E+00 -1.51973982E+01  7.59869910E+00  7.59869910E+00 -1.51973982E+01
  7.59869910E+00  7.59869910E+00 -1.51973982E+01  7.59869910E+00  7.59869910E+00
 -1.51973982E+01  7.59869910E+00  7.59869910E+00 -1.51973982E+01  7.59869910E+00
  7.59869910E+00 -1.51973982E+01  7.59869910E+00  7.59869910E+00 -1.51973982E+01
  7.59869910E+00  7.59869910E+00 -1.51973982E+01  7.59869910E+00  7.59869910E+00
 -1.51973982E+01  7.59869910E+00  7.59869910E+00 -1.51973982E+01  7.59869910E+00
  7.59869910E+00 -1.51973982E+01  7.59869910E+00  7.59869910E+00 -1.51973982E+01
  7.59869910E+00  7.59869910E+00 -1.51973982E+01  7.59869910E+00  7.59869910E+00
 -1.51973982E+01  7.59869910E+00  7.59869910E+00 -1.51973982E+01  7.59869910E+00
  7.59869910E+00 -1.51973982E+01  7.59869910E+00  7.59869910E+00 -1.51973982E+01
  7.59869910E+00  7.59869910E+00 -1.51973982E+01  7.59869910E+00  7.59869910E+00
 -1.51973982E+01  7.59869910E+00  7.59869910E+00 -1.51973982E+01  7.59869910E+00
  7.59869910E+00 -1.51973982E+01  7.59869910E+00  7.59869910E+00 -1.51973982E+01
  7.59869910E+00  7.59869910E+00 -1.51973982E+01  7.59869910E+00  7.59869910E+00
 -1.51973982E+01  7.59869910E+00  7.59869910E+00 -1.51973982E+01  7.59869910E+00
  7.59869910E+00 -1.51973982E+01  7.59869910E+00  7.59869910E+00 -1.51973982E+01
  7.59869910E+00  7.59869910E+00 -1.51973982E+01  7.59869910E+00  7.59869910E+00
 -1.51973982E+01  7.59869910E+00  7.59869910E+00 -1.51973982E+01  7.59869910E+00
  7.59869910E+00 -1.51973982E+01  7.59869910E+00  7.59869910E+00 -1.51973982E+01
  7.59869910E+00  7.59869910E+00 -1.51973982E+01  7.59869910E+00  7.59869910E+00
 -1.51973982E+01  7.59869910E+00  7.59869910E+00 -1.51973982E+01  7.59869910E+00
  7.59869910E+00 -1.51973982E+01  7.59869910E+00  7.59869910E+00 -1.51973982E+01
  7.59869910E+00  7.59869910E+00 -1.51973982E+01  7.59869910E+00  7.59869910E+00
 -1.51973982E+01  7.59869910E+00  7.59869910E+00 -1.51973982E+01  7.59869910E+00
  7.59869910E+00 -1.51973982E+01  7.59869910E+00  7.59869910E+00 -1.51973982E+01
  7.59869910E+00  7.59869910E+00 -1.51973982E+01  7.59869910E+00  7.59869910E+00
 -1.51973982E+01  7.59869910E+00  7.59869910E+00 -1.51973982E+01  7.59869910E+00
  7.59869910E+00 -1.51973982E+01  7.59869910E+00  7.59869910E+00 -1.51973982E+01
  7.59869910E+00  7.59869910E+00 -1.51973982E+01  7.59869910E+00  7.59869910E+00
 -1.51973982E+01  7.59869910E+00  7.59869910E+00 -1.51973982E+01  7.59869910E+00
  7.59869910E+00 -1.51973982E+01  7.59869910E+00  7.59869910E+00 -1.51973982E+01
  7.59869910E+00  7.59869910E+00 -1.51973982E+01  7.59869910E+00  7.59869910E+00
 -1.51973982E+01  7.59869910E+00  7.59869910E+00 -1.51973982E+01  7.59869910E+00
  7.59869910E+00 -1.51973982E+01  7.59869910E+00  7.59869910E+00 -1.51973982E+01
  7.59869910E+00  7.59869910E+00 -1.51973982E+01  7.59869910E+00  7.59869910E+00
 -1.51973982E+01  7.59869910E+00  7.59869910E+00 -1.51973982E+01  7.59869910E+00
  7.59869910E+00 -1.51973982E+01  7.59869910E+00  7.59869910E+00 -1.51973982E+01
  7.59869910E+00  7.59869910E+00 -1.51973982E+01  7.59869910E+00  7.59869910E+00
 -1.51973982E+01  7.59869910E+00  7.59869910E+00 -1.51973982E+01  7.59869910E+00
  7.59869910E+00 -1.51973982E+01  7.59869910E+00  7.59869910E+00 -1.51973982E+01
  7.59869910E+00  7.59869910E+00 -1.51973982E+01  7.59869910E+00  7.59869910E+00
 -1.51973982E+01  7.59869910E+00  7.59869910E+00 -1.51973982E+01  7.59869910E+00
  7.59869910E+00 -1.51973982E+01  7.59869910E+00  7.59869910E+00 -1.51973982E+01
  7.59869910E+00  7.59869910E+00 -1.51973982E+01  7.59869910E+00  7.59869910E+00
 -1.51973982E+01  7.59869910E+00  7.59869910E+00 -1.51973982E+01  7.59869910E+00
  7.59869910E+00 -1.51973982E+01  7.59869910E+00  7.59869910E+00 -1.51973982E+01
  7.59869910E+00  7.59869910E+00 -1.51973982E+01  7.59869910E+00  7.59869910E+00
 -1.51973982E+01  7.59869910E+00  7.59869910E+00 -1.51973982E+01  7.59869910E+00
  7.59869910E+00 -1.51973982E+01  7.59869910E+00  7.59869910E+00 -1.51973982E+01
  7.59869910E+00  7.59869910E+00 -1.51973982E+01  7.59869910E+00  7.59869910E+00
 -1.51973982E+01  7.59869910E+00  7.59869910E+00 -1.51973982E+01  7.59869910E+00
  7.59869910E+00 -1.51973982E+01  7.59869910E+00  7.59869910E+00 -1.51973982E+01
  7.59869910E+00  7.59869910E+00 -1.51973982E+01  7.59869910E+00  7.59869910E+00
 -1.51973982E+01  7.59869910E+00  7.59869910E+00 -1.51973982E+01  7.59869910E+00
  7.59869910E+00 -1.51973982E+01  7.59869910E+00  7.59869910E+00 -1.51973982E+01
  7.59869910E+00  7.59869910E+00 -1.51973982E+01  7.59869910E+00  7.59869910E+00
 -1.51973982E+01  7.59869910E+00  7.59869910E+00 -1.51973982E+01  7.59869910E+00
  7.59869910E+00 -1.51973982E+01  7.59869910E+00  7.59869910E+00 -1.51973982E+01
  7.59869910E+00  7.59869910E+00 -1.51973982E+01  7.59869910E+00  7.59869910E+00
 -1.51973982E+01  7.59869910E+00  7.59869910E+00 -1.51973982E+01  7.59869910E+00
  7.59869910E+00 -1.51973982E+01  7.59869910E+00  7.59869910E+00 -1.51973982E+01
  7.59869910E+00  7.59869910E+00 -1.51973982E+01  7.59869910E+00  7.59869910E+00
 -1.51973982E+01  7.59869910E+00  7.59869910E+00 -1.51973982E+01  7.59869910E+00
  7.59869910E+00 -1.51973982E+01  7.59869910E+00  7.59869910E+00 -1.51973982E+01
  7.59869910E+00  7.59869910E+00 -1.51973982E+01  7.59869910E+00  7.59869910E+00
 -1.51973982E+01  7.59869910E+00  7.59869910E+00 -1.51973982E+01  7.59869910E+00
  7.59869910E+00 -1.51973982E+01  7.59869910E+00  7.59869910E+00 -1.51973982E+01
  7.59869910E+00  7.59869910E+00 -1.51973982E+01  7.59869910E+00  7.59869910E+00
 -1.51973982E+01  7.59869910E+00  7.59869910E+00 -1.51973982E+01  7.59869910E+00
  7.59869910E+00 -1.51973982E+01  7.59869910E+00  7.59869910E+00 -1.51973982E+01
  7.59869910E+00  7.59869910E+00 -1.51973982E+01  7.59869910E+00  7.59869910E+00
 -1.51973982E+01  7.59869910E+00  7.59869910E+00 -1.51973982E+01  7.59869910E+00
  7.59869910E+00 -1.51973982E+01  7.59869910E+00  7.59869910E+00 -1.51973982E+01
  7.59869910E+00  7.59869910E+00 -1.51973982E+01  7.59869910E+00  7.59869910E+00
 -1.51973982E+01  7.59869910E+00  7.59869910E+00 -1.51973982E+01  7.59869910E+00
  7.59869910E+00 -1.51973982E+01  7.59869910E+00  7.59869910E+00 -1.51973982E+01
  7.59869910E+00  7.59869910E+00 -1.51973982E+01  7.59869910E+00  7.59869910E+00
 -1.51973982E+01  7.59869910E+00  7.59869910E+00 -1.51973982E+01  7.59869910E+00
  7.59869910E+00 -1.51973982E+01  7.59869910E+00  7.59869910E+00 -1.51973982E+01
  7.59869910E+00  7.59869910E+00 -1.51973982E+01  7.59869910E+00  7.59869910E+00
 -1.51973982E+01  7.59869910E+00  7.59869910E+00 -1.51973982E+01  7.59869910E+00
  7.59869910E+00 -1.51973982E+01  7.59869910E+00  7.59869910E+00 -1.51973982E+01
  7.59869910E+00  7.59869910E+00 -1.51973982E+01  7.59869910E+00  7.59869910E+00
 -1.51973982E+01  7.59869910E+00  7.59869910E+00 -1.51973982E+01  7.59869910E+00
  7.59869910E+00 -1.51973982E+01  7.59869910E+00  7.59869910E+00 -1.51973982E+01
  7.59869910E+00  7.59869910E+00 -1.51973982E+01  7.59869910E+00  7.59869910E+00
 -1.51973982E+01  7.59869910E+00  7.59869910E+00 -1.51973982E+01  7.59869910E+00
  7.59869910E+00 -1.51973982E+01  7.59869910E+00  7.59869910E+00 -1.51973982E+01
  7.59869910E+00  7.59869910E+00 -1.51973982E+01  7.59869910E+00  7.59869910E+00
 -1.51973982E+01  7.59869910E+00  7.59869910E+00 -1.51973982E+01  7.59869910E+00
  7.59869910E+00 -1.51973982E+01  7.59869910E+00  7.59869910E+00 -1.51973982E+01
  7.59869910E+00  7.59869910E+00 -1.51973982E+01  7.59869910E+00  7.59869910E+00
 -1.51973982E+01  7.59869910E+00  7.59869910E+00 -1.51973982E+01  7.59869910E+00
  7.59869910E+00 -1.51973982E+01  7.59869910E+00  7.59869910E+00 -1.51973982E+01
  7.59869910E+00  7.59869910E+00 -1.51973982E+01  7.59869910E+00  7.59869910E+00
 -1.51973982E+01  7.59869910E+00  7.59869910E+00 -1.51973982E+01  7.59869910E+00
  7.59869910E+00 -1.51973982E+01  7.59869910E+00  7.59869910E+00 -1.51973982E+01
  7.59869910E+00  7.59869910E+00 -1.51973982E+01  7.59869910E+00  7.59869910E+00
 -1.51973982E+01  7.59869910E+00  7.59869910E+00 -1.51973982E+01  7.59869910E+00
  7.59869910E+00 -1.51973982E+01  7.59869910E+00  7.59869910E+00 -1.51973982E+01
  7.59869910E+00  7.59869910E+00 -1.51973982E+01  7.59869910E+00  7.59869910E+00
 -1.51973982E+01  7.59869910E+00  7.59869910E+00 -1.51973982E+01  7.59869910E+00
  7.59869910E+00 -1.51973982E+01  7.59869910E+00  7.59869910E+00 -1.51973982E+01
  7.59869910E+00  7.59869910E+00 -1.51973982E+01  7.59869910E+00  7.59869910E+00
 -1.51973982E+01  7.59869910E+00  7.59869910E+00 -1.51973982E+01  7.59869910E+00
  7.59869910E+00 -1.51973982E+01  7.59869910E+00  7.59869910E+00 -1.51973982E+01
  7.59869910E+00  7.59869910E+00 -1.51973982E+01  7.59869910E+00  7.59869910E+00
 -1.51973982E+01  7.59869910E+00  7.59869910E+00 -1.51973982E+01  7.59869910E+00
  7.59869910E+00 -1.51973982E+01  7.59869910E+00  7.59869910E+00 -1.51973982E+01
  7.59869910E+00  7.59869910E+00 -1.51973982E+01  7.59869910E+00  7.59869910E+00
 -1.51973982E+01  7.59869910E+00  7.59869910E+00 -1.51973982E+01  7.59869910E+00
  7.59869910E+00 -1.51973982E+01  7.59869910E+00  7.59869910E+00 -1.51973982E+01
  7.59869910E+00  7.59869910E+00 -1.51973982E+01  7.59869910E+00  7.59869910E+00
 -1.51973982E+01  7.59869910E+00  7.59869910E+00 -1.51973982E+01  7.59869910E+00
  7.59869910E+00 -1.51973982E+01  7.59869910E+00  7.59869910E+00 -1.51973982E+01
  7.59869910E+00  7.59869910E+00 -1.51973982E+01  7.59869910E+00  7.59869910E+00
 -1.51973982E+01  7.59869910E+00  7.59869910E+00 -1.51973982E+01  7.59869910E+00
  7.59869910E+00 -1.51973982E+01  7.59869910E+00  7.59869910E+00 -1.51973982E+01
  7.59869910E+00  7.59869910E+00 -1.51973982E+01  7.59869910E+00  7.59869910E+00
 -1.51973982E+01  7.59869910E+00  7.59869910E+00 -1.51973982E+01  7.59869910E+00
  7.59869910E+00 -1.51973982E+01  7.59869910E+00  7.59869910E+00 -1.51973982E+01
  7.59869910E+00  7.59869910E+00 -1.51973982E+01  7.59869910E+00  7.59869910E+00
 -1.51973982E+01  7.59869910E+00  7.59869910E+00 -1.51973982E+01  7.59869910E+00
  7.59869910E+00 -1.51973982E+01  7.59869910E+00  7.59869910E+00 -1.51973982E+01
  7.59869910E+00  7.59869910E+00 -1.51973982E+01  7.59869910E+00  7.59869910E+00
 -1.51973982E+01  7.59869910E+00  7.59869910E+00 -1.51973982E+01  7.59869910E+00
  7.59869910E+00 -1.51973982E+01  7.59869910E+00  7.59869910E+00 -1.51973982E+01
  7.59869910E+00  7.59869910E+00 -1.51973982E+01  7.59869910E+00  7.59869910E+00
 -1.51973982E+01  7.59869910E+00  7.59869910E+00 -1.51973982E+01  7.59869910E+00
  7.59869910E+00 -1.51973982E+01  7.59869910E+00  7.59869910E+00 -1.51973982E+01
  7.59869910E+00  7.59869910E+00 -1.51973982E+01  7.59869910E+00  7.59869910E+00
 -1.51973982E+01  7.59869910E+00  7.59869910E+00 -1.51973982E+01  7.59869910E+00
  7.59869910E+00 -1.51973982E+01  7.59869910E+00  7.59869910E+00 -1.51973982E+01
  7.59869910E+00  7.59869910E+00 -1.51973982E+01  7.59869910E+00  7.59869910E+00
 -1.51973982E+01  7.59869910E+00  7.59869910E+00 -1.51973982E+01  7.59869910E+00
  7.59869910E+00 -1.51973982E+01  7.59869910E+00  7.59869910E+00 -1.51973982E+01
  7.59869910E+00  7.59869910E+00 -1.51973982E+01  7.59869910E+00  7.59869910E+00
 -1.51973982E+01  7.59869910E+00  7.59869910E+00 -1.51973982E+01  7.59869910E+00
  7.59869910E+00 -1.51973982E+01  7.59869910E+00  7.59869910E+00 -1.51973982E+01
  7.59869910E+00  7.59869910E+00 -1.51973982E+01  7.59869910E+00  7.59869910E+00
 -1.51973982E+01  7.59869910E+00  7.59869910E+00 -1.51973982E+01  7.59869910E+00
  7.59869910E+00 -1.51973982E+01  7.59869910E+00  7.59869910E+00 -1.51973982E+01
  7.59869910E+00  7.59869910E+00 -1.51973982E+01  7.59869910E+00  7.59869910E+00
 -1.51973982E+01  7.59869910E+00  7.59869910E+00 -1.51973982E+01  7.59869910E+00
  7.59869910E+00 -1.51973982E+01  7.59869910E+00  7.59869910E+00 -1.51973982E+01
  7.59869910E+00  7.59869910E+00 -1.51973982E+01  7.59869910E+00  7.59869910E+00
 -1.51973982E+01  7.59869910E+00  7.59869910E+00 -1.51973982E+01  7.59869910E+00
  7.59869910E+00 -1.51973982E+01  7.59869910E+00  7.59869910E+00 -1.51973982E+01
  7.59869910E+00  7.59869910E+00 -1.51973982E+01  7.59869910E+00  7.59869910E+00
 -1.51973982E+01  7.59869910E+00  7.59869910E+00 -1.51973982E+01  7.59869910E+00
  7.59869910E+00 -1.51973982E+01  7.59869910E+00  7.59869910E+00 -1.51973982E+01
  7.59869910E+00  7.59869910E+00 -1.51973982E+01  7.59869910E+00  7.59869910E+00
 -1.51973982E+01  7.59869910E+00  7.59869910E+00 -1.51973982E+01  7.59869910E+00
  7.59869910E+00 -1.51973982E+01  7.59869910E+00  7.59869910E+00 -1.51973982E+01
  7.59869910E+00  7.59869910E+00 -1.51973982E+01  7.59869910E+00  7.59869910E+00
 -1.51973982E+01  7.59869910E+00  7.59869910E+00 -1.51973982E+01  7.59869910E+00
  7.59869910E+00 -1.51973982E+01  7.59869910E+00  7.59869910E+00 -1.51973982E+01
  7.59869910E+00  7.59869910E+00 -1.51973982E+01  7.59869910E+00  7.59869910E+00
 -1.51973982E+01  7.59869910E+00  7.59869910E+00 -1.51973982E+01  7.59869910E+00
  7.59869910E+00 -1.51973982E+01  7.59869910E+00  7.59869910E+00 -1.51973982E+01
  7.59869910E+00  7.59869910E+00 -1.51973982E+01  7.59869910E+00  7.59869910E+00
 -1.51973982E+01  7.59869910E+00  7.59869910E+00 -1.51973982E+01  7.59869910E+00
  7.59869910E+00 -1.51973982E+01  7.59869910E+00  7.59869910E+00 -1.51973982E+01
  7.59869910E+00  7.59869910E+00 -1.51973982E+01  7.59869910E+00  7.59869910E+00
 -1.51973982E+01  7.59869910E+00  7.59869910E+00 -1.51973982E+01  7.59869910E+00
  7.59869910E+00 -1.51973982E+01  7.59869910E+00  7.59869910E+00 -1.51973982E+01
  7.59869910E+00  7.59869910E+00 -1.51973982E+01  7.59869910E+00  7.59869910E+00
 -1.51973982E+01  7.59869910E+00  7.59869910E+00 -1.51973982E+01  7.59869910E+00
  7.59869910E+00 -1.51973982E+01  7.59869910E+00  7.59869910E+00 -1.51973982E+01
  7.59869910E+00  7.59869910E+00 -1.51973982E+01  7.59869910E+00  7.59869910E+00
 -1.51973982E+01  7.59869910E+00  7.59869910E+00 -1.51973982E+01  7.59869910E+00
  7.59869910E+00 -1.51973982E+01  7.59869910E+00  7.59869910E+00 -1.51973982E+01
  7.59869910E+00  7.59869910E+00 -1.51973982E+01  7.59869910E+00  7.59869910E+00
 -1.51973982E+01  7.59869910E+00  7.59869910E+00 -1.51973982E+01  7.59869910E+00
  7.59869910E+00 -1.51973982E+01  7.59869910E+00  7.59869910E+00 -1.51973982E+01
  7.59869910E+00  7.59869910E+00 -1.51973982E+01  7.59869910E+00  7.59869910E+00
 -1.51973982E+01  7.59869910E+00  7.59869910E+00 -1.51973982E+01  7.59869910E+00
  7.59869910E+00 -1.51973982E+01  7.59869910E+00  7.59869910E+00 -1.51973982E+01
  7.59869910E+00  7.59869910E+00 -1.51973982E+01  7.59869910E+00  7.59869910E+00
 -1.51973982E+01  7.59869910E+00  7.59869910E+00 -1.51973982E+01  7.59869910E+00
  7.59869910E+00 -1.51973982E+01  7.59869910E+00  7.59869910E+00 -1.51973982E+01
  7.59869910E+00  7.59869910E+00 -1.51973982E+01  7.59869910E+00  7.59869910E+00
 -1.51973982E+01  7.59869910E+00  7.59869910E+00 -1.51973982E+01  7.59869910E+00
  7.59869910E+00 -1.51973982E+01  7.59869910E+00  7.59869910E+00 -1.51973982E+01
  7.59869910E+00  7.59869910E+00 -1.51973982E+01  7.59869910E+00  7.59869910E+00
 -1.51973982E+01  7.59869910E+00  7.59869910E+00 -1.51973982E+01  7.59869910E+00
  7.59869910E+00 -1.51973982E+01  7.59869910E+00  7.59869910E+00 -1.51973982E+01
  7.59869910E+00  7.59869910E+00 -1.51973982E+01  7.59869910E+00  7.59869910E+00
 -1.51973982E+01  7.59869910E+00  7.59869910E+00 -1.51973982E+01  7.59869910E+00
  7.59869910E+00 -1.51973982E+01  7.59869910E+00  7.59869910E+00 -1.51973982E+01
  7.59869910E+00  7.59869910E+00 -1.51973982E+01  7.59869910E+00  7.59869910E+00
 -1.51973982E+01  7.59869910E+00  7.59869910E+00 -1.51973982E+01  7.59869910E+00
  7.59869910E+00 -1.51973982E+01  7.59869910E+00  7.59869910E+00 -1.51973982E+01
  7.59869910E+00  7.59869910E+00 -1.51973982E+01  7.59869910E+00  7.59869910E+00
 -1.51973982E+01  7.59869910E+00  7.59869910E+00 -1.51973982E+01  7.59869910E+00
  7.59869910E+00 -1.51973982E+01  7.59869910E+00  7.59869910E+00 -1.51973982E+01
  7.59869910E+00  7.59869910E+00 -1.51973982E+01  7.59869910E+00  7.59869910E+00
 -1.51973982E+01  7.59869910E+00  7.59869910E+00 -1.51973982E+01  7.59869910E+00
  7.59869910E+00 -1.51973982E+01  7.59869910E+00  7.59869910E+00 -1.51973982E+01
  7.59869910E+00  7.59869910E+00 -1.51973982E+01  7.59869910E+00  7.59869910E+00
 -1.51973982E+01  7.59869910E+00  7.59869910E+00 -1.51973982E+01  7.59869910E+00
  7.59869910E+00 -1.51973982E+01  7.59869910E+00  7.59869910E+00 -1.51973982E+01
  7.59869910E+00  7.59869910E+00 -1.51973982E+01  7.59869910E+00  7.59869910E+00
 -1.51973982E+01  7.59869910E+00  7.59869910E+00 -1.51973982E+01  7.59869910E+00
  7.59869910E+00 -1.51973982E+01  7.59869910E+00  7.59869910E+00 -1.51973982E+01
  7.59869910E+00  7.59869910E+00 -1.51973982E+01  7.59869910E+00  7.59869910E+00
 -1.51973982E+01  7.59869910E+00  7.59869910E+00 -1.51973982E+01  7.59869910E+00
  7.59869910E+00 -1.51973982E+01  7.59869910E+00  7.59869910E+00 -1.51973982E+01
  7.59869910E+00  7.59869910E+00 -1.51973982E+01  7.59869910E+00  7.59869910E+00
 -1.51973982E+01  7.59869910E+00  7.59869910E+00 -1.51973982E+01  7.59869910E+00
  7.59869910E+00 -1.51973982E+01  7.59869910E+00  7.59869910E+00 -1.51973982E+01
  7.59869910E+00  7.59869910E+00 -1.51973982E+01  7.59869910E+00  7.59869910E+00
 -1.51973982E+01  7.59869910E+00  7.59869910E+00 -1.51973982E+01  7.59869910E+00
  7.59869910E+00 -1.51973982E+01  7.59869910E+00  7.59869910E+00 -1.51973982E+01
  7.59869910E+00  7.59869910E+00 -1.51973982E+01  7.59869910E+00  7.59869910E+00
 -1.51973982E+01  7.59869910E+00  7.59869910E+00 -1.51973982E+01  7.59869910E+00
  7.59869910E+00 -1.51973982E+01  7.59869910E+00  7.59869910E+00 -1.51973982E+01
  7.59869910E+00  7.59869910E+00 -1.51973982E+01  7.59869910E+00  7.59869910E+00
 -1.51973982E+01  7.59869910E+00  7.59869910E+00 -1.51973982E+01  7.59869910E+00
  7.59869910E+00 -1.51973982E+01  7.59869910E+00  7.59869910E+00 -1.51973982E+01
  7.59869910E+00  7.59869910E+00 -1.51973982E+01  7.59869910E+00  7.59869910E+00
 -1.51973982E+01  7.59869910E+00  7.59869910E+00 -1.51973982E+01  7.59869910E+00
  7.59869910E+00 -1.51973982E+01  7.59869910E+00  7.59869910E+00 -1.51973982E+01
  7.59869910E+00  7.59869910E+00 -1.51973982E+01  7.59869910E+00  7.59869910E+00
 -1.51973982E+01  7.59869910E+00  7.59869910E+00 -1.51973982E+01  7.59869910E+00
  7.59869910E+00 -1.51973982E+01  7.59869910E+00  7.59869910E+00 -1.51973982E+01
  7.59869910E+00  7.59869910E+00 -1.51973982E+01  7.59869910E+00  7.59869910E+00
 -1.51973982E+01  7.59869910E+00  7.59869910E+00 -1.51973982E+01  7.59869910E+00
  7.59869910E+00 -1.51973982E+01  7.59869910E+00  7.59869910E+00 -1.51973982E+01
  7.59869910E+00  7.59869910E+00 -1.51973982E+01  7.59869910E+00  7.59869910E+00
 -1.51973982E+01  7.59869910E+00  7.59869910E+00 -1.51973982E+01  7.59869910E+00
  7.59869910E+00 -1.51973982E+01  7.59869910E+00  7.59869910E+00 -1.51973982E+01
  7.59869910E+00  7.59869910E+00 -1.51973982E+01  7.59869910E+00  7.59869910E+00
 -1.51973982E+01  7.59869910E+00  7.59869910E+00 -1.51973982E+01  7.59869910E+00
  7.59869910E+00 -1.51973982E+01  7.59869910E+00  7.59869910E+00 -1.51973982E+01
  7.59869910E+00  7.59869910E+00 -1.51973982E+01  7.59869910E+00  7.59869910E+00
 -1.51973982E+01  7.59869910E+00  7.59869910E+00 -1.51973982E+01  7.59869910E+00
  7.59869910E+00 -1.51973982E+01  7.59869910E+00  7.59869910E+00 -1.51973982E+01
  7.59869910E+00  7.59869910E+00 -1.51973982E+01  7.59869910E+00  7.59869910E+00
 -1.51973982E+01  7.59869910E+00  7.59869910E+00 -1.51973982E+01  7.59869910E+00
  7.59869910E+00 -1.51973982E+01  7.59869910E+00  7.59869910E+00 -1.51973982E+01
  7.59869910E+00  7.59869910E+00 -1.51973982E+01  7.59869910E+00  7.59869910E+00
 -1.51973982E+01  7.59869910E+00  7.59869910E+00 -1.51973982E+01  7.59869910E+00
  7.59869910E+00 -1.51973982E+01  7.59869910E+00  7.59869910E+00 -1.51973982E+01
  7.59869910E+00  7.59869910E+00 -1.51973982E+01  7.59869910E+00  7.59869910E+00
 -1.51973982E+01  7.59869910E+00  7.59869910E+00 -1.51973982E+01  7.59869910E+00
  7.59869910E+00 -1.51973982E+01  7.59869910E+00  7.59869910E+00 -1.51973982E+01
  7.59869910E+00  7.59869910E+00 -1.51973982E+01  7.59869910E+00  7.59869910E+00
 -1.51973982E+01  7.59869910E+00  7.59869910E+00 -1.51973982E+01  7.59869910E+00
  7.59869910E+00 -1.51973982E+01  7.59869910E+00  7.59869910E+00 -1.51973982E+01
  7.59869910E+00  7.59869910E+00 -1.51973982E+01  7.59869910E+00  7.59869910E+00
 -1.51973982E+01  7.59869910E+00  7.59869910E+00 -1.51973982E+01  7.59869910E+00
  7.59869910E+00 -1.51973982E+01  7.59869910E+00  7.59869910E+00 -1.51973982E+01
  7.59869910E+00  7.59869910E+00 -1.51973982E+01  7.59869910E+00  7.59869910E+00
 -1.51973982E+01  7.59869910E+00  7.59869910E+00 -1.51973982E+01  7.59869910E+00
  7.59869910E+00 -1.51973982E+01  7.59869910E+00  7.59869910E+00 -1.51973982E+01
  7.59869910E+00  7.59869910E+00 -1.51973982E+01  7.59869910E+00  7.59869910E+00
 -1.51973982E+01  7.59869910E+00  7.59869910E+00 -1.51973982E+01  7.59869910E+00
  7.59869910E+00 -1.51973982E+01  7.59869910E+00  7.59869910E+00 -1.51973982E+01
  7.59869910E+00  7.59869910E+00 -1.51973982E+01  7.59869910E+00  7.59869910E+00
 -1.51973982E+01  7.59869910E+00  7.59869910E+00 -1.51973982E+01  7.59869910E+00
  7.59869910E+00 -1.51973982E+01  7.59869910E+00  7.59869910E+00 -1.51973982E+01
  7.59869910E+00  7.59869910E+00 -1.51973982E+01  7.59869910E+00  7.59869910E+00
 -1.51973982E+01  7.59869910E+00  7.59869910E+00 -1.51973982E+01  7.59869910E+00
  7.59869910E+00 -1.51973982E+01  7.59869910E+00  7.59869910E+00 -1.51973982E+01
  7.59869910E+00  7.59869910E+00 -1.51973982E+01  7.59869910E+00  7.59869910E+00
 -1.51973982E+01  7.59869910E+00  7.59869910E+00 -1.51973982E+01  7.59869910E+00
  7.59869910E+00 -1.51973982E+01  7.59869910E+00  7.59869910E+00 -1.51973982E+01
  7.59869910E+00  7.59869910E+00 -1.51973982E+01  7.59869910E+00  7.59869910E+00
 -1.51973982E+01  7.59869910E+00  7.59869910E+00 -1.51973982E+01  7.59869910E+00
  7.59869910E+00 -1.51973982E+01  7.59869910E+00  7.59869910E+00 -1.51973982E+01
  7.59869910E+00  7.59869910E+00 -1.51973982E+01  7.59869910E+00  7.59869910E+00
 -1.51973982E+01  7.59869910E+00  7.59869910E+00 -1.51973982E+01  7.59869910E+00
  7.59869910E+00 -1.51973982E+01  7.59869910E+00  7.59869910E+00 -1.51973982E+01
  7.59869910E+00  7.59869910E+00 -1.51973982E+01  7.59869910E+00  7.59869910E+00
 -1.51973982E+01  7.59869910E+00  7.59869910E+00 -1.51973982E+01  7.59869910E+00
  7.59869910E+00 -1.51973982E+01  7.59869910E+00  7.59869910E+00 -1.51973982E+01
  7.59869910E+00  7.59869910E+00 -1.51973982E+01  7.59869910E+00  7.59869910E+00
 -1.51973982E+01  7.59869910E+00  7.59869910E+00 -1.51973982E+01  7.59869910E+00
  7.59869910E+00 -1.51973982E+01  7.59869910E+00  7.59869910E+00 -1.51973982E+01
  7.59869910E+00  7.59869910E+00 -1.51973982E+01  7.59869910E+00  7.59869910E+00
 -1.51973982E+01  7.59869910E+00  7.59869910E+00 -1.51973982E+01  7.59869910E+00
  7.59869910E+00 -1.51973982E+01  7.59869910E+00  7.59869910E+00 -1.51973982E+01
  7.59869910E+00  7.59869910E+00 -1.51973982E+01  7.59869910E+00  7.59869910E+00
 -1.51973982E+01  7.59869910E+00  7.59869910E+00 -1.51973982E+01  7.59869910E+00
  7.59869910E+00 -1.51973982E+01  7.59869910E+00  7.59869910E+00 -1.51973982E+01
  7.59869910E+00  7.59869910E+00 -1.51973982E+01  7.59869910E+00  7.59869910E+00
 -1.51973982E+01  7.59869910E+00  7.59869910E+00 -1.51973982E+01  7.59869910E+00
  7.59869910E+00 -1.51973982E+01  7.59869910E+00  7.59869910E+00 -1.51973982E+01
  7.59869910E+00  7.59869910E+00 -1.51973982E+01  7.59869910E+00  7.59869910E+00
 -1.51973982E+01  7.59869910E+00  7.59869910E+00 -1.51973982E+01  7.59869910E+00
  7.59869910E+00 -1.51973982E+01  7.59869910E+00  7.59869910E+00 -1.51973982E+01
  7.59869910E+00  7.59869910E+00 -1.51973982E+01  7.59869910E+00  7.59869910E+00
 -1.51973982E+01  7.59869910E+00  7.59869910E+00 -1.51973982E+01  7.59869910E+00
  7.59869910E+00 -1.51973982E+01  7.59869910E+00  7.59869910E+00 -1.51973982E+01
  7.59869910E+00  7.59869910E+00 -1.51973982E+01  7.59869910E+00  7.59869910E+00
 -1.51973982E+01  7.59869910E+00  7.59869910E+00 -1.51973982E+01  7.59869910E+00
  7.59869910E+00 -1.51973982E+01  7.59869910E+00  7.59869910E+00 -1.51973982E+01
  7.59869910E+00  7.59869910E+00 -1.51973982E+01  7.59869910E+00  7.59869910E+00
 -1.51973982E+01  7.59869910E+00  7.59869910E+00 -1.51973982E+01  7.59869910E+00
  7.59869910E+00 -1.51973982E+01  7.59869910E+00  7.59869910E+00 -1.51973982E+01
  7.59869910E+00  7.59869910E+00 -1.51973982E+01  7.59869910E+00  7.59869910E+00
 -1.51973982E+01  7.59869910E+00  7.59869910E+00 -1.51973982E+01  7.59869910E+00
  7.59869910E+00 -1.51973982E+01  7.59869910E+00  7.59869910E+00 -1.51973982E+01
  7.59869910E+00  7.59869910E+00 -1.51973982E+01  7.59869910E+00  7.59869910E+00
 -1.51973982E+01  7.59869910E+00  7.59869910E+00 -1.51973982E+01  7.59869910E+00
  7.59869910E+00 -1.51973982E+01  7.59869910E+00  7.59869910E+00 -1.51973982E+01
  7.59869910E+00  7.59869910E+00 -1.51973982E+01  7.59869910E+00  7.59869910E+00
 -1.51973982E+01  7.59869910E+00  7.59869910E+00 -1.51973982E+01  7.59869910E+00
  7.59869910E+00 -1.51973982E+01  7.59869910E+00  7.59869910E+00 -1.51973982E+01
  7.59869910E+00  7.59869910E+00 -1.51973982E+01  7.59869910E+00  7.59869910E+00
 -1.51973982E+01  7.59869910E+00  7.59869910E+00 -1.51973982E+01  7.59869910E+00
  7.59869910E+00 -1.51973982E+01  7.59869910E+00  7.59869910E+00 -1.51973982E+01
  7.59869910E+00  7.59869910E+00 -1.51973982E+01  7.59869910E+00  7.59869910E+00
 -1.51973982E+01  7.59869910E+00  7.59869910E+00 -1.51973982E+01  7.59869910E+00
  7.59869910E+00 -1.51973982E+01  7.59869910E+00  7.59869910E+00 -1.51973982E+01
  7.59869910E+00  7.59869910E+00 -1.51973982E+01  7.59869910E+00  7.59869910E+00
 -1.51973982E+01  7.59869910E+00  7.59869910E+00 -1.51973982E+01  7.59869910E+00
  7.59869910E+00 -1.51973982E+01  7.59869910E+00  7.59869910E+00 -1.51973982E+01
  7.59869910E+00  7.59869910E+00 -1.51973982E+01  7.59869910E+00  7.59869910E+00
 -1.51973982E+01  7.59869910E+00  7.59869910E+00 -1.51973982E+01  7.59869910E+00
  7.59869910E+00 -1.51973982E+01  7.59869910E+00  7.59869910E+00 -1.51973982E+01
  7.59869910E+00  7.59869910E+00 -1.51973982E+01  7.59869910E+00  7.59869910E+00
 -1.51973982E+01  7.59869910E+00  7.59869910E+00 -1.51973982E+01  7.59869910E+00
  7.59869910E+00 -1.51973982E+01  7.59869910E+00  7.59869910E+00 -1.51973982E+01
  7.59869910E+00  7.59869910E+00 -1.51973982E+01  7.59869910E+00  7.59869910E+00
 -1.51973982E+01  7.59869910E+00  7.59869910E+00 -1.51973982E+01  7.59869910E+00
  7.59869910E+00 -1.51973982E+01  7.59869910E+00  7.59869910E+00 -1.51973982E+01
  7.59869910E+00  7.59869910E+00 -1.51973982E+01  7.59869910E+00  7.59869910E+00
 -1.51973982E+01  7.59869910E+00  7.59869910E+00 -1.51973982E+01  7.59869910E+00
  7.59869910E+00 -1.51973982E+01  7.59869910E+00  7.59869910E+00 -1.51973982E+01
  7.59869910E+00  7.59869910E+00 -1.51973982E+01  7.59869910E+00  7.59869910E+00
 -1.51973982E+01  7.59869910E+00  7.59869910E+00 -1.51973982E+01  7.59869910E+00
  7.59869910E+00 -1.51973982E+01  7.59869910E+00  7.59869910E+00 -1.51973982E+01
  7.59869910E+00  7.59869910E+00 -1.51973982E+01  7.59869910E+00  7.59869910E+00
 -1.51973982E+01  7.59869910E+00  7.59869910E+00 -1.51973982E+01  7.59869910E+00
  7.59869910E+00 -1.51973982E+01  7.59869910E+00  7.59869910E+00 -1.51973982E+01
  7.59869910E+00  7.59869910E+00 -1.51973982E+01  7.59869910E+00  7.59869910E+00
 -1.51973982E+01  7.59869910E+00  7.59869910E+00 -1.51973982E+01  7.59869910E+00
  7.59869910E+00 -1.51973982E+01  7.59869910E+00  7.59869910E+00 -1.51973982E+01
  7.59869910E+00  7.59869910E+00 -1.51973982E+01  7.59869910E+00  7.59869910E+00
 -1.51973982E+01  7.59869910E+00  7.59869910E+00 -1.51973982E+01  7.59869910E+00
  7.59869910E+00 -1.51973982E+01  7.59869910E+00  7.59869910E+00 -1.51973982E+01
  7.59869910E+00  7.59869910E+00 -1.51973982E+01  7.59869910E+00  7.59869910E+00
 -1.51973982E+01  7.59869910E+00  7.59869910E+00 -1.51973982E+01  7.59869910E+00
  7.59869910E+00 -1.51973982E+01  7.59869910E+00  7.59869910E+00 -1.51973982E+01
  7.59869910E+00  7.59869910E+00 -1.51973982E+01  7.59869910E+00  7.59869910E+00
 -1.51973982E+01  7.59869910E+00  7.59869910E+00 -1.51973982E+01  7.59869910E+00
  7.59869910E+00 -1.51973982E+01  7.59869910E+00  7.59869910E+00 -1.51973982E+01
  7.59869910E+00  7.59869910E+00 -1.51973982E+01  7.59869910E+00  7.59869910E+00
 -1.51973982E+01  7.59869910E+00  7.59869910E+00 -1.51973982E+01  7.59869910E+00
  7.59869910E+00 -1.51973982E+01  7.59869910E+00  7.59869910E+00 -1.51973982E+01
  7.59869910E+00  7.59869910E+00 -1.51973982E+01  7.59869910E+00  7.59869910E+00
 -1.51973982E+01  7.59869910E+00  7.59869910E+00 -1.51973982E+01  7.59869910E+00
  7.59869910E+00 -1.51973982E+01  7.59869910E+00  7.59869910E+00 -1.51973982E+01
  7.59869910E+00  7.59869910E+00 -1.51973982E+01  7.59869910E+00  7.59869910E+00
 -1.51973982E+01  7.59869910E+00  7.59869910E+00 -1.51973982E+01  7.59869910E+00
  7.59869910E+00 -1.51973982E+01  7.59869910E+00  7.59869910E+00 -1.51973982E+01
  7.59869910E+00  7.59869910E+00 -1.51973982E+01  7.59869910E+00  7.59869910E+00
 -1.51973982E+01  7.59869910E+00  7.59869910E+00 -1.51973982E+01  7.59869910E+00
  7.59869910E+00 -1.51973982E+01  7.59869910E+00  7.59869910E+00 -1.51973982E+01
  7.59869910E+00  7.59869910E+00 -1.51973982E+01  7.59869910E+00  7.59869910E+00
 -1.51973982E+01  7.59869910E+00  7.59869910E+00 -1.51973982E+01  7.59869910E+00
  7.59869910E+00 -1.51973982E+01  7.59869910E+00  7.59869910E+00 -1.51973982E+01
  7.59869910E+00  7.59869910E+00 -1.51973982E+01  7.59869910E+00  7.59869910E+00
 -1.51973982E+01  7.59869910E+00  7.59869910E+00 -1.51973982E+01  7.59869910E+00
  7.59869910E+00 -1.51973982E+01  7.59869910E+00  7.59869910E+00 -1.51973982E+01
  7.59869910E+00  7.59869910E+00 -1.51973982E+01  7.59869910E+00  7.59869910E+00
 -1.51973982E+01  7.59869910E+00  7.59869910E+00 -1.51973982E+01  7.59869910E+00
  7.59869910E+00 -1.51973982E+01  7.59869910E+00  7.59869910E+00 -1.51973982E+01
  7.59869910E+00  7.59869910E+00 -1.51973982E+01  7.59869910E+00  7.59869910E+00
 -1.51973982E+01  7.59869910E+00  7.59869910E+00 -1.51973982E+01  7.59869910E+00
  7.59869910E+00 -1.51973982E+01  7.59869910E+00  7.59869910E+00 -1.51973982E+01
  7.59869910E+00  7.59869910E+00 -1.51973982E+01  7.59869910E+00  7.59869910E+00
 -1.51973982E+01  7.59869910E+00  7.59869910E+00 -1.51973982E+01  7.59869910E+00
  7.59869910E+00 -1.51973982E+01  7.59869910E+00  7.59869910E+00 -1.51973982E+01
  7.59869910E+00  7.59869910E+00 -1.51973982E+01  7.59869910E+00  7.59869910E+00
 -1.51973982E+01  7.59869910E+00  7.59869910E+00 -1.51973982E+01  7.59869910E+00
  7.59869910E+00 -1.51973982E+01  7.59869910E+00  7.59869910E+00 -1.51973982E+01
  7.59869910E+00  7.59869910E+00 -1.51973982E+01  7.59869910E+00  7.59869910E+00
 -1.51973982E+01  7.59869910E+00  7.59869910E+00 -1.51973982E+01  7.59869910E+00
  7.59869910E+00 -1.51973982E+01  7.59869910E+00  7.59869910E+00 -1.51973982E+01
  7.59869910E+00  7.59869910E+00 -1.51973982E+01  7.59869910E+00  7.59869910E+00
 -1.51973982E+01  7.59869910E+00  7.59869910E+00 -1.51973982E+01  7.59869910E+00
  7.59869910E+00 -1.51973982E+01  7.59869910E+00  7.59869910E+00 -1.51973982E+01
  7.59869910E+00  7.59869910E+00 -1.51973982E+01  7.59869910E+00  7.59869910E+00
 -1.51973982E+01  7.59869910E+00  7.59869910E+00 -1.51973982E+01  7.59869910E+00
  7.59869910E+00 -1.51973982E+01  7.59869910E+00  7.59869910E+00 -1.51973982E+01
  7.59869910E+00  7.59869910E+00 -1.51973982E+01  7.59869910E+00  7.59869910E+00
 -1.51973982E+01  7.59869910E+00  7.59869910E+00 -1.51973982E+01  7.59869910E+00
  7.59869910E+00 -1.51973982E+01  7.59869910E+00  7.59869910E+00 -1.51973982E+01
  7.59869910E+00  7.59869910E+00 -1.51973982E+01  7.59869910E+00  7.59869910E+00
 -1.51973982E+01  7.59869910E+00  7.59869910E+00 -1.51973982E+01  7.59869910E+00
  7.59869910E+00 -1.51973982E+01  7.59869910E+00  7.59869910E+00 -1.51973982E+01
  7.59869910E+00  7.59869910E+00 -1.51973982E+01  7.59869910E+00  7.59869910E+00
 -1.51973982E+01  7.59869910E+00  7.59869910E+00 -1.51973982E+01  7.59869910E+00
  7.59869910E+00 -1.51973982E+01  7.59869910E+00  7.59869910E+00 -1.51973982E+01
  7.59869910E+00  7.59869910E+00 -1.51973982E+01  7.59869910E+00  7.59869910E+00
 -1.51973982E+01  7.59869910E+00  7.59869910E+00 -1.51973982E+01  7.59869910E+00
  7.59869910E+00 -1.51973982E+01  7.59869910E+00  7.59869910E+00 -1.51973982E+01
  7.59869910E+00  7.59869910E+00 -1.51973982E+01  7.59869910E+00  7.59869910E+00
 -1.51973982E+01  7.59869910E+00  7.59869910E+00 -1.51973982E+01  7.59869910E+00
  7.59869910E+00 -1.51973982E+01  7.59869910E+00  7.59869910E+00 -1.51973982E+01
  7.59869910E+00  7.59869910E+00 -1.51973982E+01  7.59869910E+00  7.59869910E+00
 -1.51973982E+01  7.59869910E+00  7.59869910E+00 -1.51973982E+01  7.59869910E+00
  7.59869910E+00 -1.51973982E+01  7.59869910E+00  7.59869910E+00 -1.51973982E+01
  7.59869910E+00  7.59869910E+00 -1.51973982E+01  7.59869910E+00  7.59869910E+00
 -1.51973982E+01  7.59869910E+00  7.59869910E+00 -1.51973982E+01  7.59869910E+00
  7.59869910E+00 -1.51973982E+01  7.59869910E+00  7.59869910E+00 -1.51973982E+01
  7.59869910E+00  7.59869910E+00 -1.51973982E+01  7.59869910E+00  7.59869910E+00
 -1.51973982E+01  7.59869910E+00  7.59869910E+00 -1.51973982E+01  7.59869910E+00
  7.59869910E+00 -1.51973982E+01  7.59869910E+00  7.59869910E+00 -1.51973982E+01
  7.59869910E+00  7.59869910E+00 -1.51973982E+01  7.59869910E+00  7.59869910E+00
 -1.51973982E+01  7.59869910E+00  7.59869910E+00 -1.51973982E+01  7.59869910E+00
  7.59869910E+00 -1.51973982E+01  7.59869910E+00  7.59869910E+00 -1.51973982E+01
  7.59869910E+00  7.59869910E+00 -1.51973982E+01  7.59869910E+00  7.59869910E+00
 -1.51973982E+01  7.59869910E+00  7.59869910E+00 -1.51973982E+01  7.59869910E+00
  7.59869910E+00 -1.51973982E+01  7.59869910E+00  7.59869910E+00 -1.51973982E+01
  7.59869910E+00  7.59869910E+00 -1.51973982E+01  7.59869910E+00  7.59869910E+00
 -1.51973982E+01  7.59869910E+00  7.59869910E+00 -1.51973982E+01  7.59869910E+00
  7.59869910E+00 -1.51973982E+01  7.59869910E+00  7.59869910E+00 -1.51973982E+01
  7.59869910E+00  7.59869910E+00 -1.51973982E+01  7.59869910E+00  7.59869910E+00
 -1.51973982E+01  7.59869910E+00  7.59869910E+00 -1.51973982E+01  7.59869910E+00
  7.59869910E+00 -1.51973982E+01  7.59869910E+00  7.59869910E+00 -1.51973982E+01
  7.59869910E+00  7.59869910E+00 -1.51973982E+01  7.59869910E+00  7.59869910E+00
 -1.51973982E+01  7.59869910E+00  7.59869910E+00 -1.51973982E+01  7.59869910E+00
  7.59869910E+00 -1.51973982E+01  7.59869910E+00  7.59869910E+00 -1.51973982E+01
  7.59869910E+00  7.59869910E+00 -1.51973982E+01  7.59869910E+00  7.59869910E+00
 -1.51973982E+01  7.59869910E+00  7.59869910E+00 -1.51973982E+01  7.59869910E+00
  7.59869910E+00 -1.51973982E+01  7.59869910E+00  7.59869910E+00 -1.51973982E+01
  7.59869910E+00  7.59869910E+00 -1.51973982E+01  7.59869910E+00  7.59869910E+00
 -1.51973982E+01  7.59869910E+00  7.59869910E+00 -1.51973982E+01  7.59869910E+00
  7.59869910E+00 -1.51973982E+01  7.59869910E+00  7.59869910E+00 -1.51973982E+01
  7.59869910E+00  7.59869910E+00 -1.51973982E+01  7.59869910E+00  7.59869910E+00
 -1.51973982E+01  7.59869910E+00  7.59869910E+00 -1.51973982E+01  7.59869910E+00
  7.59869910E+00 -1.51973982E+01  7.59869910E+00  7.59869910E+00 -1.51973982E+01
  7.59869910E+00  7.59869910E+00 -1.51973982E+01  7.59869910E+00  7.59869910E+00
 -1.51973982E+01  7.59869910E+00  7.59869910E+00 -1.51973982E+01  7.59869910E+00
  7.59869910E+00 -1.51973982E+01  7.59869910E+00  7.59869910E+00 -1.51973982E+01
  7.59869910E+00  7.59869910E+00 -1.51973982E+01  7.59869910E+00  7.59869910E+00
 -1.51973982E+01  7.59869910E+00  7.59869910E+00 -1.51973982E+01  7.59869910E+00
  7.59869910E+00 -1.51973982E+01  7.59869910E+00  7.59869910E+00 -1.51973982E+01
  7.59869910E+00  7.59869910E+00 -1.51973982E+01  7.59869910E+00  7.59869910E+00
 -1.51973982E+01  7.59869910E+00  7.59869910E+00 -1.51973982E+01  7.59869910E+00
  7.59869910E+00 -1.51973982E+01  7.59869910E+00  7.59869910E+00 -1.51973982E+01
  7.59869910E+00  7.59869910E+00 -1.51973982E+01  7.59869910E+00  7.59869910E+00
 -1.51973982E+01  7.59869910E+00  7.59869910E+00 -1.51973982E+01  7.59869910E+00
  7.59869910E+00 -1.51973982E+01  7.59869910E+00  7.59869910E+00 -1.51973982E+01
  7.59869910E+00  7.59869910E+00 -1.51973982E+01  7.59869910E+00  7.59869910E+00
 -1.51973982E+01  7.59869910E+00  7.59869910E+00 -1.51973982E+01  7.59869910E+00
  7.59869910E+00 -1.51973982E+01  7.59869910E+00  7.59869910E+00 -1.51973982E+01
  7.59869910E+00  7.59869910E+00 -1.51973982E+01  7.59869910E+00  7.59869910E+00
 -1.51973982E+01  7.59869910E+00  7.59869910E+00 -1.51973982E+01  7.59869910E+00
  7.59869910E+00 -1.51973982E+01  7.59869910E+00  7.59869910E+00 -1.51973982E+01
  7.59869910E+00  7.59869910E+00 -1.51973982E+01  7.59869910E+00  7.59869910E+00
 -1.51973982E+01  7.59869910E+00  7.59869910E+00 -1.51973982E+01  7.59869910E+00
  7.59869910E+00 -1.51973982E+01  7.59869910E+00  7.59869910E+00 -1.51973982E+01
  7.59869910E+00  7.59869910E+00 -1.51973982E+01  7.59869910E+00  7.59869910E+00
 -1.51973982E+01  7.59869910E+00  7.59869910E+00 -1.51973982E+01  7.59869910E+00
  7.59869910E+00 -1.51973982E+01  7.59869910E+00  7.59869910E+00 -1.51973982E+01
  7.59869910E+00  7.59869910E+00 -1.51973982E+01  7.59869910E+00  7.59869910E+00
 -1.51973982E+01  7.59869910E+00  7.59869910E+00 -1.51973982E+01  7.59869910E+00
  7.59869910E+00 -1.51973982E+01  7.59869910E+00  7.59869910E+00 -1.51973982E+01
  7.59869910E+00  7.59869910E+00 -1.51973982E+01  7.59869910E+00  7.59869910E+00
 -1.51973982E+01  7.59869910E+00  7.59869910E+00 -1.51973982E+01  7.59869910E+00
  7.59869910E+00 -1.51973982E+01  7.59869910E+00  7.59869910E+00 -1.51973982E+01
  7.59869910E+00  7.59869910E+00 -1.51973982E+01  7.59869910E+00  7.59869910E+00
 -1.51973982E+01  7.59869910E+00  7.59869910E+00 -1.51973982E+01  7.59869910E+00
  7.59869910E+00 -1.51973982E+01  7.59869910E+00  7.59869910E+00 -1.51973982E+01
  7.59869910E+00  7.59869910E+00 -1.51973982E+01  7.59869910E+00  7.59869910E+00
 -1.51973982E+01  7.59869910E+00  7.59869910E+00 -1.51973982E+01  7.59869910E+00
  7.59869910E+00 -1.51973982E+01  7.59869910E+00  7.59869910E+00 -1.51973982E+01
  7.59869910E+00  7.59869910E+00 -1.51973982E+01  7.59869910E+00  7.59869910E+00
 -1.51973982E+01  7.59869910E+00  7.59869910E+00 -1.51973982E+01  7.59869910E+00
  7.59869910E+00 -1.51973982E+01  7.59869910E+00  7.59869910E+00 -1.51973982E+01
  7.59869910E+00  7.59869910E+00 -1.51973982E+01  7.59869910E+00  7.59869910E+00
 -1.51973982E+01  7.59869910E+00  7.59869910E+00 -1.51973982E+01  7.59869910E+00
  7.59869910E+00 -1.51973982E+01  7.59869910E+00  7.59869910E+00 -1.51973982E+01
  7.59869910E+00  7.59869910E+00 -1.51973982E+01  7.59869910E+00  7.59869910E+00
 -1.51973982E+01  7.59869910E+00  7.59869910E+00 -1.51973982E+01  7.59869910E+00
  7.59869910E+00 -1.51973982E+01  7.59869910E+00  7.59869910E+00 -1.51973982E+01
  7.59869910E+00  7.59869910E+00 -1.51973982E+01  7.59869910E+00  7.59869910E+00
 -1.51973982E+01  7.59869910E+00  7.59869910E+00 -1.51973982E+01  7.59869910E+00
  7.59869910E+00 -1.51973982E+01  7.59869910E+00  7.59869910E+00 -1.51973982E+01
  7.59869910E+00  7.59869910E+00 -1.51973982E+01  7.59869910E+00  7.59869910E+00
 -1.51973982E+01  7.59869910E+00  7.59869910E+00 -1.51973982E+01  7.59869910E+00
  7.59869910E+00 -1.51973982E+01  7.59869910E+00  7.59869910E+00 -1.51973982E+01
  7.59869910E+00  7.59869910E+00 -1.51973982E+01  7.59869910E+00  7.59869910E+00
 -1.51973982E+01  7.59869910E+00  7.59869910E+00 -1.51973982E+01  7.59869910E+00
  7.59869910E+00 -1.51973982E+01  7.59869910E+00  7.59869910E+00 -1.51973982E+01
  7.59869910E+00  7.59869910E+00 -1.51973982E+01  7.59869910E+00  7.59869910E+00
 -1.51973982E+01  7.59869910E+00  7.59869910E+00 -1.51973982E+01  7.59869910E+00
  7.59869910E+00 -1.51973982E+01  7.59869910E+00  7.59869910E+00 -1.51973982E+01
  7.59869910E+00  7.59869910E+00 -1.51973982E+01  7.59869910E+00  7.59869910E+00
 -1.51973982E+01  7.59869910E+00  7.59869910E+00 -1.51973982E+01  7.59869910E+00
  7.59869910E+00 -1.51973982E+01  7.59869910E+00  7.59869910E+00 -1.51973982E+01
  7.59869910E+00  7.59869910E+00 -1.51973982E+01  7.59869910E+00  7.59869910E+00
 -1.51973982E+01  7.59869910E+00  7.59869910E+00 -1.51973982E+01  7.59869910E+00
  7.59869910E+00 -1.51973982E+01  7.59869910E+00  7.59869910E+00 -1.51973982E+01
  7.59869910E+00  7.59869910E+00 -1.51973982E+01  7.59869910E+00  7.59869910E+00
 -1.51973982E+01  7.59869910E+00  7.59869910E+00 -1.51973982E+01  7.59869910E+00
  7.59869910E+00 -1.51973982E+01  7.59869910E+00  7.59869910E+00 -1.51973982E+01
  7.59869910E+00  7.59869910E+00 -1.51973982E+01  7.59869910E+00  7.59869910E+00
 -1.51973982E+01  7.59869910E+00  7.59869910E+00 -1.51973982E+01  7.59869910E+00
  7.59869910E+00 -1.51973982E+01  7.59869910E+00  7.59869910E+00 -1.51973982E+01
  7.59869910E+00  7.59869910E+00 -1.51973982E+01  7.59869910E+00  7.59869910E+00
 -1.51973982E+01  7.59869910E+00  7.59869910E+00 -1.51973982E+01  7.59869910E+00
  7.59869910E+00 -1.51973982E+01  7.59869910E+00  7.59869910E+00 -1.51973982E+01
  7.59869910E+00  7.59869910E+00 -1.51973982E+01  7.59869910E+00  7.59869910E+00
 -1.51973982E+01  7.59869910E+00  7.59869910E+00 -1.51973982E+01  7.59869910E+00
  7.59869910E+00 -1.51973982E+01  7.59869910E+00  7.59869910E+00 -1.51973982E+01
  7.59869910E+00  7.59869910E+00 -1.51973982E+01  7.59869910E+00  7.59869910E+00
 -1.51973982E+01  7.59869910E+00  7.59869910E+00 -1.51973982E+01  7.59869910E+00
  7.59869910E+00 -1.51973982E+01  7.59869910E+00  7.59869910E+00 -1.51973982E+01
  7.59869910E+00  7.59869910E+00 -1.51973982E+01  7.59869910E+00  7.59869910E+00
 -1.51973982E+01  7.59869910E+00  7.59869910E+00 -1.51973982E+01  7.59869910E+00
  7.59869910E+00 -1.51973982E+01  7.59869910E+00  7.59869910E+00 -1.51973982E+01
  7.59869910E+00  7.59869910E+00 -1.51973982E+01  7.59869910E+00  7.59869910E+00
 -1.51973982E+01  7.59869910E+00  7.59869910E+00 -1.51973982E+01  7.59869910E+00
  7.59869910E+00 -1.51973982E+01  7.59869910E+00  7.59869910E+00 -1.51973982E+01
  7.59869910E+00  7.59869910E+00 -1.51973982E+01  7.59869910E+00  7.59869910E+00
 -1.51973982E+01  7.59869910E+00  7.59869910E+00 -1.51973982E+01  7.59869910E+00
  7.59869910E+00 -1.51973982E+01  7.59869910E+00  7.59869910E+00 -1.51973982E+01
  7.59869910E+00  7.59869910E+00 -1.51973982E+01  7.59869910E+00  7.59869910E+00
 -1.51973982E+01  7.59869910E+00  7.59869910E+00 -1.51973982E+01  7.59869910E+00
  7.59869910E+00 -1.51973982E+01  7.59869910E+00  7.59869910E+00 -1.51973982E+01
  7.59869910E+00  7.59869910E+00 -1.51973982E+01  7.59869910E+00  7.59869910E+00
 -1.51973982E+01  7.59869910E+00  7.59869910E+00 -1.51973982E+01  7.59869910E+00
  7.59869910E+00 -1.51973982E+01  7.59869910E+00  7.59869910E+00 -1.51973982E+01
  7.59869910E+00  7.59869910E+00 -1.51973982E+01  7.59869910E+00  7.59869910E+00
 -1.51973982E+01  7.59869910E+00  7.59869910E+00 -1.51973982E+01  7.59869910E+00
  7.59869910E+00 -1.51973982E+01  7.59869910E+00  7.59869910E+00 -1.51973982E+01
  7.59869910E+00  7.59869910E+00 -1.51973982E+01  7.59869910E+00  7.59869910E+00
 -1.51973982E+01  7.59869910E+00  7.59869910E+00 -1.51973982E+01  7.59869910E+00
  7.59869910E+00 -1.51973982E+01  7.59869910E+00  7.59869910E+00 -1.51973982E+01
  7.59869910E+00  7.59869910E+00 -1.51973982E+01  7.59869910E+00  7.59869910E+00
 -1.51973982E+01  7.59869910E+00  7.59869910E+00 -1.51973982E+01  7.59869910E+00
  7.59869910E+00 -1.51973982E+01  7.59869910E+00  7.59869910E+00 -1.51973982E+01
  7.59869910E+00  7.59869910E+00 -1.51973982E+01  7.59869910E+00  7.59869910E+00
 -1.51973982E+01  7.59869910E+00  7.59869910E+00 -1.51973982E+01  7.59869910E+00
  7.59869910E+00 -1.51973982E+01  7.59869910E+00  7.59869910E+00 -1.51973982E+01
  7.59869910E+00  7.59869910E+00 -1.51973982E+01  7.59869910E+00  7.59869910E+00
 -1.51973982E+01  7.59869910E+00  7.59869910E+00 -1.51973982E+01  7.59869910E+00
  7.59869910E+00 -1.51973982E+01  7.59869910E+00  7.59869910E+00 -1.51973982E+01
  7.59869910E+00  7.59869910E+00 -1.51973982E+01  7.59869910E+00  7.59869910E+00
 -1.51973982E+01  7.59869910E+00  7.59869910E+00 -1.51973982E+01  7.59869910E+00
  7.59869910E+00 -1.51973982E+01  7.59869910E+00  7.59869910E+00 -1.51973982E+01
  7.59869910E+00  7.59869910E+00 -1.51973982E+01  7.59869910E+00  7.59869910E+00
 -1.51973982E+01  7.59869910E+00  7.59869910E+00 -1.51973982E+01  7.59869910E+00
  7.59869910E+00 -1.51973982E+01  7.59869910E+00  7.59869910E+00 -1.51973982E+01
  7.59869910E+00  7.59869910E+00 -1.51973982E+01  7.59869910E+00  7.59869910E+00
 -1.51973982E+01  7.59869910E+00  7.59869910E+00 -1.51973982E+01  7.59869910E+00
  7.59869910E+00 -1.51973982E+01  7.59869910E+00  7.59869910E+00 -1.51973982E+01
  7.59869910E+00  7.59869910E+00 -1.51973982E+01  7.59869910E+00  7.59869910E+00
 -1.51973982E+01  7.59869910E+00  7.59869910E+00 -1.51973982E+01  7.59869910E+00
  7.59869910E+00 -1.51973982E+01  7.59869910E+00  7.59869910E+00 -1.51973982E+01
  7.59869910E+00  7.59869910E+00 -1.51973982E+01  7.59869910E+00  7.59869910E+00
 -1.51973982E+01  7.59869910E+00  7.59869910E+00 -1.51973982E+01  7.59869910E+00
  7.59869910E+00 -1.51973982E+01  7.59869910E+00  7.59869910E+00 -1.51973982E+01
  7.59869910E+00  7.59869910E+00 -1.51973982E+01  7.59869910E+00  7.59869910E+00
 -1.51973982E+01  7.59869910E+00  7.59869910E+00 -1.51973982E+01  7.59869910E+00
  7.59869910E+00 -1.51973982E+01  7.59869910E+00  7.59869910E+00 -1.51973982E+01
  7.59869910E+00  7.59869910E+00 -1.51973982E+01  7.59869910E+00  7.59869910E+00
 -1.51973982E+01  7.59869910E+00  7.59869910E+00 -1.51973982E+01  7.59869910E+00
  7.59869910E+00 -1.51973982E+01  7.59869910E+00  7.59869910E+00 -1.51973982E+01
  7.59869910E+00  7.59869910E+00 -1.51973982E+01  7.59869910E+00  7.59869910E+00
 -1.51973982E+01  7.59869910E+00  7.59869910E+00 -1.51973982E+01  7.59869910E+00
  7.59869910E+00 -1.51973982E+01  7.59869910E+00  7.59869910E+00 -1.51973982E+01
  7.59869910E+00  7.59869910E+00 -1.51973982E+01  7.59869910E+00  7.59869910E+00
 -1.51973982E+01  7.59869910E+00  7.59869910E+00 -1.51973982E+01  7.59869910E+00
  7.59869910E+00 -1.51973982E+01  7.59869910E+00  7.59869910E+00 -1.51973982E+01
  7.59869910E+00  7.59869910E+00 -1.51973982E+01  7.59869910E+00  7.59869910E+00
 -1.51973982E+01  7.59869910E+00  7.59869910E+00 -1.51973982E+01  7.59869910E+00
  7.59869910E+00 -1.51973982E+01  7.59869910E+00  7.59869910E+00 -1.51973982E+01
  7.59869910E+00  7.59869910E+00 -1.51973982E+01  7.59869910E+00  7.59869910E+00
 -1.51973982E+01  7.59869910E+00  7.59869910E+00 -1.51973982E+01  7.59869910E+00
  7.59869910E+00 -1.51973982E+01  7.59869910E+00  7.59869910E+00 -1.51973982E+01
  7.59869910E+00  7.59869910E+00 -1.51973982E+01  7.59869910E+00  7.59869910E+00
 -1.51973982E+01  7.59869910E+00  7.59869910E+00 -1.51973982E+01  7.59869910E+00
  7.59869910E+00 -1.51973982E+01  7.59869910E+00  7.59869910E+00 -1.51973982E+01
  7.59869910E+00  7.59869910E+00 -1.51973982E+01  7.59869910E+00  7.59869910E+00
 -1.51973982E+01  7.59869910E+00  7.59869910E+00 -1.51973982E+01  7.59869910E+00
  7.59869910E+00 -1.51973982E+01  7.59869910E+00  7.59869910E+00 -1.51973982E+01
  7.59869910E+00  7.59869910E+00 -1.51973982E+01  7.59869910E+00  7.59869910E+00
 -1.51973982E+01  7.59869910E+00  7.59869910E+00 -1.51973982E+01  7.59869910E+00
  7.59869910E+00 -1.51973982E+01  7.59869910E+00  7.59869910E+00 -1.51973982E+01
  7.59869910E+00  7.59869910E+00 -1.51973982E+01  7.59869910E+00  7.59869910E+00
 -1.51973982E+01  7.59869910E+00  7.59869910E+00 -1.51973982E+01  7.59869910E+00
  7.59869910E+00 -1.51973982E+01  7.59869910E+00  7.59869910E+00 -1.51973982E+01
  7.59869910E+00  7.59869910E+00 -1.51973982E+01  7.59869910E+00  7.59869910E+00
 -1.51973982E+01  7.59869910E+00  7.59869910E+00 -1.51973982E+01  7.59869910E+00
  7.59869910E+00 -1.51973982E+01  7.59869910E+00  7.59869910E+00 -1.51973982E+01
  7.59869910E+00  7.59869910E+00 -1.51973982E+01  7.59869910E+00  7.59869910E+00
 -1.51973982E+01  7.59869910E+00  7.59869910E+00 -1.51973982E+01  7.59869910E+00
  7.59869910E+00 -1.51973982E+01  7.59869910E+00  7.59869910E+00 -1.51973982E+01
  7.59869910E+00  7.59869910E+00 -1.51973982E+01  7.59869910E+00  7.59869910E+00
 -1.51973982E+01  7.59869910E+00  7.59869910E+00 -1.51973982E+01  7.59869910E+00
  7.59869910E+00 -1.51973982E+01  7.59869910E+00  7.59869910E+00 -1.51973982E+01
  7.59869910E+00  7.59869910E+00 -1.51973982E+01  7.59869910E+00  7.59869910E+00
 -1.51973982E+01  7.59869910E+00  7.59869910E+00 -1.51973982E+01  7.59869910E+00
  7.59869910E+00 -1.51973982E+01  7.59869910E+00  7.59869910E+00 -1.51973982E+01
  7.59869910E+00  7.59869910E+00 -1.51973982E+01  7.59869910E+00  7.59869910E+00
 -1.51973982E+01  7.59869910E+00  7.59869910E+00 -1.51973982E+01  7.59869910E+00
  7.59869910E+00 -1.51973982E+01  7.59869910E+00  7.59869910E+00 -1.51973982E+01
  7.59869910E+00  7.59869910E+00 -1.51973982E+01  7.59869910E+00  7.59869910E+00
 -1.51973982E+01  7.59869910E+00  7.59869910E+00 -1.51973982E+01  7.59869910E+00
  7.59869910E+00 -1.51973982E+01  7.59869910E+00  7.59869910E+00 -1.51973982E+01
  7.59869910E+00  7.59869910E+00 -1.51973982E+01  7.59869910E+00  7.59869910E+00
 -1.51973982E+01  7.59869910E+00  7.59869910E+00 -1.51973982E+01  7.59869910E+00
  7.59869910E+00 -1.51973982E+01  7.59869910E+00  7.59869910E+00 -1.51973982E+01
  7.59869910E+00  7.59869910E+00 -1.51973982E+01  7.59869910E+00  7.59869910E+00
 -1.51973982E+01  7.59869910E+00  7.59869910E+00 -1.51973982E+01  7.59869910E+00
  7.59869910E+00 -1.51973982E+01  7.59869910E+00  7.59869910E+00 -1.51973982E+01
  7.59869910E+00  7.59869910E+00 -1.51973982E+01  7.59869910E+00  7.59869910E+00
 -1.51973982E+01  7.59869910E+00  7.59869910E+00 -1.51973982E+01  7.59869910E+00
  7.59869910E+00 -1.51973982E+01  7.59869910E+00  7.59869910E+00 -1.51973982E+01
  7.59869910E+00  7.59869910E+00 -1.51973982E+01  7.59869910E+00  7.59869910E+00
 -1.51973982E+01  7.59869910E+00  7.59869910E+00 -1.51973982E+01  7.59869910E+00
  7.59869910E+00 -1.51973982E+01  7.59869910E+00  7.59869910E+00 -1.51973982E+01
  7.59869910E+00  7.59869910E+00 -1.51973982E+01  7.59869910E+00  7.59869910E+00
 -1.51973982E+01  7.59869910E+00  7.59869910E+00 -1.51973982E+01  7.59869910E+00
  7.59869910E+00 -1.51973982E+01  7.59869910E+00  7.59869910E+00 -1.51973982E+01
  7.59869910E+00  7.59869910E+00 -1.51973982E+01  7.59869910E+00  7.59869910E+00
 -1.51973982E+01  7.59869910E+00  7.59869910E+00 -1.51973982E+01  7.59869910E+00
  7.59869910E+00 -1.51973982E+01  7.59869910E+00  7.59869910E+00 -1.51973982E+01
  7.59869910E+00  7.59869910E+00 -1.51973982E+01  7.59869910E+00  7.59869910E+00
 -1.51973982E+01  7.59869910E+00  7.59869910E+00 -1.51973982E+01  7.59869910E+00
  7.59869910E+00 -1.51973982E+01  7.59869910E+00  7.59869910E+00 -1.51973982E+01
  7.59869910E+00  7.59869910E+00 -1.51973982E+01  7.59869910E+00  7.59869910E+00
 -1.51973982E+01  7.59869910E+00  7.59869910E+00 -1.51973982E+01  7.59869910E+00
  7.59869910E+00 -1.51973982E+01  7.59869910E+00  7.59869910E+00 -1.51973982E+01
  7.59869910E+00  7.59869910E+00 -1.51973982E+01  7.59869910E+00  7.59869910E+00
 -1.51973982E+01  7.59869910E+00  7.59869910E+00 -1.51973982E+01  7.59869910E+00
  7.59869910E+00 -1.51973982E+01  7.59869910E+00  7.59869910E+00 -1.51973982E+01
  7.59869910E+00  7.59869910E+00 -1.51973982E+01  7.59869910E+00  7.59869910E+00
 -1.51973982E+01  7.59869910E+00  7.59869910E+00 -1.51973982E+01  7.59869910E+00
  7.59869910E+00 -1.51973982E+01  7.59869910E+00  7.59869910E+00 -1.51973982E+01
  7.59869910E+00  7.59869910E+00 -1.51973982E+01  7.59869910E+00  7.59869910E+00
 -1.51973982E+01  7.59869910E+00  7.59869910E+00 -1.51973982E+01  7.59869910E+00
  7.59869910E+00 -1.51973982E+01  7.59869910E+00  7.59869910E+00 -1.51973982E+01
  7.59869910E+00  7.59869910E+00 -1.51973982E+01  7.59869910E+00  7.59869910E+00
 -1.51973982E+01  7.59869910E+00  7.59869910E+00 -1.51973982E+01  7.59869910E+00
  7.59869910E+00 -1.51973982E+01  7.59869910E+00  7.59869910E+00 -1.51973982E+01
  7.59869910E+00  7.59869910E+00 -1.51973982E+01  7.59869910E+00  7.59869910E+00
 -1.51973982E+01  7.59869910E+00  7.59869910E+00 -1.51973982E+01  7.59869910E+00
  7.59869910E+00 -1.51973982E+01  7.59869910E+00  7.59869910E+00 -1.51973982E+01
  7.59869910E+00  7.59869910E+00 -1.51973982E+01  7.59869910E+00  7.59869910E+00
 -1.51973982E+01  7.59869910E+00  7.59869910E+00 -1.51973982E+01  7.59869910E+00
  7.59869910E+00 -1.51973982E+01  7.59869910E+00  7.59869910E+00 -1.51973982E+01
  7.59869910E+00  7.59869910E+00 -1.51973982E+01  7.59869910E+00  7.59869910E+00
 -1.51973982E+01  7.59869910E+00  7.59869910E+00 -1.51973982E+01  7.59869910E+00
  7.59869910E+00 -1.51973982E+01  7.59869910E+00  7.59869910E+00 -1.51973982E+01
  7.59869910E+00  7.59869910E+00 -1.51973982E+01  7.59869910E+00  7.59869910E+00
 -1.51973982E+01  7.59869910E+00  7.59869910E+00 -1.51973982E+01  7.59869910E+00
  7.59869910E+00 -1.51973982E+01  7.59869910E+00  7.59869910E+00 -1.51973982E+01
  7.59869910E+00  7.59869910E+00 -1.51973982E+01  7.59869910E+00  7.59869910E+00
 -1.51973982E+01  7.59869910E+00  7.59869910E+00 -1.51973982E+01  7.59869910E+00
  7.59869910E+00 -1.51973982E+01  7.59869910E+00  7.59869910E+00 -1.51973982E+01
  7.59869910E+00  7.59869910E+00 -1.51973982E+01  7.59869910E+00  7.59869910E+00
 -1.51973982E+01  7.59869910E+00  7.59869910E+00 -1.51973982E+01  7.59869910E+00
  7.59869910E+00 -1.51973982E+01  7.59869910E+00  7.59869910E+00 -1.51973982E+01
  7.59869910E+00  7.59869910E+00 -1.51973982E+01  7.59869910E+00  7.59869910E+00
 -1.51973982E+01  7.59869910E+00  7.59869910E+00 -1.51973982E+01  7.59869910E+00
  7.59869910E+00 -1.51973982E+01  7.59869910E+00  7.59869910E+00 -1.51973982E+01
  7.59869910E+00  7.59869910E+00 -1.51973982E+01  7.59869910E+00  7.59869910E+00
 -1.51973982E+01  7.59869910E+00  7.59869910E+00 -1.51973982E+01  7.59869910E+00
  7.59869910E+00 -1.51973982E+01  7.59869910E+00  7.59869910E+00 -1.51973982E+01
  7.59869910E+00  7.59869910E+00 -1.51973982E+01  7.59869910E+00  7.59869910E+00
 -1.51973982E+01  7.59869910E+00  7.59869910E+00 -1.51973982E+01  7.59869910E+00
  7.59869910E+00 -1.51973982E+01  7.59869910E+00  7.59869910E+00 -1.51973982E+01
  7.59869910E+00  7.59869910E+00 -1.51973982E+01  7.59869910E+00  7.59869910E+00
 -1.51973982E+01  7.59869910E+00  7.59869910E+00 -1.51973982E+01  7.59869910E+00
  7.59869910E+00 -1.51973982E+01  7.59869910E+00  7.59869910E+00 -1.51973982E+01
  7.59869910E+00  7.59869910E+00 -1.51973982E+01  7.59869910E+00  7.59869910E+00
 -1.51973982E+01  7.59869910E+00  7.59869910E+00 -1.51973982E+01  7.59869910E+00
  7.59869910E+00 -1.51973982E+01  7.59869910E+00  7.59869910E+00 -1.51973982E+01
  7.59869910E+00  7.59869910E+00 -1.51973982E+01  7.59869910E+00  7.59869910E+00
 -1.51973982E+01  7.59869910E+00  7.59869910E+00 -1.51973982E+01  7.59869910E+00
  7.59869910E+00 -1.51973982E+01  7.59869910E+00  7.59869910E+00 -1.51973982E+01
  7.59869910E+00  7.59869910E+00 -1.51973982E+01  7.59869910E+00  7.59869910E+00
 -1.51973982E+01  7.59869910E+00  7.59869910E+00 -1.51973982E+01  7.59869910E+00
  7.59869910E+00 -1.51973982E+01  7.59869910E+00  7.59869910E+00 -1.51973982E+01
  7.59869910E+00  7.59869910E+00 -1.51973982E+01  7.59869910E+00  7.59869910E+00
 -1.51973982E+01  7.59869910E+00  7.59869910E+00 -1.51973982E+01  7.59869910E+00
  7.59869910E+00 -1.51973982E+01  7.59869910E+00  7.59869910E+00 -1.51973982E+01
  7.59869910E+00  7.59869910E+00 -1.51973982E+01  7.59869910E+00  7.59869910E+00
 -1.51973982E+01  7.59869910E+00  7.59869910E+00 -1.51973982E+01  7.59869910E+00
  7.59869910E+00 -1.51973982E+01  7.59869910E+00  7.59869910E+00 -1.51973982E+01
  7.59869910E+00  7.59869910E+00 -1.51973982E+01  7.59869910E+00  7.59869910E+00
 -1.51973982E+01  7.59869910E+00  7.59869910E+00 -1.51973982E+01  7.59869910E+00
  7.59869910E+00 -1.51973982E+01  7.59869910E+00  7.59869910E+00 -1.51973982E+01
  7.59869910E+00  7.59869910E+00 -1.51973982E+01  7.59869910E+00  7.59869910E+00
 -1.51973982E+01  7.59869910E+00  7.59869910E+00 -1.51973982E+01  7.59869910E+00
  7.59869910E+00 -1.51973982E+01  7.59869910E+00  7.59869910E+00 -1.51973982E+01
  7.59869910E+00  7.59869910E+00 -1.51973982E+01  7.59869910E+00  7.59869910E+00
 -1.51973982E+01  7.59869910E+00  7.59869910E+00 -1.51973982E+01  7.59869910E+00
  7.59869910E+00 -1.51973982E+01  7.59869910E+00  7.59869910E+00 -1.51973982E+01
  7.59869910E+00  7.59869910E+00 -1.51973982E+01  7.59869910E+00  7.59869910E+00
 -1.51973982E+01  7.59869910E+00  7.59869910E+00 -1.51973982E+01  7.59869910E+00
  7.59869910E+00 -1.51973982E+01  7.59869910E+00  7.59869910E+00 -1.51973982E+01
  7.59869910E+00  7.59869910E+00 -1.51973982E+01  7.59869910E+00  7.59869910E+00
 -1.51973982E+01  7.59869910E+00  7.59869910E+00 -1.51973982E+01  7.59869910E+00
  7.59869910E+00 -1.51973982E+01  7.59869910E+00  7.59869910E+00 -1.51973982E+01
  7.59869910E+00  7.59869910E+00 -1.51973982E+01  7.59869910E+00  7.59869910E+00
 -1.51973982E+01  7.59869910E+00  7.59869910E+00 -1.51973982E+01  7.59869910E+00
  7.59869910E+00 -1.51973982E+01  7.59869910E+00  7.59869910E+00 -1.51973982E+01
  7.59869910E+00  7.59869910E+00 -1.51973982E+01  7.59869910E+00  7.59869910E+00
 -1.51973982E+01  7.59869910E+00  7.59869910E+00 -1.51973982E+01  7.59869910E+00
  7.59869910E+00 -1.51973982E+01  7.59869910E+00  7.59869910E+00 -1.51973982E+01
  7.59869910E+00  7.59869910E+00 -1.51973982E+01  7.59869910E+00  7.59869910E+00
 -1.51973982E+01  7.59869910E+00  7.59869910E+00 -1.51973982E+01  7.59869910E+00
  7.59869910E+00 -1.51973982E+01  7.59869910E+00  7.59869910E+00 -1.51973982E+01
  7.59869910E+00  7.59869910E+00 -1.51973982E+01  7.59869910E+00  7.59869910E+00
 -1.51973982E+01  7.59869910E+00  7.59869910E+00 -1.51973982E+01  7.59869910E+00
  7.59869910E+00 -1.51973982E+01  7.59869910E+00  7.59869910E+00 -1.51973982E+01
  7.59869910E+00  7.59869910E+00 -1.51973982E+01  7.59869910E+00  7.59869910E+00
 -1.51973982E+01  7.59869910E+00  7.59869910E+00 -1.51973982E+01  7.59869910E+00
  7.59869910E+00 -1.51973982E+01  7.59869910E+00  7.59869910E+00 -1.51973982E+01
  7.59869910E+00  7.59869910E+00 -1.51973982E+01  7.59869910E+00  7.59869910E+00
 -1.51973982E+01  7.59869910E+00  7.59869910E+00 -1.51973982E+01  7.59869910E+00
  7.59869910E+00 -1.51973982E+01  7.59869910E+00  7.59869910E+00 -1.51973982E+01
  7.59869910E+00  7.59869910E+00 -1.51973982E+01  7.59869910E+00  7.59869910E+00
 -1.51973982E+01  7.59869910E+00  7.59869910E+00 -1.51973982E+01  7.59869910E+00
  7.59869910E+00 -1.51973982E+01  7.59869910E+00  7.59869910E+00 -1.51973982E+01
  7.59869910E+00  7.59869910E+00 -1.51973982E+01  7.59869910E+00  7.59869910E+00
 -1.51973982E+01  7.59869910E+00  7.59869910E+00 -1.51973982E+01  7.59869910E+00
  7.59869910E+00 -1.51973982E+01  7.59869910E+00  7.59869910E+00 -1.51973982E+01
  7.59869910E+00  7.59869910E+00 -1.51973982E+01  7.59869910E+00  7.59869910E+00
 -1.51973982E+01  7.59869910E+00  7.59869910E+00 -1.51973982E+01  7.59869910E+00
  7.59869910E+00 -1.51973982E+01  7.59869910E+00  7.59869910E+00 -1.51973982E+01
  7.59869910E+00  7.59869910E+00 -1.51973982E+01  7.59869910E+00  7.59869910E+00
 -1.51973982E+01  7.59869910E+00  7.59869910E+00 -1.51973982E+01  7.59869910E+00
  7.59869910E+00 -1.51973982E+01  7.59869910E+00  7.59869910E+00 -1.51973982E+01
  7.59869910E+00  7.59869910E+00 -1.51973982E+01  7.59869910E+00  7.59869910E+00
 -1.51973982E+01  7.59869910E+00  7.59869910E+00 -1.51973982E+01  7.59869910E+00
  7.59869910E+00 -1.51973982E+01  7.59869910E+00  7.59869910E+00 -1.51973982E+01
  7.59869910E+00  7.59869910E+00 -1.51973982E+01  7.59869910E+00  7.59869910E+00
 -1.51973982E+01  7.59869910E+00  7.59869910E+00 -1.51973982E+01  7.59869910E+00
  7.59869910E+00 -1.51973982E+01  7.59869910E+00  7.59869910E+00 -1.51973982E+01
  7.59869910E+00  7.59869910E+00 -1.51973982E+01  7.59869910E+00  7.59869910E+00
 -1.51973982E+01  7.59869910E+00  7.59869910E+00 -1.51973982E+01  7.59869910E+00
  7.59869910E+00 -1.51973982E+01  7.59869910E+00  7.59869910E+00 -1.51973982E+01
  7.59869910E+00  7.59869910E+00 -1.51973982E+01  7.59869910E+00  7.59869910E+00
 -1.51973982E+01  7.59869910E+00  7.59869910E+00 -1.51973982E+01  7.59869910E+00
  7.59869910E+00 -1.51973982E+01  7.59869910E+00  7.59869910E+00 -1.51973982E+01
  7.59869910E+00  7.59869910E+00 -1.51973982E+01  7.59869910E+00  7.59869910E+00
 -1.51973982E+01  7.59869910E+00  7.59869910E+00 -1.51973982E+01  7.59869910E+00
  7.59869910E+00 -1.51973982E+01  7.59869910E+00  7.59869910E+00 -1.51973982E+01
  7.59869910E+00  7.59869910E+00 -1.51973982E+01  7.59869910E+00  7.59869910E+00
 -1.51973982E+01  7.59869910E+00  7.59869910E+00 -1.51973982E+01  7.59869910E+00
  7.59869910E+00 -1.51973982E+01  7.59869910E+00  7.59869910E+00 -1.51973982E+01
  7.59869910E+00  7.59869910E+00 -1.51973982E+01  7.59869910E+00  7.59869910E+00
 -1.51973982E+01  7.59869910E+00  7.59869910E+00 -1.51973982E+01  7.59869910E+00
  7.59869910E+00 -1.51973982E+01  7.59869910E+00  7.59869910E+00 -1.51973982E+01
  7.59869910E+00  7.59869910E+00 -1.51973982E+01  7.59869910E+00  7.59869910E+00
 -1.51973982E+01  7.59869910E+00  7.59869910E+00 -1.51973982E+01  7.59869910E+00
  7.59869910E+00 -1.51973982E+01  7.59869910E+00  7.59869910E+00 -1.51973982E+01
  7.59869910E+00  7.59869910E+00 -1.51973982E+01  7.59869910E+00  7.59869910E+00
 -1.51973982E+01  7.59869910E+00  7.59869910E+00 -1.51973982E+01  7.59869910E+00
  7.59869910E+00 -1.51973982E+01  7.59869910E+00  7.59869910E+00 -1.51973982E+01
  7.59869910E+00  7.59869910E+00 -1.51973982E+01  7.59869910E+00  7.59869910E+00
 -1.51973982E+01  7.59869910E+00  7.59869910E+00 -1.51973982E+01  7.59869910E+00
  7.59869910E+00 -1.51973982E+01  7.59869910E+00  7.59869910E+00 -1.51973982E+01
  7.59869910E+00  7.59869910E+00 -1.51973982E+01  7.59869910E+00  7.59869910E+00
 -1.51973982E+01  7.59869910E+00  7.59869910E+00 -1.51973982E+01  7.59869910E+00
  7.59869910E+00 -1.51973982E+01  7.59869910E+00  7.59869910E+00 -1.51973982E+01
  7.59869910E+00  7.59869910E+00 -1.51973982E+01  7.59869910E+00  7.59869910E+00
 -1.51973982E+01  7.59869910E+00  7.59869910E+00 -1.51973982E+01  7.59869910E+00
  7.59869910E+00 -1.51973982E+01  7.59869910E+00  7.59869910E+00 -1.51973982E+01
  7.59869910E+00  7.59869910E+00 -1.51973982E+01  7.59869910E+00  7.59869910E+00
 -1.51973982E+01  7.59869910E+00  7.59869910E+00 -1.51973982E+01  7.59869910E+00
  7.59869910E+00 -1.51973982E+01  7.59869910E+00  7.59869910E+00 -1.51973982E+01
  7.59869910E+00  7.59869910E+00 -1.51973982E+01  7.59869910E+00  7.59869910E+00
 -1.51973982E+01  7.59869910E+00  7.59869910E+00 -1.51973982E+01  7.59869910E+00
  7.59869910E+00 -1.51973982E+01  7.59869910E+00  7.59869910E+00 -1.51973982E+01
  7.59869910E+00  7.59869910E+00 -1.51973982E+01  7.59869910E+00  7.59869910E+00
 -1.51973982E+01  7.59869910E+00  7.59869910E+00 -1.51973982E+01  7.59869910E+00
  7.59869910E+00 -1.51973982E+01  7.59869910E+00  7.59869910E+00 -1.51973982E+01
  7.59869910E+00  7.59869910E+00 -1.51973982E+01  7.59869910E+00  7.59869910E+00
 -1.51973982E+01  7.59869910E+00  7.59869910E+00 -1.51973982E+01  7.59869910E+00
  7.59869910E+00 -1.51973982E+01  7.59869910E+00  7.59869910E+00 -1.51973982E+01
  7.59869910E+00  7.59869910E+00 -1.51973982E+01  7.59869910E+00  7.59869910E+00
 -1.51973982E+01  7.59869910E+00  7.59869910E+00 -1.51973982E+01  7.59869910E+00
  7.59869910E+00 -1.51973982E+01  7.59869910E+00  7.59869910E+00 -1.51973982E+01
  7.59869910E+00  7.59869910E+00 -1.51973982E+01  7.59869910E+00  7.59869910E+00
 -1.51973982E+01  7.59869910E+00  7.59869910E+00 -1.51973982E+01  7.59869910E+00
  7.59869910E+00 -1.51973982E+01  7.59869910E+00  7.59869910E+00 -1.51973982E+01
  7.59869910E+00  7.59869910E+00 -1.51973982E+01  7.59869910E+00  7.59869910E+00
 -1.51973982E+01  7.59869910E+00  7.59869910E+00 -1.51973982E+01  7.59869910E+00
  7.59869910E+00 -1.51973982E+01  7.59869910E+00  7.59869910E+00 -1.51973982E+01
  7.59869910E+00  7.59869910E+00 -1.51973982E+01  7.59869910E+00  7.59869910E+00
 -1.51973982E+01  7.59869910E+00  7.59869910E+00 -1.51973982E+01  7.59869910E+00
  7.59869910E+00 -1.51973982E+01  7.59869910E+00  7.59869910E+00 -1.51973982E+01
  7.59869910E+00  7.59869910E+00 -1.51973982E+01  7.59869910E+00  7.59869910E+00
 -1.51973982E+01  7.59869910E+00  7.59869910E+00 -1.51973982E+01  7.59869910E+00
  7.59869910E+00 -1.51973982E+01  7.59869910E+00  7.59869910E+00 -1.51973982E+01
  7.59869910E+00  7.59869910E+00 -1.51973982E+01  7.59869910E+00  7.59869910E+00
 -1.51973982E+01  7.59869910E+00  7.59869910E+00 -1.51973982E+01  7.59869910E+00
  7.59869910E+00 -1.51973982E+01  7.59869910E+00  7.59869910E+00 -1.51973982E+01
  7.59869910E+00  7.59869910E+00 -1.51973982E+01  7.59869910E+00  7.59869910E+00
 -1.51973982E+01  7.59869910E+00  7.59869910E+00 -1.51973982E+01  7.59869910E+00
  7.59869910E+00 -1.51973982E+01  7.59869910E+00  7.59869910E+00 -1.51973982E+01
  7.59869910E+00  7.59869910E+00 -1.51973982E+01  7.59869910E+00  7.59869910E+00
 -1.51973982E+01  7.59869910E+00  7.59869910E+00 -1.51973982E+01  7.59869910E+00
  7.59869910E+00 -1.51973982E+01  7.59869910E+00  7.59869910E+00 -1.51973982E+01
  7.59869910E+00  7.59869910E+00 -1.51973982E+01  7.59869910E+00  7.59869910E+00
 -1.51973982E+01  7.59869910E+00  7.59869910E+00 -1.51973982E+01  7.59869910E+00
  7.59869910E+00 -1.51973982E+01  7.59869910E+00  7.59869910E+00 -1.51973982E+01
  7.59869910E+00  7.59869910E+00 -1.51973982E+01  7.59869910E+00  7.59869910E+00
 -1.51973982E+01  7.59869910E+00  7.59869910E+00 -1.51973982E+01  7.59869910E+00
  7.59869910E+00 -1.51973982E+01  7.59869910E+00  7.59869910E+00 -1.51973982E+01
  7.59869910E+00  7.59869910E+00 -1.51973982E+01  7.59869910E+00  7.59869910E+00
 -1.51973982E+01  7.59869910E+00  7.59869910E+00 -1.51973982E+01  7.59869910E+00
  7.59869910E+00 -1.51973982E+01  7.59869910E+00  7.59869910E+00 -1.51973982E+01
  7.59869910E+00  7.59869910E+00 -1.51973982E+01  7.59869910E+00  7.59869910E+00
 -1.51973982E+01  7.59869910E+00  7.59869910E+00 -1.51973982E+01  7.59869910E+00
  7.59869910E+00 -1.51973982E+01  7.59869910E+00  7.59869910E+00 -1.51973982E+01
  7.59869910E+00  7.59869910E+00 -1.51973982E+01  7.59869910E+00  7.59869910E+00
 -1.51973982E+01  7.59869910E+00  7.59869910E+00 -1.51973982E+01  7.59869910E+00
  7.59869910E+00 -1.51973982E+01  7.59869910E+00  7.59869910E+00 -1.51973982E+01
  7.59869910E+00  7.59869910E+00 -1.51973982E+01  7.59869910E+00  7.59869910E+00
 -1.51973982E+01  7.59869910E+00  7.59869910E+00 -1.51973982E+01  7.59869910E+00
  7.59869910E+00 -1.51973982E+01  7.59869910E+00  7.59869910E+00 -1.51973982E+01
  7.59869910E+00  7.59869910E+00 -1.51973982E+01  7.59869910E+00  7.59869910E+00
 -1.51973982E+01  7.59869910E+00  7.59869910E+00 -1.51973982E+01  7.59869910E+00
  7.59869910E+00 -1.51973982E+01  7.59869910E+00  7.59869910E+00 -1.51973982E+01
  7.59869910E+00  7.59869910E+00 -1.51973982E+01  7.59869910E+00  7.59869910E+00
 -1.51973982E+01  7.59869910E+00  7.59869910E+00 -1.51973982E+01  7.59869910E+00
  7.59869910E+00 -1.51973982E+01  7.59869910E+00  7.59869910E+00 -1.51973982E+01
  7.59869910E+00  7.59869910E+00 -1.51973982E+01  7.59869910E+00  7.59869910E+00
 -1.51973982E+01  7.59869910E+00  7.59869910E+00 -1.51973982E+01  7.59869910E+00
  7.59869910E+00 -1.51973982E+01  7.59869910E+00  7.59869910E+00 -1.51973982E+01
  7.59869910E+00  7.59869910E+00 -1.51973982E+01  7.59869910E+00  7.59869910E+00
 -1.51973982E+01  7.59869910E+00  7.59869910E+00 -1.51973982E+01  7.59869910E+00
  7.59869910E+00 -1.51973982E+01  7.59869910E+00  7.59869910E+00 -1.51973982E+01
  7.59869910E+00  7.59869910E+00 -1.51973982E+01  7.59869910E+00  7.59869910E+00
 -1.51973982E+01  7.59869910E+00  7.59869910E+00 -1.51973982E+01  7.59869910E+00
  7.59869910E+00 -1.51973982E+01  7.59869910E+00  7.59869910E+00 -1.51973982E+01
  7.59869910E+00  7.59869910E+00 -1.51973982E+01  7.59869910E+00  7.59869910E+00
 -1.51973982E+01  7.59869910E+00  7.59869910E+00 -1.51973982E+01  7.59869910E+00
  7.59869910E+00 -1.51973982E+01  7.59869910E+00  7.59869910E+00 -1.51973982E+01
  7.59869910E+00  7.59869910E+00 -1.51973982E+01  7.59869910E+00  7.59869910E+00
 -1.51973982E+01  7.59869910E+00  7.59869910E+00 -1.51973982E+01  7.59869910E+00
  7.59869910E+00 -1.51973982E+01  7.59869910E+00  7.59869910E+00 -1.51973982E+01
  7.59869910E+00  7.59869910E+00 -1.51973982E+01  7.59869910E+00  7.59869910E+00
 -1.51973982E+01  7.59869910E+00  7.59869910E+00 -1.51973982E+01  7.59869910E+00
  7.59869910E+00 -1.51973982E+01  7.59869910E+00  7.59869910E+00 -1.51973982E+01
  7.59869910E+00  7.59869910E+00 -1.51973982E+01  7.59869910E+00  7.59869910E+00
 -1.51973982E+01  7.59869910E+00  7.59869910E+00 -1.51973982E+01  7.59869910E+00
  7.59869910E+00 -1.51973982E+01  7.59869910E+00  7.59869910E+00 -1.51973982E+01
  7.59869910E+00  7.59869910E+00 -1.51973982E+01  7.59869910E+00  7.59869910E+00
 -1.51973982E+01  7.59869910E+00  7.59869910E+00 -1.51973982E+01  7.59869910E+00
  7.59869910E+00 -1.51973982E+01  7.59869910E+00  7.59869910E+00 -1.51973982E+01
  7.59869910E+00  7.59869910E+00 -1.51973982E+01  7.59869910E+00  7.59869910E+00
 -1.51973982E+01  7.59869910E+00  7.59869910E+00 -1.51973982E+01  7.59869910E+00
  7.59869910E+00 -1.51973982E+01  7.59869910E+00  7.59869910E+00 -1.51973982E+01
  7.59869910E+00  7.59869910E+00 -1.51973982E+01  7.59869910E+00  7.59869910E+00
 -1.51973982E+01  7.59869910E+00  7.59869910E+00 -1.51973982E+01  7.59869910E+00
  7.59869910E+00 -1.51973982E+01  7.59869910E+00  7.59869910E+00 -1.51973982E+01
  7.59869910E+00  7.59869910E+00 -1.51973982E+01  7.59869910E+00  7.59869910E+00
 -1.51973982E+01  7.59869910E+00  7.59869910E+00 -1.51973982E+01  7.59869910E+00
  7.59869910E+00 -1.51973982E+01  7.59869910E+00  7.59869910E+00 -1.51973982E+01
  7.59869910E+00  7.59869910E+00 -1.51973982E+01  7.59869910E+00  7.59869910E+00
 -1.51973982E+01  7.59869910E+00  7.59869910E+00 -1.51973982E+01  7.59869910E+00
  7.59869910E+00 -1.51973982E+01  7.59869910E+00  7.59869910E+00 -1.51973982E+01
  7.59869910E+00  7.59869910E+00 -1.51973982E+01  7.59869910E+00  7.59869910E+00
 -1.51973982E+01  7.59869910E+00  7.59869910E+00 -1.51973982E+01  7.59869910E+00
  7.59869910E+00 -1.51973982E+01  7.59869910E+00  7.59869910E+00 -1.51973982E+01
  7.59869910E+00  7.59869910E+00 -1.51973982E+01  7.59869910E+00  7.59869910E+00
 -1.51973982E+01  7.59869910E+00  7.59869910E+00 -1.51973982E+01  7.59869910E+00
  7.59869910E+00 -1.51973982E+01  7.59869910E+00  7.59869910E+00 -1.51973982E+01
  7.59869910E+00  7.59869910E+00 -1.51973982E+01  7.59869910E+00  7.59869910E+00
 -1.51973982E+01  7.59869910E+00  7.59869910E+00 -1.51973982E+01  7.59869910E+00
  7.59869910E+00 -1.51973982E+01  7.59869910E+00  7.59869910E+00 -1.51973982E+01
  7.59869910E+00  7.59869910E+00 -1.51973982E+01  7.59869910E+00  7.59869910E+00
 -1.51973982E+01  7.59869910E+00  7.59869910E+00 -1.51973982E+01  7.59869910E+00
  7.59869910E+00 -1.51973982E+01  7.59869910E+00  7.59869910E+00 -1.51973982E+01
  7.59869910E+00  7.59869910E+00 -1.51973982E+01  7.59869910E+00  7.59869910E+00
 -1.51973982E+01  7.59869910E+00  7.59869910E+00 -1.51973982E+01  7.59869910E+00
  7.59869910E+00 -1.51973982E+01  7.59869910E+00  7.59869910E+00 -1.51973982E+01
  7.59869910E+00  7.59869910E+00 -1.51973982E+01  7.59869910E+00  7.59869910E+00
 -1.51973982E+01  7.59869910E+00  7.59869910E+00 -1.51973982E+01  7.59869910E+00
  7.59869910E+00 -1.51973982E+01  7.59869910E+00  7.59869910E+00 -1.51973982E+01
  7.59869910E+00  7.59869910E+00 -1.51973982E+01  7.59869910E+00  7.59869910E+00
 -1.51973982E+01  7.59869910E+00  7.59869910E+00 -1.51973982E+01  7.59869910E+00
  7.59869910E+00 -1.51973982E+01  7.59869910E+00  7.59869910E+00 -1.51973982E+01
  7.59869910E+00  7.59869910E+00 -1.51973982E+01  7.59869910E+00  7.59869910E+00
 -1.51973982E+01  7.59869910E+00  7.59869910E+00 -1.51973982E+01  7.59869910E+00
  7.59869910E+00 -1.51973982E+01  7.59869910E+00  7.59869910E+00 -1.51973982E+01
  7.59869910E+00  7.59869910E+00 -1.51973982E+01  7.59869910E+00  7.59869910E+00
 -1.51973982E+01  7.59869910E+00  7.59869910E+00 -1.51973982E+01  7.59869910E+00
  7.59869910E+00 -1.51973982E+01  7.59869910E+00  7.59869910E+00 -1.51973982E+01
  7.59869910E+00  7.59869910E+00 -1.51973982E+01  7.59869910E+00  7.59869910E+00
 -1.51973982E+01  7.59869910E+00  7.59869910E+00 -1.51973982E+01  7.59869910E+00
  7.59869910E+00 -1.51973982E+01  7.59869910E+00  7.59869910E+00 -1.51973982E+01
  7.59869910E+00  7.59869910E+00 -1.51973982E+01  7.59869910E+00  7.59869910E+00
 -1.51973982E+01  7.59869910E+00  7.59869910E+00 -1.51973982E+01  7.59869910E+00
  7.59869910E+00 -1.51973982E+01  7.59869910E+00  7.59869910E+00 -1.51973982E+01
  7.59869910E+00  7.59869910E+00 -1.51973982E+01  7.59869910E+00  7.59869910E+00
 -1.51973982E+01  7.59869910E+00  7.59869910E+00 -1.51973982E+01  7.59869910E+00
  7.59869910E+00 -1.51973982E+01  7.59869910E+00  7.59869910E+00 -1.51973982E+01
  7.59869910E+00  7.59869910E+00 -1.51973982E+01  7.59869910E+00  7.59869910E+00
 -1.51973982E+01  7.59869910E+00  7.59869910E+00 -1.51973982E+01  7.59869910E+00
  7.59869910E+00 -1.51973982E+01  7.59869910E+00  7.59869910E+00 -1.51973982E+01
  7.59869910E+00  7.59869910E+00 -1.51973982E+01  7.59869910E+00  7.59869910E+00
 -1.51973982E+01  7.59869910E+00  7.59869910E+00 -1.51973982E+01  7.59869910E+00
  7.59869910E+00 -1.51973982E+01  7.59869910E+00  7.59869910E+00 -1.51973982E+01
  7.59869910E+00  7.59869910E+00 -1.51973982E+01  7.59869910E+00  7.59869910E+00
 -1.51973982E+01  7.59869910E+00  7.59869910E+00 -1.51973982E+01  7.59869910E+00
  7.59869910E+00 -1.51973982E+01  7.59869910E+00  7.59869910E+00 -1.51973982E+01
  7.59869910E+00  7.59869910E+00 -1.51973982E+01  7.59869910E+00  7.59869910E+00
 -1.51973982E+01  7.59869910E+00  7.59869910E+00 -1.51973982E+01  7.59869910E+00
  7.59869910E+00 -1.51973982E+01  7.59869910E+00  7.59869910E+00 -1.51973982E+01
  7.59869910E+00  7.59869910E+00 -1.51973982E+01  7.59869910E+00  7.59869910E+00
 -1.51973982E+01  7.59869910E+00  7.59869910E+00 -1.51973982E+01  7.59869910E+00
  7.59869910E+00 -1.51973982E+01  7.59869910E+00  7.59869910E+00 -1.51973982E+01
  7.59869910E+00  7.59869910E+00 -1.51973982E+01  7.59869910E+00  7.59869910E+00
 -1.51973982E+01  7.59869910E+00  7.59869910E+00 -1.51973982E+01  7.59869910E+00
  7.59869910E+00 -1.51973982E+01  7.59869910E+00  7.59869910E+00 -1.51973982E+01
  7.59869910E+00  7.59869910E+00 -1.51973982E+01  7.59869910E+00  7.59869910E+00
 -1.51973982E+01  7.59869910E+00  7.59869910E+00 -1.51973982E+01  7.59869910E+00
  7.59869910E+00 -1.51973982E+01  7.59869910E+00  7.59869910E+00 -1.51973982E+01
  7.59869910E+00  7.59869910E+00 -1.51973982E+01  7.59869910E+00  7.59869910E+00
 -1.51973982E+01  7.59869910E+00  7.59869910E+00 -1.51973982E+01  7.59869910E+00
  7.59869910E+00 -1.51973982E+01  7.59869910E+00  7.59869910E+00 -1.51973982E+01
  7.59869910E+00  7.59869910E+00 -1.51973982E+01  7.59869910E+00  7.59869910E+00
 -1.51973982E+01  7.59869910E+00  7.59869910E+00 -1.51973982E+01  7.59869910E+00
  7.59869910E+00 -1.51973982E+01  7.59869910E+00  7.59869910E+00 -1.51973982E+01
  7.59869910E+00  7.59869910E+00 -1.51973982E+01  7.59869910E+00  7.59869910E+00
 -1.51973982E+01  7.59869910E+00  7.59869910E+00 -1.51973982E+01  7.59869910E+00
  7.59869910E+00 -1.51973982E+01  7.59869910E+00  7.59869910E+00 -1.51973982E+01
  7.59869910E+00  7.59869910E+00 -1.51973982E+01  7.59869910E+00  7.59869910E+00
 -1.51973982E+01  7.59869910E+00  7.59869910E+00 -1.51973982E+01  7.59869910E+00
  7.59869910E+00 -1.51973982E+01  7.59869910E+00  7.59869910E+00 -1.51973982E+01
  7.59869910E+00  7.59869910E+00 -1.51973982E+01  7.59869910E+00  7.59869910E+00
 -1.51973982E+01  7.59869910E+00  7.59869910E+00 -1.51973982E+01  7.59869910E+00
  7.59869910E+00 -1.51973982E+01  7.59869910E+00  7.59869910E+00 -1.51973982E+01
  7.59869910E+00  7.59869910E+00 -1.51973982E+01  7.59869910E+00  7.59869910E+00
 -1.51973982E+01  7.59869910E+00  7.59869910E+00 -1.51973982E+01  7.59869910E+00
  7.59869910E+00 -1.51973982E+01  7.59869910E+00  7.59869910E+00 -1.51973982E+01
  7.59869910E+00  7.59869910E+00 -1.51973982E+01  7.59869910E+00  7.59869910E+00
 -1.51973982E+01  7.59869910E+00  7.59869910E+00 -1.51973982E+01  7.59869910E+00
  7.59869910E+00 -1.51973982E+01  7.59869910E+00  7.59869910E+00 -1.51973982E+01
  7.59869910E+00  7.59869910E+00 -1.51973982E+01  7.59869910E+00  7.59869910E+00
 -1.51973982E+01  7.59869910E+00  7.59869910E+00 -1.51973982E+01  7.59869910E+00
  7.59869910E+00 -1.51973982E+01  7.59869910E+00  7.59869910E+00 -1.51973982E+01
  7.59869910E+00  7.59869910E+00 -1.51973982E+01  7.59869910E+00  7.59869910E+00
 -1.51973982E+01  7.59869910E+00  7.59869910E+00 -1.51973982E+01  7.59869910E+00
  7.59869910E+00 -1.51973982E+01  7.59869910E+00  7.59869910E+00 -1.51973982E+01
  7.59869910E+00  7.59869910E+00 -1.51973982E+01  7.59869910E+00  7.59869910E+00
 -1.51973982E+01  7.59869910E+00  7.59869910E+00 -1.51973982E+01  7.59869910E+00
  7.59869910E+00 -1.51973982E+01  7.59869910E+00  7.59869910E+00 -1.51973982E+01
  7.59869910E+00  7.59869910E+00 -1.51973982E+01  7.59869910E+00  7.59869910E+00
 -1.51973982E+01  7.59869910E+00  7.59869910E+00 -1.51973982E+01  7.59869910E+00
  7.59869910E+00 -1.51973982E+01  7.59869910E+00  7.59869910E+00 -1.51973982E+01
  7.59869910E+00  7.59869910E+00 -1.51973982E+01  7.59869910E+00  7.59869910E+00
 -1.51973982E+01  7.59869910E+00  7.59869910E+00 -1.51973982E+01  7.59869910E+00
  7.59869910E+00 -1.51973982E+01  7.59869910E+00  7.59869910E+00 -1.51973982E+01
  7.59869910E+00  7.59869910E+00 -1.51973982E+01  7.59869910E+00  7.59869910E+00
 -1.51973982E+01  7.59869910E+00  7.59869910E+00 -1.51973982E+01  7.59869910E+00
  7.59869910E+00 -1.51973982E+01  7.59869910E+00  7.59869910E+00 -1.51973982E+01
  7.59869910E+00  7.59869910E+00 -1.51973982E+01  7.59869910E+00  7.59869910E+00
 -1.51973982E+01  7.59869910E+00  7.59869910E+00 -1.51973982E+01  7.59869910E+00
  7.59869910E+00 -1.51973982E+01  7.59869910E+00  7.59869910E+00 -1.51973982E+01
  7.59869910E+00  7.59869910E+00 -1.51973982E+01  7.59869910E+00  7.59869910E+00
 -1.51973982E+01  7.59869910E+00  7.59869910E+00 -1.51973982E+01  7.59869910E+00
  7.59869910E+00 -1.51973982E+01  7.59869910E+00  7.59869910E+00 -1.51973982E+01
  7.59869910E+00  7.59869910E+00 -1.51973982E+01  7.59869910E+00  7.59869910E+00
 -1.51973982E+01  7.59869910E+00  7.59869910E+00 -1.51973982E+01  7.59869910E+00
  7.59869910E+00 -1.51973982E+01  7.59869910E+00  7.59869910E+00 -1.51973982E+01
  7.59869910E+00  7.59869910E+00 -1.51973982E+01  7.59869910E+00  7.59869910E+00
 -1.51973982E+01  7.59869910E+00  7.59869910E+00 -1.51973982E+01  7.59869910E+00
  7.59869910E+00 -1.51973982E+01  7.59869910E+00  7.59869910E+00 -1.51973982E+01
  7.59869910E+00  7.59869910E+00 -1.51973982E+01  7.59869910E+00  7.59869910E+00
 -1.51973982E+01  7.59869910E+00  7.59869910E+00 -1.51973982E+01  7.59869910E+00
  7.59869910E+00 -1.51973982E+01  7.59869910E+00  7.59869910E+00 -1.51973982E+01
  7.59869910E+00  7.59869910E+00 -1.51973982E+01  7.59869910E+00  7.59869910E+00
 -1.51973982E+01  7.59869910E+00  7.59869910E+00 -1.51973982E+01  7.59869910E+00
  7.59869910E+00 -1.51973982E+01  7.59869910E+00  7.59869910E+00 -1.51973982E+01
  7.59869910E+00  7.59869910E+00 -1.51973982E+01  7.59869910E+00  7.59869910E+00
 -1.51973982E+01  7.59869910E+00  7.59869910E+00 -1.51973982E+01  7.59869910E+00
  7.59869910E+00 -1.51973982E+01  7.59869910E+00  7.59869910E+00 -1.51973982E+01
  7.59869910E+00  7.59869910E+00 -1.51973982E+01  7.59869910E+00  7.59869910E+00
 -1.51973982E+01  7.59869910E+00  7.59869910E+00 -1.51973982E+01  7.59869910E+00
  7.59869910E+00 -1.51973982E+01  7.59869910E+00  7.59869910E+00 -1.51973982E+01
  7.59869910E+00  7.59869910E+00 -1.51973982E+01  7.59869910E+00  7.59869910E+00
 -1.51973982E+01  7.59869910E+00  7.59869910E+00 -1.51973982E+01  7.59869910E+00
  7.59869910E+00 -1.51973982E+01  7.59869910E+00  7.59869910E+00 -1.51973982E+01
  7.59869910E+00  7.59869910E+00 -1.51973982E+01  7.59869910E+00  7.59869910E+00
 -1.51973982E+01  7.59869910E+00  7.59869910E+00 -1.51973982E+01  7.59869910E+00
  7.59869910E+00 -1.51973982E+01  7.59869910E+00  7.59869910E+00 -1.51973982E+01
  7.59869910E+00  7.59869910E+00 -1.51973982E+01  7.59869910E+00  7.59869910E+00
 -1.51973982E+01  7.59869910E+00  7.59869910E+00 -1.51973982E+01  7.59869910E+00
  7.59869910E+00 -1.51973982E+01  7.59869910E+00  7.59869910E+00 -1.51973982E+01
  7.59869910E+00  7.59869910E+00 -1.51973982E+01  7.59869910E+00  7.59869910E+00
 -1.51973982E+01  7.59869910E+00  7.59869910E+00 -1.51973982E+01  7.59869910E+00
  7.59869910E+00 -1.51973982E+01  7.59869910E+00  7.59869910E+00 -1.51973982E+01
  7.59869910E+00  7.59869910E+00 -1.51973982E+01  7.59869910E+00  7.59869910E+00
 -1.51973982E+01  7.59869910E+00  7.59869910E+00 -1.51973982E+01  7.59869910E+00
  7.59869910E+00 -1.51973982E+01  7.59869910E+00  7.59869910E+00 -1.51973982E+01
  7.59869910E+00  7.59869910E+00 -1.51973982E+01  7.59869910E+00  7.59869910E+00
 -1.51973982E+01  7.59869910E+00  7.59869910E+00 -1.51973982E+01  7.59869910E+00
  7.59869910E+00 -1.51973982E+01  7.59869910E+00  7.59869910E+00 -1.51973982E+01
  7.59869910E+00  7.59869910E+00 -1.51973982E+01  7.59869910E+00  7.59869910E+00
 -1.51973982E+01  7.59869910E+00  7.59869910E+00 -1.51973982E+01  7.59869910E+00
  7.59869910E+00 -1.51973982E+01  7.59869910E+00  7.59869910E+00 -1.51973982E+01
  7.59869910E+00  7.59869910E+00 -1.51973982E+01  7.59869910E+00  7.59869910E+00
 -1.51973982E+01  7.59869910E+00  7.59869910E+00 -1.51973982E+01  7.59869910E+00
  7.59869910E+00 -1.51973982E+01  7.59869910E+00  7.59869910E+00 -1.51973982E+01
  7.59869910E+00  7.59869910E+00 -1.51973982E+01  7.59869910E+00  7.59869910E+00
 -1.51973982E+01  7.59869910E+00  7.59869910E+00 -1.51973982E+01  7.59869910E+00
  7.59869910E+00 -1.51973982E+01  7.59869910E+00  7.59869910E+00 -1.51973982E+01
  7.59869910E+00  7.59869910E+00 -1.51973982E+01  7.59869910E+00  7.59869910E+00
 -1.51973982E+01  7.59869910E+00  7.59869910E+00 -1.51973982E+01  7.59869910E+00
  7.59869910E+00 -1.51973982E+01  7.59869910E+00  7.59869910E+00 -1.51973982E+01
  7.59869910E+00  7.59869910E+00 -1.51973982E+01  7.59869910E+00  7.59869910E+00
 -1.51973982E+01  7.59869910E+00  7.59869910E+00 -1.51973982E+01  7.59869910E+00
  7.59869910E+00 -1.51973982E+01  7.59869910E+00  7.59869910E+00 -1.51973982E+01
  7.59869910E+00  7.59869910E+00 -1.51973982E+01  7.59869910E+00  7.59869910E+00
 -1.51973982E+01  7.59869910E+00  7.59869910E+00 -1.51973982E+01  7.59869910E+00
  7.59869910E+00 -1.51973982E+01  7.59869910E+00  7.59869910E+00 -1.51973982E+01
  7.59869910E+00  7.59869910E+00 -1.51973982E+01  7.59869910E+00  7.59869910E+00
 -1.51973982E+01  7.59869910E+00  7.59869910E+00 -1.51973982E+01  7.59869910E+00
  7.59869910E+00 -1.51973982E+01  7.59869910E+00  7.59869910E+00 -1.51973982E+01
  7.59869910E+00  7.59869910E+00 -1.51973982E+01  7.59869910E+00  7.59869910E+00
 -1.51973982E+01  7.59869910E+00  7.59869910E+00 -1.51973982E+01  7.59869910E+00
  7.59869910E+00 -1.51973982E+01  7.59869910E+00  7.59869910E+00 -1.51973982E+01
  7.59869910E+00  7.59869910E+00 -1.51973982E+01  7.59869910E+00  7.59869910E+00
 -1.51973982E+01  7.59869910E+00  7.59869910E+00 -1.51973982E+01  7.59869910E+00
  7.59869910E+00 -1.51973982E+01  7.59869910E+00  7.59869910E+00 -1.51973982E+01
  7.59869910E+00  7.59869910E+00 -1.51973982E+01  7.59869910E+00  7.59869910E+00
 -1.51973982E+01  7.59869910E+00  7.59869910E+00 -1.51973982E+01  7.59869910E+00
  7.59869910E+00 -1.51973982E+01  7.59869910E+00  7.59869910E+00 -1.51973982E+01
  7.59869910E+00  7.59869910E+00 -1.51973982E+01  7.59869910E+00  7.59869910E+00
 -1.51973982E+01  7.59869910E+00  7.59869910E+00 -1.51973982E+01  7.59869910E+00
  7.59869910E+00 -1.51973982E+01  7.59869910E+00  7.59869910E+00 -1.51973982E+01
  7.59869910E+00  7.59869910E+00 -1.51973982E+01  7.59869910E+00  7.59869910E+00
 -1.51973982E+01  7.59869910E+00  7.59869910E+00 -1.51973982E+01  7.59869910E+00
  7.59869910E+00 -1.51973982E+01  7.59869910E+00  7.59869910E+00 -1.51973982E+01
  7.59869910E+00  7.59869910E+00 -1.51973982E+01  7.59869910E+00  7.59869910E+00
 -1.51973982E+01  7.59869910E+00  7.59869910E+00 -1.51973982E+01  7.59869910E+00
  7.59869910E+00 -1.51973982E+01  7.59869910E+00  7.59869910E+00 -1.51973982E+01
  7.59869910E+00  7.59869910E+00 -1.51973982E+01  7.59869910E+00  7.59869910E+00
 -1.51973982E+01  7.59869910E+00  7.59869910E+00 -1.51973982E+01  7.59869910E+00
  7.59869910E+00 -1.51973982E+01  7.59869910E+00  7.59869910E+00 -1.51973982E+01
  7.59869910E+00  7.59869910E+00 -1.51973982E+01  7.59869910E+00  7.59869910E+00
 -1.51973982E+01  7.59869910E+00  7.59869910E+00 -1.51973982E+01  7.59869910E+00
  7.59869910E+00 -1.51973982E+01  7.59869910E+00  7.59869910E+00 -1.51973982E+01
  7.59869910E+00  7.59869910E+00 -1.51973982E+01  7.59869910E+00  7.59869910E+00
 -1.51973982E+01  7.59869910E+00  7.59869910E+00 -1.51973982E+01  7.59869910E+00
  7.59869910E+00 -1.51973982E+01  7.59869910E+00  7.59869910E+00 -1.51973982E+01
  7.59869910E+00  7.59869910E+00 -1.51973982E+01  7.59869910E+00  7.59869910E+00
 -1.51973982E+01  7.59869910E+00  7.59869910E+00 -1.51973982E+01  7.59869910E+00
  7.59869910E+00 -1.51973982E+01  7.59869910E+00  7.59869910E+00 -1.51973982E+01
  7.59869910E+00  7.59869910E+00 -1.51973982E+01  7.59869910E+00  7.59869910E+00
 -1.51973982E+01  7.59869910E+00  7.59869910E+00 -1.51973982E+01  7.59869910E+00
  7.59869910E+00 -1.51973982E+01  7.59869910E+00  7.59869910E+00 -1.51973982E+01
  7.59869910E+00  7.59869910E+00 -1.51973982E+01  7.59869910E+00  7.59869910E+00
 -1.51973982E+01  7.59869910E+00  7.59869910E+00 -1.51973982E+01  7.59869910E+00
  7.59869910E+00 -1.51973982E+01  7.59869910E+00  7.59869910E+00 -1.51973982E+01
  7.59869910E+00  7.59869910E+00 -1.51973982E+01  7.59869910E+00  7.59869910E+00
 -1.51973982E+01  7.59869910E+00  7.59869910E+00 -1.51973982E+01  7.59869910E+00
  7.59869910E+00 -1.51973982E+01  7.59869910E+00  7.59869910E+00 -1.51973982E+01
  7.59869910E+00  7.59869910E+00 -1.51973982E+01  7.59869910E+00  7.59869910E+00
 -1.51973982E+01  7.59869910E+00  7.59869910E+00 -1.51973982E+01  7.59869910E+00
  7.59869910E+00 -1.51973982E+01  7.59869910E+00  7.59869910E+00 -1.51973982E+01
  7.59869910E+00  7.59869910E+00 -1.51973982E+01  7.59869910E+00  7.59869910E+00
 -1.51973982E+01  7.59869910E+00  7.59869910E+00 -1.51973982E+01  7.59869910E+00
  7.59869910E+00 -1.51973982E+01  7.59869910E+00  7.59869910E+00 -1.51973982E+01
  7.59869910E+00  7.59869910E+00 -1.51973982E+01  7.59869910E+00  7.59869910E+00
 -1.51973982E+01  7.59869910E+00  7.59869910E+00 -1.51973982E+01  7.59869910E+00
  7.59869910E+00 -1.51973982E+01  7.59869910E+00  7.59869910E+00 -1.51973982E+01
  7.59869910E+00  7.59869910E+00 -1.51973982E+01  7.59869910E+00  7.59869910E+00
 -1.51973982E+01  7.59869910E+00  7.59869910E+00 -1.51973982E+01  7.59869910E+00
  7.59869910E+00 -1.51973982E+01  7.59869910E+00  7.59869910E+00 -1.51973982E+01
  7.59869910E+00  7.59869910E+00 -1.51973982E+01  7.59869910E+00  7.59869910E+00
 -1.51973982E+01  7.59869910E+00  7.59869910E+00 -1.51973982E+01  7.59869910E+00
  7.59869910E+00 -1.51973982E+01  7.59869910E+00  7.59869910E+00 -1.51973982E+01
  7.59869910E+00  7.59869910E+00 -1.51973982E+01  7.59869910E+00  7.59869910E+00
 -1.51973982E+01  7.59869910E+00  7.59869910E+00 -1.51973982E+01  7.59869910E+00
  7.59869910E+00 -1.51973982E+01  7.59869910E+00  7.59869910E+00 -1.51973982E+01
  7.59869910E+00  7.59869910E+00 -1.51973982E+01  7.59869910E+00  7.59869910E+00
 -1.51973982E+01  7.59869910E+00  7.59869910E+00 -1.51973982E+01  7.59869910E+00
  7.59869910E+00 -1.51973982E+01  7.59869910E+00  7.59869910E+00 -1.51973982E+01
  7.59869910E+00  7.59869910E+00 -1.51973982E+01  7.59869910E+00  7.59869910E+00
 -1.51973982E+01  7.59869910E+00  7.59869910E+00 -1.51973982E+01  7.59869910E+00
  7.59869910E+00 -1.51973982E+01  7.59869910E+00  7.59869910E+00 -1.51973982E+01
  7.59869910E+00  7.59869910E+00 -1.51973982E+01  7.59869910E+00  7.59869910E+00
 -1.51973982E+01  7.59869910E+00  7.59869910E+00 -1.51973982E+01  7.59869910E+00
  7.59869910E+00 -1.51973982E+01  7.59869910E+00  7.59869910E+00 -1.51973982E+01
  7.59869910E+00  7.59869910E+00 -1.51973982E+01  7.59869910E+00  7.59869910E+00
 -1.51973982E+01  7.59869910E+00  7.59869910E+00 -1.51973982E+01  7.59869910E+00
  7.59869910E+00 -1.51973982E+01  7.59869910E+00  7.59869910E+00 -1.51973982E+01
  7.59869910E+00  7.59869910E+00 -1.51973982E+01  7.59869910E+00  7.59869910E+00
 -1.51973982E+01  7.59869910E+00  7.59869910E+00 -1.51973982E+01  7.59869910E+00
  7.59869910E+00 -1.51973982E+01  7.59869910E+00  7.59869910E+00 -1.51973982E+01
  7.59869910E+00  7.59869910E+00 -1.51973982E+01  7.59869910E+00  7.59869910E+00
 -1.51973982E+01  7.59869910E+00  7.59869910E+00 -1.51973982E+01  7.59869910E+00
  7.59869910E+00 -1.51973982E+01  7.59869910E+00  7.59869910E+00 -1.51973982E+01
  7.59869910E+00  7.59869910E+00 -1.51973982E+01  7.59869910E+00  7.59869910E+00
 -1.51973982E+01  7.59869910E+00  7.59869910E+00 -1.51973982E+01  7.59869910E+00
  7.59869910E+00 -1.51973982E+01  7.59869910E+00  7.59869910E+00 -1.51973982E+01
  7.59869910E+00  7.59869910E+00 -1.51973982E+01  7.59869910E+00  7.59869910E+00
 -1.51973982E+01  7.59869910E+00  7.59869910E+00 -1.51973982E+01  7.59869910E+00
  7.59869910E+00 -1.51973982E+01  7.59869910E+00  7.59869910E+00 -1.51973982E+01
  7.59869910E+00  7.59869910E+00 -1.51973982E+01  7.59869910E+00  7.59869910E+00
 -1.51973982E+01  7.59869910E+00  7.59869910E+00 -1.51973982E+01  7.59869910E+00
  7.59869910E+00 -1.51973982E+01  7.59869910E+00  7.59869910E+00 -1.51973982E+01
  7.59869910E+00  7.59869910E+00 -1.51973982E+01  7.59869910E+00  7.59869910E+00
 -1.51973982E+01  7.59869910E+00  7.59869910E+00 -1.51973982E+01  7.59869910E+00
  7.59869910E+00 -1.51973982E+01  7.59869910E+00  7.59869910E+00 -1.51973982E+01
  7.59869910E+00  7.59869910E+00 -1.51973982E+01  7.59869910E+00  7.59869910E+00
 -1.51973982E+01  7.59869910E+00  7.59869910E+00 -1.51973982E+01  7.59869910E+00
  7.59869910E+00 -1.51973982E+01  7.59869910E+00  7.59869910E+00 -1.51973982E+01
  7.59869910E+00  7.59869910E+00 -1.51973982E+01  7.59869910E+00  7.59869910E+00
 -1.51973982E+01  7.59869910E+00  7.59869910E+00 -1.51973982E+01  7.59869910E+00
  7.59869910E+00 -1.51973982E+01  7.59869910E+00  7.59869910E+00 -1.51973982E+01
  7.59869910E+00  7.59869910E+00 -1.51973982E+01  7.59869910E+00  7.59869910E+00
 -1.51973982E+01  7.59869910E+00  7.59869910E+00 -1.51973982E+01  7.59869910E+00
  7.59869910E+00 -1.51973982E+01  7.59869910E+00  7.59869910E+00 -1.51973982E+01
  7.59869910E+00  7.59869910E+00 -1.51973982E+01  7.59869910E+00  7.59869910E+00
 -1.51973982E+01  7.59869910E+00  7.59869910E+00 -1.51973982E+01  7.59869910E+00
  7.59869910E+00 -1.51973982E+01  7.59869910E+00  7.59869910E+00 -1.51973982E+01
  7.59869910E+00  7.59869910E+00 -1.51973982E+01  7.59869910E+00  7.59869910E+00
 -1.51973982E+01  7.59869910E+00  7.59869910E+00 -1.51973982E+01  7.59869910E+00
  7.59869910E+00 -1.51973982E+01  7.59869910E+00  7.59869910E+00 -1.51973982E+01
  7.59869910E+00  7.59869910E+00 -1.51973982E+01  7.59869910E+00  7.59869910E+00
 -1.51973982E+01  7.59869910E+00  7.59869910E+00 -1.51973982E+01  7.59869910E+00
  7.59869910E+00 -1.51973982E+01  7.59869910E+00  7.59869910E+00 -1.51973982E+01
  7.59869910E+00  7.59869910E+00 -1.51973982E+01  7.59869910E+00  7.59869910E+00
 -1.51973982E+01  7.59869910E+00  7.59869910E+00 -1.51973982E+01  7.59869910E+00
  7.59869910E+00 -1.51973982E+01  7.59869910E+00  7.59869910E+00 -1.51973982E+01
  7.59869910E+00  7.59869910E+00 -1.51973982E+01  7.59869910E+00  7.59869910E+00
 -1.51973982E+01  7.59869910E+00  7.59869910E+00 -1.51973982E+01  7.59869910E+00
  7.59869910E+00 -1.51973982E+01  7.59869910E+00  7.59869910E+00 -1.51973982E+01
  7.59869910E+00  7.59869910E+00 -1.51973982E+01  7.59869910E+00  7.59869910E+00
 -1.51973982E+01  7.59869910E+00  7.59869910E+00 -1.51973982E+01  7.59869910E+00
  7.59869910E+00 -1.51973982E+01  7.59869910E+00  7.59869910E+00 -1.51973982E+01
  7.59869910E+00  7.59869910E+00 -1.51973982E+01  7.59869910E+00  7.59869910E+00
 -1.51973982E+01  7.59869910E+00  7.59869910E+00 -1.51973982E+01  7.59869910E+00
  7.59869910E+00 -1.51973982E+01  7.59869910E+00  7.59869910E+00 -1.51973982E+01
  7.59869910E+00  7.59869910E+00 -1.51973982E+01  7.59869910E+00  7.59869910E+00
 -1.51973982E+01  7.59869910E+00  7.59869910E+00 -1.51973982E+01  7.59869910E+00
  7.59869910E+00 -1.51973982E+01  7.59869910E+00  7.59869910E+00 -1.51973982E+01
  7.59869910E+00  7.59869910E+00 -1.51973982E+01  7.59869910E+00  7.59869910E+00
 -1.51973982E+01  7.59869910E+00  7.59869910E+00 -1.51973982E+01  7.59869910E+00
  7.59869910E+00 -1.51973982E+01  7.59869910E+00  7.59869910E+00 -1.51973982E+01
  7.59869910E+00  7.59869910E+00 -1.51973982E+01  7.59869910E+00  7.59869910E+00
 -1.51973982E+01  7.59869910E+00  7.59869910E+00 -1.51973982E+01  7.59869910E+00
  7.59869910E+00 -1.51973982E+01  7.59869910E+00  7.59869910E+00 -1.51973982E+01
  7.59869910E+00  7.59869910E+00 -1.51973982E+01  7.59869910E+00  7.59869910E+00
 -1.51973982E+01  7.59869910E+00  7.59869910E+00 -1.51973982E+01  7.59869910E+00
  7.59869910E+00 -1.51973982E+01  7.59869910E+00  7.59869910E+00 -1.51973982E+01
  7.59869910E+00  7.59869910E+00 -1.51973982E+01  7.59869910E+00  7.59869910E+00
 -1.51973982E+01  7.59869910E+00  7.59869910E+00 -1.51973982E+01  7.59869910E+00
  7.59869910E+00 -1.51973982E+01  7.59869910E+00  7.59869910E+00 -1.51973982E+01
  7.59869910E+00  7.59869910E+00 -1.51973982E+01  7.59869910E+00  7.59869910E+00
 -1.51973982E+01  7.59869910E+00  7.59869910E+00 -1.51973982E+01  7.59869910E+00
  7.59869910E+00 -1.51973982E+01  7.59869910E+00  7.59869910E+00 -1.51973982E+01
  7.59869910E+00  7.59869910E+00 -1.51973982E+01  7.59869910E+00  7.59869910E+00
 -1.51973982E+01  7.59869910E+00  7.59869910E+00 -1.51973982E+01  7.59869910E+00
  7.59869910E+00 -1.51973982E+01  7.59869910E+00  7.59869910E+00 -1.51973982E+01
  7.59869910E+00  7.59869910E+00 -1.51973982E+01  7.59869910E+00  7.59869910E+00
 -1.51973982E+01  7.59869910E+00  7.59869910E+00 -1.51973982E+01  7.59869910E+00
  7.59869910E+00 -1.51973982E+01  7.59869910E+00  7.59869910E+00 -1.51973982E+01
  7.59869910E+00  7.59869910E+00 -1.51973982E+01  7.59869910E+00  7.59869910E+00
 -1.51973982E+01  7.59869910E+00  7.59869910E+00 -1.51973982E+01  7.59869910E+00
  7.59869910E+00 -1.51973982E+01  7.59869910E+00  7.59869910E+00 -1.51973982E+01
  7.59869910E+00  7.59869910E+00 -1.51973982E+01  7.59869910E+00  7.59869910E+00
 -1.51973982E+01  7.59869910E+00  7.59869910E+00 -1.51973982E+01  7.59869910E+00
  7.59869910E+00 -1.51973982E+01  7.59869910E+00  7.59869910E+00 -1.51973982E+01
  7.59869910E+00  7.59869910E+00 -1.51973982E+01  7.59869910E+00  7.59869910E+00
 -1.51973982E+01  7.59869910E+00  7.59869910E+00 -1.51973982E+01  7.59869910E+00
  7.59869910E+00 -1.51973982E+01  7.59869910E+00  7.59869910E+00 -1.51973982E+01
  7.59869910E+00  7.59869910E+00 -1.51973982E+01  7.59869910E+00  7.59869910E+00
 -1.51973982E+01  7.59869910E+00  7.59869910E+00 -1.51973982E+01  7.59869910E+00
  7.59869910E+00 -1.51973982E+01  7.59869910E+00  7.59869910E+00 -1.51973982E+01
  7.59869910E+00  7.59869910E+00 -1.51973982E+01  7.59869910E+00  7.59869910E+00
 -1.51973982E+01  7.59869910E+00  7.59869910E+00 -1.51973982E+01  7.59869910E+00
  7.59869910E+00 -1.51973982E+01  7.59869910E+00  7.59869910E+00 -1.51973982E+01
  7.59869910E+00  7.59869910E+00 -1.51973982E+01  7.59869910E+00  7.59869910E+00
 -1.51973982E+01  7.59869910E+00  7.59869910E+00 -1.51973982E+01  7.59869910E+00
  7.59869910E+00 -1.51973982E+01  7.59869910E+00  7.59869910E+00 -1.51973982E+01
  7.59869910E+00  7.59869910E+00 -1.51973982E+01  7.59869910E+00  7.59869910E+00
 -1.51973982E+01  7.59869910E+00  7.59869910E+00 -1.51973982E+01  7.59869910E+00
  7.59869910E+00 -1.51973982E+01  7.59869910E+00  7.59869910E+00 -1.51973982E+01
  7.59869910E+00  7.59869910E+00 -1.51973982E+01  7.59869910E+00  7.59869910E+00
 -1.51973982E+01  7.59869910E+00  7.59869910E+00 -1.51973982E+01  7.59869910E+00
  7.59869910E+00 -1.51973982E+01  7.59869910E+00  7.59869910E+00 -1.51973982E+01
  7.59869910E+00  7.59869910E+00 -1.51973982E+01  7.59869910E+00  7.59869910E+00
 -1.51973982E+01  7.59869910E+00  7.59869910E+00 -1.51973982E+01  7.59869910E+00
  7.59869910E+00 -1.51973982E+01  7.59869910E+00  7.59869910E+00 -1.51973982E+01
  7.59869910E+00  7.59869910E+00 -1.51973982E+01  7.59869910E+00  7.59869910E+00
 -1.51973982E+01  7.59869910E+00  7.59869910E+00 -1.51973982E+01  7.59869910E+00
  7.59869910E+00 -1.51973982E+01  7.59869910E+00  7.59869910E+00 -1.51973982E+01
  7.59869910E+00  7.59869910E+00 -1.51973982E+01  7.59869910E+00  7.59869910E+00
 -1.51973982E+01  7.59869910E+00  7.59869910E+00 -1.51973982E+01  7.59869910E+00
  7.59869910E+00 -1.51973982E+01  7.59869910E+00  7.59869910E+00 -1.51973982E+01
  7.59869910E+00  7.59869910E+00 -1.51973982E+01  7.59869910E+00  7.59869910E+00
 -1.51973982E+01  7.59869910E+00  7.59869910E+00 -1.51973982E+01  7.59869910E+00
  7.59869910E+00 -1.51973982E+01  7.59869910E+00  7.59869910E+00 -1.51973982E+01
  7.59869910E+00  7.59869910E+00 -1.51973982E+01  7.59869910E+00  7.59869910E+00
 -1.51973982E+01  7.59869910E+00  7.59869910E+00 -1.51973982E+01  7.59869910E+00
  7.59869910E+00 -1.51973982E+01  7.59869910E+00  7.59869910E+00 -1.51973982E+01
  7.59869910E+00  7.59869910E+00 -1.51973982E+01  7.59869910E+00  7.59869910E+00
 -1.51973982E+01  7.59869910E+00  7.59869910E+00 -1.51973982E+01  7.59869910E+00
  7.59869910E+00 -1.51973982E+01  7.59869910E+00  7.59869910E+00 -1.51973982E+01
  7.59869910E+00  7.59869910E+00 -1.51973982E+01  7.59869910E+00  7.59869910E+00
 -1.51973982E+01  7.59869910E+00  7.59869910E+00 -1.51973982E+01  7.59869910E+00
  7.59869910E+00 -1.51973982E+01  7.59869910E+00  7.59869910E+00 -1.51973982E+01
  7.59869910E+00  7.59869910E+00 -1.51973982E+01  7.59869910E+00  7.59869910E+00
 -1.51973982E+01  7.59869910E+00  7.59869910E+00 -1.51973982E+01  7.59869910E+00
  7.59869910E+00 -1.51973982E+01  7.59869910E+00  7.59869910E+00 -1.51973982E+01
  7.59869910E+00  7.59869910E+00 -1.51973982E+01  7.59869910E+00  7.59869910E+00
 -1.51973982E+01  7.59869910E+00  7.59869910E+00 -1.51973982E+01  7.59869910E+00
  7.59869910E+00 -1.51973982E+01  7.59869910E+00  7.59869910E+00 -1.51973982E+01
  7.59869910E+00  7.59869910E+00 -1.51973982E+01  7.59869910E+00  7.59869910E+00
 -1.51973982E+01  7.59869910E+00  7.59869910E+00 -1.51973982E+01  7.59869910E+00
  7.59869910E+00 -1.51973982E+01  7.59869910E+00  7.59869910E+00 -1.51973982E+01
  7.59869910E+00  7.59869910E+00 -1.51973982E+01  7.59869910E+00  7.59869910E+00
 -1.51973982E+01  7.59869910E+00  7.59869910E+00 -1.51973982E+01  7.59869910E+00
  7.59869910E+00 -1.51973982E+01  7.59869910E+00  7.59869910E+00 -1.51973982E+01
  7.59869910E+00  7.59869910E+00 -1.51973982E+01  7.59869910E+00  7.59869910E+00
 -1.51973982E+01  7.59869910E+00  7.59869910E+00 -1.51973982E+01  7.59869910E+00
  7.59869910E+00 -1.51973982E+01  7.59869910E+00  7.59869910E+00 -1.51973982E+01
  7.59869910E+00  7.59869910E+00 -1.51973982E+01  7.59869910E+00  7.59869910E+00
 -1.51973982E+01  7.59869910E+00  7.59869910E+00 -1.51973982E+01  7.59869910E+00
  7.59869910E+00 -1.51973982E+01  7.59869910E+00  7.59869910E+00 -1.51973982E+01
  7.59869910E+00  7.59869910E+00 -1.51973982E+01  7.59869910E+00  7.59869910E+00
 -1.51973982E+01  7.59869910E+00  7.59869910E+00 -1.51973982E+01  7.59869910E+00
  7.59869910E+00 -1.51973982E+01  7.59869910E+00  7.59869910E+00 -1.51973982E+01
  7.59869910E+00  7.59869910E+00 -1.51973982E+01  7.59869910E+00  7.59869910E+00
 -1.51973982E+01  7.59869910E+00  7.59869910E+00 -1.51973982E+01  7.59869910E+00
  7.59869910E+00 -1.51973982E+01  7.59869910E+00  7.59869910E+00 -1.51973982E+01
  7.59869910E+00  7.59869910E+00 -1.51973982E+01  7.59869910E+00  7.59869910E+00
 -1.51973982E+01  7.59869910E+00  7.59869910E+00 -1.51973982E+01  7.59869910E+00
  7.59869910E+00 -1.51973982E+01  7.59869910E+00  7.59869910E+00 -1.51973982E+01
  7.59869910E+00  7.59869910E+00 -1.51973982E+01  7.59869910E+00  7.59869910E+00
 -1.51973982E+01  7.59869910E+00  7.59869910E+00 -1.51973982E+01  7.59869910E+00
  7.59869910E+00 -1.51973982E+01  7.59869910E+00  7.59869910E+00 -1.51973982E+01
  7.59869910E+00  7.59869910E+00 -1.51973982E+01  7.59869910E+00  7.59869910E+00
 -1.51973982E+01  7.59869910E+00  7.59869910E+00 -1.51973982E+01  7.59869910E+00
  7.59869910E+00 -1.51973982E+01  7.59869910E+00  7.59869910E+00 -1.51973982E+01
  7.59869910E+00  7.59869910E+00 -1.51973982E+01  7.59869910E+00  7.59869910E+00
 -1.51973982E+01  7.59869910E+00  7.59869910E+00 -1.51973982E+01  7.59869910E+00
  7.59869910E+00 -1.51973982E+01  7.59869910E+00  7.59869910E+00 -1.51973982E+01
  7.59869910E+00  7.59869910E+00 -1.51973982E+01  7.59869910E+00  7.59869910E+00
 -1.51973982E+01  7.59869910E+00  7.59869910E+00 -1.51973982E+01  7.59869910E+00
  7.59869910E+00 -1.51973982E+01  7.59869910E+00  7.59869910E+00 -1.51973982E+01
  7.59869910E+00  7.59869910E+00 -1.51973982E+01  7.59869910E+00  7.59869910E+00
 -1.51973982E+01  7.59869910E+00  7.59869910E+00 -1.51973982E+01  7.59869910E+00
  7.59869910E+00 -1.51973982E+01  7.59869910E+00  7.59869910E+00 -1.51973982E+01
  7.59869910E+00  7.59869910E+00 -1.51973982E+01  7.59869910E+00  7.59869910E+00
 -1.51973982E+01  7.59869910E+00  7.59869910E+00 -1.51973982E+01  7.59869910E+00
  7.59869910E+00 -1.51973982E+01  7.59869910E+00  7.59869910E+00 -1.51973982E+01
  7.59869910E+00  7.59869910E+00 -1.51973982E+01  7.59869910E+00  7.59869910E+00
 -1.51973982E+01  7.59869910E+00  7.59869910E+00 -1.51973982E+01  7.59869910E+00
  7.59869910E+00 -1.51973982E+01  7.59869910E+00  7.59869910E+00 -1.51973982E+01
  7.59869910E+00  7.59869910E+00 -1.51973982E+01  7.59869910E+00  7.59869910E+00
 -1.51973982E+01  7.59869910E+00  7.59869910E+00 -1.51973982E+01  7.59869910E+00
  7.59869910E+00 -1.51973982E+01  7.59869910E+00  7.59869910E+00 -1.51973982E+01
  7.59869910E+00  7.59869910E+00 -1.51973982E+01  7.59869910E+00  7.59869910E+00
 -1.51973982E+01  7.59869910E+00  7.59869910E+00 -1.51973982E+01  7.59869910E+00
  7.59869910E+00 -1.51973982E+01  7.59869910E+00  7.59869910E+00 -1.51973982E+01
  7.59869910E+00  7.59869910E+00 -1.51973982E+01  7.59869910E+00  7.59869910E+00
 -1.51973982E+01  7.59869910E+00  7.59869910E+00 -1.51973982E+01  7.59869910E+00
  7.59869910E+00 -1.51973982E+01  7.59869910E+00  7.59869910E+00 -1.51973982E+01
  7.59869910E+00  7.59869910E+00 -1.51973982E+01  7.59869910E+00  7.59869910E+00
 -1.51973982E+01  7.59869910E+00  7.59869910E+00 -1.51973982E+01  7.59869910E+00
  7.59869910E+00 -1.51973982E+01  7.59869910E+00  7.59869910E+00 -1.51973982E+01
  7.59869910E+00  7.59869910E+00 -1.51973982E+01  7.59869910E+00  7.59869910E+00
 -1.51973982E+01  7.59869910E+00  7.59869910E+00 -1.51973982E+01  7.59869910E+00
  7.59869910E+00 -1.51973982E+01  7.59869910E+00  7.59869910E+00 -1.51973982E+01
  7.59869910E+00  7.59869910E+00 -1.51973982E+01  7.59869910E+00  7.59869910E+00
 -1.51973982E+01  7.59869910E+00  7.59869910E+00 -1.51973982E+01  7.59869910E+00
  7.59869910E+00 -1.51973982E+01  7.59869910E+00  7.59869910E+00 -1.51973982E+01
  7.59869910E+00  7.59869910E+00 -1.51973982E+01  7.59869910E+00  7.59869910E+00
 -1.51973982E+01  7.59869910E+00  7.59869910E+00 -1.51973982E+01  7.59869910E+00
  7.59869910E+00 -1.51973982E+01  7.59869910E+00  7.59869910E+00 -1.51973982E+01
  7.59869910E+00  7.59869910E+00 -1.51973982E+01  7.59869910E+00  7.59869910E+00
 -1.51973982E+01  7.59869910E+00  7.59869910E+00 -1.51973982E+01  7.59869910E+00
  7.59869910E+00 -1.51973982E+01  7.59869910E+00  7.59869910E+00 -1.51973982E+01
  7.59869910E+00  7.59869910E+00 -1.51973982E+01  7.59869910E+00  7.59869910E+00
 -1.51973982E+01  7.59869910E+00  7.59869910E+00 -1.51973982E+01  7.59869910E+00
  7.59869910E+00 -1.51973982E+01  7.59869910E+00  7.59869910E+00 -1.51973982E+01
  7.59869910E+00  7.59869910E+00 -1.51973982E+01  7.59869910E+00  7.59869910E+00
 -1.51973982E+01  7.59869910E+00  7.59869910E+00 -1.51973982E+01  7.59869910E+00
  7.59869910E+00 -1.51973982E+01  7.59869910E+00  7.59869910E+00 -1.51973982E+01
  7.59869910E+00  7.59869910E+00 -1.51973982E+01  7.59869910E+00  7.59869910E+00
 -1.51973982E+01  7.59869910E+00  7.59869910E+00 -1.51973982E+01  7.59869910E+00
  7.59869910E+00 -1.51973982E+01  7.59869910E+00  7.59869910E+00 -1.51973982E+01
  7.59869910E+00  7.59869910E+00 -1.51973982E+01  7.59869910E+00  7.59869910E+00
 -1.51973982E+01  7.59869910E+00  7.59869910E+00 -1.51973982E+01  7.59869910E+00
  7.59869910E+00 -1.51973982E+01  7.59869910E+00  7.59869910E+00 -1.51973982E+01
  7.59869910E+00  7.59869910E+00 -1.51973982E+01  7.59869910E+00  7.59869910E+00
 -1.51973982E+01  7.59869910E+00  7.59869910E+00 -1.51973982E+01  7.59869910E+00
  7.59869910E+00 -1.51973982E+01  7.59869910E+00  7.59869910E+00 -1.51973982E+01
  7.59869910E+00  7.59869910E+00 -1.51973982E+01  7.59869910E+00  7.59869910E+00
 -1.51973982E+01  7.59869910E+00  7.59869910E+00 -1.51973982E+01  7.59869910E+00
  7.59869910E+00 -1.51973982E+01  7.59869910E+00  7.59869910E+00 -1.51973982E+01
  7.59869910E+00  7.59869910E+00 -1.51973982E+01  7.59869910E+00  7.59869910E+00
 -1.51973982E+01  7.59869910E+00  7.59869910E+00 -1.51973982E+01  7.59869910E+00
  7.59869910E+00 -1.51973982E+01  7.59869910E+00  7.59869910E+00 -1.51973982E+01
  7.59869910E+00  7.59869910E+00 -1.51973982E+01  7.59869910E+00  7.59869910E+00
 -1.51973982E+01  7.59869910E+00  7.59869910E+00 -1.51973982E+01  7.59869910E+00
  7.59869910E+00 -1.51973982E+01  7.59869910E+00  7.59869910E+00 -1.51973982E+01
  7.59869910E+00  7.59869910E+00 -1.51973982E+01  7.59869910E+00  7.59869910E+00
 -1.51973982E+01  7.59869910E+00  7.59869910E+00 -1.51973982E+01  7.59869910E+00
  7.59869910E+00 -1.51973982E+01  7.59869910E+00  7.59869910E+00 -1.51973982E+01
  7.59869910E+00  7.59869910E+00 -1.51973982E+01  7.59869910E+00  7.59869910E+00
 -1.51973982E+01  7.59869910E+00  7.59869910E+00 -1.51973982E+01  7.59869910E+00
  7.59869910E+00 -1.51973982E+01  7.59869910E+00  7.59869910E+00 -1.51973982E+01
  7.59869910E+00  7.59869910E+00 -1.51973982E+01  7.59869910E+00  7.59869910E+00
 -1.51973982E+01  7.59869910E+00  7.59869910E+00 -1.51973982E+01  7.59869910E+00
  7.59869910E+00 -1.51973982E+01  7.59869910E+00  7.59869910E+00 -1.51973982E+01
  7.59869910E+00  7.59869910E+00 -1.51973982E+01  7.59869910E+00  7.59869910E+00
 -1.51973982E+01  7.59869910E+00  7.59869910E+00 -1.51973982E+01  7.59869910E+00
  7.59869910E+00 -1.51973982E+01  7.59869910E+00  7.59869910E+00 -1.51973982E+01
  7.59869910E+00  7.59869910E+00 -1.51973982E+01  7.59869910E+00  7.59869910E+00
 -1.51973982E+01  7.59869910E+00  7.59869910E+00 -1.51973982E+01  7.59869910E+00
  7.59869910E+00 -1.51973982E+01  7.59869910E+00  7.59869910E+00 -1.51973982E+01
  7.59869910E+00  7.59869910E+00 -1.51973982E+01  7.59869910E+00  7.59869910E+00
 -1.51973982E+01  7.59869910E+00  7.59869910E+00 -1.51973982E+01  7.59869910E+00
  7.59869910E+00 -1.51973982E+01  7.59869910E+00  7.59869910E+00 -1.51973982E+01
  7.59869910E+00  7.59869910E+00 -1.51973982E+01  7.59869910E+00  7.59869910E+00
 -1.51973982E+01  7.59869910E+00  7.59869910E+00 -1.51973982E+01  7.59869910E+00
  7.59869910E+00 -1.51973982E+01  7.59869910E+00  7.59869910E+00 -1.51973982E+01
  7.59869910E+00  7.59869910E+00 -1.51973982E+01  7.59869910E+00  7.59869910E+00
 -1.51973982E+01  7.59869910E+00  7.59869910E+00 -1.51973982E+01  7.59869910E+00
  7.59869910E+00 -1.51973982E+01  7.59869910E+00  7.59869910E+00 -1.51973982E+01
  7.59869910E+00  7.59869910E+00 -1.51973982E+01  7.59869910E+00  7.59869910E+00
 -1.51973982E+01  7.59869910E+00  7.59869910E+00 -1.51973982E+01  7.59869910E+00
  7.59869910E+00 -1.51973982E+01  7.59869910E+00  7.59869910E+00 -1.51973982E+01
  7.59869910E+00  7.59869910E+00 -1.51973982E+01  7.59869910E+00  7.59869910E+00
 -1.51973982E+01  7.59869910E+00  7.59869910E+00 -1.51973982E+01  7.59869910E+00
  7.59869910E+00 -1.51973982E+01  7.59869910E+00  7.59869910E+00 -1.51973982E+01
  7.59869910E+00  7.59869910E+00 -1.51973982E+01  7.59869910E+00  7.59869910E+00
 -1.51973982E+01  7.59869910E+00  7.59869910E+00 -1.51973982E+01  7.59869910E+00
  7.59869910E+00 -1.51973982E+01  7.59869910E+00  7.59869910E+00 -1.51973982E+01
  7.59869910E+00  7.59869910E+00 -1.51973982E+01  7.59869910E+00  7.59869910E+00
 -1.51973982E+01  7.59869910E+00  7.59869910E+00 -1.51973982E+01  7.59869910E+00
  7.59869910E+00 -1.51973982E+01  7.59869910E+00  7.59869910E+00 -1.51973982E+01
  7.59869910E+00  7.59869910E+00 -1.51973982E+01  7.59869910E+00  7.59869910E+00
 -1.51973982E+01  7.59869910E+00  7.59869910E+00 -1.51973982E+01  7.59869910E+00
  7.59869910E+00 -1.51973982E+01  7.59869910E+00  7.59869910E+00 -1.51973982E+01
  7.59869910E+00  7.59869910E+00 -1.51973982E+01  7.59869910E+00  7.59869910E+00
 -1.51973982E+01  7.59869910E+00  7.59869910E+00 -1.51973982E+01  7.59869910E+00
  7.59869910E+00 -1.51973982E+01  7.59869910E+00  7.59869910E+00 -1.51973982E+01
  7.59869910E+00  7.59869910E+00 -1.51973982E+01  7.59869910E+00  7.59869910E+00
 -1.51973982E+01  7.59869910E+00  7.59869910E+00 -1.51973982E+01  7.59869910E+00
  7.59869910E+00 -1.51973982E+01  7.59869910E+00  7.59869910E+00 -1.51973982E+01
  7.59869910E+00  7.59869910E+00 -1.51973982E+01  7.59869910E+00  7.59869910E+00
 -1.51973982E+01  7.59869910E+00  7.59869910E+00 -1.51973982E+01  7.59869910E+00
  7.59869910E+00 -1.51973982E+01  7.59869910E+00  7.59869910E+00 -1.51973982E+01
  7.59869910E+00  7.59869910E+00 -1.51973982E+01  7.59869910E+00  7.59869910E+00
 -1.51973982E+01  7.59869910E+00  7.59869910E+00 -1.51973982E+01  7.59869910E+00
  7.59869910E+00 -1.51973982E+01  7.59869910E+00  7.59869910E+00 -1.51973982E+01
  7.59869910E+00  7.59869910E+00 -1.51973982E+01  7.59869910E+00  7.59869910E+00
 -1.51973982E+01  7.59869910E+00  7.59869910E+00 -1.51973982E+01  7.59869910E+00
  7.59869910E+00 -1.51973982E+01  7.59869910E+00  7.59869910E+00 -1.51973982E+01
  7.59869910E+00  7.59869910E+00 -1.51973982E+01  7.59869910E+00  7.59869910E+00
 -1.51973982E+01  7.59869910E+00  7.59869910E+00 -1.51973982E+01  7.59869910E+00
  7.59869910E+00 -1.51973982E+01  7.59869910E+00  7.59869910E+00 -1.51973982E+01
  7.59869910E+00  7.59869910E+00 -1.51973982E+01  7.59869910E+00  7.59869910E+00
 -1.51973982E+01  7.59869910E+00  7.59869910E+00 -1.51973982E+01  7.59869910E+00
  7.59869910E+00 -1.51973982E+01  7.59869910E+00  7.59869910E+00 -1.51973982E+01
  7.59869910E+00  7.59869910E+00 -1.51973982E+01  7.59869910E+00  7.59869910E+00
 -1.51973982E+01  7.59869910E+00  7.59869910E+00 -1.51973982E+01  7.59869910E+00
  7.59869910E+00 -1.51973982E+01  7.59869910E+00  7.59869910E+00 -1.51973982E+01
  7.59869910E+00  7.59869910E+00 -1.51973982E+01  7.59869910E+00  7.59869910E+00
 -1.51973982E+01  7.59869910E+00  7.59869910E+00 -1.51973982E+01  7.59869910E+00
  7.59869910E+00 -1.51973982E+01  7.59869910E+00  7.59869910E+00 -1.51973982E+01
  7.59869910E+00  7.59869910E+00 -1.51973982E+01  7.59869910E+00  7.59869910E+00
 -1.51973982E+01  7.59869910E+00  7.59869910E+00 -1.51973982E+01  7.59869910E+00
  7.59869910E+00 -1.51973982E+01  7.59869910E+00  7.59869910E+00 -1.51973982E+01
  7.59869910E+00  7.59869910E+00 -1.51973982E+01  7.59869910E+00  7.59869910E+00
 -1.51973982E+01  7.59869910E+00  7.59869910E+00 -1.51973982E+01  7.59869910E+00
  7.59869910E+00 -1.51973982E+01  7.59869910E+00  7.59869910E+00 -1.51973982E+01
  7.59869910E+00  7.59869910E+00 -1.51973982E+01  7.59869910E+00  7.59869910E+00
 -1.51973982E+01  7.59869910E+00  7.59869910E+00 -1.51973982E+01  7.59869910E+00
  7.59869910E+00 -1.51973982E+01  7.59869910E+00  7.59869910E+00 -1.51973982E+01
  7.59869910E+00  7.59869910E+00 -1.51973982E+01  7.59869910E+00  7.59869910E+00
 -1.51973982E+01  7.59869910E+00  7.59869910E+00 -1.51973982E+01  7.59869910E+00
  7.59869910E+00 -1.51973982E+01  7.59869910E+00  7.59869910E+00 -1.51973982E+01
  7.59869910E+00  7.59869910E+00 -1.51973982E+01  7.59869910E+00  7.59869910E+00
 -1.51973982E+01  7.59869910E+00  7.59869910E+00 -1.51973982E+01  7.59869910E+00
  7.59869910E+00 -1.51973982E+01  7.59869910E+00  7.59869910E+00 -1.51973982E+01
  7.59869910E+00  7.59869910E+00 -1.51973982E+01  7.59869910E+00  7.59869910E+00
 -1.51973982E+01  7.59869910E+00  7.59869910E+00 -1.51973982E+01  7.59869910E+00
  7.59869910E+00 -1.51973982E+01  7.59869910E+00  7.59869910E+00 -1.51973982E+01
  7.59869910E+00  7.59869910E+00 -1.51973982E+01  7.59869910E+00  7.59869910E+00
 -1.51973982E+01  7.59869910E+00  7.59869910E+00 -1.51973982E+01  7.59869910E+00
  7.59869910E+00 -1.51973982E+01  7.59869910E+00  7.59869910E+00 -1.51973982E+01
  7.59869910E+00  7.59869910E+00 -1.51973982E+01  7.59869910E+00  7.59869910E+00
 -1.51973982E+01  7.59869910E+00  7.59869910E+00 -1.51973982E+01  7.59869910E+00
  7.59869910E+00 -1.51973982E+01  7.59869910E+00  7.59869910E+00 -1.51973982E+01
  7.59869910E+00  7.59869910E+00 -1.51973982E+01  7.59869910E+00  7.59869910E+00
 -1.51973982E+01  7.59869910E+00  7.59869910E+00 -1.51973982E+01  7.59869910E+00
  7.59869910E+00 -1.51973982E+01  7.59869910E+00  7.59869910E+00 -1.51973982E+01
  7.59869910E+00  7.59869910E+00 -1.51973982E+01  7.59869910E+00  7.59869910E+00
 -1.51973982E+01  7.59869910E+00  7.59869910E+00 -1.51973982E+01  7.59869910E+00
  7.59869910E+00 -1.51973982E+01  7.59869910E+00  7.59869910E+00 -1.51973982E+01
  7.59869910E+00  7.59869910E+00 -1.51973982E+01  7.59869910E+00  7.59869910E+00
 -1.51973982E+01  7.59869910E+00  7.59869910E+00 -1.51973982E+01  7.59869910E+00
  7.59869910E+00 -1.51973982E+01  7.59869910E+00  7.59869910E+00 -1.51973982E+01
  7.59869910E+00  7.59869910E+00 -1.51973982E+01  7.59869910E+00  7.59869910E+00
 -1.51973982E+01  7.59869910E+00  7.59869910E+00 -1.51973982E+01  7.59869910E+00
  7.59869910E+00 -1.51973982E+01  7.59869910E+00  7.59869910E+00 -1.51973982E+01
  7.59869910E+00  7.59869910E+00 -1.51973982E+01  7.59869910E+00  7.59869910E+00
 -1.51973982E+01  7.59869910E+00  7.59869910E+00 -1.51973982E+01  7.59869910E+00
  7.59869910E+00 -1.51973982E+01  7.59869910E+00  7.59869910E+00 -1.51973982E+01
  7.59869910E+00  7.59869910E+00 -1.51973982E+01  7.59869910E+00  7.59869910E+00
 -1.51973982E+01  7.59869910E+00  7.59869910E+00 -1.51973982E+01  7.59869910E+00
  7.59869910E+00 -1.51973982E+01  7.59869910E+00  7.59869910E+00 -1.51973982E+01
  7.59869910E+00  7.59869910E+00 -1.51973982E+01  7.59869910E+00  7.59869910E+00
 -1.51973982E+01  7.59869910E+00  7.59869910E+00 -1.51973982E+01  7.59869910E+00
  7.59869910E+00 -1.51973982E+01  7.59869910E+00  7.59869910E+00 -1.51973982E+01
  7.59869910E+00  7.59869910E+00 -1.51973982E+01  7.59869910E+00  7.59869910E+00
 -1.51973982E+01  7.59869910E+00  7.59869910E+00 -1.51973982E+01  7.59869910E+00
  7.59869910E+00 -1.51973982E+01  7.59869910E+00  7.59869910E+00 -1.51973982E+01
  7.59869910E+00  7.59869910E+00 -1.51973982E+01  7.59869910E+00  7.59869910E+00
 -1.51973982E+01  7.59869910E+00  7.59869910E+00 -1.51973982E+01  7.59869910E+00
  7.59869910E+00 -1.51973982E+01  7.59869910E+00  7.59869910E+00 -1.51973982E+01
  7.59869910E+00  7.59869910E+00 -1.51973982E+01  7.59869910E+00  7.59869910E+00
 -1.51973982E+01  7.59869910E+00  7.59869910E+00 -1.51973982E+01  7.59869910E+00
  7.59869910E+00 -1.51973982E+01  7.59869910E+00  7.59869910E+00 -1.51973982E+01
  7.59869910E+00  7.59869910E+00 -1.51973982E+01  7.59869910E+00  7.59869910E+00
 -1.51973982E+01  7.59869910E+00  7.59869910E+00 -1.51973982E+01  7.59869910E+00
  7.59869910E+00 -1.51973982E+01  7.59869910E+00  7.59869910E+00 -1.51973982E+01
  7.59869910E+00  7.59869910E+00 -1.51973982E+01  7.59869910E+00  7.59869910E+00
 -1.51973982E+01  7.59869910E+00  7.59869910E+00 -1.51973982E+01  7.59869910E+00
  7.59869910E+00 -1.51973982E+01  7.59869910E+00  7.59869910E+00 -1.51973982E+01
  7.59869910E+00  7.59869910E+00 -1.51973982E+01  7.59869910E+00  7.59869910E+00
 -1.51973982E+01  7.59869910E+00  7.59869910E+00 -1.51973982E+01  7.59869910E+00
  7.59869910E+00 -1.51973982E+01  7.59869910E+00  7.59869910E+00 -1.51973982E+01
  7.59869910E+00  7.59869910E+00 -1.51973982E+01  7.59869910E+00  7.59869910E+00
 -1.51973982E+01  7.59869910E+00  7.59869910E+00 -1.51973982E+01  7.59869910E+00
  7.59869910E+00 -1.51973982E+01  7.59869910E+00  7.59869910E+00 -1.51973982E+01
  7.59869910E+00  7.59869910E+00 -1.51973982E+01  7.59869910E+00  7.59869910E+00
 -1.51973982E+01  7.59869910E+00  7.59869910E+00 -1.51973982E+01  7.59869910E+00
  7.59869910E+00 -1.51973982E+01  7.59869910E+00  7.59869910E+00 -1.51973982E+01
  7.59869910E+00  7.59869910E+00 -1.51973982E+01  7.59869910E+00  7.59869910E+00
 -1.51973982E+01  7.59869910E+00  7.59869910E+00 -1.51973982E+01  7.59869910E+00
  7.59869910E+00 -1.51973982E+01  7.59869910E+00  7.59869910E+00 -1.51973982E+01
  7.59869910E+00  7.59869910E+00 -1.51973982E+01  7.59869910E+00  7.59869910E+00
 -1.51973982E+01  7.59869910E+00  7.59869910E+00 -1.51973982E+01  7.59869910E+00
  7.59869910E+00 -1.51973982E+01  7.59869910E+00  7.59869910E+00 -1.51973982E+01
  7.59869910E+00  7.59869910E+00 -1.51973982E+01  7.59869910E+00  7.59869910E+00
 -1.51973982E+01  7.59869910E+00  7.59869910E+00 -1.51973982E+01  7.59869910E+00
  7.59869910E+00 -1.51973982E+01  7.59869910E+00  7.59869910E+00 -1.51973982E+01
  7.59869910E+00  7.59869910E+00 -1.51973982E+01  7.59869910E+00  7.59869910E+00
 -1.51973982E+01  7.59869910E+00  7.59869910E+00 -1.51973982E+01  7.59869910E+00
  7.59869910E+00 -1.51973982E+01  7.59869910E+00  7.59869910E+00 -1.51973982E+01
  7.59869910E+00  7.59869910E+00 -1.51973982E+01  7.59869910E+00  7.59869910E+00
 -1.51973982E+01  7.59869910E+00  7.59869910E+00 -1.51973982E+01  7.59869910E+00
  7.59869910E+00 -1.51973982E+01  7.59869910E+00  7.59869910E+00 -1.51973982E+01
  7.59869910E+00  7.59869910E+00 -1.51973982E+01  7.59869910E+00  7.59869910E+00
 -1.51973982E+01  7.59869910E+00  7.59869910E+00 -1.51973982E+01  7.59869910E+00
  7.59869910E+00 -1.51973982E+01  7.59869910E+00  7.59869910E+00 -1.51973982E+01
  7.59869910E+00  7.59869910E+00 -1.51973982E+01  7.59869910E+00  7.59869910E+00
 -1.51973982E+01  7.59869910E+00  7.59869910E+00 -1.51973982E+01  7.59869910E+00
  7.59869910E+00 -1.51973982E+01  7.59869910E+00  7.59869910E+00 -1.51973982E+01
  7.59869910E+00  7.59869910E+00 -1.51973982E+01  7.59869910E+00  7.59869910E+00
 -1.51973982E+01  7.59869910E+00  7.59869910E+00 -1.51973982E+01  7.59869910E+00
  7.59869910E+00 -1.51973982E+01  7.59869910E+00  7.59869910E+00 -1.51973982E+01
  7.59869910E+00  7.59869910E+00 -1.51973982E+01  7.59869910E+00  7.59869910E+00
 -1.51973982E+01  7.59869910E+00  7.59869910E+00 -1.51973982E+01  7.59869910E+00
  7.59869910E+00 -1.51973982E+01  7.59869910E+00  7.59869910E+00 -1.51973982E+01
  7.59869910E+00  7.59869910E+00 -1.51973982E+01  7.59869910E+00  7.59869910E+00
 -1.51973982E+01  7.59869910E+00  7.59869910E+00 -1.51973982E+01  7.59869910E+00
  7.59869910E+00 -1.51973982E+01  7.59869910E+00  7.59869910E+00 -1.51973982E+01
  7.59869910E+00  7.59869910E+00 -1.51973982E+01  7.59869910E+00  7.59869910E+00
 -1.51973982E+01  7.59869910E+00  7.59869910E+00 -1.51973982E+01  7.59869910E+00
  7.59869910E+00 -1.51973982E+01  7.59869910E+00  7.59869910E+00 -1.51973982E+01
  7.59869910E+00  7.59869910E+00 -1.51973982E+01  7.59869910E+00  7.59869910E+00
 -1.51973982E+01  7.59869910E+00  7.59869910E+00 -1.51973982E+01  7.59869910E+00
  7.59869910E+00 -1.51973982E+01  7.59869910E+00  7.59869910E+00 -1.51973982E+01
  7.59869910E+00  7.59869910E+00 -1.51973982E+01  7.59869910E+00  7.59869910E+00
 -1.51973982E+01  7.59869910E+00  7.59869910E+00 -1.51973982E+01  7.59869910E+00
  7.59869910E+00 -1.51973982E+01  7.59869910E+00  7.59869910E+00 -1.51973982E+01
  7.59869910E+00  7.59869910E+00 -1.51973982E+01  7.59869910E+00  7.59869910E+00
 -1.51973982E+01  7.59869910E+00  7.59869910E+00 -1.51973982E+01  7.59869910E+00
  7.59869910E+00 -1.51973982E+01  7.59869910E+00  7.59869910E+00 -1.51973982E+01
  7.59869910E+00  7.59869910E+00 -1.51973982E+01  7.59869910E+00  7.59869910E+00
 -1.51973982E+01  7.59869910E+00  7.59869910E+00 -1.51973982E+01  7.59869910E+00
  7.59869910E+00 -1.51973982E+01  7.59869910E+00  7.59869910E+00 -1.51973982E+01
  7.59869910E+00  7.59869910E+00 -1.51973982E+01  7.59869910E+00  7.59869910E+00
 -1.51973982E+01  7.59869910E+00  7.59869910E+00 -1.51973982E+01  7.59869910E+00
  7.59869910E+00 -1.51973982E+01  7.59869910E+00  7.59869910E+00 -1.51973982E+01
  7.59869910E+00  7.59869910E+00 -1.51973982E+01  7.59869910E+00  7.59869910E+00
 -1.51973982E+01  7.59869910E+00  7.59869910E+00 -1.51973982E+01  7.59869910E+00
  7.59869910E+00 -1.51973982E+01  7.59869910E+00  7.59869910E+00 -1.51973982E+01
  7.59869910E+00  7.59869910E+00 -1.51973982E+01  7.59869910E+00  7.59869910E+00
 -1.51973982E+01  7.59869910E+00  7.59869910E+00 -1.51973982E+01  7.59869910E+00
  7.59869910E+00 -1.51973982E+01  7.59869910E+00  7.59869910E+00 -1.51973982E+01
  7.59869910E+00  7.59869910E+00 -1.51973982E+01  7.59869910E+00  7.59869910E+00
 -1.51973982E+01  7.59869910E+00  7.59869910E+00 -1.51973982E+01  7.59869910E+00
  7.59869910E+00 -1.51973982E+01  7.59869910E+00  7.59869910E+00 -1.51973982E+01
  7.59869910E+00  7.59869910E+00 -1.51973982E+01  7.59869910E+00  7.59869910E+00
 -1.51973982E+01  7.59869910E+00  7.59869910E+00 -1.51973982E+01  7.59869910E+00
  7.59869910E+00 -1.51973982E+01  7.59869910E+00  7.59869910E+00 -1.51973982E+01
  7.59869910E+00  7.59869910E+00 -1.51973982E+01  7.59869910E+00  7.59869910E+00
 -1.51973982E+01  7.59869910E+00  7.59869910E+00 -1.51973982E+01  7.59869910E+00
  7.59869910E+00 -1.51973982E+01  7.59869910E+00  7.59869910E+00 -1.51973982E+01
  7.59869910E+00  7.59869910E+00 -1.51973982E+01  7.59869910E+00  7.59869910E+00
 -1.51973982E+01  7.59869910E+00  7.59869910E+00 -1.51973982E+01  7.59869910E+00
  7.59869910E+00 -1.51973982E+01  7.59869910E+00  7.59869910E+00 -1.51973982E+01
  7.59869910E+00  7.59869910E+00 -1.51973982E+01  7.59869910E+00  7.59869910E+00
 -1.51973982E+01  7.59869910E+00  7.59869910E+00 -1.51973982E+01  7.59869910E+00
  7.59869910E+00 -1.51973982E+01  7.59869910E+00  7.59869910E+00 -1.51973982E+01
  7.59869910E+00  7.59869910E+00 -1.51973982E+01  7.59869910E+00  7.59869910E+00
 -1.51973982E+01  7.59869910E+00  7.59869910E+00 -1.51973982E+01  7.59869910E+00
  7.59869910E+00 -1.51973982E+01  7.59869910E+00  7.59869910E+00 -1.51973982E+01
  7.59869910E+00  7.59869910E+00 -1.51973982E+01  7.59869910E+00  7.59869910E+00
 -1.51973982E+01  7.59869910E+00  7.59869910E+00 -1.51973982E+01  7.59869910E+00
  7.59869910E+00 -1.51973982E+01  7.59869910E+00  7.59869910E+00 -1.51973982E+01
  7.59869910E+00  7.59869910E+00 -1.51973982E+01  7.59869910E+00  7.59869910E+00
 -1.51973982E+01  7.59869910E+00  7.59869910E+00 -1.51973982E+01  7.59869910E+00
  7.59869910E+00 -1.51973982E+01  7.59869910E+00  7.59869910E+00 -1.51973982E+01
  7.59869910E+00  7.59869910E+00 -1.51973982E+01  7.59869910E+00  7.59869910E+00
 -1.51973982E+01  7.59869910E+00  7.59869910E+00 -1.51973982E+01  7.59869910E+00
  7.59869910E+00 -1.51973982E+01  7.59869910E+00  7.59869910E+00 -1.51973982E+01
  7.59869910E+00  7.59869910E+00 -1.51973982E+01  7.59869910E+00  7.59869910E+00
 -1.51973982E+01  7.59869910E+00  7.59869910E+00 -1.51973982E+01  7.59869910E+00
  7.59869910E+00 -1.51973982E+01  7.59869910E+00  7.59869910E+00 -1.51973982E+01
  7.59869910E+00  7.59869910E+00 -1.51973982E+01  7.59869910E+00  7.59869910E+00
 -1.51973982E+01  7.59869910E+00  7.59869910E+00 -1.51973982E+01  7.59869910E+00
  7.59869910E+00 -1.51973982E+01  7.59869910E+00  7.59869910E+00 -1.51973982E+01
  7.59869910E+00  7.59869910E+00 -1.51973982E+01  7.59869910E+00  7.59869910E+00
 -1.51973982E+01  7.59869910E+00  7.59869910E+00 -1.51973982E+01  7.59869910E+00
  7.59869910E+00 -1.51973982E+01  7.59869910E+00  7.59869910E+00 -1.51973982E+01
  7.59869910E+00  7.59869910E+00 -1.51973982E+01  7.59869910E+00  7.59869910E+00
 -1.51973982E+01  7.59869910E+00  7.59869910E+00 -1.51973982E+01  7.59869910E+00
  7.59869910E+00 -1.51973982E+01  7.59869910E+00  7.59869910E+00 -1.51973982E+01
  7.59869910E+00  7.59869910E+00 -1.51973982E+01  7.59869910E+00  7.59869910E+00
 -1.51973982E+01  7.59869910E+00  7.59869910E+00 -1.51973982E+01  7.59869910E+00
  7.59869910E+00 -1.51973982E+01  7.59869910E+00  7.59869910E+00 -1.51973982E+01
  7.59869910E+00  7.59869910E+00 -1.51973982E+01  7.59869910E+00  7.59869910E+00
 -1.51973982E+01  7.59869910E+00  7.59869910E+00 -1.51973982E+01  7.59869910E+00
  7.59869910E+00 -1.51973982E+01  7.59869910E+00  7.59869910E+00 -1.51973982E+01
  7.59869910E+00  7.59869910E+00 -1.51973982E+01  7.59869910E+00  7.59869910E+00
 -1.51973982E+01  7.59869910E+00  7.59869910E+00 -1.51973982E+01  7.59869910E+00
  7.59869910E+00 -1.51973982E+01  7.59869910E+00  7.59869910E+00 -1.51973982E+01
  7.59869910E+00  7.59869910E+00 -1.51973982E+01  7.59869910E+00  7.59869910E+00
 -1.51973982E+01  7.59869910E+00  7.59869910E+00 -1.51973982E+01  7.59869910E+00
  7.59869910E+00 -1.51973982E+01  7.59869910E+00  7.59869910E+00 -1.51973982E+01
  7.59869910E+00  7.59869910E+00 -1.51973982E+01  7.59869910E+00  7.59869910E+00
 -1.51973982E+01  7.59869910E+00  7.59869910E+00 -1.51973982E+01  7.59869910E+00
  7.59869910E+00 -1.51973982E+01  7.59869910E+00  7.59869910E+00 -1.51973982E+01
  7.59869910E+00  7.59869910E+00 -1.51973982E+01  7.59869910E+00  7.59869910E+00
 -1.51973982E+01  7.59869910E+00  7.59869910E+00 -1.51973982E+01  7.59869910E+00
  7.59869910E+00 -1.51973982E+01  7.59869910E+00  7.59869910E+00 -1.51973982E+01
  7.59869910E+00  7.59869910E+00 -1.51973982E+01  7.59869910E+00  7.59869910E+00
 -1.51973982E+01  7.59869910E+00  7.59869910E+00 -1.51973982E+01  7.59869910E+00
  7.59869910E+00 -1.51973982E+01  7.59869910E+00  7.59869910E+00 -1.51973982E+01
  7.59869910E+00  7.59869910E+00 -1.51973982E+01  7.59869910E+00  7.59869910E+00
 -1.51973982E+01  7.59869910E+00  7.59869910E+00 -1.51973982E+01  7.59869910E+00
  7.59869910E+00 -1.51973982E+01  7.59869910E+00  7.59869910E+00 -1.51973982E+01
  7.59869910E+00  7.59869910E+00 -1.51973982E+01  7.59869910E+00  7.59869910E+00
 -1.51973982E+01  7.59869910E+00  7.59869910E+00 -1.51973982E+01  7.59869910E+00
  7.59869910E+00 -1.51973982E+01  7.59869910E+00  7.59869910E+00 -1.51973982E+01
  7.59869910E+00  7.59869910E+00 -1.51973982E+01  7.59869910E+00  7.59869910E+00
 -1.51973982E+01  7.59869910E+00  7.59869910E+00 -1.51973982E+01  7.59869910E+00
  7.59869910E+00 -1.51973982E+01  7.59869910E+00  7.59869910E+00 -1.51973982E+01
  7.59869910E+00  7.59869910E+00 -1.51973982E+01  7.59869910E+00  7.59869910E+00
 -1.51973982E+01  7.59869910E+00  7.59869910E+00 -1.51973982E+01  7.59869910E+00
  7.59869910E+00 -1.51973982E+01  7.59869910E+00  7.59869910E+00 -1.51973982E+01
  7.59869910E+00  7.59869910E+00 -1.51973982E+01  7.59869910E+00  7.59869910E+00
 -1.51973982E+01  7.59869910E+00  7.59869910E+00 -1.51973982E+01  7.59869910E+00
  7.59869910E+00 -1.51973982E+01  7.59869910E+00  7.59869910E+00 -1.51973982E+01
  7.59869910E+00  7.59869910E+00 -1.51973982E+01  7.59869910E+00  7.59869910E+00
 -1.51973982E+01  7.59869910E+00  7.59869910E+00 -1.51973982E+01  7.59869910E+00
  7.59869910E+00 -1.51973982E+01  7.59869910E+00  7.59869910E+00 -1.51973982E+01
  7.59869910E+00  7.59869910E+00 -1.51973982E+01  7.59869910E+00  7.59869910E+00
 -1.51973982E+01  7.59869910E+00  7.59869910E+00 -1.51973982E+01  7.59869910E+00
  7.59869910E+00 -1.51973982E+01  7.59869910E+00  7.59869910E+00 -1.51973982E+01
  7.59869910E+00  7.59869910E+00 -1.51973982E+01  7.59869910E+00  7.59869910E+00
 -1.51973982E+01  7.59869910E+00  7.59869910E+00 -1.51973982E+01  7.59869910E+00
  7.59869910E+00 -1.51973982E+01  7.59869910E+00  7.59869910E+00 -1.51973982E+01
  7.59869910E+00  7.59869910E+00 -1.51973982E+01  7.59869910E+00  7.59869910E+00
 -1.51973982E+01  7.59869910E+00  7.59869910E+00 -1.51973982E+01  7.59869910E+00
  7.59869910E+00 -1.51973982E+01  7.59869910E+00  7.59869910E+00 -1.51973982E+01
  7.59869910E+00  7.59869910E+00 -1.51973982E+01  7.59869910E+00  7.59869910E+00
 -1.51973982E+01  7.59869910E+00  7.59869910E+00 -1.51973982E+01  7.59869910E+00
  7.59869910E+00 -1.51973982E+01  7.59869910E+00  7.59869910E+00 -1.51973982E+01
  7.59869910E+00  7.59869910E+00 -1.51973982E+01  7.59869910E+00  7.59869910E+00
 -1.51973982E+01  7.59869910E+00  7.59869910E+00 -1.51973982E+01  7.59869910E+00
  7.59869910E+00 -1.51973982E+01  7.59869910E+00  7.59869910E+00 -1.51973982E+01
  7.59869910E+00  7.59869910E+00 -1.51973982E+01  7.59869910E+00  7.59869910E+00
 -1.51973982E+01  7.59869910E+00  7.59869910E+00 -1.51973982E+01  7.59869910E+00
  7.59869910E+00 -1.51973982E+01  7.59869910E+00  7.59869910E+00 -1.51973982E+01
  7.59869910E+00  7.59869910E+00 -1.51973982E+01  7.59869910E+00  7.59869910E+00
 -1.51973982E+01  7.59869910E+00  7.59869910E+00 -1.51973982E+01  7.59869910E+00
  7.59869910E+00 -1.51973982E+01  7.59869910E+00  7.59869910E+00 -1.51973982E+01
  7.59869910E+00  7.59869910E+00 -1.51973982E+01  7.59869910E+00  7.59869910E+00
 -1.51973982E+01  7.59869910E+00  7.59869910E+00 -1.51973982E+01  7.59869910E+00
  7.59869910E+00 -1.51973982E+01  7.59869910E+00  7.59869910E+00 -1.51973982E+01
  7.59869910E+00  7.59869910E+00 -1.51973982E+01  7.59869910E+00  7.59869910E+00
 -1.51973982E+01  7.59869910E+00  7.59869910E+00 -1.51973982E+01  7.59869910E+00
  7.59869910E+00 -1.51973982E+01  7.59869910E+00  7.59869910E+00 -1.51973982E+01
  7.59869910E+00  7.59869910E+00 -1.51973982E+01  7.59869910E+00  7.59869910E+00
 -1.51973982E+01  7.59869910E+00  7.59869910E+00 -1.51973982E+01  7.59869910E+00
  7.59869910E+00 -1.51973982E+01  7.59869910E+00  7.59869910E+00 -1.51973982E+01
  7.59869910E+00  7.59869910E+00 -1.51973982E+01  7.59869910E+00  7.59869910E+00
 -1.51973982E+01  7.59869910E+00  7.59869910E+00 -1.51973982E+01  7.59869910E+00
  7.59869910E+00 -1.51973982E+01  7.59869910E+00  7.59869910E+00 -1.51973982E+01
  7.59869910E+00  7.59869910E+00 -1.51973982E+01  7.59869910E+00  7.59869910E+00
 -1.51973982E+01  7.59869910E+00  7.59869910E+00 -1.51973982E+01  7.59869910E+00
  7.59869910E+00 -1.51973982E+01  7.59869910E+00  7.59869910E+00 -1.51973982E+01
  7.59869910E+00  7.59869910E+00 -1.51973982E+01  7.59869910E+00  7.59869910E+00
 -1.51973982E+01  7.59869910E+00  7.59869910E+00 -1.51973982E+01  7.59869910E+00
  7.59869910E+00 -1.51973982E+01  7.59869910E+00  7.59869910E+00 -1.51973982E+01
  7.59869910E+00  7.59869910E+00 -1.51973982E+01  7.59869910E+00  7.59869910E+00
 -1.51973982E+01  7.59869910E+00  7.59869910E+00 -1.51973982E+01  7.59869910E+00
  7.59869910E+00 -1.51973982E+01  7.59869910E+00  7.59869910E+00 -1.51973982E+01
  7.59869910E+00  7.59869910E+00 -1.51973982E+01  7.59869910E+00  7.59869910E+00
 -1.51973982E+01  7.59869910E+00  7.59869910E+00 -1.51973982E+01  7.59869910E+00
  7.59869910E+00 -1.51973982E+01  7.59869910E+00  7.59869910E+00 -1.51973982E+01
  7.59869910E+00  7.59869910E+00 -1.51973982E+01  7.59869910E+00  7.59869910E+00
 -1.51973982E+01  7.59869910E+00  7.59869910E+00 -1.51973982E+01  7.59869910E+00
  7.59869910E+00 -1.51973982E+01  7.59869910E+00  7.59869910E+00 -1.51973982E+01
  7.59869910E+00  7.59869910E+00 -1.51973982E+01  7.59869910E+00  7.59869910E+00
 -1.51973982E+01  7.59869910E+00  7.59869910E+00 -1.51973982E+01  7.59869910E+00
  7.59869910E+00 -1.51973982E+01  7.59869910E+00  7.59869910E+00 -1.51973982E+01
  7.59869910E+00  7.59869910E+00 -1.51973982E+01  7.59869910E+00  7.59869910E+00
 -1.51973982E+01  7.59869910E+00  7.59869910E+00 -1.51973982E+01  7.59869910E+00
  7.59869910E+00 -1.51973982E+01  7.59869910E+00  7.59869910E+00 -1.51973982E+01
  7.59869910E+00  7.59869910E+00 -1.51973982E+01  7.59869910E+00  7.59869910E+00
 -1.51973982E+01  7.59869910E+00  7.59869910E+00 -1.51973982E+01  7.59869910E+00
  7.59869910E+00 -1.51973982E+01  7.59869910E+00  7.59869910E+00 -1.51973982E+01
  7.59869910E+00  7.59869910E+00 -1.51973982E+01  7.59869910E+00  7.59869910E+00
 -1.51973982E+01  7.59869910E+00  7.59869910E+00 -1.51973982E+01  7.59869910E+00
  7.59869910E+00 -1.51973982E+01  7.59869910E+00  7.59869910E+00 -1.51973982E+01
  7.59869910E+00  7.59869910E+00 -1.51973982E+01  7.59869910E+00  7.59869910E+00
 -1.51973982E+01  7.59869910E+00  7.59869910E+00 -1.51973982E+01  7.59869910E+00
  7.59869910E+00 -1.51973982E+01  7.59869910E+00  7.59869910E+00 -1.51973982E+01
  7.59869910E+00  7.59869910E+00 -1.51973982E+01  7.59869910E+00  7.59869910E+00
 -1.51973982E+01  7.59869910E+00  7.59869910E+00 -1.51973982E+01  7.59869910E+00
  7.59869910E+00 -1.51973982E+01  7.59869910E+00  7.59869910E+00 -1.51973982E+01
  7.59869910E+00  7.59869910E+00 -1.51973982E+01  7.59869910E+00  7.59869910E+00
 -1.51973982E+01  7.59869910E+00  7.59869910E+00 -1.51973982E+01  7.59869910E+00
  7.59869910E+00 -1.51973982E+01  7.59869910E+00  7.59869910E+00 -1.51973982E+01
  7.59869910E+00  7.59869910E+00 -1.51973982E+01  7.59869910E+00  7.59869910E+00
 -1.51973982E+01  7.59869910E+00  7.59869910E+00 -1.51973982E+01  7.59869910E+00
  7.59869910E+00 -1.51973982E+01  7.59869910E+00  7.59869910E+00 -1.51973982E+01
  7.59869910E+00  7.59869910E+00 -1.51973982E+01  7.59869910E+00  7.59869910E+00
 -1.51973982E+01  7.59869910E+00  7.59869910E+00 -1.51973982E+01  7.59869910E+00
  7.59869910E+00 -1.51973982E+01  7.59869910E+00  7.59869910E+00 -1.51973982E+01
  7.59869910E+00  7.59869910E+00 -1.51973982E+01  7.59869910E+00  7.59869910E+00
 -1.51973982E+01  7.59869910E+00  7.59869910E+00 -1.51973982E+01  7.59869910E+00
  7.59869910E+00 -1.51973982E+01  7.59869910E+00  7.59869910E+00 -1.51973982E+01
  7.59869910E+00  7.59869910E+00 -1.51973982E+01  7.59869910E+00  7.59869910E+00
 -1.51973982E+01  7.59869910E+00  7.59869910E+00 -1.51973982E+01  7.59869910E+00
  7.59869910E+00 -1.51973982E+01  7.59869910E+00  7.59869910E+00 -1.51973982E+01
  7.59869910E+00  7.59869910E+00 -1.51973982E+01  7.59869910E+00  7.59869910E+00
 -1.51973982E+01  7.59869910E+00  7.59869910E+00 -1.51973982E+01  7.59869910E+00
  7.59869910E+00 -1.51973982E+01  7.59869910E+00  7.59869910E+00 -1.51973982E+01
  7.59869910E+00  7.59869910E+00 -1.51973982E+01  7.59869910E+00  7.59869910E+00
 -1.51973982E+01  7.59869910E+00  7.59869910E+00 -1.51973982E+01  7.59869910E+00
  7.59869910E+00 -1.51973982E+01  7.59869910E+00  7.59869910E+00 -1.51973982E+01
  7.59869910E+00  7.59869910E+00 -1.51973982E+01  7.59869910E+00  7.59869910E+00
 -1.51973982E+01  7.59869910E+00  7.59869910E+00 -1.51973982E+01  7.59869910E+00
  7.59869910E+00 -1.51973982E+01  7.59869910E+00  7.59869910E+00 -1.51973982E+01
  7.59869910E+00  7.59869910E+00 -1.51973982E+01  7.59869910E+00  7.59869910E+00
 -1.51973982E+01  7.59869910E+00  7.59869910E+00 -1.51973982E+01  7.59869910E+00
  7.59869910E+00 -1.51973982E+01  7.59869910E+00  7.59869910E+00 -1.51973982E+01
  7.59869910E+00  7.59869910E+00 -1.51973982E+01  7.59869910E+00  7.59869910E+00
 -1.51973982E+01  7.59869910E+00  7.59869910E+00 -1.51973982E+01  7.59869910E+00
  7.59869910E+00 -1.51973982E+01  7.59869910E+00  7.59869910E+00 -1.51973982E+01
  7.59869910E+00  7.59869910E+00 -1.51973982E+01  7.59869910E+00  7.59869910E+00
 -1.51973982E+01  7.59869910E+00  7.59869910E+00 -1.51973982E+01  7.59869910E+00
  7.59869910E+00 -1.51973982E+01  7.59869910E+00  7.59869910E+00 -1.51973982E+01
  7.59869910E+00  7.59869910E+00 -1.51973982E+01  7.59869910E+00  7.59869910E+00
 -1.51973982E+01  7.59869910E+00  7.59869910E+00 -1.51973982E+01  7.59869910E+00
  7.59869910E+00 -1.51973982E+01  7.59869910E+00  7.59869910E+00 -1.51973982E+01
  7.59869910E+00  7.59869910E+00 -1.51973982E+01  7.59869910E+00  7.59869910E+00
 -1.51973982E+01  7.59869910E+00  7.59869910E+00 -1.51973982E+01  7.59869910E+00
  7.59869910E+00 -1.51973982E+01  7.59869910E+00  7.59869910E+00 -1.51973982E+01
  7.59869910E+00  7.59869910E+00 -1.51973982E+01  7.59869910E+00  7.59869910E+00
 -1.51973982E+01  7.59869910E+00  7.59869910E+00 -1.51973982E+01  7.59869910E+00
  7.59869910E+00 -1.51973982E+01  7.59869910E+00  7.59869910E+00 -1.51973982E+01
  7.59869910E+00  7.59869910E+00 -1.51973982E+01  7.59869910E+00  7.59869910E+00
 -1.51973982E+01  7.59869910E+00  7.59869910E+00 -1.51973982E+01  7.59869910E+00
  7.59869910E+00 -1.51973982E+01  7.59869910E+00  7.59869910E+00 -1.51973982E+01
  7.59869910E+00  7.59869910E+00 -1.51973982E+01  7.59869910E+00  7.59869910E+00
 -1.51973982E+01  7.59869910E+00  7.59869910E+00 -1.51973982E+01  7.59869910E+00
  7.59869910E+00 -1.51973982E+01  7.59869910E+00  7.59869910E+00 -1.51973982E+01
  7.59869910E+00  7.59869910E+00 -1.51973982E+01  7.59869910E+00  7.59869910E+00
 -1.51973982E+01  7.59869910E+00  7.59869910E+00 -1.51973982E+01  7.59869910E+00
  7.59869910E+00 -1.51973982E+01  7.59869910E+00  7.59869910E+00 -1.51973982E+01
  7.59869910E+00  7.59869910E+00 -1.51973982E+01  7.59869910E+00  7.59869910E+00
 -1.51973982E+01  7.59869910E+00  7.59869910E+00 -1.51973982E+01  7.59869910E+00
  7.59869910E+00 -1.51973982E+01  7.59869910E+00  7.59869910E+00 -1.51973982E+01
  7.59869910E+00  7.59869910E+00 -1.51973982E+01  7.59869910E+00  7.59869910E+00
 -1.51973982E+01  7.59869910E+00  7.59869910E+00 -1.51973982E+01  7.59869910E+00
  7.59869910E+00 -1.51973982E+01  7.59869910E+00  7.59869910E+00 -1.51973982E+01
  7.59869910E+00  7.59869910E+00 -1.51973982E+01  7.59869910E+00  7.59869910E+00
 -1.51973982E+01  7.59869910E+00  7.59869910E+00 -1.51973982E+01  7.59869910E+00
  7.59869910E+00 -1.51973982E+01  7.59869910E+00  7.59869910E+00 -1.51973982E+01
  7.59869910E+00  7.59869910E+00 -1.51973982E+01  7.59869910E+00  7.59869910E+00
 -1.51973982E+01  7.59869910E+00  7.59869910E+00 -1.51973982E+01  7.59869910E+00
  7.59869910E+00 -1.51973982E+01  7.59869910E+00  7.59869910E+00 -1.51973982E+01
  7.59869910E+00  7.59869910E+00 -1.51973982E+01  7.59869910E+00  7.59869910E+00
 -1.51973982E+01  7.59869910E+00  7.59869910E+00 -1.51973982E+01  7.59869910E+00
  7.59869910E+00 -1.51973982E+01  7.59869910E+00  7.59869910E+00 -1.51973982E+01
  7.59869910E+00  7.59869910E+00 -1.51973982E+01  7.59869910E+00  7.59869910E+00
 -1.51973982E+01  7.59869910E+00  7.59869910E+00 -1.51973982E+01  7.59869910E+00
  7.59869910E+00 -1.51973982E+01  7.59869910E+00  7.59869910E+00 -1.51973982E+01
  7.59869910E+00  7.59869910E+00 -1.51973982E+01  7.59869910E+00  7.59869910E+00
 -1.51973982E+01  7.59869910E+00  7.59869910E+00 -1.51973982E+01  7.59869910E+00
  7.59869910E+00 -1.51973982E+01  7.59869910E+00  7.59869910E+00 -1.51973982E+01
  7.59869910E+00  7.59869910E+00 -1.51973982E+01  7.59869910E+00  7.59869910E+00
 -1.51973982E+01  7.59869910E+00  7.59869910E+00 -1.51973982E+01  7.59869910E+00
  7.59869910E+00 -1.51973982E+01  7.59869910E+00  7.59869910E+00 -1.51973982E+01
  7.59869910E+00  7.59869910E+00 -1.51973982E+01  7.59869910E+00  7.59869910E+00
 -1.51973982E+01  7.59869910E+00  7.59869910E+00 -1.51973982E+01  7.59869910E+00
  7.59869910E+00 -1.51973982E+01  7.59869910E+00  7.59869910E+00 -1.51973982E+01
  7.59869910E+00  7.59869910E+00 -1.51973982E+01  7.59869910E+00  7.59869910E+00
 -1.51973982E+01  7.59869910E+00  7.59869910E+00 -1.51973982E+01  7.59869910E+00
  7.59869910E+00 -1.51973982E+01  7.59869910E+00  7.59869910E+00 -1.51973982E+01
  7.59869910E+00  7.59869910E+00 -1.51973982E+01  7.59869910E+00  7.59869910E+00
 -1.51973982E+01  7.59869910E+00  7.59869910E+00 -1.51973982E+01  7.59869910E+00
  7.59869910E+00 -1.51973982E+01  7.59869910E+00  7.59869910E+00 -1.51973982E+01
  7.59869910E+00  7.59869910E+00 -1.51973982E+01  7.59869910E+00  7.59869910E+00
 -1.51973982E+01  7.59869910E+00  7.59869910E+00 -1.51973982E+01  7.59869910E+00
  7.59869910E+00 -1.51973982E+01  7.59869910E+00  7.59869910E+00 -1.51973982E+01
  7.59869910E+00  7.59869910E+00 -1.51973982E+01  7.59869910E+00  7.59869910E+00
 -1.51973982E+01  7.59869910E+00  7.59869910E+00 -1.51973982E+01  7.59869910E+00
  7.59869910E+00 -1.51973982E+01  7.59869910E+00  7.59869910E+00 -1.51973982E+01
  7.59869910E+00  7.59869910E+00 -1.51973982E+01  7.59869910E+00  7.59869910E+00
 -1.51973982E+01  7.59869910E+00  7.59869910E+00 -1.51973982E+01  7.59869910E+00
  7.59869910E+00 -1.51973982E+01  7.59869910E+00  7.59869910E+00 -1.51973982E+01
  7.59869910E+00  7.59869910E+00 -1.51973982E+01  7.59869910E+00  7.59869910E+00
 -1.51973982E+01  7.59869910E+00  7.59869910E+00 -1.51973982E+01  7.59869910E+00
  7.59869910E+00 -1.51973982E+01  7.59869910E+00  7.59869910E+00 -1.51973982E+01
  7.59869910E+00  7.59869910E+00 -1.51973982E+01  7.59869910E+00  7.59869910E+00
 -1.51973982E+01  7.59869910E+00  7.59869910E+00 -1.51973982E+01  7.59869910E+00
  7.59869910E+00 -1.51973982E+01  7.59869910E+00  7.59869910E+00 -1.51973982E+01
  7.59869910E+00  7.59869910E+00 -1.51973982E+01  7.59869910E+00  7.59869910E+00
 -1.51973982E+01  7.59869910E+00  7.59869910E+00 -1.51973982E+01  7.59869910E+00
  7.59869910E+00 -1.51973982E+01  7.59869910E+00  7.59869910E+00 -1.51973982E+01
  7.59869910E+00  7.59869910E+00 -1.51973982E+01  7.59869910E+00  7.59869910E+00
 -1.51973982E+01  7.59869910E+00  7.59869910E+00 -1.51973982E+01  7.59869910E+00
  7.59869910E+00 -1.51973982E+01  7.59869910E+00  7.59869910E+00 -1.51973982E+01
  7.59869910E+00  7.59869910E+00 -1.51973982E+01  7.59869910E+00  7.59869910E+00
 -1.51973982E+01  7.59869910E+00  7.59869910E+00 -1.51973982E+01  7.59869910E+00
  7.59869910E+00 -1.51973982E+01  7.59869910E+00  7.59869910E+00 -1.51973982E+01
  7.59869910E+00  7.59869910E+00 -1.51973982E+01  7.59869910E+00  7.59869910E+00
 -1.51973982E+01  7.59869910E+00  7.59869910E+00 -1.51973982E+01  7.59869910E+00
  7.59869910E+00 -1.51973982E+01  7.59869910E+00  7.59869910E+00 -1.51973982E+01
  7.59869910E+00  7.59869910E+00 -1.51973982E+01  7.59869910E+00  7.59869910E+00
 -1.51973982E+01  7.59869910E+00  7.59869910E+00 -1.51973982E+01  7.59869910E+00
  7.59869910E+00 -1.51973982E+01  7.59869910E+00  7.59869910E+00 -1.51973982E+01
  7.59869910E+00  7.59869910E+00 -1.51973982E+01  7.59869910E+00  7.59869910E+00
 -1.51973982E+01  7.59869910E+00  7.59869910E+00 -1.51973982E+01  7.59869910E+00
  7.59869910E+00 -1.51973982E+01  7.59869910E+00  7.59869910E+00 -1.51973982E+01
  7.59869910E+00  7.59869910E+00 -1.51973982E+01  7.59869910E+00  7.59869910E+00
 -1.51973982E+01  7.59869910E+00  7.59869910E+00 -1.51973982E+01  7.59869910E+00
  7.59869910E+00 -1.51973982E+01  7.59869910E+00  7.59869910E+00 -1.51973982E+01
  7.59869910E+00  7.59869910E+00 -1.51973982E+01  7.59869910E+00  7.59869910E+00
 -1.51973982E+01  7.59869910E+00  7.59869910E+00 -1.51973982E+01  7.59869910E+00
  7.59869910E+00 -1.51973982E+01  7.59869910E+00  7.59869910E+00 -1.51973982E+01
  7.59869910E+00  7.59869910E+00 -1.51973982E+01  7.59869910E+00  7.59869910E+00
 -1.51973982E+01  7.59869910E+00  7.59869910E+00 -1.51973982E+01  7.59869910E+00
  7.59869910E+00 -1.51973982E+01  7.59869910E+00  7.59869910E+00 -1.51973982E+01
  7.59869910E+00  7.59869910E+00 -1.51973982E+01  7.59869910E+00  7.59869910E+00
 -1.51973982E+01  7.59869910E+00  7.59869910E+00 -1.51973982E+01  7.59869910E+00
  7.59869910E+00 -1.51973982E+01  7.59869910E+00  7.59869910E+00 -1.51973982E+01
  7.59869910E+00  7.59869910E+00 -1.51973982E+01  7.59869910E+00  7.59869910E+00
 -1.51973982E+01  7.59869910E+00  7.59869910E+00 -1.51973982E+01  7.59869910E+00
  7.59869910E+00 -1.51973982E+01  7.59869910E+00  7.59869910E+00 -1.51973982E+01
  7.59869910E+00  7.59869910E+00 -1.51973982E+01  7.59869910E+00  7.59869910E+00
 -1.51973982E+01  7.59869910E+00  7.59869910E+00 -1.51973982E+01  7.59869910E+00
  7.59869910E+00 -1.51973982E+01  7.59869910E+00  7.59869910E+00 -1.51973982E+01
  7.59869910E+00  7.59869910E+00 -1.51973982E+01  7.59869910E+00  7.59869910E+00
 -1.51973982E+01  7.59869910E+00  7.59869910E+00 -1.51973982E+01  7.59869910E+00
  7.59869910E+00 -1.51973982E+01  7.59869910E+00  7.59869910E+00 -1.51973982E+01
  7.59869910E+00  7.59869910E+00 -1.51973982E+01  7.59869910E+00  7.59869910E+00
 -1.51973982E+01  7.59869910E+00  7.59869910E+00 -1.51973982E+01  7.59869910E+00
  7.59869910E+00 -1.51973982E+01  7.59869910E+00  7.59869910E+00 -1.51973982E+01
  7.59869910E+00  7.59869910E+00 -1.51973982E+01  7.59869910E+00  7.59869910E+00
 -1.51973982E+01  7.59869910E+00  7.59869910E+00 -1.51973982E+01  7.59869910E+00
  7.59869910E+00 -1.51973982E+01  7.59869910E+00  7.59869910E+00 -1.51973982E+01
  7.59869910E+00  7.59869910E+00 -1.51973982E+01  7.59869910E+00  7.59869910E+00
 -1.51973982E+01  7.59869910E+00  7.59869910E+00 -1.51973982E+01  7.59869910E+00
  7.59869910E+00 -1.51973982E+01  7.59869910E+00  7.59869910E+00 -1.51973982E+01
  7.59869910E+00  7.59869910E+00 -1.51973982E+01  7.59869910E+00  7.59869910E+00
 -1.51973982E+01  7.59869910E+00  7.59869910E+00 -1.51973982E+01  7.59869910E+00
  7.59869910E+00 -1.51973982E+01  7.59869910E+00  7.59869910E+00 -1.51973982E+01
  7.59869910E+00  7.59869910E+00 -1.51973982E+01  7.59869910E+00  7.59869910E+00
 -1.51973982E+01  7.59869910E+00  7.59869910E+00 -1.51973982E+01  7.59869910E+00
  7.59869910E+00 -1.51973982E+01  7.59869910E+00  7.59869910E+00 -1.51973982E+01
  7.59869910E+00  7.59869910E+00 -1.51973982E+01  7.59869910E+00  7.59869910E+00
 -1.51973982E+01  7.59869910E+00  7.59869910E+00 -1.51973982E+01  7.59869910E+00
  7.59869910E+00 -1.51973982E+01  7.59869910E+00  7.59869910E+00 -1.51973982E+01
  7.59869910E+00  7.59869910E+00 -1.51973982E+01  7.59869910E+00  7.59869910E+00
 -1.51973982E+01  7.59869910E+00  7.59869910E+00 -1.51973982E+01  7.59869910E+00
  7.59869910E+00 -1.51973982E+01  7.59869910E+00  7.59869910E+00 -1.51973982E+01
  7.59869910E+00  7.59869910E+00 -1.51973982E+01  7.59869910E+00  7.59869910E+00
 -1.51973982E+01  7.59869910E+00  7.59869910E+00 -1.51973982E+01  7.59869910E+00
  7.59869910E+00 -1.51973982E+01  7.59869910E+00  7.59869910E+00 -1.51973982E+01
  7.59869910E+00  7.59869910E+00 -1.51973982E+01  7.59869910E+00  7.59869910E+00
 -1.51973982E+01  7.59869910E+00  7.59869910E+00 -1.51973982E+01  7.59869910E+00
  7.59869910E+00 -1.51973982E+01  7.59869910E+00  7.59869910E+00 -1.51973982E+01
  7.59869910E+00  7.59869910E+00 -1.51973982E+01  7.59869910E+00  7.59869910E+00
 -1.51973982E+01  7.59869910E+00  7.59869910E+00 -1.51973982E+01  7.59869910E+00
  7.59869910E+00 -1.51973982E+01  7.59869910E+00  7.59869910E+00 -1.51973982E+01
  7.59869910E+00  7.59869910E+00 -1.51973982E+01  7.59869910E+00  7.59869910E+00
 -1.51973982E+01  7.59869910E+00  7.59869910E+00 -1.51973982E+01  7.59869910E+00
  7.59869910E+00 -1.51973982E+01  7.59869910E+00  7.59869910E+00 -1.51973982E+01
  7.59869910E+00  7.59869910E+00 -1.51973982E+01  7.59869910E+00  7.59869910E+00
 -1.51973982E+01  7.59869910E+00  7.59869910E+00 -1.51973982E+01  7.59869910E+00
  7.59869910E+00 -1.51973982E+01  7.59869910E+00  7.59869910E+00 -1.51973982E+01
  7.59869910E+00  7.59869910E+00 -1.51973982E+01  7.59869910E+00  7.59869910E+00
 -1.51973982E+01  7.59869910E+00  7.59869910E+00 -1.51973982E+01  7.59869910E+00
  7.59869910E+00 -1.51973982E+01  7.59869910E+00  7.59869910E+00 -1.51973982E+01
  7.59869910E+00  7.59869910E+00 -1.51973982E+01  7.59869910E+00  7.59869910E+00
 -1.51973982E+01  7.59869910E+00  7.59869910E+00 -1.51973982E+01  7.59869910E+00
  7.59869910E+00 -1.51973982E+01  7.59869910E+00  7.59869910E+00 -1.51973982E+01
  7.59869910E+00  7.59869910E+00 -1.51973982E+01  7.59869910E+00  7.59869910E+00
 -1.51973982E+01  7.59869910E+00  7.59869910E+00 -1.51973982E+01  7.59869910E+00
  7.59869910E+00 -1.51973982E+01  7.59869910E+00  7.59869910E+00 -1.51973982E+01
  7.59869910E+00  7.59869910E+00 -1.51973982E+01  7.59869910E+00  7.59869910E+00
 -1.51973982E+01  7.59869910E+00  7.59869910E+00 -1.51973982E+01  7.59869910E+00
  7.59869910E+00 -1.51973982E+01  7.59869910E+00  7.59869910E+00 -1.51973982E+01
  7.59869910E+00  7.59869910E+00 -1.51973982E+01  7.59869910E+00  7.59869910E+00
 -1.51973982E+01  7.59869910E+00  7.59869910E+00 -1.51973982E+01  7.59869910E+00
  7.59869910E+00 -1.51973982E+01  7.59869910E+00  7.59869910E+00 -1.51973982E+01
  7.59869910E+00  7.59869910E+00 -1.51973982E+01  7.59869910E+00  7.59869910E+00
 -1.51973982E+01  7.59869910E+00  7.59869910E+00 -1.51973982E+01  7.59869910E+00
  7.59869910E+00 -1.51973982E+01  7.59869910E+00  7.59869910E+00 -1.51973982E+01
  7.59869910E+00  7.59869910E+00 -1.51973982E+01  7.59869910E+00  7.59869910E+00
 -1.51973982E+01  7.59869910E+00  7.59869910E+00 -1.51973982E+01  7.59869910E+00
  7.59869910E+00 -1.51973982E+01  7.59869910E+00  7.59869910E+00 -1.51973982E+01
  7.59869910E+00  7.59869910E+00 -1.51973982E+01  7.59869910E+00  7.59869910E+00
 -1.51973982E+01  7.59869910E+00  7.59869910E+00 -1.51973982E+01  7.59869910E+00
  7.59869910E+00 -1.51973982E+01  7.59869910E+00  7.59869910E+00 -1.51973982E+01
  7.59869910E+00  7.59869910E+00 -1.51973982E+01  7.59869910E+00  7.59869910E+00
 -1.51973982E+01  7.59869910E+00  7.59869910E+00 -1.51973982E+01  7.59869910E+00
  7.59869910E+00 -1.51973982E+01  7.59869910E+00  7.59869910E+00 -1.51973982E+01
  7.59869910E+00  7.59869910E+00 -1.51973982E+01  7.59869910E+00  7.59869910E+00
 -1.51973982E+01  7.59869910E+00  7.59869910E+00 -1.51973982E+01  7.59869910E+00
  7.59869910E+00 -1.51973982E+01  7.59869910E+00  7.59869910E+00 -1.51973982E+01
  7.59869910E+00  7.59869910E+00 -1.51973982E+01  7.59869910E+00  7.59869910E+00
 -1.51973982E+01  7.59869910E+00  7.59869910E+00 -1.51973982E+01  7.59869910E+00
  7.59869910E+00 -1.51973982E+01  7.59869910E+00  7.59869910E+00 -1.51973982E+01
  7.59869910E+00  7.59869910E+00 -1.51973982E+01  7.59869910E+00  7.59869910E+00
 -1.51973982E+01  7.59869910E+00  7.59869910E+00 -1.51973982E+01  7.59869910E+00
  7.59869910E+00 -1.51973982E+01  7.59869910E+00  7.59869910E+00 -1.51973982E+01
  7.59869910E+00  7.59869910E+00 -1.51973982E+01  7.59869910E+00  7.59869910E+00
 -1.51973982E+01  7.59869910E+00  7.59869910E+00 -1.51973982E+01  7.59869910E+00
  7.59869910E+00 -1.51973982E+01  7.59869910E+00  7.59869910E+00 -1.51973982E+01
  7.59869910E+00  7.59869910E+00 -1.51973982E+01  7.59869910E+00  7.59869910E+00
 -1.51973982E+01  7.59869910E+00  7.59869910E+00 -1.51973982E+01  7.59869910E+00
  7.59869910E+00 -1.51973982E+01  7.59869910E+00  7.59869910E+00 -1.51973982E+01
  7.59869910E+00  7.59869910E+00 -1.51973982E+01  7.59869910E+00  7.59869910E+00
 -1.51973982E+01  7.59869910E+00  7.59869910E+00 -1.51973982E+01  7.59869910E+00
  7.59869910E+00 -1.51973982E+01  7.59869910E+00  7.59869910E+00 -1.51973982E+01
  7.59869910E+00  7.59869910E+00 -1.51973982E+01  7.59869910E+00  7.59869910E+00
 -1.51973982E+01  7.59869910E+00  7.59869910E+00 -1.51973982E+01  7.59869910E+00
  7.59869910E+00 -1.51973982E+01  7.59869910E+00  7.59869910E+00 -1.51973982E+01
  7.59869910E+00  7.59869910E+00 -1.51973982E+01  7.59869910E+00  7.59869910E+00
 -1.51973982E+01  7.59869910E+00  7.59869910E+00 -1.51973982E+01  7.59869910E+00
  7.59869910E+00 -1.51973982E+01  7.59869910E+00  7.59869910E+00 -1.51973982E+01
  7.59869910E+00  7.59869910E+00 -1.51973982E+01  7.59869910E+00  7.59869910E+00
 -1.51973982E+01  7.59869910E+00  7.59869910E+00 -1.51973982E+01  7.59869910E+00
  7.59869910E+00 -1.51973982E+01  7.59869910E+00  7.59869910E+00 -1.51973982E+01
  7.59869910E+00  7.59869910E+00 -1.51973982E+01  7.59869910E+00  7.59869910E+00
 -1.51973982E+01  7.59869910E+00  7.59869910E+00 -1.51973982E+01  7.59869910E+00
  7.59869910E+00 -1.51973982E+01  7.59869910E+00  7.59869910E+00 -1.51973982E+01
  7.59869910E+00  7.59869910E+00 -1.51973982E+01  7.59869910E+00  7.59869910E+00
 -1.51973982E+01  7.59869910E+00  7.59869910E+00 -1.51973982E+01  7.59869910E+00
  7.59869910E+00 -1.51973982E+01  7.59869910E+00  7.59869910E+00 -1.51973982E+01
  7.59869910E+00  7.59869910E+00 -1.51973982E+01  7.59869910E+00  7.59869910E+00
 -1.51973982E+01  7.59869910E+00  7.59869910E+00 -1.51973982E+01  7.59869910E+00
  7.59869910E+00 -1.51973982E+01  7.59869910E+00  7.59869910E+00 -1.51973982E+01
  7.59869910E+00  7.59869910E+00 -1.51973982E+01  7.59869910E+00  7.59869910E+00
 -1.51973982E+01  7.59869910E+00  7.59869910E+00 -1.51973982E+01  7.59869910E+00
  7.59869910E+00 -1.51973982E+01  7.59869910E+00  7.59869910E+00 -1.51973982E+01
  7.59869910E+00  7.59869910E+00 -1.51973982E+01  7.59869910E+00  7.59869910E+00
 -1.51973982E+01  7.59869910E+00  7.59869910E+00 -1.51973982E+01  7.59869910E+00
  7.59869910E+00 -1.51973982E+01  7.59869910E+00  7.59869910E+00 -1.51973982E+01
  7.59869910E+00  7.59869910E+00 -1.51973982E+01  7.59869910E+00  7.59869910E+00
 -1.51973982E+01  7.59869910E+00  7.59869910E+00 -1.51973982E+01  7.59869910E+00
  7.59869910E+00 -1.51973982E+01  7.59869910E+00  7.59869910E+00 -1.51973982E+01
  7.59869910E+00  7.59869910E+00 -1.51973982E+01  7.59869910E+00  7.59869910E+00
 -1.51973982E+01  7.59869910E+00  7.59869910E+00 -1.51973982E+01  7.59869910E+00
  7.59869910E+00 -1.51973982E+01  7.59869910E+00  7.59869910E+00 -1.51973982E+01
  7.59869910E+00  7.59869910E+00 -1.51973982E+01  7.59869910E+00  7.59869910E+00
 -1.51973982E+01  7.59869910E+00  7.59869910E+00 -1.51973982E+01  7.59869910E+00
  7.59869910E+00 -1.51973982E+01  7.59869910E+00  7.59869910E+00 -1.51973982E+01
  7.59869910E+00  7.59869910E+00 -1.51973982E+01  7.59869910E+00  7.59869910E+00
 -1.51973982E+01  7.59869910E+00  7.59869910E+00 -1.51973982E+01  7.59869910E+00
  7.59869910E+00 -1.51973982E+01  7.59869910E+00  7.59869910E+00 -1.51973982E+01
  7.59869910E+00  7.59869910E+00 -1.51973982E+01  7.59869910E+00  7.59869910E+00
 -1.51973982E+01  7.59869910E+00  7.59869910E+00 -1.51973982E+01  7.59869910E+00
  7.59869910E+00 -1.51973982E+01  7.59869910E+00  7.59869910E+00 -1.51973982E+01
  7.59869910E+00  7.59869910E+00 -1.51973982E+01  7.59869910E+00  7.59869910E+00
 -1.51973982E+01  7.59869910E+00  7.59869910E+00 -1.51973982E+01  7.59869910E+00
  7.59869910E+00 -1.51973982E+01  7.59869910E+00  7.59869910E+00 -1.51973982E+01
  7.59869910E+00  7.59869910E+00 -1.51973982E+01  7.59869910E+00  7.59869910E+00
 -1.51973982E+01  7.59869910E+00  7.59869910E+00 -1.51973982E+01  7.59869910E+00
  7.59869910E+00 -1.51973982E+01  7.59869910E+00  7.59869910E+00 -1.51973982E+01
  7.59869910E+00  7.59869910E+00 -1.51973982E+01  7.59869910E+00  7.59869910E+00
 -1.51973982E+01  7.59869910E+00  7.59869910E+00 -1.51973982E+01  7.59869910E+00
  7.59869910E+00 -1.51973982E+01  7.59869910E+00  7.59869910E+00 -1.51973982E+01
  7.59869910E+00  7.59869910E+00 -1.51973982E+01  7.59869910E+00  7.59869910E+00
 -1.51973982E+01  7.59869910E+00  7.59869910E+00 -1.51973982E+01  7.59869910E+00
  7.59869910E+00 -1.51973982E+01  7.59869910E+00  7.59869910E+00 -1.51973982E+01
  7.59869910E+00  7.59869910E+00 -1.51973982E+01  7.59869910E+00  7.59869910E+00
 -1.51973982E+01  7.59869910E+00  7.59869910E+00 -1.51973982E+01  7.59869910E+00
  7.59869910E+00 -1.51973982E+01  7.59869910E+00  7.59869910E+00 -1.51973982E+01
  7.59869910E+00  7.59869910E+00 -1.51973982E+01  7.59869910E+00  7.59869910E+00
 -1.51973982E+01  7.59869910E+00  7.59869910E+00 -1.51973982E+01  7.59869910E+00
  7.59869910E+00 -1.51973982E+01  7.59869910E+00  7.59869910E+00 -1.51973982E+01
  7.59869910E+00  7.59869910E+00 -1.51973982E+01  7.59869910E+00  7.59869910E+00
 -1.51973982E+01  7.59869910E+00  7.59869910E+00 -1.51973982E+01  7.59869910E+00
  7.59869910E+00 -1.51973982E+01  7.59869910E+00  7.59869910E+00 -1.51973982E+01
  7.59869910E+00  7.59869910E+00 -1.51973982E+01  7.59869910E+00  7.59869910E+00
 -1.51973982E+01  7.59869910E+00  7.59869910E+00 -1.51973982E+01  7.59869910E+00
  7.59869910E+00 -1.51973982E+01  7.59869910E+00  7.59869910E+00 -1.51973982E+01
  7.59869910E+00  7.59869910E+00 -1.51973982E+01  7.59869910E+00  7.59869910E+00
 -1.51973982E+01  7.59869910E+00  7.59869910E+00 -1.51973982E+01  7.59869910E+00
  7.59869910E+00 -1.51973982E+01  7.59869910E+00  7.59869910E+00 -1.51973982E+01
  7.59869910E+00  7.59869910E+00 -1.51973982E+01  7.59869910E+00  7.59869910E+00
 -1.51973982E+01  7.59869910E+00  7.59869910E+00 -1.51973982E+01  7.59869910E+00
  7.59869910E+00 -1.51973982E+01  7.59869910E+00  7.59869910E+00 -1.51973982E+01
  7.59869910E+00  7.59869910E+00 -1.51973982E+01  7.59869910E+00  7.59869910E+00
 -1.51973982E+01  7.59869910E+00  7.59869910E+00 -1.51973982E+01  7.59869910E+00
  7.59869910E+00 -1.51973982E+01  7.59869910E+00  7.59869910E+00 -1.51973982E+01
  7.59869910E+00  7.59869910E+00 -1.51973982E+01  7.59869910E+00  7.59869910E+00
 -1.51973982E+01  7.59869910E+00  7.59869910E+00 -1.51973982E+01  7.59869910E+00
  7.59869910E+00 -1.51973982E+01  7.59869910E+00  7.59869910E+00 -1.51973982E+01
  7.59869910E+00  7.59869910E+00 -1.51973982E+01  7.59869910E+00  7.59869910E+00
 -1.51973982E+01  7.59869910E+00  7.59869910E+00 -1.51973982E+01  7.59869910E+00
  7.59869910E+00 -1.51973982E+01  7.59869910E+00  7.59869910E+00 -1.51973982E+01
  7.59869910E+00  7.59869910E+00 -1.51973982E+01  7.59869910E+00  7.59869910E+00
 -1.51973982E+01  7.59869910E+00  7.59869910E+00 -1.51973982E+01  7.59869910E+00
  7.59869910E+00 -1.51973982E+01  7.59869910E+00  7.59869910E+00 -1.51973982E+01
  7.59869910E+00  7.59869910E+00 -1.51973982E+01  7.59869910E+00  7.59869910E+00
 -1.51973982E+01  7.59869910E+00  7.59869910E+00 -1.51973982E+01  7.59869910E+00
  7.59869910E+00 -1.51973982E+01  7.59869910E+00  7.59869910E+00 -1.51973982E+01
  7.59869910E+00  7.59869910E+00 -1.51973982E+01  7.59869910E+00  7.59869910E+00
 -1.51973982E+01  7.59869910E+00  7.59869910E+00 -1.51973982E+01  7.59869910E+00
  7.59869910E+00 -1.51973982E+01  7.59869910E+00  7.59869910E+00 -1.51973982E+01
  7.59869910E+00  7.59869910E+00 -1.51973982E+01  7.59869910E+00  7.59869910E+00
 -1.51973982E+01  7.59869910E+00  7.59869910E+00 -1.51973982E+01  7.59869910E+00
  7.59869910E+00 -1.51973982E+01  7.59869910E+00  7.59869910E+00 -1.51973982E+01
  7.59869910E+00  7.59869910E+00 -1.51973982E+01  7.59869910E+00  7.59869910E+00
 -1.51973982E+01  7.59869910E+00  7.59869910E+00 -1.51973982E+01  7.59869910E+00
  7.59869910E+00 -1.51973982E+01  7.59869910E+00  7.59869910E+00 -1.51973982E+01
  7.59869910E+00  7.59869910E+00 -1.51973982E+01  7.59869910E+00  7.59869910E+00
 -1.51973982E+01  7.59869910E+00  7.59869910E+00 -1.51973982E+01  7.59869910E+00
  7.59869910E+00 -1.51973982E+01  7.59869910E+00  7.59869910E+00 -1.51973982E+01
  7.59869910E+00  7.59869910E+00 -1.51973982E+01  7.59869910E+00  7.59869910E+00
 -1.51973982E+01  7.59869910E+00  7.59869910E+00 -1.51973982E+01  7.59869910E+00
  7.59869910E+00 -1.51973982E+01  7.59869910E+00  7.59869910E+00 -1.51973982E+01
  7.59869910E+00  7.59869910E+00 -1.51973982E+01  7.59869910E+00  7.59869910E+00
 -1.51973982E+01  7.59869910E+00  7.59869910E+00 -1.51973982E+01  7.59869910E+00
  7.59869910E+00 -1.51973982E+01  7.59869910E+00  7.59869910E+00 -1.51973982E+01
  7.59869910E+00  7.59869910E+00 -1.51973982E+01  7.59869910E+00  7.59869910E+00
 -1.51973982E+01  7.59869910E+00  7.59869910E+00 -1.51973982E+01  7.59869910E+00
  7.59869910E+00 -1.51973982E+01  7.59869910E+00  7.59869910E+00 -1.51973982E+01
  7.59869910E+00  7.59869910E+00 -1.51973982E+01  7.59869910E+00  7.59869910E+00
 -1.51973982E+01  7.59869910E+00  7.59869910E+00 -1.51973982E+01  7.59869910E+00
  7.59869910E+00 -1.51973982E+01  7.59869910E+00  7.59869910E+00 -1.51973982E+01
  7.59869910E+00  7.59869910E+00 -1.51973982E+01  7.59869910E+00  7.59869910E+00
 -1.51973982E+01  7.59869910E+00  7.59869910E+00 -1.51973982E+01  7.59869910E+00
  7.59869910E+00 -1.51973982E+01  7.59869910E+00  7.59869910E+00 -1.51973982E+01
  7.59869910E+00  7.59869910E+00 -1.51973982E+01  7.59869910E+00  7.59869910E+00
 -1.51973982E+01  7.59869910E+00  7.59869910E+00 -1.51973982E+01  7.59869910E+00
  7.59869910E+00 -1.51973982E+01  7.59869910E+00  7.59869910E+00 -1.51973982E+01
  7.59869910E+00  7.59869910E+00 -1.51973982E+01  7.59869910E+00  7.59869910E+00
 -1.51973982E+01  7.59869910E+00  7.59869910E+00 -1.51973982E+01  7.59869910E+00
  7.59869910E+00 -1.51973982E+01  7.59869910E+00  7.59869910E+00 -1.51973982E+01
  7.59869910E+00  7.59869910E+00 -1.51973982E+01  7.59869910E+00  7.59869910E+00
 -1.51973982E+01  7.59869910E+00  7.59869910E+00 -1.51973982E+01  7.59869910E+00
  7.59869910E+00 -1.51973982E+01  7.59869910E+00  7.59869910E+00 -1.51973982E+01
  7.59869910E+00  7.59869910E+00 -1.51973982E+01  7.59869910E+00  7.59869910E+00
 -1.51973982E+01  7.59869910E+00  7.59869910E+00 -1.51973982E+01  7.59869910E+00
  7.59869910E+00 -1.51973982E+01  7.59869910E+00  7.59869910E+00 -1.51973982E+01
  7.59869910E+00  7.59869910E+00 -1.51973982E+01  7.59869910E+00  7.59869910E+00
 -1.51973982E+01  7.59869910E+00  7.59869910E+00 -1.51973982E+01  7.59869910E+00
  7.59869910E+00 -1.51973982E+01  7.59869910E+00  7.59869910E+00 -1.51973982E+01
  7.59869910E+00  7.59869910E+00 -1.51973982E+01  7.59869910E+00  7.59869910E+00
 -1.51973982E+01  7.59869910E+00  7.59869910E+00 -1.51973982E+01  7.59869910E+00
  7.59869910E+00 -1.51973982E+01  7.59869910E+00  7.59869910E+00 -1.51973982E+01
  7.59869910E+00  7.59869910E+00 -1.51973982E+01  7.59869910E+00  7.59869910E+00
 -1.51973982E+01  7.59869910E+00  7.59869910E+00 -1.51973982E+01  7.59869910E+00
  7.59869910E+00 -1.51973982E+01  7.59869910E+00  7.59869910E+00 -1.51973982E+01
  7.59869910E+00  7.59869910E+00 -1.51973982E+01  7.59869910E+00  7.59869910E+00
 -1.51973982E+01  7.59869910E+00  7.59869910E+00 -1.51973982E+01  7.59869910E+00
  7.59869910E+00 -1.51973982E+01  7.59869910E+00  7.59869910E+00 -1.51973982E+01
  7.59869910E+00  7.59869910E+00 -1.51973982E+01  7.59869910E+00  7.59869910E+00
 -1.51973982E+01  7.59869910E+00  7.59869910E+00 -1.51973982E+01  7.59869910E+00
  7.59869910E+00 -1.51973982E+01  7.59869910E+00  7.59869910E+00 -1.51973982E+01
  7.59869910E+00  7.59869910E+00 -1.51973982E+01  7.59869910E+00  7.59869910E+00
 -1.51973982E+01  7.59869910E+00  7.59869910E+00 -1.51973982E+01  7.59869910E+00
  7.59869910E+00 -1.51973982E+01  7.59869910E+00  7.59869910E+00 -1.51973982E+01
  7.59869910E+00  7.59869910E+00 -1.51973982E+01  7.59869910E+00  7.59869910E+00
 -1.51973982E+01  7.59869910E+00  7.59869910E+00 -1.51973982E+01  7.59869910E+00
  7.59869910E+00 -1.51973982E+01  7.59869910E+00  7.59869910E+00 -1.51973982E+01
  7.59869910E+00  7.59869910E+00 -1.51973982E+01  7.59869910E+00  7.59869910E+00
 -1.51973982E+01  7.59869910E+00  7.59869910E+00 -1.51973982E+01  7.59869910E+00
  7.59869910E+00 -1.51973982E+01  7.59869910E+00  7.59869910E+00 -1.51973982E+01
  7.59869910E+00  7.59869910E+00 -1.51973982E+01  7.59869910E+00  7.59869910E+00
 -1.51973982E+01  7.59869910E+00  7.59869910E+00 -1.51973982E+01  7.59869910E+00
  7.59869910E+00 -1.51973982E+01  7.59869910E+00  7.59869910E+00 -1.51973982E+01
  7.59869910E+00  7.59869910E+00 -1.51973982E+01  7.59869910E+00  7.59869910E+00
 -1.51973982E+01  7.59869910E+00  7.59869910E+00 -1.51973982E+01  7.59869910E+00
  7.59869910E+00 -1.51973982E+01  7.59869910E+00  7.59869910E+00 -1.51973982E+01
  7.59869910E+00  7.59869910E+00 -1.51973982E+01  7.59869910E+00  7.59869910E+00
 -1.51973982E+01  7.59869910E+00  7.59869910E+00 -1.51973982E+01  7.59869910E+00
  7.59869910E+00 -1.51973982E+01  7.59869910E+00  7.59869910E+00 -1.51973982E+01
  7.59869910E+00  7.59869910E+00 -1.51973982E+01  7.59869910E+00  7.59869910E+00
 -1.51973982E+01  7.59869910E+00  7.59869910E+00 -1.51973982E+01  7.59869910E+00
  7.59869910E+00 -1.51973982E+01  7.59869910E+00  7.59869910E+00 -1.51973982E+01
  7.59869910E+00  7.59869910E+00 -1.51973982E+01  7.59869910E+00  7.59869910E+00
 -1.51973982E+01  7.59869910E+00  7.59869910E+00 -1.51973982E+01  7.59869910E+00
  7.59869910E+00 -1.51973982E+01  7.59869910E+00  7.59869910E+00 -1.51973982E+01
  7.59869910E+00  7.59869910E+00 -1.51973982E+01  7.59869910E+00  7.59869910E+00
 -1.51973982E+01  7.59869910E+00  7.59869910E+00 -1.51973982E+01  7.59869910E+00
  7.59869910E+00 -1.51973982E+01  7.59869910E+00  7.59869910E+00 -1.51973982E+01
  7.59869910E+00  7.59869910E+00 -1.51973982E+01  7.59869910E+00  7.59869910E+00
 -1.51973982E+01  7.59869910E+00  7.59869910E+00 -1.51973982E+01  7.59869910E+00
  7.59869910E+00 -1.51973982E+01  7.59869910E+00  7.59869910E+00 -1.51973982E+01
  7.59869910E+00  7.59869910E+00 -1.51973982E+01  7.59869910E+00  7.59869910E+00
 -1.51973982E+01  7.59869910E+00  7.59869910E+00 -1.51973982E+01  7.59869910E+00
  7.59869910E+00 -1.51973982E+01  7.59869910E+00  7.59869910E+00 -1.51973982E+01
  7.59869910E+00  7.59869910E+00 -1.51973982E+01  7.59869910E+00  7.59869910E+00
 -1.51973982E+01  7.59869910E+00  7.59869910E+00 -1.51973982E+01  7.59869910E+00
  7.59869910E+00 -1.51973982E+01  7.59869910E+00  7.59869910E+00 -1.51973982E+01
  7.59869910E+00  7.59869910E+00 -1.51973982E+01  7.59869910E+00  7.59869910E+00
 -1.51973982E+01  7.59869910E+00  7.59869910E+00 -1.51973982E+01  7.59869910E+00
  7.59869910E+00 -1.51973982E+01  7.59869910E+00  7.59869910E+00 -1.51973982E+01
  7.59869910E+00  7.59869910E+00 -1.51973982E+01  7.59869910E+00  7.59869910E+00
 -1.51973982E+01  7.59869910E+00  7.59869910E+00 -1.51973982E+01  7.59869910E+00
  7.59869910E+00 -1.51973982E+01  7.59869910E+00  7.59869910E+00 -1.51973982E+01
  7.59869910E+00  7.59869910E+00 -1.51973982E+01  7.59869910E+00  7.59869910E+00
 -1.51973982E+01  7.59869910E+00  7.59869910E+00 -1.51973982E+01  7.59869910E+00
  7.59869910E+00 -1.51973982E+01  7.59869910E+00  7.59869910E+00 -1.51973982E+01
  7.59869910E+00  7.59869910E+00 -1.51973982E+01  7.59869910E+00  7.59869910E+00
 -1.51973982E+01  7.59869910E+00  7.59869910E+00 -1.51973982E+01  7.59869910E+00
  7.59869910E+00 -1.51973982E+01  7.59869910E+00  7.59869910E+00 -1.51973982E+01
  7.59869910E+00  7.59869910E+00 -1.51973982E+01  7.59869910E+00  7.59869910E+00
 -1.51973982E+01  7.59869910E+00  7.59869910E+00 -1.51973982E+01  7.59869910E+00
  7.59869910E+00 -1.51973982E+01  7.59869910E+00  7.59869910E+00 -1.51973982E+01
  7.59869910E+00  7.59869910E+00 -1.51973982E+01  7.59869910E+00  7.59869910E+00
 -1.51973982E+01  7.59869910E+00  7.59869910E+00 -1.51973982E+01  7.59869910E+00
  7.59869910E+00 -1.51973982E+01  7.59869910E+00  7.59869910E+00 -1.51973982E+01
  7.59869910E+00  7.59869910E+00 -1.51973982E+01  7.59869910E+00  7.59869910E+00
 -1.51973982E+01  7.59869910E+00  7.59869910E+00 -1.51973982E+01  7.59869910E+00
  7.59869910E+00 -1.51973982E+01  7.59869910E+00  7.59869910E+00 -1.51973982E+01
  7.59869910E+00  7.59869910E+00 -1.51973982E+01  7.59869910E+00  7.59869910E+00
 -1.51973982E+01  7.59869910E+00  7.59869910E+00 -1.51973982E+01  7.59869910E+00
  7.59869910E+00 -1.51973982E+01  7.59869910E+00  7.59869910E+00 -1.51973982E+01
  7.59869910E+00  7.59869910E+00 -1.51973982E+01  7.59869910E+00  7.59869910E+00
 -1.51973982E+01  7.59869910E+00  7.59869910E+00 -1.51973982E+01  7.59869910E+00
  7.59869910E+00 -1.51973982E+01  7.59869910E+00  7.59869910E+00 -1.51973982E+01
  7.59869910E+00  7.59869910E+00 -1.51973982E+01  7.59869910E+00  7.59869910E+00
 -1.51973982E+01  7.59869910E+00  7.59869910E+00 -1.51973982E+01  7.59869910E+00
  7.59869910E+00 -1.51973982E+01  7.59869910E+00  7.59869910E+00 -1.51973982E+01
  7.59869910E+00  7.59869910E+00 -1.51973982E+01  7.59869910E+00  7.59869910E+00
 -1.51973982E+01  7.59869910E+00  7.59869910E+00 -1.51973982E+01  7.59869910E+00
  7.59869910E+00 -1.51973982E+01  7.59869910E+00  7.59869910E+00 -1.51973982E+01
  7.59869910E+00  7.59869910E+00 -1.51973982E+01  7.59869910E+00  7.59869910E+00
 -1.51973982E+01  7.59869910E+00  7.59869910E+00 -1.51973982E+01  7.59869910E+00
  7.59869910E+00 -1.51973982E+01  7.59869910E+00  7.59869910E+00 -1.51973982E+01
  7.59869910E+00  7.59869910E+00 -1.51973982E+01  7.59869910E+00  7.59869910E+00
 -1.51973982E+01  7.59869910E+00  7.59869910E+00 -1.51973982E+01  7.59869910E+00
  7.59869910E+00 -1.51973982E+01  7.59869910E+00  7.59869910E+00 -1.51973982E+01
  7.59869910E+00  7.59869910E+00 -1.51973982E+01  7.59869910E+00  7.59869910E+00
 -1.51973982E+01  7.59869910E+00  7.59869910E+00 -1.51973982E+01  7.59869910E+00
  7.59869910E+00 -1.51973982E+01  7.59869910E+00  7.59869910E+00 -1.51973982E+01
  7.59869910E+00  7.59869910E+00 -1.51973982E+01  7.59869910E+00  7.59869910E+00
 -1.51973982E+01  7.59869910E+00  7.59869910E+00 -1.51973982E+01  7.59869910E+00
  7.59869910E+00 -1.51973982E+01  7.59869910E+00  7.59869910E+00 -1.51973982E+01
  7.59869910E+00  7.59869910E+00 -1.51973982E+01  7.59869910E+00  7.59869910E+00
 -1.51973982E+01  7.59869910E+00  7.59869910E+00 -1.51973982E+01  7.59869910E+00
  7.59869910E+00 -1.51973982E+01  7.59869910E+00  7.59869910E+00 -1.51973982E+01
  7.59869910E+00  7.59869910E+00 -1.51973982E+01  7.59869910E+00  7.59869910E+00
 -1.51973982E+01  7.59869910E+00  7.59869910E+00 -1.51973982E+01  7.59869910E+00
  7.59869910E+00 -1.51973982E+01  7.59869910E+00  7.59869910E+00 -1.51973982E+01
  7.59869910E+00  7.59869910E+00 -1.51973982E+01  7.59869910E+00  7.59869910E+00
 -1.51973982E+01  7.59869910E+00  7.59869910E+00 -1.51973982E+01  7.59869910E+00
  7.59869910E+00 -1.51973982E+01  7.59869910E+00  7.59869910E+00 -1.51973982E+01
  7.59869910E+00  7.59869910E+00 -1.51973982E+01  7.59869910E+00  7.59869910E+00
 -1.51973982E+01  7.59869910E+00  7.59869910E+00 -1.51973982E+01  7.59869910E+00
  7.59869910E+00 -1.51973982E+01  7.59869910E+00  7.59869910E+00 -1.51973982E+01
  7.59869910E+00  7.59869910E+00 -1.51973982E+01  7.59869910E+00  7.59869910E+00
 -1.51973982E+01  7.59869910E+00  7.59869910E+00 -1.51973982E+01  7.59869910E+00
  7.59869910E+00 -1.51973982E+01  7.59869910E+00  7.59869910E+00 -1.51973982E+01
  7.59869910E+00  7.59869910E+00 -1.51973982E+01  7.59869910E+00  7.59869910E+00
 -1.51973982E+01  7.59869910E+00  7.59869910E+00 -1.51973982E+01  7.59869910E+00
  7.59869910E+00 -1.51973982E+01  7.59869910E+00  7.59869910E+00 -1.51973982E+01
  7.59869910E+00  7.59869910E+00 -1.51973982E+01  7.59869910E+00  7.59869910E+00
 -1.51973982E+01  7.59869910E+00  7.59869910E+00 -1.51973982E+01  7.59869910E+00
  7.59869910E+00 -1.51973982E+01  7.59869910E+00  7.59869910E+00 -1.51973982E+01
  7.59869910E+00  7.59869910E+00 -1.51973982E+01  7.59869910E+00  7.59869910E+00
 -1.51973982E+01  7.59869910E+00  7.59869910E+00 -1.51973982E+01  7.59869910E+00
  7.59869910E+00 -1.51973982E+01  7.59869910E+00  7.59869910E+00 -1.51973982E+01
  7.59869910E+00  7.59869910E+00 -1.51973982E+01  7.59869910E+00  7.59869910E+00
 -1.51973982E+01  7.59869910E+00  7.59869910E+00 -1.51973982E+01  7.59869910E+00
  7.59869910E+00 -1.51973982E+01  7.59869910E+00  7.59869910E+00 -1.51973982E+01
  7.59869910E+00  7.59869910E+00 -1.51973982E+01  7.59869910E+00  7.59869910E+00
 -1.51973982E+01  7.59869910E+00  7.59869910E+00 -1.51973982E+01  7.59869910E+00
  7.59869910E+00 -1.51973982E+01  7.59869910E+00  7.59869910E+00 -1.51973982E+01
  7.59869910E+00  7.59869910E+00 -1.51973982E+01  7.59869910E+00  7.59869910E+00
 -1.51973982E+01  7.59869910E+00  7.59869910E+00 -1.51973982E+01  7.59869910E+00
  7.59869910E+00 -1.51973982E+01  7.59869910E+00  7.59869910E+00 -1.51973982E+01
  7.59869910E+00  7.59869910E+00 -1.51973982E+01  7.59869910E+00  7.59869910E+00
 -1.51973982E+01  7.59869910E+00  7.59869910E+00 -1.51973982E+01  7.59869910E+00
  7.59869910E+00 -1.51973982E+01  7.59869910E+00  7.59869910E+00 -1.51973982E+01
  7.59869910E+00  7.59869910E+00 -1.51973982E+01  7.59869910E+00  7.59869910E+00
 -1.51973982E+01  7.59869910E+00  7.59869910E+00 -1.51973982E+01  7.59869910E+00
  7.59869910E+00 -1.51973982E+01  7.59869910E+00  7.59869910E+00 -1.51973982E+01
  7.59869910E+00  7.59869910E+00 -1.51973982E+01  7.59869910E+00  7.59869910E+00
 -1.51973982E+01  7.59869910E+00  7.59869910E+00 -1.51973982E+01  7.59869910E+00
  7.59869910E+00 -1.51973982E+01  7.59869910E+00  7.59869910E+00 -1.51973982E+01
  7.59869910E+00  7.59869910E+00 -1.51973982E+01  7.59869910E+00  7.59869910E+00
 -1.51973982E+01  7.59869910E+00  7.59869910E+00 -1.51973982E+01  7.59869910E+00
  7.59869910E+00 -1.51973982E+01  7.59869910E+00  7.59869910E+00 -1.51973982E+01
  7.59869910E+00  7.59869910E+00 -1.51973982E+01  7.59869910E+00  7.59869910E+00
 -1.51973982E+01  7.59869910E+00  7.59869910E+00 -1.51973982E+01  7.59869910E+00
  7.59869910E+00 -1.51973982E+01  7.59869910E+00  7.59869910E+00 -1.51973982E+01
  7.59869910E+00  7.59869910E+00 -1.51973982E+01  7.59869910E+00  7.59869910E+00
 -1.51973982E+01  7.59869910E+00  7.59869910E+00 -1.51973982E+01  7.59869910E+00
  7.59869910E+00 -1.51973982E+01  7.59869910E+00  7.59869910E+00 -1.51973982E+01
  7.59869910E+00  7.59869910E+00 -1.51973982E+01  7.59869910E+00  7.59869910E+00
 -1.51973982E+01  7.59869910E+00  7.59869910E+00 -1.51973982E+01  7.59869910E+00
  7.59869910E+00 -1.51973982E+01  7.59869910E+00  7.59869910E+00 -1.51973982E+01
  7.59869910E+00  7.59869910E+00 -1.51973982E+01  7.59869910E+00  7.59869910E+00
 -1.51973982E+01  7.59869910E+00  7.59869910E+00 -1.51973982E+01  7.59869910E+00
  7.59869910E+00 -1.51973982E+01  7.59869910E+00  7.59869910E+00 -1.51973982E+01
  7.59869910E+00  7.59869910E+00 -1.51973982E+01  7.59869910E+00  7.59869910E+00
 -1.51973982E+01  7.59869910E+00  7.59869910E+00 -1.51973982E+01  7.59869910E+00
  7.59869910E+00 -1.51973982E+01  7.59869910E+00  7.59869910E+00 -1.51973982E+01
  7.59869910E+00  7.59869910E+00 -1.51973982E+01  7.59869910E+00  7.59869910E+00
 -1.51973982E+01  7.59869910E+00  7.59869910E+00 -1.51973982E+01  7.59869910E+00
  7.59869910E+00 -1.51973982E+01  7.59869910E+00  7.59869910E+00 -1.51973982E+01
  7.59869910E+00  7.59869910E+00 -1.51973982E+01  7.59869910E+00  7.59869910E+00
 -1.51973982E+01  7.59869910E+00  7.59869910E+00 -1.51973982E+01  7.59869910E+00
  7.59869910E+00 -1.51973982E+01  7.59869910E+00  7.59869910E+00 -1.51973982E+01
  7.59869910E+00  7.59869910E+00 -1.51973982E+01  7.59869910E+00  7.59869910E+00
 -1.51973982E+01  7.59869910E+00  7.59869910E+00 -1.51973982E+01  7.59869910E+00
  7.59869910E+00 -1.51973982E+01  7.59869910E+00  7.59869910E+00 -1.51973982E+01
  7.59869910E+00  7.59869910E+00 -1.51973982E+01  7.59869910E+00  7.59869910E+00
 -1.51973982E+01  7.59869910E+00  7.59869910E+00 -1.51973982E+01  7.59869910E+00
  7.59869910E+00 -1.51973982E+01  7.59869910E+00  7.59869910E+00 -1.51973982E+01
  7.59869910E+00  7.59869910E+00 -1.51973982E+01  7.59869910E+00  7.59869910E+00
 -1.51973982E+01  7.59869910E+00  7.59869910E+00 -1.51973982E+01  7.59869910E+00
  7.59869910E+00 -1.51973982E+01  7.59869910E+00  7.59869910E+00 -1.51973982E+01
  7.59869910E+00  7.59869910E+00 -1.51973982E+01  7.59869910E+00  7.59869910E+00
 -1.51973982E+01  7.59869910E+00  7.59869910E+00 -1.51973982E+01  7.59869910E+00
  7.59869910E+00 -1.51973982E+01  7.59869910E+00  7.59869910E+00 -1.51973982E+01
  7.59869910E+00  7.59869910E+00 -1.51973982E+01  7.59869910E+00  7.59869910E+00
 -1.51973982E+01  7.59869910E+00  7.59869910E+00 -1.51973982E+01  7.59869910E+00
  7.59869910E+00 -1.51973982E+01  7.59869910E+00  7.59869910E+00 -1.51973982E+01
  7.59869910E+00  7.59869910E+00 -1.51973982E+01  7.59869910E+00  7.59869910E+00
 -1.51973982E+01  7.59869910E+00  7.59869910E+00 -1.51973982E+01  7.59869910E+00
  7.59869910E+00 -1.51973982E+01  7.59869910E+00  7.59869910E+00 -1.51973982E+01
  7.59869910E+00  7.59869910E+00 -1.51973982E+01  7.59869910E+00  7.59869910E+00
 -1.51973982E+01  7.59869910E+00  7.59869910E+00 -1.51973982E+01  7.59869910E+00
  7.59869910E+00 -1.51973982E+01  7.59869910E+00  7.59869910E+00 -1.51973982E+01
  7.59869910E+00  7.59869910E+00 -1.51973982E+01  7.59869910E+00  7.59869910E+00
 -1.51973982E+01  7.59869910E+00  7.59869910E+00 -1.51973982E+01  7.59869910E+00
  7.59869910E+00 -1.51973982E+01  7.59869910E+00  7.59869910E+00 -1.51973982E+01
  7.59869910E+00  7.59869910E+00 -1.51973982E+01  7.59869910E+00  7.59869910E+00
 -1.51973982E+01  7.59869910E+00  7.59869910E+00 -1.51973982E+01  7.59869910E+00
  7.59869910E+00 -1.51973982E+01  7.59869910E+00  7.59869910E+00 -1.51973982E+01
  7.59869910E+00  7.59869910E+00 -1.51973982E+01  7.59869910E+00  7.59869910E+00
 -1.51973982E+01  7.59869910E+00  7.59869910E+00 -1.51973982E+01  7.59869910E+00
  7.59869910E+00 -1.51973982E+01  7.59869910E+00  7.59869910E+00 -1.51973982E+01
  7.59869910E+00  7.59869910E+00 -1.51973982E+01  7.59869910E+00  7.59869910E+00
 -1.51973982E+01  7.59869910E+00  7.59869910E+00 -1.51973982E+01  7.59869910E+00
  7.59869910E+00 -1.51973982E+01  7.59869910E+00  7.59869910E+00 -1.51973982E+01
  7.59869910E+00  7.59869910E+00 -1.51973982E+01  7.59869910E+00  7.59869910E+00
 -1.51973982E+01  7.59869910E+00  7.59869910E+00 -1.51973982E+01  7.59869910E+00
  7.59869910E+00 -1.51973982E+01  7.59869910E+00  7.59869910E+00 -1.51973982E+01
  7.59869910E+00  7.59869910E+00 -1.51973982E+01  7.59869910E+00  7.59869910E+00
 -1.51973982E+01  7.59869910E+00  7.59869910E+00 -1.51973982E+01  7.59869910E+00
  7.59869910E+00 -1.51973982E+01  7.59869910E+00  7.59869910E+00 -1.51973982E+01
  7.59869910E+00  7.59869910E+00 -1.51973982E+01  7.59869910E+00  7.59869910E+00
 -1.51973982E+01  7.59869910E+00  7.59869910E+00 -1.51973982E+01  7.59869910E+00
  7.59869910E+00 -1.51973982E+01  7.59869910E+00  7.59869910E+00 -1.51973982E+01
  7.59869910E+00  7.59869910E+00 -1.51973982E+01  7.59869910E+00  7.59869910E+00
 -1.51973982E+01  7.59869910E+00  7.59869910E+00 -1.51973982E+01  7.59869910E+00
  7.59869910E+00 -1.51973982E+01  7.59869910E+00  7.59869910E+00 -1.51973982E+01
  7.59869910E+00  7.59869910E+00 -1.51973982E+01  7.59869910E+00  7.59869910E+00
 -1.51973982E+01  7.59869910E+00  7.59869910E+00 -1.51973982E+01  7.59869910E+00
  7.59869910E+00 -1.51973982E+01  7.59869910E+00  7.59869910E+00 -1.51973982E+01
  7.59869910E+00  7.59869910E+00 -1.51973982E+01  7.59869910E+00  7.59869910E+00
 -1.51973982E+01  7.59869910E+00  7.59869910E+00 -1.51973982E+01  7.59869910E+00
  7.59869910E+00 -1.51973982E+01  7.59869910E+00  7.59869910E+00 -1.51973982E+01
  7.59869910E+00  7.59869910E+00 -1.51973982E+01  7.59869910E+00  7.59869910E+00
 -1.51973982E+01  7.59869910E+00  7.59869910E+00 -1.51973982E+01  7.59869910E+00
  7.59869910E+00 -1.51973982E+01  7.59869910E+00  7.59869910E+00 -1.51973982E+01
  7.59869910E+00  7.59869910E+00 -1.51973982E+01  7.59869910E+00  7.59869910E+00
 -1.51973982E+01  7.59869910E+00  7.59869910E+00 -1.51973982E+01  7.59869910E+00
  7.59869910E+00 -1.51973982E+01  7.59869910E+00  7.59869910E+00 -1.51973982E+01
  7.59869910E+00  7.59869910E+00 -1.51973982E+01  7.59869910E+00  7.59869910E+00
 -1.51973982E+01  7.59869910E+00  7.59869910E+00 -1.51973982E+01  7.59869910E+00
  7.59869910E+00 -1.51973982E+01  7.59869910E+00  7.59869910E+00 -1.51973982E+01
  7.59869910E+00  7.59869910E+00 -1.51973982E+01  7.59869910E+00  7.59869910E+00
 -1.51973982E+01  7.59869910E+00  7.59869910E+00 -1.51973982E+01  7.59869910E+00
  7.59869910E+00 -1.51973982E+01  7.59869910E+00  7.59869910E+00 -1.51973982E+01
  7.59869910E+00  7.59869910E+00 -1.51973982E+01  7.59869910E+00  7.59869910E+00
 -1.51973982E+01  7.59869910E+00  7.59869910E+00 -1.51973982E+01  7.59869910E+00
  7.59869910E+00 -1.51973982E+01  7.59869910E+00  7.59869910E+00 -1.51973982E+01
  7.59869910E+00  7.59869910E+00 -1.51973982E+01  7.59869910E+00  7.59869910E+00
 -1.51973982E+01  7.59869910E+00  7.59869910E+00 -1.51973982E+01  7.59869910E+00
  7.59869910E+00 -1.51973982E+01  7.59869910E+00  7.59869910E+00 -1.51973982E+01
  7.59869910E+00  7.59869910E+00 -1.51973982E+01  7.59869910E+00  7.59869910E+00
 -1.51973982E+01  7.59869910E+00  7.59869910E+00 -1.51973982E+01  7.59869910E+00
  7.59869910E+00 -1.51973982E+01  7.59869910E+00  7.59869910E+00 -1.51973982E+01
  7.59869910E+00  7.59869910E+00 -1.51973982E+01  7.59869910E+00  7.59869910E+00
 -1.51973982E+01  7.59869910E+00  7.59869910E+00 -1.51973982E+01  7.59869910E+00
  7.59869910E+00 -1.51973982E+01  7.59869910E+00  7.59869910E+00 -1.51973982E+01
  7.59869910E+00  7.59869910E+00 -1.51973982E+01  7.59869910E+00  7.59869910E+00
 -1.51973982E+01  7.59869910E+00  7.59869910E+00 -1.51973982E+01  7.59869910E+00
  7.59869910E+00 -1.51973982E+01  7.59869910E+00  7.59869910E+00 -1.51973982E+01
  7.59869910E+00  7.59869910E+00 -1.51973982E+01  7.59869910E+00  7.59869910E+00
 -1.51973982E+01  7.59869910E+00  7.59869910E+00 -1.51973982E+01  7.59869910E+00
  7.59869910E+00 -1.51973982E+01  7.59869910E+00  7.59869910E+00 -1.51973982E+01
  7.59869910E+00  7.59869910E+00 -1.51973982E+01  7.59869910E+00  7.59869910E+00
 -1.51973982E+01  7.59869910E+00  7.59869910E+00 -1.51973982E+01  7.59869910E+00
  7.59869910E+00 -1.51973982E+01  7.59869910E+00  7.59869910E+00 -1.51973982E+01
  7.59869910E+00  7.59869910E+00 -1.51973982E+01  7.59869910E+00  7.59869910E+00
 -1.51973982E+01  7.59869910E+00  7.59869910E+00 -1.51973982E+01  7.59869910E+00
  7.59869910E+00 -1.51973982E+01  7.59869910E+00  7.59869910E+00 -1.51973982E+01
  7.59869910E+00  7.59869910E+00 -1.51973982E+01  7.59869910E+00  7.59869910E+00
 -1.51973982E+01  7.59869910E+00  7.59869910E+00 -1.51973982E+01  7.59869910E+00
  7.59869910E+00 -1.51973982E+01  7.59869910E+00  7.59869910E+00 -1.51973982E+01
  7.59869910E+00  7.59869910E+00 -1.51973982E+01  7.59869910E+00  7.59869910E+00
 -1.51973982E+01  7.59869910E+00  7.59869910E+00 -1.51973982E+01  7.59869910E+00
  7.59869910E+00 -1.51973982E+01  7.59869910E+00  7.59869910E+00 -1.51973982E+01
  7.59869910E+00  7.59869910E+00 -1.51973982E+01  7.59869910E+00  7.59869910E+00
 -1.51973982E+01  7.59869910E+00  7.59869910E+00 -1.51973982E+01  7.59869910E+00
  7.59869910E+00 -1.51973982E+01  7.59869910E+00  7.59869910E+00 -1.51973982E+01
  7.59869910E+00  7.59869910E+00 -1.51973982E+01  7.59869910E+00  7.59869910E+00
 -1.51973982E+01  7.59869910E+00  7.59869910E+00 -1.51973982E+01  7.59869910E+00
  7.59869910E+00 -1.51973982E+01  7.59869910E+00  7.59869910E+00 -1.51973982E+01
  7.59869910E+00  7.59869910E+00 -1.51973982E+01  7.59869910E+00  7.59869910E+00
 -1.51973982E+01  7.59869910E+00  7.59869910E+00 -1.51973982E+01  7.59869910E+00
  7.59869910E+00 -1.51973982E+01  7.59869910E+00  7.59869910E+00 -1.51973982E+01
  7.59869910E+00  7.59869910E+00 -1.51973982E+01  7.59869910E+00  7.59869910E+00
 -1.51973982E+01  7.59869910E+00  7.59869910E+00 -1.51973982E+01  7.59869910E+00
  7.59869910E+00 -1.51973982E+01  7.59869910E+00  7.59869910E+00 -1.51973982E+01
  7.59869910E+00  7.59869910E+00 -1.51973982E+01  7.59869910E+00  7.59869910E+00
 -1.51973982E+01  7.59869910E+00  7.59869910E+00 -1.51973982E+01  7.59869910E+00
  7.59869910E+00 -1.51973982E+01  7.59869910E+00  7.59869910E+00 -1.51973982E+01
  7.59869910E+00  7.59869910E+00 -1.51973982E+01  7.59869910E+00  7.59869910E+00
 -1.51973982E+01  7.59869910E+00  7.59869910E+00 -1.51973982E+01  7.59869910E+00
  7.59869910E+00 -1.51973982E+01  7.59869910E+00  7.59869910E+00 -1.51973982E+01
  7.59869910E+00  7.59869910E+00 -1.51973982E+01  7.59869910E+00  7.59869910E+00
 -1.51973982E+01  7.59869910E+00  7.59869910E+00 -1.51973982E+01  7.59869910E+00
  7.59869910E+00 -1.51973982E+01  7.59869910E+00  7.59869910E+00 -1.51973982E+01
  7.59869910E+00  7.59869910E+00 -1.51973982E+01  7.59869910E+00  7.59869910E+00
 -1.51973982E+01  7.59869910E+00  7.59869910E+00 -1.51973982E+01  7.59869910E+00
  7.59869910E+00 -1.51973982E+01  7.59869910E+00  7.59869910E+00 -1.51973982E+01
  7.59869910E+00  7.59869910E+00 -1.51973982E+01  7.59869910E+00  7.59869910E+00
 -1.51973982E+01  7.59869910E+00  7.59869910E+00 -1.51973982E+01  7.59869910E+00
  7.59869910E+00 -1.51973982E+01  7.59869910E+00  7.59869910E+00 -1.51973982E+01
  7.59869910E+00  7.59869910E+00 -1.51973982E+01  7.59869910E+00  7.59869910E+00
 -1.51973982E+01  7.59869910E+00  7.59869910E+00 -1.51973982E+01  7.59869910E+00
  7.59869910E+00 -1.51973982E+01  7.59869910E+00  7.59869910E+00 -1.51973982E+01
  7.59869910E+00  7.59869910E+00 -1.51973982E+01  7.59869910E+00  7.59869910E+00
 -1.51973982E+01  7.59869910E+00  7.59869910E+00 -1.51973982E+01  7.59869910E+00
  7.59869910E+00 -1.51973982E+01  7.59869910E+00  7.59869910E+00 -1.51973982E+01
  7.59869910E+00  7.59869910E+00 -1.51973982E+01  7.59869910E+00  7.59869910E+00
 -1.51973982E+01  7.59869910E+00  7.59869910E+00 -1.51973982E+01  7.59869910E+00
  7.59869910E+00 -1.51973982E+01  7.59869910E+00  7.59869910E+00 -1.51973982E+01
  7.59869910E+00  7.59869910E+00 -1.51973982E+01  7.59869910E+00  7.59869910E+00
 -1.51973982E+01  7.59869910E+00  7.59869910E+00 -1.51973982E+01  7.59869910E+00
  7.59869910E+00 -1.51973982E+01  7.59869910E+00  7.59869910E+00 -1.51973982E+01
  7.59869910E+00  7.59869910E+00 -1.51973982E+01  7.59869910E+00  7.59869910E+00
 -1.51973982E+01  7.59869910E+00  7.59869910E+00 -1.51973982E+01  7.59869910E+00
  7.59869910E+00 -1.51973982E+01  7.59869910E+00  7.59869910E+00 -1.51973982E+01
  7.59869910E+00  7.59869910E+00 -1.51973982E+01  7.59869910E+00  7.59869910E+00
 -1.51973982E+01  7.59869910E+00  7.59869910E+00 -1.51973982E+01  7.59869910E+00
  7.59869910E+00 -1.51973982E+01  7.59869910E+00  7.59869910E+00 -1.51973982E+01
  7.59869910E+00  7.59869910E+00 -1.51973982E+01  7.59869910E+00  7.59869910E+00
 -1.51973982E+01  7.59869910E+00  7.59869910E+00 -1.51973982E+01  7.59869910E+00
  7.59869910E+00 -1.51973982E+01  7.59869910E+00  7.59869910E+00 -1.51973982E+01
  7.59869910E+00  7.59869910E+00 -1.51973982E+01  7.59869910E+00  7.59869910E+00
 -1.51973982E+01  7.59869910E+00  7.59869910E+00 -1.51973982E+01  7.59869910E+00
  7.59869910E+00 -1.51973982E+01  7.59869910E+00  7.59869910E+00 -1.51973982E+01
  7.59869910E+00  7.59869910E+00 -1.51973982E+01  7.59869910E+00  7.59869910E+00
 -1.51973982E+01  7.59869910E+00  7.59869910E+00 -1.51973982E+01  7.59869910E+00
  7.59869910E+00 -1.51973982E+01  7.59869910E+00  7.59869910E+00 -1.51973982E+01
  7.59869910E+00  7.59869910E+00 -1.51973982E+01  7.59869910E+00  7.59869910E+00
 -1.51973982E+01  7.59869910E+00  7.59869910E+00 -1.51973982E+01  7.59869910E+00
  7.59869910E+00 -1.51973982E+01  7.59869910E+00  7.59869910E+00 -1.51973982E+01
  7.59869910E+00  7.59869910E+00 -1.51973982E+01  7.59869910E+00  7.59869910E+00
 -1.51973982E+01  7.59869910E+00  7.59869910E+00 -1.51973982E+01  7.59869910E+00
  7.59869910E+00 -1.51973982E+01  7.59869910E+00  7.59869910E+00 -1.51973982E+01
  7.59869910E+00  7.59869910E+00 -1.51973982E+01  7.59869910E+00  7.59869910E+00
 -1.51973982E+01  7.59869910E+00  7.59869910E+00 -1.51973982E+01  7.59869910E+00
  7.59869910E+00 -1.51973982E+01  7.59869910E+00  7.59869910E+00 -1.51973982E+01
  7.59869910E+00  7.59869910E+00 -1.51973982E+01  7.59869910E+00  7.59869910E+00
 -1.51973982E+01  7.59869910E+00  7.59869910E+00 -1.51973982E+01  7.59869910E+00
  7.59869910E+00 -1.51973982E+01  7.59869910E+00  7.59869910E+00 -1.51973982E+01
  7.59869910E+00  7.59869910E+00 -1.51973982E+01  7.59869910E+00  7.59869910E+00
 -1.51973982E+01  7.59869910E+00  7.59869910E+00 -1.51973982E+01  7.59869910E+00
  7.59869910E+00 -1.51973982E+01  7.59869910E+00  7.59869910E+00 -1.51973982E+01
  7.59869910E+00  7.59869910E+00 -1.51973982E+01  7.59869910E+00  7.59869910E+00
 -1.51973982E+01  7.59869910E+00  7.59869910E+00 -1.51973982E+01  7.59869910E+00
  7.59869910E+00 -1.51973982E+01  7.59869910E+00  7.59869910E+00 -1.51973982E+01
  7.59869910E+00  7.59869910E+00 -1.51973982E+01  7.59869910E+00  7.59869910E+00
 -1.51973982E+01  7.59869910E+00  7.59869910E+00 -1.51973982E+01  7.59869910E+00
  7.59869910E+00 -1.51973982E+01  7.59869910E+00  7.59869910E+00 -1.51973982E+01
  7.59869910E+00  7.59869910E+00 -1.51973982E+01  7.59869910E+00  7.59869910E+00
 -1.51973982E+01  7.59869910E+00  7.59869910E+00 -1.51973982E+01  7.59869910E+00
  7.59869910E+00 -1.51973982E+01  7.59869910E+00  7.59869910E+00 -1.51973982E+01
  7.59869910E+00  7.59869910E+00 -1.51973982E+01  7.59869910E+00  7.59869910E+00
 -1.51973982E+01  7.59869910E+00  7.59869910E+00 -1.51973982E+01  7.59869910E+00
  7.59869910E+00 -1.51973982E+01  7.59869910E+00  7.59869910E+00 -1.51973982E+01
  7.59869910E+00  7.59869910E+00 -1.51973982E+01  7.59869910E+00  7.59869910E+00
 -1.51973982E+01  7.59869910E+00  7.59869910E+00 -1.51973982E+01  7.59869910E+00
  7.59869910E+00 -1.51973982E+01  7.59869910E+00  7.59869910E+00 -1.51973982E+01
  7.59869910E+00  7.59869910E+00 -1.51973982E+01  7.59869910E+00  7.59869910E+00
 -1.51973982E+01  7.59869910E+00  7.59869910E+00 -1.51973982E+01  7.59869910E+00
  7.59869910E+00 -1.51973982E+01  7.59869910E+00  7.59869910E+00 -1.51973982E+01
  7.59869910E+00  7.59869910E+00 -1.51973982E+01  7.59869910E+00  7.59869910E+00
 -1.51973982E+01  7.59869910E+00  7.59869910E+00 -1.51973982E+01  7.59869910E+00
  7.59869910E+00 -1.51973982E+01  7.59869910E+00  7.59869910E+00 -1.51973982E+01
  7.59869910E+00  7.59869910E+00 -1.51973982E+01  7.59869910E+00  7.59869910E+00
 -1.51973982E+01  7.59869910E+00  7.59869910E+00 -1.51973982E+01  7.59869910E+00
  7.59869910E+00 -1.51973982E+01  7.59869910E+00  7.59869910E+00 -1.51973982E+01
  7.59869910E+00  7.59869910E+00 -1.51973982E+01  7.59869910E+00  7.59869910E+00
 -1.51973982E+01  7.59869910E+00  7.59869910E+00 -1.51973982E+01  7.59869910E+00
  7.59869910E+00 -1.51973982E+01  7.59869910E+00  7.59869910E+00 -1.51973982E+01
  7.59869910E+00  7.59869910E+00 -1.51973982E+01  7.59869910E+00  7.59869910E+00
 -1.51973982E+01  7.59869910E+00  7.59869910E+00 -1.51973982E+01  7.59869910E+00
  7.59869910E+00 -1.51973982E+01  7.59869910E+00  7.59869910E+00 -1.51973982E+01
  7.59869910E+00  7.59869910E+00 -1.51973982E+01  7.59869910E+00  7.59869910E+00
 -1.51973982E+01  7.59869910E+00  7.59869910E+00 -1.51973982E+01  7.59869910E+00
  7.59869910E+00 -1.51973982E+01  7.59869910E+00  7.59869910E+00 -1.51973982E+01
  7.59869910E+00  7.59869910E+00 -1.51973982E+01  7.59869910E+00  7.59869910E+00
 -1.51973982E+01  7.59869910E+00  7.59869910E+00 -1.51973982E+01  7.59869910E+00
  7.59869910E+00 -1.51973982E+01  7.59869910E+00  7.59869910E+00 -1.51973982E+01
  7.59869910E+00  7.59869910E+00 -1.51973982E+01  7.59869910E+00  7.59869910E+00
 -1.51973982E+01  7.59869910E+00  7.59869910E+00 -1.51973982E+01  7.59869910E+00
  7.59869910E+00 -1.51973982E+01  7.59869910E+00  7.59869910E+00 -1.51973982E+01
  7.59869910E+00  7.59869910E+00 -1.51973982E+01  7.59869910E+00  7.59869910E+00
 -1.51973982E+01  7.59869910E+00  7.59869910E+00 -1.51973982E+01  7.59869910E+00
  7.59869910E+00 -1.51973982E+01  7.59869910E+00  7.59869910E+00 -1.51973982E+01
  7.59869910E+00  7.59869910E+00 -1.51973982E+01  7.59869910E+00  7.59869910E+00
 -1.51973982E+01  7.59869910E+00  7.59869910E+00 -1.51973982E+01  7.59869910E+00
  7.59869910E+00 -1.51973982E+01  7.59869910E+00  7.59869910E+00 -1.51973982E+01
  7.59869910E+00  7.59869910E+00 -1.51973982E+01  7.59869910E+00  7.59869910E+00
 -1.51973982E+01  7.59869910E+00  7.59869910E+00 -1.51973982E+01  7.59869910E+00
  7.59869910E+00 -1.51973982E+01  7.59869910E+00  7.59869910E+00 -1.51973982E+01
  7.59869910E+00  7.59869910E+00 -1.51973982E+01  7.59869910E+00  7.59869910E+00
 -1.51973982E+01  7.59869910E+00  7.59869910E+00 -1.51973982E+01  7.59869910E+00
  7.59869910E+00 -1.51973982E+01  7.59869910E+00  7.59869910E+00 -1.51973982E+01
  7.59869910E+00  7.59869910E+00 -1.51973982E+01  7.59869910E+00  7.59869910E+00
 -1.51973982E+01  7.59869910E+00  7.59869910E+00 -1.51973982E+01  7.59869910E+00
  7.59869910E+00 -1.51973982E+01  7.59869910E+00  7.59869910E+00 -1.51973982E+01
  7.59869910E+00  7.59869910E+00 -1.51973982E+01  7.59869910E+00  7.59869910E+00
 -1.51973982E+01  7.59869910E+00  7.59869910E+00 -1.51973982E+01  7.59869910E+00
  7.59869910E+00 -1.51973982E+01  7.59869910E+00  7.59869910E+00 -1.51973982E+01
  7.59869910E+00  7.59869910E+00 -1.51973982E+01  7.59869910E+00  7.59869910E+00
 -1.51973982E+01  7.59869910E+00  7.59869910E+00 -1.51973982E+01  7.59869910E+00
  7.59869910E+00 -1.51973982E+01  7.59869910E+00  7.59869910E+00 -1.51973982E+01
  7.59869910E+00  7.59869910E+00 -1.51973982E+01  7.59869910E+00  7.59869910E+00
 -1.51973982E+01  7.59869910E+00  7.59869910E+00 -1.51973982E+01  7.59869910E+00
  7.59869910E+00 -1.51973982E+01  7.59869910E+00  7.59869910E+00 -1.51973982E+01
  7.59869910E+00  7.59869910E+00 -1.51973982E+01  7.59869910E+00  7.59869910E+00
 -1.51973982E+01  7.59869910E+00  7.59869910E+00 -1.51973982E+01  7.59869910E+00
  7.59869910E+00 -1.51973982E+01  7.59869910E+00  7.59869910E+00 -1.51973982E+01
  7.59869910E+00  7.59869910E+00 -1.51973982E+01  7.59869910E+00  7.59869910E+00
 -1.51973982E+01  7.59869910E+00  7.59869910E+00 -1.51973982E+01  7.59869910E+00
  7.59869910E+00 -1.51973982E+01  7.59869910E+00  7.59869910E+00 -1.51973982E+01
  7.59869910E+00  7.59869910E+00 -1.51973982E+01  7.59869910E+00  7.59869910E+00
 -1.51973982E+01  7.59869910E+00  7.59869910E+00 -1.51973982E+01  7.59869910E+00
  7.59869910E+00 -1.51973982E+01  7.59869910E+00  7.59869910E+00 -1.51973982E+01
  7.59869910E+00  7.59869910E+00 -1.51973982E+01  7.59869910E+00  7.59869910E+00
 -1.51973982E+01  7.59869910E+00  7.59869910E+00 -1.51973982E+01  7.59869910E+00
  7.59869910E+00 -1.51973982E+01  7.59869910E+00  7.59869910E+00 -1.51973982E+01
  7.59869910E+00  7.59869910E+00 -1.51973982E+01  7.59869910E+00  7.59869910E+00
 -1.51973982E+01  7.59869910E+00  7.59869910E+00 -1.51973982E+01  7.59869910E+00
  7.59869910E+00 -1.51973982E+01  7.59869910E+00  7.59869910E+00 -1.51973982E+01
  7.59869910E+00  7.59869910E+00 -1.51973982E+01  7.59869910E+00  7.59869910E+00
 -1.51973982E+01  7.59869910E+00  7.59869910E+00 -1.51973982E+01  7.59869910E+00
  7.59869910E+00 -1.51973982E+01  7.59869910E+00  7.59869910E+00 -1.51973982E+01
  7.59869910E+00  7.59869910E+00 -1.51973982E+01  7.59869910E+00  7.59869910E+00
 -1.51973982E+01  7.59869910E+00  7.59869910E+00 -1.51973982E+01  7.59869910E+00
  7.59869910E+00 -1.51973982E+01  7.59869910E+00  7.59869910E+00 -1.51973982E+01
  7.59869910E+00  7.59869910E+00 -1.51973982E+01  7.59869910E+00  7.59869910E+00
 -1.51973982E+01  7.59869910E+00  7.59869910E+00 -1.51973982E+01  7.59869910E+00
  7.59869910E+00 -1.51973982E+01  7.59869910E+00  7.59869910E+00 -1.51973982E+01
  7.59869910E+00  7.59869910E+00 -1.51973982E+01  7.59869910E+00  7.59869910E+00
 -1.51973982E+01  7.59869910E+00  7.59869910E+00 -1.51973982E+01  7.59869910E+00
  7.59869910E+00 -1.51973982E+01  7.59869910E+00  7.59869910E+00 -1.51973982E+01
  7.59869910E+00  7.59869910E+00 -1.51973982E+01  7.59869910E+00  7.59869910E+00
 -1.51973982E+01  7.59869910E+00  7.59869910E+00 -1.51973982E+01  7.59869910E+00
  7.59869910E+00 -1.51973982E+01  7.59869910E+00  7.59869910E+00 -1.51973982E+01
  7.59869910E+00  7.59869910E+00 -1.51973982E+01  7.59869910E+00  7.59869910E+00
 -1.51973982E+01  7.59869910E+00  7.59869910E+00 -1.51973982E+01  7.59869910E+00
  7.59869910E+00 -1.51973982E+01  7.59869910E+00  7.59869910E+00 -1.51973982E+01
  7.59869910E+00  7.59869910E+00 -1.51973982E+01  7.59869910E+00  7.59869910E+00
 -1.51973982E+01  7.59869910E+00  7.59869910E+00 -1.51973982E+01  7.59869910E+00
  7.59869910E+00 -1.51973982E+01  7.59869910E+00  7.59869910E+00 -1.51973982E+01
  7.59869910E+00  7.59869910E+00 -1.51973982E+01  7.59869910E+00  7.59869910E+00
 -1.51973982E+01  7.59869910E+00  7.59869910E+00 -1.51973982E+01  7.59869910E+00
  7.59869910E+00 -1.51973982E+01  7.59869910E+00  7.59869910E+00 -1.51973982E+01
  7.59869910E+00  7.59869910E+00 -1.51973982E+01  7.59869910E+00  7.59869910E+00
 -1.51973982E+01  7.59869910E+00  7.59869910E+00 -1.51973982E+01  7.59869910E+00
  7.59869910E+00 -1.51973982E+01  7.59869910E+00  7.59869910E+00 -1.51973982E+01
  7.59869910E+00  7.59869910E+00 -1.51973982E+01  7.59869910E+00  7.59869910E+00
 -1.51973982E+01  7.59869910E+00  7.59869910E+00 -1.51973982E+01  7.59869910E+00
  7.59869910E+00 -1.51973982E+01  7.59869910E+00  7.59869910E+00 -1.51973982E+01
  7.59869910E+00  7.59869910E+00 -1.51973982E+01  7.59869910E+00  7.59869910E+00
 -1.51973982E+01  7.59869910E+00  7.59869910E+00 -1.51973982E+01  7.59869910E+00
  7.59869910E+00 -1.51973982E+01  7.59869910E+00  7.59869910E+00 -1.51973982E+01
  7.59869910E+00  7.59869910E+00 -1.51973982E+01  7.59869910E+00  7.59869910E+00
 -1.51973982E+01  7.59869910E+00  7.59869910E+00 -1.51973982E+01  7.59869910E+00
  7.59869910E+00 -1.51973982E+01  7.59869910E+00  7.59869910E+00 -1.51973982E+01
  7.59869910E+00  7.59869910E+00 -1.51973982E+01  7.59869910E+00  7.59869910E+00
 -1.51973982E+01  7.59869910E+00  7.59869910E+00 -1.51973982E+01  7.59869910E+00
  7.59869910E+00 -1.51973982E+01  7.59869910E+00  7.59869910E+00 -1.51973982E+01
  7.59869910E+00  7.59869910E+00 -1.51973982E+01  7.59869910E+00  7.59869910E+00
 -1.51973982E+01  7.59869910E+00  7.59869910E+00 -1.51973982E+01  7.59869910E+00
  7.59869910E+00 -1.51973982E+01  7.59869910E+00  7.59869910E+00 -1.51973982E+01
  7.59869910E+00  7.59869910E+00 -1.51973982E+01  7.59869910E+00  7.59869910E+00
 -1.51973982E+01  7.59869910E+00  7.59869910E+00 -1.51973982E+01  7.59869910E+00
  7.59869910E+00 -1.51973982E+01  7.59869910E+00  7.59869910E+00 -1.51973982E+01
  7.59869910E+00  7.59869910E+00 -1.51973982E+01  7.59869910E+00  7.59869910E+00
 -1.51973982E+01  7.59869910E+00  7.59869910E+00 -1.51973982E+01  7.59869910E+00
  7.59869910E+00 -1.51973982E+01  7.59869910E+00  7.59869910E+00 -1.51973982E+01
  7.59869910E+00  7.59869910E+00 -1.51973982E+01  7.59869910E+00  7.59869910E+00
 -1.51973982E+01  7.59869910E+00  7.59869910E+00 -1.51973982E+01  7.59869910E+00
  7.59869910E+00 -1.51973982E+01  7.59869910E+00  7.59869910E+00 -1.51973982E+01
  7.59869910E+00  7.59869910E+00 -1.51973982E+01  7.59869910E+00  7.59869910E+00
 -1.51973982E+01  7.59869910E+00  7.59869910E+00 -1.51973982E+01  7.59869910E+00
  7.59869910E+00 -1.51973982E+01  7.59869910E+00  7.59869910E+00 -1.51973982E+01
  7.59869910E+00  7.59869910E+00 -1.51973982E+01  7.59869910E+00  7.59869910E+00
 -1.51973982E+01  7.59869910E+00  7.59869910E+00 -1.51973982E+01  7.59869910E+00
  7.59869910E+00 -1.51973982E+01  7.59869910E+00  7.59869910E+00 -1.51973982E+01
  7.59869910E+00  7.59869910E+00 -1.51973982E+01  7.59869910E+00  7.59869910E+00
 -1.51973982E+01  7.59869910E+00  7.59869910E+00 -1.51973982E+01  7.59869910E+00
  7.59869910E+00 -1.51973982E+01  7.59869910E+00  7.59869910E+00 -1.51973982E+01
  7.59869910E+00  7.59869910E+00 -1.51973982E+01  7.59869910E+00  7.59869910E+00
 -1.51973982E+01  7.59869910E+00  7.59869910E+00 -1.51973982E+01  7.59869910E+00
  7.59869910E+00 -1.51973982E+01  7.59869910E+00  7.59869910E+00 -1.51973982E+01
  7.59869910E+00  7.59869910E+00 -1.51973982E+01  7.59869910E+00  7.59869910E+00
 -1.51973982E+01  7.59869910E+00  7.59869910E+00 -1.51973982E+01  7.59869910E+00
  7.59869910E+00 -1.51973982E+01  7.59869910E+00  7.59869910E+00 -1.51973982E+01
  7.59869910E+00  7.59869910E+00 -1.51973982E+01  7.59869910E+00  7.59869910E+00
 -1.51973982E+01  7.59869910E+00  7.59869910E+00 -1.51973982E+01  7.59869910E+00
  7.59869910E+00 -1.51973982E+01  7.59869910E+00  7.59869910E+00 -1.51973982E+01
  7.59869910E+00  7.59869910E+00 -1.51973982E+01  7.59869910E+00  7.59869910E+00
 -1.51973982E+01  7.59869910E+00  7.59869910E+00 -1.51973982E+01  7.59869910E+00
  7.59869910E+00 -1.51973982E+01  7.59869910E+00  7.59869910E+00 -1.51973982E+01
  7.59869910E+00  7.59869910E+00 -1.51973982E+01  7.59869910E+00  7.59869910E+00
 -1.51973982E+01  7.59869910E+00  7.59869910E+00 -1.51973982E+01  7.59869910E+00
  7.59869910E+00 -1.51973982E+01  7.59869910E+00  7.59869910E+00 -1.51973982E+01
  7.59869910E+00  7.59869910E+00 -1.51973982E+01  7.59869910E+00  7.59869910E+00
 -1.51973982E+01  7.59869910E+00  7.59869910E+00 -1.51973982E+01  7.59869910E+00
  7.59869910E+00 -1.51973982E+01  7.59869910E+00  7.59869910E+00 -1.51973982E+01
  7.59869910E+00  7.59869910E+00 -1.51973982E+01  7.59869910E+00  7.59869910E+00
 -1.51973982E+01  7.59869910E+00  7.59869910E+00 -1.51973982E+01  7.59869910E+00
  7.59869910E+00 -1.51973982E+01  7.59869910E+00  7.59869910E+00 -1.51973982E+01
  7.59869910E+00  7.59869910E+00 -1.51973982E+01  7.59869910E+00  7.59869910E+00
 -1.51973982E+01  7.59869910E+00  7.59869910E+00 -1.51973982E+01  7.59869910E+00
  7.59869910E+00 -1.51973982E+01  7.59869910E+00  7.59869910E+00 -1.51973982E+01
  7.59869910E+00  7.59869910E+00 -1.51973982E+01  7.59869910E+00  7.59869910E+00
 -1.51973982E+01  7.59869910E+00  7.59869910E+00 -1.51973982E+01  7.59869910E+00
  7.59869910E+00 -1.51973982E+01  7.59869910E+00  7.59869910E+00 -1.51973982E+01
  7.59869910E+00  7.59869910E+00 -1.51973982E+01  7.59869910E+00  7.59869910E+00
 -1.51973982E+01  7.59869910E+00  7.59869910E+00 -1.51973982E+01  7.59869910E+00
  7.59869910E+00 -1.51973982E+01  7.59869910E+00  7.59869910E+00 -1.51973982E+01
  7.59869910E+00  7.59869910E+00 -1.51973982E+01  7.59869910E+00  7.59869910E+00
 -1.51973982E+01  7.59869910E+00  7.59869910E+00 -1.51973982E+01  7.59869910E+00
  7.59869910E+00 -1.51973982E+01  7.59869910E+00  7.59869910E+00 -1.51973982E+01
  7.59869910E+00  7.59869910E+00 -1.51973982E+01  7.59869910E+00  7.59869910E+00
 -1.51973982E+01  7.59869910E+00  7.59869910E+00 -1.51973982E+01  7.59869910E+00
  7.59869910E+00 -1.51973982E+01  7.59869910E+00  7.59869910E+00 -1.51973982E+01
  7.59869910E+00  7.59869910E+00 -1.51973982E+01  7.59869910E+00  7.59869910E+00
 -1.51973982E+01  7.59869910E+00  7.59869910E+00 -1.51973982E+01  7.59869910E+00
  7.59869910E+00 -1.51973982E+01  7.59869910E+00  7.59869910E+00 -1.51973982E+01
  7.59869910E+00  7.59869910E+00 -1.51973982E+01  7.59869910E+00  7.59869910E+00
 -1.51973982E+01  7.59869910E+00  7.59869910E+00 -1.51973982E+01  7.59869910E+00
  7.59869910E+00 -1.51973982E+01  7.59869910E+00  7.59869910E+00 -1.51973982E+01
  7.59869910E+00  7.59869910E+00 -1.51973982E+01  7.59869910E+00  7.59869910E+00
 -1.51973982E+01  7.59869910E+00  7.59869910E+00 -1.51973982E+01  7.59869910E+00
  7.59869910E+00 -1.51973982E+01  7.59869910E+00  7.59869910E+00 -1.51973982E+01
  7.59869910E+00  7.59869910E+00 -1.51973982E+01  7.59869910E+00  7.59869910E+00
 -1.51973982E+01  7.59869910E+00  7.59869910E+00 -1.51973982E+01  7.59869910E+00
  7.59869910E+00 -1.51973982E+01  7.59869910E+00  7.59869910E+00 -1.51973982E+01
  7.59869910E+00  7.59869910E+00 -1.51973982E+01  7.59869910E+00  7.59869910E+00
 -1.51973982E+01  7.59869910E+00  7.59869910E+00 -1.51973982E+01  7.59869910E+00
  7.59869910E+00 -1.51973982E+01  7.59869910E+00  7.59869910E+00 -1.51973982E+01
  7.59869910E+00  7.59869910E+00 -1.51973982E+01  7.59869910E+00  7.59869910E+00
 -1.51973982E+01  7.59869910E+00  7.59869910E+00 -1.51973982E+01  7.59869910E+00
  7.59869910E+00 -1.51973982E+01  7.59869910E+00  7.59869910E+00 -1.51973982E+01
  7.59869910E+00  7.59869910E+00 -1.51973982E+01  7.59869910E+00  7.59869910E+00
 -1.51973982E+01  7.59869910E+00  7.59869910E+00 -1.51973982E+01  7.59869910E+00
  7.59869910E+00 -1.51973982E+01  7.59869910E+00  7.59869910E+00 -1.51973982E+01
  7.59869910E+00  7.59869910E+00 -1.51973982E+01  7.59869910E+00  7.59869910E+00
 -1.51973982E+01  7.59869910E+00  7.59869910E+00 -1.51973982E+01  7.59869910E+00
  7.59869910E+00 -1.51973982E+01  7.59869910E+00  7.59869910E+00 -1.51973982E+01
  7.59869910E+00  7.59869910E+00 -1.51973982E+01  7.59869910E+00  7.59869910E+00
 -1.51973982E+01  7.59869910E+00  7.59869910E+00 -1.51973982E+01  7.59869910E+00
  7.59869910E+00 -1.51973982E+01  7.59869910E+00  7.59869910E+00 -1.51973982E+01
  7.59869910E+00  7.59869910E+00 -1.51973982E+01  7.59869910E+00  7.59869910E+00
 -1.51973982E+01  7.59869910E+00  7.59869910E+00 -1.51973982E+01  7.59869910E+00
  7.59869910E+00 -1.51973982E+01  7.59869910E+00  7.59869910E+00 -1.51973982E+01
  7.59869910E+00  7.59869910E+00 -1.51973982E+01  7.59869910E+00  7.59869910E+00
 -1.51973982E+01  7.59869910E+00  7.59869910E+00 -1.51973982E+01  7.59869910E+00
  7.59869910E+00 -1.51973982E+01  7.59869910E+00  7.59869910E+00 -1.51973982E+01
  7.59869910E+00  7.59869910E+00 -1.51973982E+01  7.59869910E+00  7.59869910E+00
 -1.51973982E+01  7.59869910E+00  7.59869910E+00 -1.51973982E+01  7.59869910E+00
  7.59869910E+00 -1.51973982E+01  7.59869910E+00  7.59869910E+00 -1.51973982E+01
  7.59869910E+00  7.59869910E+00 -1.51973982E+01  7.59869910E+00  7.59869910E+00
 -1.51973982E+01  7.59869910E+00  7.59869910E+00 -1.51973982E+01  7.59869910E+00
  7.59869910E+00 -1.51973982E+01  7.59869910E+00  7.59869910E+00 -1.51973982E+01
  7.59869910E+00  7.59869910E+00 -1.51973982E+01  7.59869910E+00  7.59869910E+00
 -1.51973982E+01  7.59869910E+00  7.59869910E+00 -1.51973982E+01  7.59869910E+00
  7.59869910E+00 -1.51973982E+01  7.59869910E+00  7.59869910E+00 -1.51973982E+01
  7.59869910E+00  7.59869910E+00 -1.51973982E+01  7.59869910E+00  7.59869910E+00
 -1.51973982E+01  7.59869910E+00  7.59869910E+00 -1.51973982E+01  7.59869910E+00
  7.59869910E+00 -1.51973982E+01  7.59869910E+00  7.59869910E+00 -1.51973982E+01
  7.59869910E+00  7.59869910E+00 -1.51973982E+01  7.59869910E+00  7.59869910E+00
 -1.51973982E+01  7.59869910E+00  7.59869910E+00 -1.51973982E+01  7.59869910E+00
  7.59869910E+00 -1.51973982E+01  7.59869910E+00  7.59869910E+00 -1.51973982E+01
  7.59869910E+00  7.59869910E+00 -1.51973982E+01  7.59869910E+00  7.59869910E+00
 -1.51973982E+01  7.59869910E+00  7.59869910E+00 -1.51973982E+01  7.59869910E+00
  7.59869910E+00 -1.51973982E+01  7.59869910E+00  7.59869910E+00 -1.51973982E+01
  7.59869910E+00  7.59869910E+00 -1.51973982E+01  7.59869910E+00  7.59869910E+00
 -1.51973982E+01  7.59869910E+00  7.59869910E+00 -1.51973982E+01  7.59869910E+00
  7.59869910E+00 -1.51973982E+01  7.59869910E+00  7.59869910E+00 -1.51973982E+01
  7.59869910E+00  7.59869910E+00 -1.51973982E+01  7.59869910E+00  7.59869910E+00
 -1.51973982E+01  7.59869910E+00  7.59869910E+00 -1.51973982E+01  7.59869910E+00
  7.59869910E+00 -1.51973982E+01  7.59869910E+00  7.59869910E+00 -1.51973982E+01
  7.59869910E+00  7.59869910E+00 -1.51973982E+01  7.59869910E+00  7.59869910E+00
 -1.51973982E+01  7.59869910E+00  7.59869910E+00 -1.51973982E+01  7.59869910E+00
  7.59869910E+00 -1.51973982E+01  7.59869910E+00  7.59869910E+00 -1.51973982E+01
  7.59869910E+00  7.59869910E+00 -1.51973982E+01  7.59869910E+00  7.59869910E+00
 -1.51973982E+01  7.59869910E+00  7.59869910E+00 -1.51973982E+01  7.59869910E+00
  7.59869910E+00 -1.51973982E+01  7.59869910E+00  7.59869910E+00 -1.51973982E+01
  7.59869910E+00  7.59869910E+00 -1.51973982E+01  7.59869910E+00  7.59869910E+00
 -1.51973982E+01  7.59869910E+00  7.59869910E+00 -1.51973982E+01  7.59869910E+00
  7.59869910E+00 -1.51973982E+01  7.59869910E+00  7.59869910E+00 -1.51973982E+01
  7.59869910E+00  7.59869910E+00 -1.51973982E+01  7.59869910E+00  7.59869910E+00
 -1.51973982E+01  7.59869910E+00  7.59869910E+00 -1.51973982E+01  7.59869910E+00
  7.59869910E+00 -1.51973982E+01  7.59869910E+00  7.59869910E+00 -1.51973982E+01
  7.59869910E+00  7.59869910E+00 -1.51973982E+01  7.59869910E+00  7.59869910E+00
 -1.51973982E+01  7.59869910E+00  7.59869910E+00 -1.51973982E+01  7.59869910E+00
  7.59869910E+00 -1.51973982E+01  7.59869910E+00  7.59869910E+00 -1.51973982E+01
  7.59869910E+00  7.59869910E+00 -1.51973982E+01  7.59869910E+00  7.59869910E+00
 -1.51973982E+01  7.59869910E+00  7.59869910E+00 -1.51973982E+01  7.59869910E+00
  7.59869910E+00 -1.51973982E+01  7.59869910E+00  7.59869910E+00 -1.51973982E+01
  7.59869910E+00  7.59869910E+00 -1.51973982E+01  7.59869910E+00  7.59869910E+00
 -1.51973982E+01  7.59869910E+00  7.59869910E+00 -1.51973982E+01  7.59869910E+00
  7.59869910E+00 -1.51973982E+01  7.59869910E+00  7.59869910E+00 -1.51973982E+01
  7.59869910E+00  7.59869910E+00 -1.51973982E+01  7.59869910E+00  7.59869910E+00
 -1.51973982E+01  7.59869910E+00  7.59869910E+00 -1.51973982E+01  7.59869910E+00
  7.59869910E+00 -1.51973982E+01  7.59869910E+00  7.59869910E+00 -1.51973982E+01
  7.59869910E+00  7.59869910E+00 -1.51973982E+01  7.59869910E+00  7.59869910E+00
 -1.51973982E+01  7.59869910E+00  7.59869910E+00 -1.51973982E+01  7.59869910E+00
  7.59869910E+00 -1.51973982E+01  7.59869910E+00  7.59869910E+00 -1.51973982E+01
  7.59869910E+00  7.59869910E+00 -1.51973982E+01  7.59869910E+00  7.59869910E+00
 -1.51973982E+01  7.59869910E+00  7.59869910E+00 -1.51973982E+01  7.59869910E+00
  7.59869910E+00 -1.51973982E+01  7.59869910E+00  7.59869910E+00 -1.51973982E+01
  7.59869910E+00  7.59869910E+00 -1.51973982E+01  7.59869910E+00  7.59869910E+00
 -1.51973982E+01  7.59869910E+00  7.59869910E+00 -1.51973982E+01  7.59869910E+00
  7.59869910E+00 -1.51973982E+01  7.59869910E+00  7.59869910E+00 -1.51973982E+01
  7.59869910E+00  7.59869910E+00 -1.51973982E+01  7.59869910E+00  7.59869910E+00
 -1.51973982E+01  7.59869910E+00  7.59869910E+00 -1.51973982E+01  7.59869910E+00
  7.59869910E+00 -1.51973982E+01  7.59869910E+00  7.59869910E+00 -1.51973982E+01
  7.59869910E+00  7.59869910E+00 -1.51973982E+01  7.59869910E+00  7.59869910E+00
 -1.51973982E+01  7.59869910E+00  7.59869910E+00 -1.51973982E+01  7.59869910E+00
  7.59869910E+00 -1.51973982E+01  7.59869910E+00  7.59869910E+00 -1.51973982E+01
  7.59869910E+00  7.59869910E+00 -1.51973982E+01  7.59869910E+00  7.59869910E+00
 -1.51973982E+01  7.59869910E+00  7.59869910E+00 -1.51973982E+01  7.59869910E+00
  7.59869910E+00 -1.51973982E+01  7.59869910E+00  7.59869910E+00 -1.51973982E+01
  7.59869910E+00  7.59869910E+00 -1.51973982E+01  7.59869910E+00  7.59869910E+00
 -1.51973982E+01  7.59869910E+00  7.59869910E+00 -1.51973982E+01  7.59869910E+00
  7.59869910E+00 -1.51973982E+01  7.59869910E+00  7.59869910E+00 -1.51973982E+01
  7.59869910E+00  7.59869910E+00 -1.51973982E+01  7.59869910E+00  7.59869910E+00
 -1.51973982E+01  7.59869910E+00  7.59869910E+00 -1.51973982E+01  7.59869910E+00
  7.59869910E+00 -1.51973982E+01  7.59869910E+00  7.59869910E+00 -1.51973982E+01
  7.59869910E+00  7.59869910E+00 -1.51973982E+01  7.59869910E+00  7.59869910E+00
 -1.51973982E+01  7.59869910E+00  7.59869910E+00 -1.51973982E+01  7.59869910E+00
  7.59869910E+00 -1.51973982E+01  7.59869910E+00  7.59869910E+00 -1.51973982E+01
  7.59869910E+00  7.59869910E+00 -1.51973982E+01  7.59869910E+00  7.59869910E+00
 -1.51973982E+01  7.59869910E+00  7.59869910E+00 -1.51973982E+01  7.59869910E+00
  7.59869910E+00 -1.51973982E+01  7.59869910E+00  7.59869910E+00 -1.51973982E+01
  7.59869910E+00  7.59869910E+00 -1.51973982E+01  7.59869910E+00  7.59869910E+00
 -1.51973982E+01  7.59869910E+00  7.59869910E+00 -1.51973982E+01  7.59869910E+00
  7.59869910E+00 -1.51973982E+01  7.59869910E+00  7.59869910E+00 -1.51973982E+01
  7.59869910E+00  7.59869910E+00 -1.51973982E+01  7.59869910E+00  7.59869910E+00
 -1.51973982E+01  7.59869910E+00  7.59869910E+00 -1.51973982E+01  7.59869910E+00
  7.59869910E+00 -1.51973982E+01  7.59869910E+00  7.59869910E+00 -1.51973982E+01
  7.59869910E+00  7.59869910E+00 -1.51973982E+01  7.59869910E+00  7.59869910E+00
 -1.51973982E+01  7.59869910E+00  7.59869910E+00 -1.51973982E+01  7.59869910E+00
  7.59869910E+00 -1.51973982E+01  7.59869910E+00  7.59869910E+00 -1.51973982E+01
  7.59869910E+00  7.59869910E+00 -1.51973982E+01  7.59869910E+00  7.59869910E+00
 -1.51973982E+01  7.59869910E+00  7.59869910E+00 -1.51973982E+01  7.59869910E+00
  7.59869910E+00 -1.51973982E+01  7.59869910E+00  7.59869910E+00 -1.51973982E+01
  7.59869910E+00  7.59869910E+00 -1.51973982E+01  7.59869910E+00  7.59869910E+00
 -1.51973982E+01  7.59869910E+00  7.59869910E+00 -1.51973982E+01  7.59869910E+00
  7.59869910E+00 -1.51973982E+01  7.59869910E+00  7.59869910E+00 -1.51973982E+01
  7.59869910E+00  7.59869910E+00 -1.51973982E+01  7.59869910E+00  7.59869910E+00
 -1.51973982E+01  7.59869910E+00  7.59869910E+00 -1.51973982E+01  7.59869910E+00
  7.59869910E+00 -1.51973982E+01  7.59869910E+00  7.59869910E+00 -1.51973982E+01
  7.59869910E+00  7.59869910E+00 -1.51973982E+01  7.59869910E+00  7.59869910E+00
 -1.51973982E+01  7.59869910E+00  7.59869910E+00 -1.51973982E+01  7.59869910E+00
  7.59869910E+00 -1.51973982E+01  7.59869910E+00  7.59869910E+00 -1.51973982E+01
  7.59869910E+00  7.59869910E+00 -1.51973982E+01  7.59869910E+00  7.59869910E+00
 -1.51973982E+01  7.59869910E+00  7.59869910E+00 -1.51973982E+01  7.59869910E+00
  7.59869910E+00 -1.51973982E+01  7.59869910E+00  7.59869910E+00 -1.51973982E+01
  7.59869910E+00  7.59869910E+00 -1.51973982E+01  7.59869910E+00  7.59869910E+00
 -1.51973982E+01  7.59869910E+00  7.59869910E+00 -1.51973982E+01  7.59869910E+00
  7.59869910E+00 -1.51973982E+01  7.59869910E+00  7.59869910E+00 -1.51973982E+01
  7.59869910E+00  7.59869910E+00 -1.51973982E+01  7.59869910E+00  7.59869910E+00
 -1.51973982E+01  7.59869910E+00  7.59869910E+00 -1.51973982E+01  7.59869910E+00
  7.59869910E+00 -1.51973982E+01  7.59869910E+00  7.59869910E+00 -1.51973982E+01
  7.59869910E+00  7.59869910E+00 -1.51973982E+01  7.59869910E+00  7.59869910E+00
 -1.51973982E+01  7.59869910E+00  7.59869910E+00 -1.51973982E+01  7.59869910E+00
  7.59869910E+00 -1.51973982E+01  7.59869910E+00  7.59869910E+00 -1.51973982E+01
  7.59869910E+00  7.59869910E+00 -1.51973982E+01  7.59869910E+00  7.59869910E+00
 -1.51973982E+01  7.59869910E+00  7.59869910E+00 -1.51973982E+01  7.59869910E+00
  7.59869910E+00 -1.51973982E+01  7.59869910E+00  7.59869910E+00 -1.51973982E+01
  7.59869910E+00  7.59869910E+00 -1.51973982E+01  7.59869910E+00  7.59869910E+00
 -1.51973982E+01  7.59869910E+00  7.59869910E+00 -1.51973982E+01  7.59869910E+00
  7.59869910E+00 -1.51973982E+01  7.59869910E+00  7.59869910E+00 -1.51973982E+01
  7.59869910E+00  7.59869910E+00 -1.51973982E+01  7.59869910E+00  7.59869910E+00
 -1.51973982E+01  7.59869910E+00  7.59869910E+00 -1.51973982E+01  7.59869910E+00
  7.59869910E+00 -1.51973982E+01  7.59869910E+00  7.59869910E+00 -1.51973982E+01
  7.59869910E+00  7.59869910E+00 -1.51973982E+01  7.59869910E+00  7.59869910E+00
 -1.51973982E+01  7.59869910E+00  7.59869910E+00 -1.51973982E+01  7.59869910E+00
  7.59869910E+00 -1.51973982E+01  7.59869910E+00  7.59869910E+00 -1.51973982E+01
  7.59869910E+00  7.59869910E+00 -1.51973982E+01  7.59869910E+00  7.59869910E+00
 -1.51973982E+01  7.59869910E+00  7.59869910E+00 -1.51973982E+01  7.59869910E+00
  7.59869910E+00 -1.51973982E+01  7.59869910E+00  7.59869910E+00 -1.51973982E+01
  7.59869910E+00  7.59869910E+00 -1.51973982E+01  7.59869910E+00  7.59869910E+00
 -1.51973982E+01  7.59869910E+00  7.59869910E+00 -1.51973982E+01  7.59869910E+00
  7.59869910E+00 -1.51973982E+01  7.59869910E+00  7.59869910E+00 -1.51973982E+01
  7.59869910E+00  7.59869910E+00 -1.51973982E+01  7.59869910E+00  7.59869910E+00
 -1.51973982E+01  7.59869910E+00  7.59869910E+00 -1.51973982E+01  7.59869910E+00
  7.59869910E+00 -1.51973982E+01  7.59869910E+00  7.59869910E+00 -1.51973982E+01
  7.59869910E+00  7.59869910E+00 -1.51973982E+01  7.59869910E+00  7.59869910E+00
 -1.51973982E+01  7.59869910E+00  7.59869910E+00 -1.51973982E+01  7.59869910E+00
  7.59869910E+00 -1.51973982E+01  7.59869910E+00  7.59869910E+00 -1.51973982E+01
  7.59869910E+00  7.59869910E+00 -1.51973982E+01  7.59869910E+00  7.59869910E+00
 -1.51973982E+01  7.59869910E+00  7.59869910E+00 -1.51973982E+01  7.59869910E+00
  7.59869910E+00 -1.51973982E+01  7.59869910E+00  7.59869910E+00 -1.51973982E+01
  7.59869910E+00  7.59869910E+00 -1.51973982E+01  7.59869910E+00  7.59869910E+00
 -1.51973982E+01  7.59869910E+00  7.59869910E+00 -1.51973982E+01  7.59869910E+00
  7.59869910E+00 -1.51973982E+01  7.59869910E+00  7.59869910E+00 -1.51973982E+01
  7.59869910E+00  7.59869910E+00 -1.51973982E+01  7.59869910E+00  7.59869910E+00
 -1.51973982E+01  7.59869910E+00  7.59869910E+00 -1.51973982E+01  7.59869910E+00
  7.59869910E+00 -1.51973982E+01  7.59869910E+00  7.59869910E+00 -1.51973982E+01
  7.59869910E+00  7.59869910E+00 -1.51973982E+01  7.59869910E+00  7.59869910E+00
 -1.51973982E+01  7.59869910E+00  7.59869910E+00 -1.51973982E+01  7.59869910E+00
  7.59869910E+00 -1.51973982E+01  7.59869910E+00  7.59869910E+00 -1.51973982E+01
  7.59869910E+00  7.59869910E+00 -1.51973982E+01  7.59869910E+00  7.59869910E+00
 -1.51973982E+01  7.59869910E+00  7.59869910E+00 -1.51973982E+01  7.59869910E+00
  7.59869910E+00 -1.51973982E+01  7.59869910E+00  7.59869910E+00 -1.51973982E+01
  7.59869910E+00  7.59869910E+00 -1.51973982E+01  7.59869910E+00  7.59869910E+00
 -1.51973982E+01  7.59869910E+00  7.59869910E+00 -1.51973982E+01  7.59869910E+00
  7.59869910E+00 -1.51973982E+01  7.59869910E+00  7.59869910E+00 -1.51973982E+01
  7.59869910E+00  7.59869910E+00 -1.51973982E+01  7.59869910E+00  7.59869910E+00
 -1.51973982E+01  7.59869910E+00  7.59869910E+00 -1.51973982E+01  7.59869910E+00
  7.59869910E+00 -1.51973982E+01  7.59869910E+00  7.59869910E+00 -1.51973982E+01
  7.59869910E+00  7.59869910E+00 -1.51973982E+01  7.59869910E+00  7.59869910E+00
 -1.51973982E+01  7.59869910E+00  7.59869910E+00 -1.51973982E+01  7.59869910E+00
  7.59869910E+00 -1.51973982E+01  7.59869910E+00  7.59869910E+00 -1.51973982E+01
  7.59869910E+00  7.59869910E+00 -1.51973982E+01  7.59869910E+00  7.59869910E+00
 -1.51973982E+01  7.59869910E+00  7.59869910E+00 -1.51973982E+01  7.59869910E+00
  7.59869910E+00 -1.51973982E+01  7.59869910E+00  7.59869910E+00 -1.51973982E+01
  7.59869910E+00  7.59869910E+00 -1.51973982E+01  7.59869910E+00  7.59869910E+00
 -1.51973982E+01  7.59869910E+00  7.59869910E+00 -1.51973982E+01  7.59869910E+00
  7.59869910E+00 -1.51973982E+01  7.59869910E+00  7.59869910E+00 -1.51973982E+01
  7.59869910E+00  7.59869910E+00 -1.51973982E+01  7.59869910E+00  7.59869910E+00
 -1.51973982E+01  7.59869910E+00  7.59869910E+00 -1.51973982E+01  7.59869910E+00
  7.59869910E+00 -1.51973982E+01  7.59869910E+00  7.59869910E+00 -1.51973982E+01
  7.59869910E+00  7.59869910E+00 -1.51973982E+01  7.59869910E+00  7.59869910E+00
 -1.51973982E+01  7.59869910E+00  7.59869910E+00 -1.51973982E+01  7.59869910E+00
  7.59869910E+00 -1.51973982E+01  7.59869910E+00  7.59869910E+00 -1.51973982E+01
  7.59869910E+00  7.59869910E+00 -1.51973982E+01  7.59869910E+00  7.59869910E+00
 -1.51973982E+01  7.59869910E+00  7.59869910E+00 -1.51973982E+01  7.59869910E+00
  7.59869910E+00 -1.51973982E+01  7.59869910E+00  7.59869910E+00 -1.51973982E+01
  7.59869910E+00  7.59869910E+00 -1.51973982E+01  7.59869910E+00  7.59869910E+00
 -1.51973982E+01  7.59869910E+00  7.59869910E+00 -1.51973982E+01  7.59869910E+00
  7.59869910E+00 -1.51973982E+01  7.59869910E+00  7.59869910E+00 -1.51973982E+01
  7.59869910E+00  7.59869910E+00 -1.51973982E+01  7.59869910E+00  7.59869910E+00
 -1.51973982E+01  7.59869910E+00  7.59869910E+00 -1.51973982E+01  7.59869910E+00
  7.59869910E+00 -1.51973982E+01  7.59869910E+00  7.59869910E+00 -1.51973982E+01
  7.59869910E+00  7.59869910E+00 -1.51973982E+01  7.59869910E+00  7.59869910E+00
 -1.51973982E+01  7.59869910E+00  7.59869910E+00 -1.51973982E+01  7.59869910E+00
  7.59869910E+00 -1.51973982E+01  7.59869910E+00  7.59869910E+00 -1.51973982E+01
  7.59869910E+00  7.59869910E+00 -1.51973982E+01  7.59869910E+00  7.59869910E+00
 -1.51973982E+01  7.59869910E+00  7.59869910E+00 -1.51973982E+01  7.59869910E+00
  7.59869910E+00 -1.51973982E+01  7.59869910E+00  7.59869910E+00 -1.51973982E+01
  7.59869910E+00  7.59869910E+00 -1.51973982E+01  7.59869910E+00  7.59869910E+00
 -1.51973982E+01  7.59869910E+00  7.59869910E+00 -1.51973982E+01  7.59869910E+00
  7.59869910E+00 -1.51973982E+01  7.59869910E+00  7.59869910E+00 -1.51973982E+01
  7.59869910E+00  7.59869910E+00 -1.51973982E+01  7.59869910E+00  7.59869910E+00
 -1.51973982E+01  7.59869910E+00  7.59869910E+00 -1.51973982E+01  7.59869910E+00
  7.59869910E+00 -1.51973982E+01  7.59869910E+00  7.59869910E+00 -1.51973982E+01
  7.59869910E+00  7.59869910E+00 -1.51973982E+01  7.59869910E+00  7.59869910E+00
 -1.51973982E+01  7.59869910E+00  7.59869910E+00 -1.51973982E+01  7.59869910E+00
  7.59869910E+00 -1.51973982E+01  7.59869910E+00  7.59869910E+00 -1.51973982E+01
  7.59869910E+00  7.59869910E+00 -1.51973982E+01  7.59869910E+00  7.59869910E+00
 -1.51973982E+01  7.59869910E+00  7.59869910E+00 -1.51973982E+01  7.59869910E+00
  7.59869910E+00 -1.51973982E+01  7.59869910E+00  7.59869910E+00 -1.51973982E+01
  7.59869910E+00  7.59869910E+00 -1.51973982E+01  7.59869910E+00  7.59869910E+00
 -1.51973982E+01  7.59869910E+00  7.59869910E+00 -1.51973982E+01  7.59869910E+00
  7.59869910E+00 -1.51973982E+01  7.59869910E+00  7.59869910E+00 -1.51973982E+01
  7.59869910E+00  7.59869910E+00 -1.51973982E+01  7.59869910E+00  7.59869910E+00
 -1.51973982E+01  7.59869910E+00  7.59869910E+00 -1.51973982E+01  7.59869910E+00
  7.59869910E+00 -1.51973982E+01  7.59869910E+00  7.59869910E+00 -1.51973982E+01
  7.59869910E+00  7.59869910E+00 -1.51973982E+01  7.59869910E+00  7.59869910E+00
 -1.51973982E+01  7.59869910E+00  7.59869910E+00 -1.51973982E+01  7.59869910E+00
  7.59869910E+00 -1.51973982E+01  7.59869910E+00  7.59869910E+00 -1.51973982E+01
  7.59869910E+00  7.59869910E+00 -1.51973982E+01  7.59869910E+00  7.59869910E+00
 -1.51973982E+01  7.59869910E+00  7.59869910E+00 -1.51973982E+01  7.59869910E+00
  7.59869910E+00 -1.51973982E+01  7.59869910E+00  7.59869910E+00 -1.51973982E+01
  7.59869910E+00  7.59869910E+00 -1.51973982E+01  7.59869910E+00  7.59869910E+00
 -1.51973982E+01  7.59869910E+00  7.59869910E+00 -1.51973982E+01  7.59869910E+00
  7.59869910E+00 -1.51973982E+01  7.59869910E+00  7.59869910E+00 -1.51973982E+01
  7.59869910E+00  7.59869910E+00 -1.51973982E+01  7.59869910E+00  7.59869910E+00
 -1.51973982E+01  7.59869910E+00  7.59869910E+00 -1.51973982E+01  7.59869910E+00
  7.59869910E+00 -1.51973982E+01  7.59869910E+00  7.59869910E+00 -1.51973982E+01
  7.59869910E+00  7.59869910E+00 -1.51973982E+01  7.59869910E+00  7.59869910E+00
 -1.51973982E+01  7.59869910E+00  7.59869910E+00 -1.51973982E+01  7.59869910E+00
  7.59869910E+00 -1.51973982E+01  7.59869910E+00  7.59869910E+00 -1.51973982E+01
  7.59869910E+00  7.59869910E+00 -1.51973982E+01  7.59869910E+00  7.59869910E+00
 -1.51973982E+01  7.59869910E+00  7.59869910E+00 -1.51973982E+01  7.59869910E+00
  7.59869910E+00 -1.51973982E+01  7.59869910E+00  7.59869910E+00 -1.51973982E+01
  7.59869910E+00  7.59869910E+00 -1.51973982E+01  7.59869910E+00  7.59869910E+00
 -1.51973982E+01  7.59869910E+00  7.59869910E+00 -1.51973982E+01  7.59869910E+00
  7.59869910E+00 -1.51973982E+01  7.59869910E+00  7.59869910E+00 -1.51973982E+01
  7.59869910E+00  7.59869910E+00 -1.51973982E+01  7.59869910E+00  7.59869910E+00
 -1.51973982E+01  7.59869910E+00  7.59869910E+00 -1.51973982E+01  7.59869910E+00
  7.59869910E+00 -1.51973982E+01  7.59869910E+00  7.59869910E+00 -1.51973982E+01
  7.59869910E+00  7.59869910E+00 -1.51973982E+01  7.59869910E+00  7.59869910E+00
 -1.51973982E+01  7.59869910E+00  7.59869910E+00 -1.51973982E+01  7.59869910E+00
  7.59869910E+00 -1.51973982E+01  7.59869910E+00  7.59869910E+00 -1.51973982E+01
  7.59869910E+00  7.59869910E+00 -1.51973982E+01  7.59869910E+00  7.59869910E+00
 -1.51973982E+01  7.59869910E+00  7.59869910E+00 -1.51973982E+01  7.59869910E+00
  7.59869910E+00 -1.51973982E+01  7.59869910E+00  7.59869910E+00 -1.51973982E+01
  7.59869910E+00  7.59869910E+00 -1.51973982E+01  7.59869910E+00  7.59869910E+00
 -1.51973982E+01  7.59869910E+00  7.59869910E+00 -1.51973982E+01  7.59869910E+00
  7.59869910E+00 -1.51973982E+01  7.59869910E+00  7.59869910E+00 -1.51973982E+01
  7.59869910E+00  7.59869910E+00 -1.51973982E+01  7.59869910E+00  7.59869910E+00
 -1.51973982E+01  7.59869910E+00  7.59869910E+00 -1.51973982E+01  7.59869910E+00
  7.59869910E+00 -1.51973982E+01  7.59869910E+00  7.59869910E+00 -1.51973982E+01
  7.59869910E+00  7.59869910E+00 -1.51973982E+01  7.59869910E+00  7.59869910E+00
 -1.51973982E+01  7.59869910E+00  7.59869910E+00 -1.51973982E+01  7.59869910E+00
  7.59869910E+00 -1.51973982E+01  7.59869910E+00  7.59869910E+00 -1.51973982E+01
  7.59869910E+00  7.59869910E+00 -1.51973982E+01  7.59869910E+00  7.59869910E+00
 -1.51973982E+01  7.59869910E+00  7.59869910E+00 -1.51973982E+01  7.59869910E+00
  7.59869910E+00 -1.51973982E+01  7.59869910E+00  7.59869910E+00 -1.51973982E+01
  7.59869910E+00  7.59869910E+00 -1.51973982E+01  7.59869910E+00  7.59869910E+00
 -1.51973982E+01  7.59869910E+00  7.59869910E+00 -1.51973982E+01  7.59869910E+00
  7.59869910E+00 -1.51973982E+01  7.59869910E+00  7.59869910E+00 -1.51973982E+01
  7.59869910E+00  7.59869910E+00 -1.51973982E+01  7.59869910E+00  7.59869910E+00
 -1.51973982E+01  7.59869910E+00  7.59869910E+00 -1.51973982E+01  7.59869910E+00
  7.59869910E+00 -1.51973982E+01  7.59869910E+00  7.59869910E+00 -1.51973982E+01
  7.59869910E+00  7.59869910E+00 -1.51973982E+01  7.59869910E+00  7.59869910E+00
 -1.51973982E+01  7.59869910E+00  7.59869910E+00 -1.51973982E+01  7.59869910E+00
  7.59869910E+00 -1.51973982E+01  7.59869910E+00  7.59869910E+00 -1.51973982E+01
  7.59869910E+00  7.59869910E+00 -1.51973982E+01  7.59869910E+00  7.59869910E+00
 -1.51973982E+01  7.59869910E+00  7.59869910E+00 -1.51973982E+01  7.59869910E+00
  7.59869910E+00 -1.51973982E+01  7.59869910E+00  7.59869910E+00 -1.51973982E+01
  7.59869910E+00  7.59869910E+00 -1.51973982E+01  7.59869910E+00  7.59869910E+00
 -1.51973982E+01  7.59869910E+00  7.59869910E+00 -1.51973982E+01  7.59869910E+00
  7.59869910E+00 -1.51973982E+01  7.59869910E+00  7.59869910E+00 -1.51973982E+01
  7.59869910E+00  7.59869910E+00 -1.51973982E+01  7.59869910E+00  7.59869910E+00
 -1.51973982E+01  7.59869910E+00  7.59869910E+00 -1.51973982E+01  7.59869910E+00
  7.59869910E+00 -1.51973982E+01  7.59869910E+00  7.59869910E+00 -1.51973982E+01
  7.59869910E+00  7.59869910E+00 -1.51973982E+01  7.59869910E+00  7.59869910E+00
 -1.51973982E+01  7.59869910E+00  7.59869910E+00 -1.51973982E+01  7.59869910E+00
  7.59869910E+00 -1.51973982E+01  7.59869910E+00  7.59869910E+00 -1.51973982E+01
  7.59869910E+00  7.59869910E+00 -1.51973982E+01  7.59869910E+00  7.59869910E+00
 -1.51973982E+01  7.59869910E+00  7.59869910E+00 -1.51973982E+01  7.59869910E+00
  7.59869910E+00 -1.51973982E+01  7.59869910E+00  7.59869910E+00 -1.51973982E+01
  7.59869910E+00  7.59869910E+00 -1.51973982E+01  7.59869910E+00  7.59869910E+00
 -1.51973982E+01  7.59869910E+00  7.59869910E+00 -1.51973982E+01  7.59869910E+00
  7.59869910E+00 -1.51973982E+01  7.59869910E+00  7.59869910E+00 -1.51973982E+01
  7.59869910E+00  7.59869910E+00 -1.51973982E+01  7.59869910E+00  7.59869910E+00
 -1.51973982E+01  7.59869910E+00  7.59869910E+00 -1.51973982E+01  7.59869910E+00
  7.59869910E+00 -1.51973982E+01  7.59869910E+00  7.59869910E+00 -1.51973982E+01
  7.59869910E+00  7.59869910E+00 -1.51973982E+01  7.59869910E+00  7.59869910E+00
 -1.51973982E+01  7.59869910E+00  7.59869910E+00 -1.51973982E+01  7.59869910E+00
  7.59869910E+00 -1.51973982E+01  7.59869910E+00  7.59869910E+00 -1.51973982E+01
  7.59869910E+00  7.59869910E+00 -1.51973982E+01  7.59869910E+00  7.59869910E+00
 -1.51973982E+01  7.59869910E+00  7.59869910E+00 -1.51973982E+01  7.59869910E+00
  7.59869910E+00 -1.51973982E+01  7.59869910E+00  7.59869910E+00 -1.51973982E+01
  7.59869910E+00  7.59869910E+00 -1.51973982E+01  7.59869910E+00  7.59869910E+00
 -1.51973982E+01  7.59869910E+00  7.59869910E+00 -1.51973982E+01  7.59869910E+00
  7.59869910E+00 -1.51973982E+01  7.59869910E+00  7.59869910E+00 -1.51973982E+01
  7.59869910E+00  7.59869910E+00 -1.51973982E+01  7.59869910E+00  7.59869910E+00
 -1.51973982E+01  7.59869910E+00  7.59869910E+00 -1.51973982E+01  7.59869910E+00
  7.59869910E+00 -1.51973982E+01  7.59869910E+00  7.59869910E+00 -1.51973982E+01
  7.59869910E+00  7.59869910E+00 -1.51973982E+01  7.59869910E+00  7.59869910E+00
 -1.51973982E+01  7.59869910E+00  7.59869910E+00 -1.51973982E+01  7.59869910E+00
  7.59869910E+00 -1.51973982E+01  7.59869910E+00  7.59869910E+00 -1.51973982E+01
  7.59869910E+00  7.59869910E+00 -1.51973982E+01  7.59869910E+00  7.59869910E+00
 -1.51973982E+01  7.59869910E+00  7.59869910E+00 -1.51973982E+01  7.59869910E+00
  7.59869910E+00 -1.51973982E+01  7.59869910E+00  7.59869910E+00 -1.51973982E+01
  7.59869910E+00  7.59869910E+00 -1.51973982E+01  7.59869910E+00  7.59869910E+00
 -1.51973982E+01  7.59869910E+00  7.59869910E+00 -1.51973982E+01  7.59869910E+00
  7.59869910E+00 -1.51973982E+01  7.59869910E+00  7.59869910E+00 -1.51973982E+01
  7.59869910E+00  7.59869910E+00 -1.51973982E+01  7.59869910E+00  7.59869910E+00
 -1.51973982E+01  7.59869910E+00  7.59869910E+00 -1.51973982E+01  7.59869910E+00
  7.59869910E+00 -1.51973982E+01  7.59869910E+00  7.59869910E+00 -1.51973982E+01
  7.59869910E+00  7.59869910E+00 -1.51973982E+01  7.59869910E+00  7.59869910E+00
 -1.51973982E+01  7.59869910E+00  7.59869910E+00 -1.51973982E+01  7.59869910E+00
  7.59869910E+00 -1.51973982E+01  7.59869910E+00  7.59869910E+00 -1.51973982E+01
  7.59869910E+00  7.59869910E+00 -1.51973982E+01  7.59869910E+00  7.59869910E+00
 -1.51973982E+01  7.59869910E+00  7.59869910E+00 -1.51973982E+01  7.59869910E+00
  7.59869910E+00 -1.51973982E+01  7.59869910E+00  7.59869910E+00 -1.51973982E+01
  7.59869910E+00  7.59869910E+00 -1.51973982E+01  7.59869910E+00  7.59869910E+00
 -1.51973982E+01  7.59869910E+00  7.59869910E+00 -1.51973982E+01  7.59869910E+00
  7.59869910E+00 -1.51973982E+01  7.59869910E+00  7.59869910E+00 -1.51973982E+01
  7.59869910E+00  7.59869910E+00 -1.51973982E+01  7.59869910E+00  7.59869910E+00
 -1.51973982E+01  7.59869910E+00  7.59869910E+00 -1.51973982E+01  7.59869910E+00
  7.59869910E+00 -1.51973982E+01  7.59869910E+00  7.59869910E+00 -1.51973982E+01
  7.59869910E+00  7.59869910E+00 -1.51973982E+01  7.59869910E+00  7.59869910E+00
 -1.51973982E+01  7.59869910E+00  7.59869910E+00 -1.51973982E+01  7.59869910E+00
  7.59869910E+00 -1.51973982E+01  7.59869910E+00  7.59869910E+00 -1.51973982E+01
  7.59869910E+00  7.59869910E+00 -1.51973982E+01  7.59869910E+00  7.59869910E+00
 -1.51973982E+01  7.59869910E+00  7.59869910E+00 -1.51973982E+01  7.59869910E+00
  7.59869910E+00 -1.51973982E+01  7.59869910E+00  7.59869910E+00 -1.51973982E+01
  7.59869910E+00  7.59869910E+00 -1.51973982E+01  7.59869910E+00  7.59869910E+00
 -1.51973982E+01  7.59869910E+00  7.59869910E+00 -1.51973982E+01  7.59869910E+00
  7.59869910E+00 -1.51973982E+01  7.59869910E+00  7.59869910E+00 -1.51973982E+01
  7.59869910E+00  7.59869910E+00 -1.51973982E+01  7.59869910E+00  7.59869910E+00
 -1.51973982E+01  7.59869910E+00  7.59869910E+00 -1.51973982E+01  7.59869910E+00
  7.59869910E+00 -1.51973982E+01  7.59869910E+00  7.59869910E+00 -1.51973982E+01
  7.59869910E+00  7.59869910E+00 -1.51973982E+01  7.59869910E+00  7.59869910E+00
 -1.51973982E+01  7.59869910E+00  7.59869910E+00 -1.51973982E+01  7.59869910E+00
  7.59869910E+00 -1.51973982E+01  7.59869910E+00  7.59869910E+00 -1.51973982E+01
  7.59869910E+00  7.59869910E+00 -1.51973982E+01  7.59869910E+00  7.59869910E+00
 -1.51973982E+01  7.59869910E+00  7.59869910E+00 -1.51973982E+01  7.59869910E+00
  7.59869910E+00 -1.51973982E+01  7.59869910E+00  7.59869910E+00 -1.51973982E+01
  7.59869910E+00  7.59869910E+00 -1.51973982E+01  7.59869910E+00  7.59869910E+00
 -1.51973982E+01  7.59869910E+00  7.59869910E+00 -1.51973982E+01  7.59869910E+00
  7.59869910E+00 -1.51973982E+01  7.59869910E+00  7.59869910E+00 -1.51973982E+01
  7.59869910E+00  7.59869910E+00 -1.51973982E+01  7.59869910E+00  7.59869910E+00
 -1.51973982E+01  7.59869910E+00  7.59869910E+00 -1.51973982E+01  7.59869910E+00
  7.59869910E+00 -1.51973982E+01  7.59869910E+00  7.59869910E+00 -1.51973982E+01
  7.59869910E+00  7.59869910E+00 -1.51973982E+01  7.59869910E+00  7.59869910E+00
 -1.51973982E+01  7.59869910E+00  7.59869910E+00 -1.51973982E+01  7.59869910E+00
  7.59869910E+00 -1.51973982E+01  7.59869910E+00  7.59869910E+00 -1.51973982E+01
  7.59869910E+00  7.59869910E+00 -1.51973982E+01  7.59869910E+00  7.59869910E+00
 -1.51973982E+01  7.59869910E+00  7.59869910E+00 -1.51973982E+01  7.59869910E+00
  7.59869910E+00 -1.51973982E+01  7.59869910E+00  7.59869910E+00 -1.51973982E+01
  7.59869910E+00  7.59869910E+00 -1.51973982E+01  7.59869910E+00  7.59869910E+00
 -1.51973982E+01  7.59869910E+00  7.59869910E+00 -1.51973982E+01  7.59869910E+00
  7.59869910E+00 -1.51973982E+01  7.59869910E+00  7.59869910E+00 -1.51973982E+01
  7.59869910E+00  7.59869910E+00 -1.51973982E+01  7.59869910E+00  7.59869910E+00
 -1.51973982E+01  7.59869910E+00  7.59869910E+00 -1.51973982E+01  7.59869910E+00
  7.59869910E+00 -1.51973982E+01  7.59869910E+00  7.59869910E+00 -1.51973982E+01
  7.59869910E+00  7.59869910E+00 -1.51973982E+01  7.59869910E+00  7.59869910E+00
 -1.51973982E+01  7.59869910E+00  7.59869910E+00 -1.51973982E+01  7.59869910E+00
  7.59869910E+00 -1.51973982E+01  7.59869910E+00  7.59869910E+00 -1.51973982E+01
  7.59869910E+00  7.59869910E+00 -1.51973982E+01  7.59869910E+00  7.59869910E+00
 -1.51973982E+01  7.59869910E+00  7.59869910E+00 -1.51973982E+01  7.59869910E+00
  7.59869910E+00 -1.51973982E+01  7.59869910E+00  7.59869910E+00 -1.51973982E+01
  7.59869910E+00  7.59869910E+00 -1.51973982E+01  7.59869910E+00  7.59869910E+00
 -1.51973982E+01  7.59869910E+00  7.59869910E+00 -1.51973982E+01  7.59869910E+00
  7.59869910E+00 -1.51973982E+01  7.59869910E+00  7.59869910E+00 -1.51973982E+01
  7.59869910E+00  7.59869910E+00 -1.51973982E+01  7.59869910E+00  7.59869910E+00
 -1.51973982E+01  7.59869910E+00  7.59869910E+00 -1.51973982E+01  7.59869910E+00
  7.59869910E+00 -1.51973982E+01  7.59869910E+00  7.59869910E+00 -1.51973982E+01
  7.59869910E+00  7.59869910E+00 -1.51973982E+01  7.59869910E+00  7.59869910E+00
 -1.51973982E+01  7.59869910E+00  7.59869910E+00 -1.51973982E+01  7.59869910E+00
  7.59869910E+00 -1.51973982E+01  7.59869910E+00  7.59869910E+00 -1.51973982E+01
  7.59869910E+00  7.59869910E+00 -1.51973982E+01  7.59869910E+00  7.59869910E+00
 -1.51973982E+01  7.59869910E+00  7.59869910E+00 -1.51973982E+01  7.59869910E+00
  7.59869910E+00 -1.51973982E+01  7.59869910E+00  7.59869910E+00 -1.51973982E+01
  7.59869910E+00  7.59869910E+00 -1.51973982E+01  7.59869910E+00  7.59869910E+00
 -1.51973982E+01  7.59869910E+00  7.59869910E+00 -1.51973982E+01  7.59869910E+00
  7.59869910E+00 -1.51973982E+01  7.59869910E+00  7.59869910E+00 -1.51973982E+01
  7.59869910E+00  7.59869910E+00 -1.51973982E+01  7.59869910E+00  7.59869910E+00
 -1.51973982E+01  7.59869910E+00  7.59869910E+00 -1.51973982E+01  7.59869910E+00
  7.59869910E+00 -1.51973982E+01  7.59869910E+00  7.59869910E+00 -1.51973982E+01
  7.59869910E+00  7.59869910E+00 -1.51973982E+01  7.59869910E+00  7.59869910E+00
 -1.51973982E+01  7.59869910E+00  7.59869910E+00 -1.51973982E+01  7.59869910E+00
  7.59869910E+00 -1.51973982E+01  7.59869910E+00  7.59869910E+00 -1.51973982E+01
  7.59869910E+00  7.59869910E+00 -1.51973982E+01  7.59869910E+00  7.59869910E+00
 -1.51973982E+01  7.59869910E+00  7.59869910E+00 -1.51973982E+01  7.59869910E+00
  7.59869910E+00 -1.51973982E+01  7.59869910E+00  7.59869910E+00 -1.51973982E+01
  7.59869910E+00  7.59869910E+00 -1.51973982E+01  7.59869910E+00  7.59869910E+00
 -1.51973982E+01  7.59869910E+00  7.59869910E+00 -1.51973982E+01  7.59869910E+00
  7.59869910E+00 -1.51973982E+01  7.59869910E+00  7.59869910E+00 -1.51973982E+01
  7.59869910E+00  7.59869910E+00 -1.51973982E+01  7.59869910E+00  7.59869910E+00
 -1.51973982E+01  7.59869910E+00  7.59869910E+00 -1.51973982E+01  7.59869910E+00
  7.59869910E+00 -1.51973982E+01  7.59869910E+00  7.59869910E+00 -1.51973982E+01
  7.59869910E+00  7.59869910E+00 -1.51973982E+01  7.59869910E+00  7.59869910E+00
 -1.51973982E+01  7.59869910E+00  7.59869910E+00 -1.51973982E+01  7.59869910E+00
  7.59869910E+00 -1.51973982E+01  7.59869910E+00  7.59869910E+00 -1.51973982E+01
  7.59869910E+00  7.59869910E+00 -1.51973982E+01  7.59869910E+00  7.59869910E+00
 -1.51973982E+01  7.59869910E+00  7.59869910E+00 -1.51973982E+01  7.59869910E+00
  7.59869910E+00 -1.51973982E+01  7.59869910E+00  7.59869910E+00 -1.51973982E+01
  7.59869910E+00  7.59869910E+00 -1.51973982E+01  7.59869910E+00  7.59869910E+00
 -1.51973982E+01  7.59869910E+00  7.59869910E+00 -1.51973982E+01  7.59869910E+00
  7.59869910E+00 -1.51973982E+01  7.59869910E+00  7.59869910E+00 -1.51973982E+01
  7.59869910E+00  7.59869910E+00 -1.51973982E+01  7.59869910E+00  7.59869910E+00
 -1.51973982E+01  7.59869910E+00  7.59869910E+00 -1.51973982E+01  7.59869910E+00
  7.59869910E+00 -1.51973982E+01  7.59869910E+00  7.59869910E+00 -1.51973982E+01
  7.59869910E+00  7.59869910E+00 -1.51973982E+01  7.59869910E+00  7.59869910E+00
 -1.51973982E+01  7.59869910E+00  7.59869910E+00 -1.51973982E+01  7.59869910E+00
  7.59869910E+00 -1.51973982E+01  7.59869910E+00  7.59869910E+00 -1.51973982E+01
  7.59869910E+00  7.59869910E+00 -1.51973982E+01  7.59869910E+00  7.59869910E+00
 -1.51973982E+01  7.59869910E+00  7.59869910E+00 -1.51973982E+01  7.59869910E+00
  7.59869910E+00 -1.51973982E+01  7.59869910E+00  7.59869910E+00 -1.51973982E+01
  7.59869910E+00  7.59869910E+00 -1.51973982E+01  7.59869910E+00  7.59869910E+00
 -1.51973982E+01  7.59869910E+00  7.59869910E+00 -1.51973982E+01  7.59869910E+00
  7.59869910E+00 -1.51973982E+01  7.59869910E+00  7.59869910E+00 -1.51973982E+01
  7.59869910E+00  7.59869910E+00 -1.51973982E+01  7.59869910E+00  7.59869910E+00
 -1.51973982E+01  7.59869910E+00  7.59869910E+00 -1.51973982E+01  7.59869910E+00
  7.59869910E+00 -1.51973982E+01  7.59869910E+00  7.59869910E+00 -1.51973982E+01
  7.59869910E+00  7.59869910E+00 -1.51973982E+01  7.59869910E+00  7.59869910E+00
 -1.51973982E+01  7.59869910E+00  7.59869910E+00 -1.51973982E+01  7.59869910E+00
  7.59869910E+00 -1.51973982E+01  7.59869910E+00  7.59869910E+00 -1.51973982E+01
  7.59869910E+00  7.59869910E+00 -1.51973982E+01  7.59869910E+00  7.59869910E+00
 -1.51973982E+01  7.59869910E+00  7.59869910E+00 -1.51973982E+01  7.59869910E+00
  7.59869910E+00 -1.51973982E+01  7.59869910E+00  7.59869910E+00 -1.51973982E+01
  7.59869910E+00  7.59869910E+00 -1.51973982E+01  7.59869910E+00  7.59869910E+00
 -1.51973982E+01  7.59869910E+00  7.59869910E+00 -1.51973982E+01  7.59869910E+00
  7.59869910E+00 -1.51973982E+01  7.59869910E+00  7.59869910E+00 -1.51973982E+01
  7.59869910E+00  7.59869910E+00 -1.51973982E+01  7.59869910E+00  7.59869910E+00
 -1.51973982E+01  7.59869910E+00  7.59869910E+00 -1.51973982E+01  7.59869910E+00
  7.59869910E+00 -1.51973982E+01  7.59869910E+00  7.59869910E+00 -1.51973982E+01
  7.59869910E+00  7.59869910E+00 -1.51973982E+01  7.59869910E+00  7.59869910E+00
 -1.51973982E+01  7.59869910E+00  7.59869910E+00 -1.51973982E+01  7.59869910E+00
  7.59869910E+00 -1.51973982E+01  7.59869910E+00  7.59869910E+00 -1.51973982E+01
  7.59869910E+00  7.59869910E+00 -1.51973982E+01  7.59869910E+00  7.59869910E+00
 -1.51973982E+01  7.59869910E+00  7.59869910E+00 -1.51973982E+01  7.59869910E+00
  7.59869910E+00 -1.51973982E+01  7.59869910E+00  7.59869910E+00 -1.51973982E+01
  7.59869910E+00  7.59869910E+00 -1.51973982E+01  7.59869910E+00  7.59869910E+00
 -1.51973982E+01  7.59869910E+00  7.59869910E+00 -1.51973982E+01  7.59869910E+00
  7.59869910E+00 -1.51973982E+01  7.59869910E+00  7.59869910E+00 -1.51973982E+01
  7.59869910E+00  7.59869910E+00 -1.51973982E+01  7.59869910E+00  7.59869910E+00
 -1.51973982E+01  7.59869910E+00  7.59869910E+00 -1.51973982E+01  7.59869910E+00
  7.59869910E+00 -1.51973982E+01  7.59869910E+00  7.59869910E+00 -1.51973982E+01
  7.59869910E+00  7.59869910E+00 -1.51973982E+01  7.59869910E+00  7.59869910E+00
 -1.51973982E+01  7.59869910E+00  7.59869910E+00 -1.51973982E+01  7.59869910E+00
  7.59869910E+00 -1.51973982E+01  7.59869910E+00  7.59869910E+00 -1.51973982E+01
  7.59869910E+00  7.59869910E+00 -1.51973982E+01  7.59869910E+00  7.59869910E+00
 -1.51973982E+01  7.59869910E+00  7.59869910E+00 -1.51973982E+01  7.59869910E+00
  7.59869910E+00 -1.51973982E+01  7.59869910E+00  7.59869910E+00 -1.51973982E+01
  7.59869910E+00  7.59869910E+00 -1.51973982E+01  7.59869910E+00  7.59869910E+00
 -1.51973982E+01  7.59869910E+00  7.59869910E+00 -1.51973982E+01  7.59869910E+00
  7.59869910E+00 -1.51973982E+01  7.59869910E+00  7.59869910E+00 -1.51973982E+01
  7.59869910E+00  7.59869910E+00 -1.51973982E+01  7.59869910E+00  7.59869910E+00
 -1.51973982E+01  7.59869910E+00  7.59869910E+00 -1.51973982E+01  7.59869910E+00
  7.59869910E+00 -1.51973982E+01  7.59869910E+00  7.59869910E+00 -1.51973982E+01
  7.59869910E+00  7.59869910E+00 -1.51973982E+01  7.59869910E+00  7.59869910E+00
 -1.51973982E+01  7.59869910E+00  7.59869910E+00 -1.51973982E+01  7.59869910E+00
  7.59869910E+00 -1.51973982E+01  7.59869910E+00  7.59869910E+00 -1.51973982E+01
  7.59869910E+00  7.59869910E+00 -1.51973982E+01  7.59869910E+00  7.59869910E+00
 -1.51973982E+01  7.59869910E+00  7.59869910E+00 -1.51973982E+01  7.59869910E+00
  7.59869910E+00 -1.51973982E+01  7.59869910E+00  7.59869910E+00 -1.51973982E+01
  7.59869910E+00  7.59869910E+00 -1.51973982E+01  7.59869910E+00  7.59869910E+00
 -1.51973982E+01  7.59869910E+00  7.59869910E+00 -1.51973982E+01  7.59869910E+00
  7.59869910E+00 -1.51973982E+01  7.59869910E+00  7.59869910E+00 -1.51973982E+01
  7.59869910E+00  7.59869910E+00 -1.51973982E+01  7.59869910E+00  7.59869910E+00
 -1.51973982E+01  7.59869910E+00  7.59869910E+00 -1.51973982E+01  7.59869910E+00
  7.59869910E+00 -1.51973982E+01  7.59869910E+00  7.59869910E+00 -1.51973982E+01
  7.59869910E+00  7.59869910E+00 -1.51973982E+01  7.59869910E+00  7.59869910E+00
 -1.51973982E+01  7.59869910E+00  7.59869910E+00 -1.51973982E+01  7.59869910E+00
  7.59869910E+00 -1.51973982E+01  7.59869910E+00  7.59869910E+00 -1.51973982E+01
  7.59869910E+00  7.59869910E+00 -1.51973982E+01  7.59869910E+00  7.59869910E+00
 -1.51973982E+01  7.59869910E+00  7.59869910E+00 -1.51973982E+01  7.59869910E+00
  7.59869910E+00 -1.51973982E+01  7.59869910E+00  7.59869910E+00 -1.51973982E+01
  7.59869910E+00  7.59869910E+00 -1.51973982E+01  7.59869910E+00  7.59869910E+00
 -1.51973982E+01  7.59869910E+00  7.59869910E+00 -1.51973982E+01  7.59869910E+00
  7.59869910E+00 -1.51973982E+01  7.59869910E+00  7.59869910E+00 -1.51973982E+01
  7.59869910E+00  7.59869910E+00 -1.51973982E+01  7.59869910E+00  7.59869910E+00
 -1.51973982E+01  7.59869910E+00  7.59869910E+00 -1.51973982E+01  7.59869910E+00
  7.59869910E+00 -1.51973982E+01  7.59869910E+00  7.59869910E+00 -1.51973982E+01
  7.59869910E+00  7.59869910E+00 -1.51973982E+01  7.59869910E+00  7.59869910E+00
 -1.51973982E+01  7.59869910E+00  7.59869910E+00 -1.51973982E+01  7.59869910E+00
  7.59869910E+00 -1.51973982E+01  7.59869910E+00  7.59869910E+00 -1.51973982E+01
  7.59869910E+00  7.59869910E+00 -1.51973982E+01  7.59869910E+00  7.59869910E+00
 -1.51973982E+01  7.59869910E+00  7.59869910E+00 -1.51973982E+01  7.59869910E+00
  7.59869910E+00 -1.51973982E+01  7.59869910E+00  7.59869910E+00 -1.51973982E+01
  7.59869910E+00  7.59869910E+00 -1.51973982E+01  7.59869910E+00  7.59869910E+00
 -1.51973982E+01  7.59869910E+00  7.59869910E+00 -1.51973982E+01  7.59869910E+00
  7.59869910E+00 -1.51973982E+01  7.59869910E+00  7.59869910E+00 -1.51973982E+01
  7.59869910E+00  7.59869910E+00 -1.51973982E+01  7.59869910E+00  7.59869910E+00
 -1.51973982E+01  7.59869910E+00  7.59869910E+00 -1.51973982E+01  7.59869910E+00
  7.59869910E+00 -1.51973982E+01  7.59869910E+00  7.59869910E+00 -1.51973982E+01
  7.59869910E+00  7.59869910E+00 -1.51973982E+01  7.59869910E+00  7.59869910E+00
 -1.51973982E+01  7.59869910E+00  7.59869910E+00 -1.51973982E+01  7.59869910E+00
  7.59869910E+00 -1.51973982E+01  7.59869910E+00  7.59869910E+00 -1.51973982E+01
  7.59869910E+00  7.59869910E+00 -1.51973982E+01  7.59869910E+00  7.59869910E+00
 -1.51973982E+01  7.59869910E+00  7.59869910E+00 -1.51973982E+01  7.59869910E+00
  7.59869910E+00 -1.51973982E+01  7.59869910E+00  7.59869910E+00 -1.51973982E+01
  7.59869910E+00  7.59869910E+00 -1.51973982E+01  7.59869910E+00  7.59869910E+00
 -1.51973982E+01  7.59869910E+00  7.59869910E+00 -1.51973982E+01  7.59869910E+00
  7.59869910E+00 -1.51973982E+01  7.59869910E+00  7.59869910E+00 -1.51973982E+01
  7.59869910E+00  7.59869910E+00 -1.51973982E+01  7.59869910E+00  7.59869910E+00
 -1.51973982E+01  7.59869910E+00  7.59869910E+00 -1.51973982E+01  7.59869910E+00
  7.59869910E+00 -1.51973982E+01  7.59869910E+00  7.59869910E+00 -1.51973982E+01
  7.59869910E+00  7.59869910E+00 -1.51973982E+01  7.59869910E+00  7.59869910E+00
 -1.51973982E+01  7.59869910E+00  7.59869910E+00 -1.51973982E+01  7.59869910E+00
  7.59869910E+00 -1.51973982E+01  7.59869910E+00  7.59869910E+00 -1.51973982E+01
  7.59869910E+00  7.59869910E+00 -1.51973982E+01  7.59869910E+00  7.59869910E+00
 -1.51973982E+01  7.59869910E+00  7.59869910E+00 -1.51973982E+01  7.59869910E+00
  7.59869910E+00 -1.51973982E+01  7.59869910E+00  7.59869910E+00 -1.51973982E+01
  7.59869910E+00  7.59869910E+00 -1.51973982E+01  7.59869910E+00  7.59869910E+00
 -1.51973982E+01  7.59869910E+00  7.59869910E+00 -1.51973982E+01  7.59869910E+00
  7.59869910E+00 -1.51973982E+01  7.59869910E+00  7.59869910E+00 -1.51973982E+01
  7.59869910E+00  7.59869910E+00 -1.51973982E+01  7.59869910E+00  7.59869910E+00
 -1.51973982E+01  7.59869910E+00  7.59869910E+00 -1.51973982E+01  7.59869910E+00
  7.59869910E+00 -1.51973982E+01  7.59869910E+00  7.59869910E+00 -1.51973982E+01
  7.59869910E+00  7.59869910E+00 -1.51973982E+01  7.59869910E+00  7.59869910E+00
 -1.51973982E+01  7.59869910E+00  7.59869910E+00 -1.51973982E+01  7.59869910E+00
  7.59869910E+00 -1.51973982E+01  7.59869910E+00  7.59869910E+00 -1.51973982E+01
  7.59869910E+00  7.59869910E+00 -1.51973982E+01  7.59869910E+00  7.59869910E+00
 -1.51973982E+01  7.59869910E+00  7.59869910E+00 -1.51973982E+01  7.59869910E+00
  7.59869910E+00 -1.51973982E+01  7.59869910E+00  7.59869910E+00 -1.51973982E+01
  7.59869910E+00  7.59869910E+00 -1.51973982E+01  7.59869910E+00  7.59869910E+00
 -1.51973982E+01  7.59869910E+00  7.59869910E+00 -1.51973982E+01  7.59869910E+00
  7.59869910E+00 -1.51973982E+01  7.59869910E+00  7.59869910E+00 -1.51973982E+01
  7.59869910E+00  7.59869910E+00 -1.51973982E+01  7.59869910E+00  7.59869910E+00
 -1.51973982E+01  7.59869910E+00  7.59869910E+00 -1.51973982E+01  7.59869910E+00
  7.59869910E+00 -1.51973982E+01  7.59869910E+00  7.59869910E+00 -1.51973982E+01
  7.59869910E+00  7.59869910E+00 -1.51973982E+01  7.59869910E+00  7.59869910E+00
 -1.51973982E+01  7.59869910E+00  7.59869910E+00 -1.51973982E+01  7.59869910E+00
  7.59869910E+00 -1.51973982E+01  7.59869910E+00  7.59869910E+00 -1.51973982E+01
  7.59869910E+00  7.59869910E+00 -1.51973982E+01  7.59869910E+00  7.59869910E+00
 -1.51973982E+01  7.59869910E+00  7.59869910E+00 -1.51973982E+01  7.59869910E+00
  7.59869910E+00 -1.51973982E+01  7.59869910E+00  7.59869910E+00 -1.51973982E+01
  7.59869910E+00  7.59869910E+00 -1.51973982E+01  7.59869910E+00  7.59869910E+00
 -1.51973982E+01  7.59869910E+00  7.59869910E+00 -1.51973982E+01  7.59869910E+00
  7.59869910E+00 -1.51973982E+01  7.59869910E+00  7.59869910E+00 -1.51973982E+01
  7.59869910E+00  7.59869910E+00 -1.51973982E+01  7.59869910E+00  7.59869910E+00
 -1.51973982E+01  7.59869910E+00  7.59869910E+00 -1.51973982E+01  7.59869910E+00
  7.59869910E+00 -1.51973982E+01  7.59869910E+00  7.59869910E+00 -1.51973982E+01
  7.59869910E+00  7.59869910E+00 -1.51973982E+01  7.59869910E+00  7.59869910E+00
 -1.51973982E+01  7.59869910E+00  7.59869910E+00 -1.51973982E+01  7.59869910E+00
  7.59869910E+00 -1.51973982E+01  7.59869910E+00  7.59869910E+00 -1.51973982E+01
  7.59869910E+00  7.59869910E+00 -1.51973982E+01  7.59869910E+00  7.59869910E+00
 -1.51973982E+01  7.59869910E+00  7.59869910E+00 -1.51973982E+01  7.59869910E+00
  7.59869910E+00 -1.51973982E+01  7.59869910E+00  7.59869910E+00 -1.51973982E+01
  7.59869910E+00  7.59869910E+00 -1.51973982E+01  7.59869910E+00  7.59869910E+00
 -1.51973982E+01  7.59869910E+00  7.59869910E+00 -1.51973982E+01  7.59869910E+00
  7.59869910E+00 -1.51973982E+01  7.59869910E+00  7.59869910E+00 -1.51973982E+01
  7.59869910E+00  7.59869910E+00 -1.51973982E+01  7.59869910E+00  7.59869910E+00
 -1.51973982E+01  7.59869910E+00  7.59869910E+00 -1.51973982E+01  7.59869910E+00
  7.59869910E+00 -1.51973982E+01  7.59869910E+00  7.59869910E+00 -1.51973982E+01
  7.59869910E+00  7.59869910E+00 -1.51973982E+01  7.59869910E+00  7.59869910E+00
 -1.51973982E+01  7.59869910E+00  7.59869910E+00 -1.51973982E+01  7.59869910E+00
  7.59869910E+00 -1.51973982E+01  7.59869910E+00  7.59869910E+00 -1.51973982E+01
  7.59869910E+00  7.59869910E+00 -1.51973982E+01  7.59869910E+00  7.59869910E+00
 -1.51973982E+01  7.59869910E+00  7.59869910E+00 -1.51973982E+01  7.59869910E+00
  7.59869910E+00 -1.51973982E+01  7.59869910E+00  7.59869910E+00 -1.51973982E+01
  7.59869910E+00  7.59869910E+00 -1.51973982E+01  7.59869910E+00  7.59869910E+00
 -1.51973982E+01  7.59869910E+00  7.59869910E+00 -1.51973982E+01  7.59869910E+00
  7.59869910E+00 -1.51973982E+01  7.59869910E+00  7.59869910E+00 -1.51973982E+01
  7.59869910E+00  7.59869910E+00 -1.51973982E+01  7.59869910E+00  7.59869910E+00
 -1.51973982E+01  7.59869910E+00  7.59869910E+00 -1.51973982E+01  7.59869910E+00
  7.59869910E+00 -1.51973982E+01  7.59869910E+00  7.59869910E+00 -1.51973982E+01
  7.59869910E+00  7.59869910E+00 -1.51973982E+01  7.59869910E+00  7.59869910E+00
 -1.51973982E+01  7.59869910E+00  7.59869910E+00 -1.51973982E+01  7.59869910E+00
  7.59869910E+00 -1.51973982E+01  7.59869910E+00  7.59869910E+00 -1.51973982E+01
  7.59869910E+00  7.59869910E+00 -1.51973982E+01  7.59869910E+00  7.59869910E+00
 -1.51973982E+01  7.59869910E+00  7.59869910E+00 -1.51973982E+01  7.59869910E+00
  7.59869910E+00 -1.51973982E+01  7.59869910E+00  7.59869910E+00 -1.51973982E+01
  7.59869910E+00  7.59869910E+00 -1.51973982E+01  7.59869910E+00  7.59869910E+00
 -1.51973982E+01  7.59869910E+00  7.59869910E+00 -1.51973982E+01  7.59869910E+00
  7.59869910E+00 -1.51973982E+01  7.59869910E+00  7.59869910E+00 -1.51973982E+01
  7.59869910E+00  7.59869910E+00 -1.51973982E+01  7.59869910E+00  7.59869910E+00
 -1.51973982E+01  7.59869910E+00  7.59869910E+00 -1.51973982E+01  7.59869910E+00
  7.59869910E+00 -1.51973982E+01  7.59869910E+00  7.59869910E+00 -1.51973982E+01
  7.59869910E+00  7.59869910E+00 -1.51973982E+01  7.59869910E+00  7.59869910E+00
 -1.51973982E+01  7.59869910E+00  7.59869910E+00 -1.51973982E+01  7.59869910E+00
  7.59869910E+00 -1.51973982E+01  7.59869910E+00  7.59869910E+00 -1.51973982E+01
  7.59869910E+00  7.59869910E+00 -1.51973982E+01  7.59869910E+00  7.59869910E+00
 -1.51973982E+01  7.59869910E+00  7.59869910E+00 -1.51973982E+01  7.59869910E+00
  7.59869910E+00 -1.51973982E+01  7.59869910E+00  7.59869910E+00 -1.51973982E+01
  7.59869910E+00  7.59869910E+00 -1.51973982E+01  7.59869910E+00  7.59869910E+00
 -1.51973982E+01  7.59869910E+00  7.59869910E+00 -1.51973982E+01  7.59869910E+00
  7.59869910E+00 -1.51973982E+01  7.59869910E+00  7.59869910E+00 -1.51973982E+01
  7.59869910E+00  7.59869910E+00 -1.51973982E+01  7.59869910E+00  7.59869910E+00
 -1.51973982E+01  7.59869910E+00  7.59869910E+00 -1.51973982E+01  7.59869910E+00
  7.59869910E+00 -1.51973982E+01  7.59869910E+00  7.59869910E+00 -1.51973982E+01
  7.59869910E+00  7.59869910E+00 -1.51973982E+01  7.59869910E+00  7.59869910E+00
 -1.51973982E+01  7.59869910E+00  7.59869910E+00 -1.51973982E+01  7.59869910E+00
  7.59869910E+00 -1.51973982E+01  7.59869910E+00  7.59869910E+00 -1.51973982E+01
  7.59869910E+00  7.59869910E+00 -1.51973982E+01  7.59869910E+00  7.59869910E+00
 -1.51973982E+01  7.59869910E+00  7.59869910E+00 -1.51973982E+01  7.59869910E+00
  7.59869910E+00 -1.51973982E+01  7.59869910E+00  7.59869910E+00 -1.51973982E+01
  7.59869910E+00  7.59869910E+00 -1.51973982E+01  7.59869910E+00  7.59869910E+00
 -1.51973982E+01  7.59869910E+00  7.59869910E+00 -1.51973982E+01  7.59869910E+00
  7.59869910E+00 -1.51973982E+01  7.59869910E+00  7.59869910E+00 -1.51973982E+01
  7.59869910E+00  7.59869910E+00 -1.51973982E+01  7.59869910E+00  7.59869910E+00
 -1.51973982E+01  7.59869910E+00  7.59869910E+00 -1.51973982E+01  7.59869910E+00
  7.59869910E+00 -1.51973982E+01  7.59869910E+00  7.59869910E+00 -1.51973982E+01
  7.59869910E+00  7.59869910E+00 -1.51973982E+01  7.59869910E+00  7.59869910E+00
 -1.51973982E+01  7.59869910E+00  7.59869910E+00 -1.51973982E+01  7.59869910E+00
  7.59869910E+00 -1.51973982E+01  7.59869910E+00  7.59869910E+00 -1.51973982E+01
  7.59869910E+00  7.59869910E+00 -1.51973982E+01  7.59869910E+00  7.59869910E+00
 -1.51973982E+01  7.59869910E+00  7.59869910E+00 -1.51973982E+01  7.59869910E+00
  7.59869910E+00 -1.51973982E+01  7.59869910E+00  7.59869910E+00 -1.51973982E+01
  7.59869910E+00  7.59869910E+00 -1.51973982E+01  7.59869910E+00  7.59869910E+00
 -1.51973982E+01  7.59869910E+00  7.59869910E+00 -1.51973982E+01  7.59869910E+00
  7.59869910E+00 -1.51973982E+01  7.59869910E+00  7.59869910E+00 -1.51973982E+01
  7.59869910E+00  7.59869910E+00 -1.51973982E+01  7.59869910E+00  7.59869910E+00
 -1.51973982E+01  7.59869910E+00  7.59869910E+00 -1.51973982E+01  7.59869910E+00
  7.59869910E+00 -1.51973982E+01  7.59869910E+00  7.59869910E+00 -1.51973982E+01
  7.59869910E+00  7.59869910E+00 -1.51973982E+01  7.59869910E+00  7.59869910E+00
 -1.51973982E+01  7.59869910E+00  7.59869910E+00 -1.51973982E+01  7.59869910E+00
  7.59869910E+00 -1.51973982E+01  7.59869910E+00  7.59869910E+00 -1.51973982E+01
  7.59869910E+00  7.59869910E+00 -1.51973982E+01  7.59869910E+00  7.59869910E+00
 -1.51973982E+01  7.59869910E+00  7.59869910E+00 -1.51973982E+01  7.59869910E+00
  7.59869910E+00 -1.51973982E+01  7.59869910E+00  7.59869910E+00 -1.51973982E+01
  7.59869910E+00  7.59869910E+00 -1.51973982E+01  7.59869910E+00  7.59869910E+00
 -1.51973982E+01  7.59869910E+00  7.59869910E+00 -1.51973982E+01  7.59869910E+00
  7.59869910E+00 -1.51973982E+01  7.59869910E+00  7.59869910E+00 -1.51973982E+01
  7.59869910E+00  7.59869910E+00 -1.51973982E+01  7.59869910E+00  7.59869910E+00
 -1.51973982E+01  7.59869910E+00  7.59869910E+00 -1.51973982E+01  7.59869910E+00
  7.59869910E+00 -1.51973982E+01  7.59869910E+00  7.59869910E+00 -1.51973982E+01
  7.59869910E+00  7.59869910E+00 -1.51973982E+01  7.59869910E+00  7.59869910E+00
 -1.51973982E+01  7.59869910E+00  7.59869910E+00 -1.51973982E+01  7.59869910E+00
  7.59869910E+00 -1.51973982E+01  7.59869910E+00  7.59869910E+00 -1.51973982E+01
  7.59869910E+00  7.59869910E+00 -1.51973982E+01  7.59869910E+00  7.59869910E+00
 -1.51973982E+01  7.59869910E+00  7.59869910E+00 -1.51973982E+01  7.59869910E+00
  7.59869910E+00 -1.51973982E+01  7.59869910E+00  7.59869910E+00 -1.51973982E+01
  7.59869910E+00  7.59869910E+00 -1.51973982E+01  7.59869910E+00  7.59869910E+00
 -1.51973982E+01  7.59869910E+00  7.59869910E+00 -1.51973982E+01  7.59869910E+00
  7.59869910E+00 -1.51973982E+01  7.59869910E+00  7.59869910E+00 -1.51973982E+01
  7.59869910E+00  7.59869910E+00 -1.51973982E+01  7.59869910E+00  7.59869910E+00
 -1.51973982E+01  7.59869910E+00  7.59869910E+00 -1.51973982E+01  7.59869910E+00
  7.59869910E+00 -1.51973982E+01  7.59869910E+00  7.59869910E+00 -1.51973982E+01
  7.59869910E+00  7.59869910E+00 -1.51973982E+01  7.59869910E+00  7.59869910E+00
 -1.51973982E+01  7.59869910E+00  7.59869910E+00 -1.51973982E+01  7.59869910E+00
  7.59869910E+00 -1.51973982E+01  7.59869910E+00  7.59869910E+00 -1.51973982E+01
  7.59869910E+00  7.59869910E+00 -1.51973982E+01  7.59869910E+00  7.59869910E+00
 -1.51973982E+01  7.59869910E+00  7.59869910E+00 -1.51973982E+01  7.59869910E+00
  7.59869910E+00 -1.51973982E+01  7.59869910E+00  7.59869910E+00 -1.51973982E+01
  7.59869910E+00  7.59869910E+00 -1.51973982E+01  7.59869910E+00  7.59869910E+00
 -1.51973982E+01  7.59869910E+00  7.59869910E+00 -1.51973982E+01  7.59869910E+00
  7.59869910E+00 -1.51973982E+01  7.59869910E+00  7.59869910E+00 -1.51973982E+01
  7.59869910E+00  7.59869910E+00 -1.51973982E+01  7.59869910E+00  7.59869910E+00
 -1.51973982E+01  7.59869910E+00  7.59869910E+00 -1.51973982E+01  7.59869910E+00
  7.59869910E+00 -1.51973982E+01  7.59869910E+00  7.59869910E+00 -1.51973982E+01
  7.59869910E+00  7.59869910E+00 -1.51973982E+01  7.59869910E+00  7.59869910E+00
 -1.51973982E+01  7.59869910E+00  7.59869910E+00 -1.51973982E+01  7.59869910E+00
  7.59869910E+00 -1.51973982E+01  7.59869910E+00  7.59869910E+00 -1.51973982E+01
  7.59869910E+00  7.59869910E+00 -1.51973982E+01  7.59869910E+00  7.59869910E+00
 -1.51973982E+01  7.59869910E+00  7.59869910E+00 -1.51973982E+01  7.59869910E+00
  7.59869910E+00 -1.51973982E+01  7.59869910E+00  7.59869910E+00 -1.51973982E+01
  7.59869910E+00  7.59869910E+00 -1.51973982E+01  7.59869910E+00  7.59869910E+00
 -1.51973982E+01  7.59869910E+00  7.59869910E+00 -1.51973982E+01  7.59869910E+00
  7.59869910E+00 -1.51973982E+01  7.59869910E+00  7.59869910E+00 -1.51973982E+01
  7.59869910E+00  7.59869910E+00 -1.51973982E+01  7.59869910E+00  7.59869910E+00
 -1.51973982E+01  7.59869910E+00  7.59869910E+00 -1.51973982E+01  7.59869910E+00
  7.59869910E+00 -1.51973982E+01  7.59869910E+00  7.59869910E+00 -1.51973982E+01
  7.59869910E+00  7.59869910E+00 -1.51973982E+01  7.59869910E+00  7.59869910E+00
 -1.51973982E+01  7.59869910E+00  7.59869910E+00 -1.51973982E+01  7.59869910E+00
  7.59869910E+00 -1.51973982E+01  7.59869910E+00  7.59869910E+00 -1.51973982E+01
  7.59869910E+00  7.59869910E+00 -1.51973982E+01  7.59869910E+00  7.59869910E+00
 -1.51973982E+01  7.59869910E+00  7.59869910E+00 -1.51973982E+01  7.59869910E+00
  7.59869910E+00 -1.51973982E+01  7.59869910E+00  7.59869910E+00 -1.51973982E+01
  7.59869910E+00  7.59869910E+00 -1.51973982E+01  7.59869910E+00  7.59869910E+00
 -1.51973982E+01  7.59869910E+00  7.59869910E+00 -1.51973982E+01  7.59869910E+00
  7.59869910E+00 -1.51973982E+01  7.59869910E+00  7.59869910E+00 -1.51973982E+01
  7.59869910E+00  7.59869910E+00 -1.51973982E+01  7.59869910E+00  7.59869910E+00
 -1.51973982E+01  7.59869910E+00  7.59869910E+00 -1.51973982E+01  7.59869910E+00
  7.59869910E+00 -1.51973982E+01  7.59869910E+00  7.59869910E+00 -1.51973982E+01
  7.59869910E+00  7.59869910E+00 -1.51973982E+01  7.59869910E+00  7.59869910E+00
 -1.51973982E+01  7.59869910E+00  7.59869910E+00 -1.51973982E+01  7.59869910E+00
  7.59869910E+00 -1.51973982E+01  7.59869910E+00  7.59869910E+00 -1.51973982E+01
  7.59869910E+00  7.59869910E+00 -1.51973982E+01  7.59869910E+00  7.59869910E+00
 -1.51973982E+01  7.59869910E+00  7.59869910E+00 -1.51973982E+01  7.59869910E+00
  7.59869910E+00 -1.51973982E+01  7.59869910E+00  7.59869910E+00 -1.51973982E+01
  7.59869910E+00  7.59869910E+00 -1.51973982E+01  7.59869910E+00  7.59869910E+00
 -1.51973982E+01  7.59869910E+00  7.59869910E+00 -1.51973982E+01  7.59869910E+00
  7.59869910E+00 -1.51973982E+01  7.59869910E+00  7.59869910E+00 -1.51973982E+01
  7.59869910E+00  7.59869910E+00 -1.51973982E+01  7.59869910E+00  7.59869910E+00
 -1.51973982E+01  7.59869910E+00  7.59869910E+00 -1.51973982E+01  7.59869910E+00
  7.59869910E+00 -1.51973982E+01  7.59869910E+00  7.59869910E+00 -1.51973982E+01
  7.59869910E+00  7.59869910E+00 -1.51973982E+01  7.59869910E+00  7.59869910E+00
 -1.51973982E+01  7.59869910E+00  7.59869910E+00 -1.51973982E+01  7.59869910E+00
  7.59869910E+00 -1.51973982E+01  7.59869910E+00  7.59869910E+00 -1.51973982E+01
  7.59869910E+00  7.59869910E+00 -1.51973982E+01  7.59869910E+00  7.59869910E+00
 -1.51973982E+01  7.59869910E+00  7.59869910E+00 -1.51973982E+01  7.59869910E+00
  7.59869910E+00 -1.51973982E+01  7.59869910E+00  7.59869910E+00 -1.51973982E+01
  7.59869910E+00  7.59869910E+00 -1.51973982E+01  7.59869910E+00  7.59869910E+00
 -1.51973982E+01  7.59869910E+00  7.59869910E+00 -1.51973982E+01  7.59869910E+00
  7.59869910E+00 -1.51973982E+01  7.59869910E+00  7.59869910E+00 -1.51973982E+01
  7.59869910E+00  7.59869910E+00 -1.51973982E+01  7.59869910E+00  7.59869910E+00
 -1.51973982E+01  7.59869910E+00  7.59869910E+00 -1.51973982E+01  7.59869910E+00
  7.59869910E+00 -1.51973982E+01  7.59869910E+00  7.59869910E+00 -1.51973982E+01
  7.59869910E+00  7.59869910E+00 -1.51973982E+01  7.59869910E+00  7.59869910E+00
 -1.51973982E+01  7.59869910E+00  7.59869910E+00 -1.51973982E+01  7.59869910E+00
  7.59869910E+00 -1.51973982E+01  7.59869910E+00  7.59869910E+00 -1.51973982E+01
  7.59869910E+00  7.59869910E+00 -1.51973982E+01  7.59869910E+00  7.59869910E+00
 -1.51973982E+01  7.59869910E+00  7.59869910E+00 -1.51973982E+01  7.59869910E+00
  7.59869910E+00 -1.51973982E+01  7.59869910E+00  7.59869910E+00 -1.51973982E+01
  7.59869910E+00  7.59869910E+00 -1.51973982E+01  7.59869910E+00  7.59869910E+00
 -1.51973982E+01  7.59869910E+00  7.59869910E+00 -1.51973982E+01  7.59869910E+00
  7.59869910E+00 -1.51973982E+01  7.59869910E+00  7.59869910E+00 -1.51973982E+01
  7.59869910E+00  7.59869910E+00 -1.51973982E+01  7.59869910E+00  7.59869910E+00
 -1.51973982E+01  7.59869910E+00  7.59869910E+00 -1.51973982E+01  7.59869910E+00
  7.59869910E+00 -1.51973982E+01  7.59869910E+00  7.59869910E+00 -1.51973982E+01
  7.59869910E+00  7.59869910E+00 -1.51973982E+01  7.59869910E+00  7.59869910E+00
 -1.51973982E+01  7.59869910E+00  7.59869910E+00 -1.51973982E+01  7.59869910E+00
  7.59869910E+00 -1.51973982E+01  7.59869910E+00  7.59869910E+00 -1.51973982E+01
  7.59869910E+00  7.59869910E+00 -1.51973982E+01  7.59869910E+00  7.59869910E+00
 -1.51973982E+01  7.59869910E+00  7.59869910E+00 -1.51973982E+01  7.59869910E+00
  7.59869910E+00 -1.51973982E+01  7.59869910E+00  7.59869910E+00 -1.51973982E+01
  7.59869910E+00  7.59869910E+00 -1.51973982E+01  7.59869910E+00  7.59869910E+00
 -1.51973982E+01  7.59869910E+00  7.59869910E+00 -1.51973982E+01  7.59869910E+00
  7.59869910E+00 -1.51973982E+01  7.59869910E+00  7.59869910E+00 -1.51973982E+01
  7.59869910E+00  7.59869910E+00 -1.51973982E+01  7.59869910E+00  7.59869910E+00
 -1.51973982E+01  7.59869910E+00  7.59869910E+00 -1.51973982E+01  7.59869910E+00
  7.59869910E+00 -1.51973982E+01  7.59869910E+00  7.59869910E+00 -1.51973982E+01
  7.59869910E+00  7.59869910E+00 -1.51973982E+01  7.59869910E+00  7.59869910E+00
 -1.51973982E+01  7.59869910E+00  7.59869910E+00 -1.51973982E+01  7.59869910E+00
  7.59869910E+00 -1.51973982E+01  7.59869910E+00  7.59869910E+00 -1.51973982E+01
  7.59869910E+00  7.59869910E+00 -1.51973982E+01  7.59869910E+00  7.59869910E+00
 -1.51973982E+01  7.59869910E+00  7.59869910E+00 -1.51973982E+01  7.59869910E+00
  7.59869910E+00 -1.51973982E+01  7.59869910E+00  7.59869910E+00 -1.51973982E+01
  7.59869910E+00  7.59869910E+00 -1.51973982E+01  7.59869910E+00  7.59869910E+00
 -1.51973982E+01  7.59869910E+00  7.59869910E+00 -1.51973982E+01  7.59869910E+00
  7.59869910E+00 -1.51973982E+01  7.59869910E+00  7.59869910E+00 -1.51973982E+01
  7.59869910E+00  7.59869910E+00 -1.51973982E+01  7.59869910E+00  7.59869910E+00
 -1.51973982E+01  7.59869910E+00  7.59869910E+00 -1.51973982E+01  7.59869910E+00
  7.59869910E+00 -1.51973982E+01  7.59869910E+00  7.59869910E+00 -1.51973982E+01
  7.59869910E+00  7.59869910E+00 -1.51973982E+01  7.59869910E+00  7.59869910E+00
 -1.51973982E+01  7.59869910E+00  7.59869910E+00 -1.51973982E+01  7.59869910E+00
  7.59869910E+00 -1.51973982E+01  7.59869910E+00  7.59869910E+00 -1.51973982E+01
  7.59869910E+00  7.59869910E+00 -1.51973982E+01  7.59869910E+00  7.59869910E+00
 -1.51973982E+01  7.59869910E+00  7.59869910E+00 -1.51973982E+01  7.59869910E+00
  7.59869910E+00 -1.51973982E+01  7.59869910E+00  7.59869910E+00 -1.51973982E+01
  7.59869910E+00  7.59869910E+00 -1.51973982E+01  7.59869910E+00  7.59869910E+00
 -1.51973982E+01  7.59869910E+00  7.59869910E+00 -1.51973982E+01  7.59869910E+00
  7.59869910E+00 -1.51973982E+01  7.59869910E+00  7.59869910E+00 -1.51973982E+01
  7.59869910E+00  7.59869910E+00 -1.51973982E+01  7.59869910E+00  7.59869910E+00
 -1.51973982E+01  7.59869910E+00  7.59869910E+00 -1.51973982E+01  7.59869910E+00
  7.59869910E+00 -1.51973982E+01  7.59869910E+00  7.59869910E+00 -1.51973982E+01
  7.59869910E+00  7.59869910E+00 -1.51973982E+01  7.59869910E+00  7.59869910E+00
 -1.51973982E+01  7.59869910E+00  7.59869910E+00 -1.51973982E+01  7.59869910E+00
  7.59869910E+00 -1.51973982E+01  7.59869910E+00  7.59869910E+00 -1.51973982E+01
  7.59869910E+00  7.59869910E+00 -1.51973982E+01  7.59869910E+00  7.59869910E+00
 -1.51973982E+01  7.59869910E+00  7.59869910E+00 -1.51973982E+01  7.59869910E+00
  7.59869910E+00 -1.51973982E+01  7.59869910E+00  7.59869910E+00 -1.51973982E+01
  7.59869910E+00  7.59869910E+00 -1.51973982E+01  7.59869910E+00  7.59869910E+00
 -1.51973982E+01  7.59869910E+00  7.59869910E+00 -1.51973982E+01  7.59869910E+00
  7.59869910E+00 -1.51973982E+01  7.59869910E+00  7.59869910E+00 -1.51973982E+01
  7.59869910E+00  7.59869910E+00 -1.51973982E+01  7.59869910E+00  7.59869910E+00
 -1.51973982E+01  7.59869910E+00  7.59869910E+00 -1.51973982E+01  7.59869910E+00
  7.59869910E+00 -1.51973982E+01  7.59869910E+00  7.59869910E+00 -1.51973982E+01
  7.59869910E+00  7.59869910E+00 -1.51973982E+01  7.59869910E+00  7.59869910E+00
 -1.51973982E+01  7.59869910E+00  7.59869910E+00 -1.51973982E+01  7.59869910E+00
  7.59869910E+00 -1.51973982E+01  7.59869910E+00  7.59869910E+00 -1.51973982E+01
  7.59869910E+00  7.59869910E+00 -1.51973982E+01  7.59869910E+00  7.59869910E+00
 -1.51973982E+01  7.59869910E+00  7.59869910E+00 -1.51973982E+01  7.59869910E+00
  7.59869910E+00 -1.51973982E+01  7.59869910E+00  7.59869910E+00 -1.51973982E+01
  7.59869910E+00  7.59869910E+00 -1.51973982E+01  7.59869910E+00  7.59869910E+00
 -1.51973982E+01  7.59869910E+00  7.59869910E+00 -1.51973982E+01  7.59869910E+00
  7.59869910E+00 -1.51973982E+01  7.59869910E+00  7.59869910E+00 -1.51973982E+01
  7.59869910E+00  7.59869910E+00 -1.51973982E+01  7.59869910E+00  7.59869910E+00
 -1.51973982E+01  7.59869910E+00  7.59869910E+00 -1.51973982E+01  7.59869910E+00
  7.59869910E+00 -1.51973982E+01  7.59869910E+00  7.59869910E+00 -1.51973982E+01
  7.59869910E+00  7.59869910E+00 -1.51973982E+01  7.59869910E+00  7.59869910E+00
 -1.51973982E+01  7.59869910E+00  7.59869910E+00 -1.51973982E+01  7.59869910E+00
  7.59869910E+00 -1.51973982E+01  7.59869910E+00  7.59869910E+00 -1.51973982E+01
  7.59869910E+00  7.59869910E+00 -1.51973982E+01  7.59869910E+00  7.59869910E+00
 -1.51973982E+01  7.59869910E+00  7.59869910E+00 -1.51973982E+01  7.59869910E+00
  7.59869910E+00 -1.51973982E+01  7.59869910E+00  7.59869910E+00 -1.51973982E+01
  7.59869910E+00  7.59869910E+00 -1.51973982E+01  7.59869910E+00  7.59869910E+00
 -1.51973982E+01  7.59869910E+00  7.59869910E+00 -1.51973982E+01  7.59869910E+00
  7.59869910E+00 -1.51973982E+01  7.59869910E+00  7.59869910E+00 -1.51973982E+01
  7.59869910E+00  7.59869910E+00 -1.51973982E+01  7.59869910E+00  7.59869910E+00
 -1.51973982E+01  7.59869910E+00  7.59869910E+00 -1.51973982E+01  7.59869910E+00
  7.59869910E+00 -1.51973982E+01  7.59869910E+00  7.59869910E+00 -1.51973982E+01
  7.59869910E+00  7.59869910E+00 -1.51973982E+01  7.59869910E+00  7.59869910E+00
 -1.51973982E+01  7.59869910E+00  7.59869910E+00 -1.51973982E+01  7.59869910E+00
  7.59869910E+00 -1.51973982E+01  7.59869910E+00  7.59869910E+00 -1.51973982E+01
  7.59869910E+00  7.59869910E+00 -1.51973982E+01  7.59869910E+00  7.59869910E+00
 -1.51973982E+01  7.59869910E+00  7.59869910E+00 -1.51973982E+01  7.59869910E+00
  7.59869910E+00 -1.51973982E+01  7.59869910E+00  7.59869910E+00 -1.51973982E+01
  7.59869910E+00  7.59869910E+00 -1.51973982E+01  7.59869910E+00  7.59869910E+00
 -1.51973982E+01  7.59869910E+00  7.59869910E+00 -1.51973982E+01  7.59869910E+00
  7.59869910E+00 -1.51973982E+01  7.59869910E+00  7.59869910E+00 -1.51973982E+01
  7.59869910E+00  7.59869910E+00 -1.51973982E+01  7.59869910E+00  7.59869910E+00
 -1.51973982E+01  7.59869910E+00  7.59869910E+00 -1.51973982E+01  7.59869910E+00
  7.59869910E+00 -1.51973982E+01  7.59869910E+00  7.59869910E+00 -1.51973982E+01
  7.59869910E+00  7.59869910E+00 -1.51973982E+01  7.59869910E+00  7.59869910E+00
 -1.51973982E+01  7.59869910E+00  7.59869910E+00 -1.51973982E+01  7.59869910E+00
  7.59869910E+00 -1.51973982E+01  7.59869910E+00  7.59869910E+00 -1.51973982E+01
  7.59869910E+00  7.59869910E+00 -1.51973982E+01  7.59869910E+00  7.59869910E+00
 -1.51973982E+01  7.59869910E+00  7.59869910E+00 -1.51973982E+01  7.59869910E+00
  7.59869910E+00 -1.51973982E+01  7.59869910E+00  7.59869910E+00 -1.51973982E+01
  7.59869910E+00  7.59869910E+00 -1.51973982E+01  7.59869910E+00  7.59869910E+00
 -1.51973982E+01  7.59869910E+00  7.59869910E+00 -1.51973982E+01  7.59869910E+00
  7.59869910E+00 -1.51973982E+01  7.59869910E+00  7.59869910E+00 -1.51973982E+01
  7.59869910E+00  7.59869910E+00 -1.51973982E+01  7.59869910E+00  7.59869910E+00
 -1.51973982E+01  7.59869910E+00  7.59869910E+00 -1.51973982E+01  7.59869910E+00
  7.59869910E+00 -1.51973982E+01  7.59869910E+00  7.59869910E+00 -1.51973982E+01
  7.59869910E+00  7.59869910E+00 -1.51973982E+01  7.59869910E+00  7.59869910E+00
 -1.51973982E+01  7.59869910E+00  7.59869910E+00 -1.51973982E+01  7.59869910E+00
  7.59869910E+00 -1.51973982E+01  7.59869910E+00  7.59869910E+00 -1.51973982E+01
  7.59869910E+00  7.59869910E+00 -1.51973982E+01  7.59869910E+00  7.59869910E+00
 -1.51973982E+01  7.59869910E+00  7.59869910E+00 -1.51973982E+01  7.59869910E+00
  7.59869910E+00 -1.51973982E+01  7.59869910E+00  7.59869910E+00 -1.51973982E+01
  7.59869910E+00  7.59869910E+00 -1.51973982E+01  7.59869910E+00  7.59869910E+00
 -1.51973982E+01  7.59869910E+00  7.59869910E+00 -1.51973982E+01  7.59869910E+00
  7.59869910E+00 -1.51973982E+01  7.59869910E+00  7.59869910E+00 -1.51973982E+01
  7.59869910E+00  7.59869910E+00 -1.51973982E+01  7.59869910E+00  7.59869910E+00
 -1.51973982E+01  7.59869910E+00  7.59869910E+00 -1.51973982E+01  7.59869910E+00
  7.59869910E+00 -1.51973982E+01  7.59869910E+00  7.59869910E+00 -1.51973982E+01
  7.59869910E+00  7.59869910E+00 -1.51973982E+01  7.59869910E+00  7.59869910E+00
 -1.51973982E+01  7.59869910E+00  7.59869910E+00 -1.51973982E+01  7.59869910E+00
  7.59869910E+00 -1.51973982E+01  7.59869910E+00  7.59869910E+00 -1.51973982E+01
  7.59869910E+00  7.59869910E+00 -1.51973982E+01  7.59869910E+00  7.59869910E+00
 -1.51973982E+01  7.59869910E+00  7.59869910E+00 -1.51973982E+01  7.59869910E+00
  7.59869910E+00 -1.51973982E+01  7.59869910E+00  7.59869910E+00 -1.51973982E+01
  7.59869910E+00  7.59869910E+00 -1.51973982E+01  7.59869910E+00  7.59869910E+00
 -1.51973982E+01  7.59869910E+00  7.59869910E+00 -1.51973982E+01  7.59869910E+00
  7.59869910E+00 -1.51973982E+01  7.59869910E+00  7.59869910E+00 -1.51973982E+01
  7.59869910E+00  7.59869910E+00 -1.51973982E+01  7.59869910E+00  7.59869910E+00
 -1.51973982E+01  7.59869910E+00  7.59869910E+00 -1.51973982E+01  7.59869910E+00
  7.59869910E+00 -1.51973982E+01  7.59869910E+00  7.59869910E+00 -1.51973982E+01
  7.59869910E+00  7.59869910E+00 -1.51973982E+01  7.59869910E+00  7.59869910E+00
 -1.51973982E+01  7.59869910E+00  7.59869910E+00 -1.51973982E+01  7.59869910E+00
  7.59869910E+00 -1.51973982E+01  7.59869910E+00  7.59869910E+00 -1.51973982E+01
  7.59869910E+00  7.59869910E+00 -1.51973982E+01  7.59869910E+00  7.59869910E+00
 -1.51973982E+01  7.59869910E+00  7.59869910E+00 -1.51973982E+01  7.59869910E+00
  7.59869910E+00 -1.51973982E+01  7.59869910E+00  7.59869910E+00 -1.51973982E+01
  7.59869910E+00  7.59869910E+00 -1.51973982E+01  7.59869910E+00  7.59869910E+00
 -1.51973982E+01  7.59869910E+00  7.59869910E+00 -1.51973982E+01  7.59869910E+00
  7.59869910E+00 -1.51973982E+01  7.59869910E+00  7.59869910E+00 -1.51973982E+01
  7.59869910E+00  7.59869910E+00 -1.51973982E+01  7.59869910E+00  7.59869910E+00
 -1.51973982E+01  7.59869910E+00  7.59869910E+00 -1.51973982E+01  7.59869910E+00
  7.59869910E+00 -1.51973982E+01  7.59869910E+00  7.59869910E+00 -1.51973982E+01
  7.59869910E+00  7.59869910E+00 -1.51973982E+01  7.59869910E+00  7.59869910E+00
 -1.51973982E+01  7.59869910E+00  7.59869910E+00 -1.51973982E+01  7.59869910E+00
  7.59869910E+00 -1.51973982E+01  7.59869910E+00  7.59869910E+00 -1.51973982E+01
  7.59869910E+00  7.59869910E+00 -1.51973982E+01  7.59869910E+00  7.59869910E+00
 -1.51973982E+01  7.59869910E+00  7.59869910E+00 -1.51973982E+01  7.59869910E+00
  7.59869910E+00 -1.51973982E+01  7.59869910E+00  7.59869910E+00 -1.51973982E+01
  7.59869910E+00  7.59869910E+00 -1.51973982E+01  7.59869910E+00  7.59869910E+00
 -1.51973982E+01  7.59869910E+00  7.59869910E+00 -1.51973982E+01  7.59869910E+00
  7.59869910E+00 -1.51973982E+01  7.59869910E+00  7.59869910E+00 -1.51973982E+01
  7.59869910E+00  7.59869910E+00 -1.51973982E+01  7.59869910E+00  7.59869910E+00
 -1.51973982E+01  7.59869910E+00  7.59869910E+00 -1.51973982E+01  7.59869910E+00
  7.59869910E+00 -1.51973982E+01  7.59869910E+00  7.59869910E+00 -1.51973982E+01
  7.59869910E+00  7.59869910E+00 -1.51973982E+01  7.59869910E+00  7.59869910E+00
 -1.51973982E+01  7.59869910E+00  7.59869910E+00 -1.51973982E+01  7.59869910E+00
  7.59869910E+00 -1.51973982E+01  7.59869910E+00  7.59869910E+00 -1.51973982E+01
  7.59869910E+00  7.59869910E+00 -1.51973982E+01  7.59869910E+00  7.59869910E+00
 -1.51973982E+01  7.59869910E+00  7.59869910E+00 -1.51973982E+01  7.59869910E+00
  7.59869910E+00 -1.51973982E+01  7.59869910E+00  7.59869910E+00 -1.51973982E+01
  7.59869910E+00  7.59869910E+00 -1.51973982E+01  7.59869910E+00  7.59869910E+00
 -1.51973982E+01  7.59869910E+00  7.59869910E+00 -1.51973982E+01  7.59869910E+00
  7.59869910E+00 -1.51973982E+01  7.59869910E+00  7.59869910E+00 -1.51973982E+01
  7.59869910E+00  7.59869910E+00 -1.51973982E+01  7.59869910E+00  7.59869910E+00
 -1.51973982E+01  7.59869910E+00  7.59869910E+00 -1.51973982E+01  7.59869910E+00
  7.59869910E+00 -1.51973982E+01  7.59869910E+00  7.59869910E+00 -1.51973982E+01
  7.59869910E+00  7.59869910E+00 -1.51973982E+01  7.59869910E+00  7.59869910E+00
 -1.51973982E+01  7.59869910E+00  7.59869910E+00 -1.51973982E+01  7.59869910E+00
  7.59869910E+00 -1.51973982E+01  7.59869910E+00  7.59869910E+00 -1.51973982E+01
  7.59869910E+00  7.59869910E+00 -1.51973982E+01  7.59869910E+00  7.59869910E+00
 -1.51973982E+01  7.59869910E+00  7.59869910E+00 -1.51973982E+01  7.59869910E+00
  7.59869910E+00 -1.51973982E+01  7.59869910E+00  7.59869910E+00 -1.51973982E+01
  7.59869910E+00  7.59869910E+00 -1.51973982E+01  7.59869910E+00  7.59869910E+00
 -1.51973982E+01  7.59869910E+00  7.59869910E+00 -1.51973982E+01  7.59869910E+00
  7.59869910E+00 -1.51973982E+01  7.59869910E+00  7.59869910E+00 -1.51973982E+01
  7.59869910E+00  7.59869910E+00 -1.51973982E+01  7.59869910E+00  7.59869910E+00
 -1.51973982E+01  7.59869910E+00  7.59869910E+00 -1.51973982E+01  7.59869910E+00
  7.59869910E+00 -1.51973982E+01  7.59869910E+00  7.59869910E+00 -1.51973982E+01
  7.59869910E+00  7.59869910E+00 -1.51973982E+01  7.59869910E+00  7.59869910E+00
 -1.51973982E+01  7.59869910E+00  7.59869910E+00 -1.51973982E+01  7.59869910E+00
  7.59869910E+00 -1.51973982E+01  7.59869910E+00  7.59869910E+00 -1.51973982E+01
  7.59869910E+00  7.59869910E+00 -1.51973982E+01  7.59869910E+00  7.59869910E+00
 -1.51973982E+01  7.59869910E+00  7.59869910E+00 -1.51973982E+01  7.59869910E+00
  7.59869910E+00 -1.51973982E+01  7.59869910E+00  7.59869910E+00 -1.51973982E+01
  7.59869910E+00  7.59869910E+00 -1.51973982E+01  7.59869910E+00  7.59869910E+00
 -1.51973982E+01  7.59869910E+00  7.59869910E+00 -1.51973982E+01  7.59869910E+00
  7.59869910E+00 -1.51973982E+01  7.59869910E+00  7.59869910E+00 -1.51973982E+01
  7.59869910E+00  7.59869910E+00 -1.51973982E+01  7.59869910E+00  7.59869910E+00
 -1.51973982E+01  7.59869910E+00  7.59869910E+00 -1.51973982E+01  7.59869910E+00
  7.59869910E+00 -1.51973982E+01  7.59869910E+00  7.59869910E+00 -1.51973982E+01
  7.59869910E+00  7.59869910E+00 -1.51973982E+01  7.59869910E+00  7.59869910E+00
 -1.51973982E+01  7.59869910E+00  7.59869910E+00 -1.51973982E+01  7.59869910E+00
  7.59869910E+00 -1.51973982E+01  7.59869910E+00  7.59869910E+00 -1.51973982E+01
  7.59869910E+00  7.59869910E+00 -1.51973982E+01  7.59869910E+00  7.59869910E+00
 -1.51973982E+01  7.59869910E+00  7.59869910E+00 -1.51973982E+01  7.59869910E+00
  7.59869910E+00 -1.51973982E+01  7.59869910E+00  7.59869910E+00 -1.51973982E+01
  7.59869910E+00  7.59869910E+00 -1.51973982E+01  7.59869910E+00  7.59869910E+00
 -1.51973982E+01  7.59869910E+00  7.59869910E+00 -1.51973982E+01  7.59869910E+00
  7.59869910E+00 -1.51973982E+01  7.59869910E+00  7.59869910E+00 -1.51973982E+01
  7.59869910E+00  7.59869910E+00 -1.51973982E+01  7.59869910E+00  7.59869910E+00
 -1.51973982E+01  7.59869910E+00  7.59869910E+00 -1.51973982E+01  7.59869910E+00
  7.59869910E+00 -1.51973982E+01  7.59869910E+00  7.59869910E+00 -1.51973982E+01
  7.59869910E+00  7.59869910E+00 -1.51973982E+01  7.59869910E+00  7.59869910E+00
 -1.51973982E+01  7.59869910E+00  7.59869910E+00 -1.51973982E+01  7.59869910E+00
  7.59869910E+00 -1.51973982E+01  7.59869910E+00  7.59869910E+00 -1.51973982E+01
  7.59869910E+00  7.59869910E+00 -1.51973982E+01  7.59869910E+00  7.59869910E+00
 -1.51973982E+01  7.59869910E+00  7.59869910E+00 -1.51973982E+01  7.59869910E+00
  7.59869910E+00 -1.51973982E+01  7.59869910E+00  7.59869910E+00 -1.51973982E+01
  7.59869910E+00  7.59869910E+00 -1.51973982E+01  7.59869910E+00  7.59869910E+00
 -1.51973982E+01  7.59869910E+00  7.59869910E+00 -1.51973982E+01  7.59869910E+00
  7.59869910E+00 -1.51973982E+01  7.59869910E+00  7.59869910E+00 -1.51973982E+01
  7.59869910E+00  7.59869910E+00 -1.51973982E+01  7.59869910E+00  7.59869910E+00
 -1.51973982E+01  7.59869910E+00  7.59869910E+00 -1.51973982E+01  7.59869910E+00
  7.59869910E+00 -1.51973982E+01  7.59869910E+00  7.59869910E+00 -1.51973982E+01
  7.59869910E+00  7.59869910E+00 -1.51973982E+01  7.59869910E+00  7.59869910E+00
 -1.51973982E+01  7.59869910E+00  7.59869910E+00 -1.51973982E+01  7.59869910E+00
  7.59869910E+00 -1.51973982E+01  7.59869910E+00  7.59869910E+00 -1.51973982E+01
  7.59869910E+00  7.59869910E+00 -1.51973982E+01  7.59869910E+00  7.59869910E+00
 -1.51973982E+01  7.59869910E+00  7.59869910E+00 -1.51973982E+01  7.59869910E+00
  7.59869910E+00 -1.51973982E+01  7.59869910E+00  7.59869910E+00 -1.51973982E+01
  7.59869910E+00  7.59869910E+00 -1.51973982E+01  7.59869910E+00  7.59869910E+00
 -1.51973982E+01  7.59869910E+00  7.59869910E+00 -1.51973982E+01  7.59869910E+00
  7.59869910E+00 -1.51973982E+01  7.59869910E+00  7.59869910E+00 -1.51973982E+01
  7.59869910E+00  7.59869910E+00 -1.51973982E+01  7.59869910E+00  7.59869910E+00
 -1.51973982E+01  7.59869910E+00  7.59869910E+00 -1.51973982E+01  7.59869910E+00
  7.59869910E+00 -1.51973982E+01  7.59869910E+00  7.59869910E+00 -1.51973982E+01
  7.59869910E+00  7.59869910E+00 -1.51973982E+01  7.59869910E+00  7.59869910E+00
 -1.51973982E+01  7.59869910E+00  7.59869910E+00 -1.51973982E+01  7.59869910E+00
  7.59869910E+00 -1.51973982E+01  7.59869910E+00  7.59869910E+00 -1.51973982E+01
  7.59869910E+00  7.59869910E+00 -1.51973982E+01  7.59869910E+00  7.59869910E+00
 -1.51973982E+01  7.59869910E+00  7.59869910E+00 -1.51973982E+01  7.59869910E+00
  7.59869910E+00 -1.51973982E+01  7.59869910E+00  7.59869910E+00 -1.51973982E+01
  7.59869910E+00  7.59869910E+00 -1.51973982E+01  7.59869910E+00  7.59869910E+00
 -1.51973982E+01  7.59869910E+00  7.59869910E+00 -1.51973982E+01  7.59869910E+00
  7.59869910E+00 -1.51973982E+01  7.59869910E+00  7.59869910E+00 -1.51973982E+01
  7.59869910E+00  7.59869910E+00 -1.51973982E+01  7.59869910E+00  7.59869910E+00
 -1.51973982E+01  7.59869910E+00  7.59869910E+00 -1.51973982E+01  7.59869910E+00
  7.59869910E+00 -1.51973982E+01  7.59869910E+00  7.59869910E+00 -1.51973982E+01
  7.59869910E+00  7.59869910E+00 -1.51973982E+01  7.59869910E+00  7.59869910E+00
 -1.51973982E+01  7.59869910E+00  7.59869910E+00 -1.51973982E+01  7.59869910E+00
  7.59869910E+00 -1.51973982E+01  7.59869910E+00  7.59869910E+00 -1.51973982E+01
  7.59869910E+00  7.59869910E+00 -1.51973982E+01  7.59869910E+00  7.59869910E+00
 -1.51973982E+01  7.59869910E+00  7.59869910E+00 -1.51973982E+01  7.59869910E+00
  7.59869910E+00 -1.51973982E+01  7.59869910E+00  7.59869910E+00 -1.51973982E+01
  7.59869910E+00  7.59869910E+00 -1.51973982E+01  7.59869910E+00  7.59869910E+00
 -1.51973982E+01  7.59869910E+00  7.59869910E+00 -1.51973982E+01  7.59869910E+00
  7.59869910E+00 -1.51973982E+01  7.59869910E+00  7.59869910E+00 -1.51973982E+01
  7.59869910E+00  7.59869910E+00 -1.51973982E+01  7.59869910E+00  7.59869910E+00
 -1.51973982E+01  7.59869910E+00  7.59869910E+00 -1.51973982E+01  7.59869910E+00
  7.59869910E+00 -1.51973982E+01  7.59869910E+00  7.59869910E+00 -1.51973982E+01
  7.59869910E+00  7.59869910E+00 -1.51973982E+01  7.59869910E+00  7.59869910E+00
 -1.51973982E+01  7.59869910E+00  7.59869910E+00 -1.51973982E+01  7.59869910E+00
  7.59869910E+00 -1.51973982E+01  7.59869910E+00  7.59869910E+00 -1.51973982E+01
  7.59869910E+00  7.59869910E+00 -1.51973982E+01  7.59869910E+00  7.59869910E+00
 -1.51973982E+01  7.59869910E+00  7.59869910E+00 -1.51973982E+01  7.59869910E+00
  7.59869910E+00 -1.51973982E+01  7.59869910E+00  7.59869910E+00 -1.51973982E+01
  7.59869910E+00  7.59869910E+00 -1.51973982E+01  7.59869910E+00  7.59869910E+00
 -1.51973982E+01  7.59869910E+00  7.59869910E+00 -1.51973982E+01  7.59869910E+00
  7.59869910E+00 -1.51973982E+01  7.59869910E+00  7.59869910E+00 -1.51973982E+01
  7.59869910E+00  7.59869910E+00 -1.51973982E+01  7.59869910E+00  7.59869910E+00
 -1.51973982E+01  7.59869910E+00  7.59869910E+00 -1.51973982E+01  7.59869910E+00
  7.59869910E+00 -1.51973982E+01  7.59869910E+00  7.59869910E+00 -1.51973982E+01
  7.59869910E+00  7.59869910E+00 -1.51973982E+01  7.59869910E+00  7.59869910E+00
 -1.51973982E+01  7.59869910E+00  7.59869910E+00 -1.51973982E+01  7.59869910E+00
  7.59869910E+00 -1.51973982E+01  7.59869910E+00  7.59869910E+00 -1.51973982E+01
  7.59869910E+00  7.59869910E+00 -1.51973982E+01  7.59869910E+00  7.59869910E+00
 -1.51973982E+01  7.59869910E+00  7.59869910E+00 -1.51973982E+01  7.59869910E+00
  7.59869910E+00 -1.51973982E+01  7.59869910E+00  7.59869910E+00 -1.51973982E+01
  7.59869910E+00  7.59869910E+00 -1.51973982E+01  7.59869910E+00  7.59869910E+00
 -1.51973982E+01  7.59869910E+00  7.59869910E+00 -1.51973982E+01  7.59869910E+00
  7.59869910E+00 -1.51973982E+01  7.59869910E+00  7.59869910E+00 -1.51973982E+01
  7.59869910E+00  7.59869910E+00 -1.51973982E+01  7.59869910E+00  7.59869910E+00
 -1.51973982E+01  7.59869910E+00  7.59869910E+00 -1.51973982E+01  7.59869910E+00
  7.59869910E+00 -1.51973982E+01  7.59869910E+00  7.59869910E+00 -1.51973982E+01
  7.59869910E+00  7.59869910E+00 -1.51973982E+01  7.59869910E+00  7.59869910E+00
 -1.51973982E+01  7.59869910E+00  7.59869910E+00 -1.51973982E+01  7.59869910E+00
  7.59869910E+00 -1.51973982E+01  7.59869910E+00  7.59869910E+00 -1.51973982E+01
  7.59869910E+00  7.59869910E+00 -1.51973982E+01  7.59869910E+00  7.59869910E+00
 -1.51973982E+01  7.59869910E+00  7.59869910E+00 -1.51973982E+01  7.59869910E+00
  7.59869910E+00 -1.51973982E+01  7.59869910E+00  7.59869910E+00 -1.51973982E+01
  7.59869910E+00  7.59869910E+00 -1.51973982E+01  7.59869910E+00  7.59869910E+00
 -1.51973982E+01  7.59869910E+00  7.59869910E+00 -1.51973982E+01  7.59869910E+00
  7.59869910E+00 -1.51973982E+01  7.59869910E+00  7.59869910E+00 -1.51973982E+01
  7.59869910E+00  7.59869910E+00 -1.51973982E+01  7.59869910E+00  7.59869910E+00
 -1.51973982E+01  7.59869910E+00  7.59869910E+00 -1.51973982E+01  7.59869910E+00
  7.59869910E+00 -1.51973982E+01  7.59869910E+00  7.59869910E+00 -1.51973982E+01
  7.59869910E+00  7.59869910E+00 -1.51973982E+01  7.59869910E+00  7.59869910E+00
 -1.51973982E+01  7.59869910E+00  7.59869910E+00 -1.51973982E+01  7.59869910E+00
  7.59869910E+00 -1.51973982E+01  7.59869910E+00  7.59869910E+00 -1.51973982E+01
  7.59869910E+00  7.59869910E+00 -1.51973982E+01  7.59869910E+00  7.59869910E+00
 -1.51973982E+01  7.59869910E+00  7.59869910E+00 -1.51973982E+01  7.59869910E+00
  7.59869910E+00 -1.51973982E+01  7.59869910E+00  7.59869910E+00 -1.51973982E+01
  7.59869910E+00  7.59869910E+00 -1.51973982E+01  7.59869910E+00  7.59869910E+00
 -1.51973982E+01  7.59869910E+00  7.59869910E+00 -1.51973982E+01  7.59869910E+00
  7.59869910E+00 -1.51973982E+01  7.59869910E+00  7.59869910E+00 -1.51973982E+01
  7.59869910E+00  7.59869910E+00 -1.51973982E+01  7.59869910E+00  7.59869910E+00
 -1.51973982E+01  7.59869910E+00  7.59869910E+00 -1.51973982E+01  7.59869910E+00
  7.59869910E+00 -1.51973982E+01  7.59869910E+00  7.59869910E+00 -1.51973982E+01
  7.59869910E+00  7.59869910E+00 -1.51973982E+01  7.59869910E+00  7.59869910E+00
 -1.51973982E+01  7.59869910E+00  7.59869910E+00 -1.51973982E+01  7.59869910E+00
  7.59869910E+00 -1.51973982E+01  7.59869910E+00  7.59869910E+00 -1.51973982E+01
  7.59869910E+00  7.59869910E+00 -1.51973982E+01  7.59869910E+00  7.59869910E+00
 -1.51973982E+01  7.59869910E+00  7.59869910E+00 -1.51973982E+01  7.59869910E+00
  7.59869910E+00 -1.51973982E+01  7.59869910E+00  7.59869910E+00 -1.51973982E+01
  7.59869910E+00  7.59869910E+00 -1.51973982E+01  7.59869910E+00  7.59869910E+00
 -1.51973982E+01  7.59869910E+00  7.59869910E+00 -1.51973982E+01  7.59869910E+00
  7.59869910E+00 -1.51973982E+01  7.59869910E+00  7.59869910E+00 -1.51973982E+01
  7.59869910E+00  7.59869910E+00 -1.51973982E+01  7.59869910E+00  7.59869910E+00
 -1.51973982E+01  7.59869910E+00  7.59869910E+00 -1.51973982E+01  7.59869910E+00
  7.59869910E+00 -1.51973982E+01  7.59869910E+00  7.59869910E+00 -1.51973982E+01
  7.59869910E+00  7.59869910E+00 -1.51973982E+01  7.59869910E+00  7.59869910E+00
 -1.51973982E+01  7.59869910E+00  7.59869910E+00 -1.51973982E+01  7.59869910E+00
  7.59869910E+00 -1.51973982E+01  7.59869910E+00  7.59869910E+00 -1.51973982E+01
  7.59869910E+00  7.59869910E+00 -1.51973982E+01  7.59869910E+00  7.59869910E+00
 -1.51973982E+01  7.59869910E+00  7.59869910E+00 -1.51973982E+01  7.59869910E+00
  7.59869910E+00 -1.51973982E+01  7.59869910E+00  7.59869910E+00 -1.51973982E+01
  7.59869910E+00  7.59869910E+00 -1.51973982E+01  7.59869910E+00  7.59869910E+00
 -1.51973982E+01  7.59869910E+00  7.59869910E+00 -1.51973982E+01  7.59869910E+00
  7.59869910E+00 -1.51973982E+01  7.59869910E+00  7.59869910E+00 -1.51973982E+01
  7.59869910E+00  7.59869910E+00 -1.51973982E+01  7.59869910E+00  7.59869910E+00
 -1.51973982E+01  7.59869910E+00  7.59869910E+00 -1.51973982E+01  7.59869910E+00
  7.59869910E+00 -1.51973982E+01  7.59869910E+00  7.59869910E+00 -1.51973982E+01
  7.59869910E+00  7.59869910E+00 -1.51973982E+01  7.59869910E+00  7.59869910E+00
 -1.51973982E+01  7.59869910E+00  7.59869910E+00 -1.51973982E+01  7.59869910E+00
  7.59869910E+00 -1.51973982E+01  7.59869910E+00  7.59869910E+00 -1.51973982E+01
  7.59869910E+00  7.59869910E+00 -1.51973982E+01  7.59869910E+00  7.59869910E+00
 -1.51973982E+01  7.59869910E+00  7.59869910E+00 -1.51973982E+01  7.59869910E+00
  7.59869910E+00 -1.51973982E+01  7.59869910E+00  7.59869910E+00 -1.51973982E+01
  7.59869910E+00  7.59869910E+00 -1.51973982E+01  7.59869910E+00  7.59869910E+00
 -1.51973982E+01  7.59869910E+00  7.59869910E+00 -1.51973982E+01  7.59869910E+00
  7.59869910E+00 -1.51973982E+01  7.59869910E+00  7.59869910E+00 -1.51973982E+01
  7.59869910E+00  7.59869910E+00 -1.51973982E+01  7.59869910E+00  7.59869910E+00
 -1.51973982E+01  7.59869910E+00  7.59869910E+00 -1.51973982E+01  7.59869910E+00
  7.59869910E+00 -1.51973982E+01  7.59869910E+00  7.59869910E+00 -1.51973982E+01
  7.59869910E+00  7.59869910E+00 -1.51973982E+01  7.59869910E+00  7.59869910E+00
 -1.51973982E+01  7.59869910E+00  7.59869910E+00 -1.51973982E+01  7.59869910E+00
  7.59869910E+00 -1.51973982E+01  7.59869910E+00  7.59869910E+00 -1.51973982E+01
  7.59869910E+00  7.59869910E+00 -1.51973982E+01  7.59869910E+00  7.59869910E+00
 -1.51973982E+01  7.59869910E+00  7.59869910E+00 -1.51973982E+01  7.59869910E+00
  7.59869910E+00 -1.51973982E+01  7.59869910E+00  7.59869910E+00 -1.51973982E+01
  7.59869910E+00  7.59869910E+00 -1.51973982E+01  7.59869910E+00  7.59869910E+00
 -1.51973982E+01  7.59869910E+00  7.59869910E+00 -1.51973982E+01  7.59869910E+00
  7.59869910E+00 -1.51973982E+01  7.59869910E+00  7.59869910E+00 -1.51973982E+01
  7.59869910E+00  7.59869910E+00 -1.51973982E+01  7.59869910E+00  7.59869910E+00
 -1.51973982E+01  7.59869910E+00  7.59869910E+00 -1.51973982E+01  7.59869910E+00
  7.59869910E+00 -1.51973982E+01  7.59869910E+00  7.59869910E+00 -1.51973982E+01
  7.59869910E+00  7.59869910E+00 -1.51973982E+01  7.59869910E+00  7.59869910E+00
 -1.51973982E+01  7.59869910E+00  7.59869910E+00 -1.51973982E+01  7.59869910E+00
  7.59869910E+00 -1.51973982E+01  7.59869910E+00  7.59869910E+00 -1.51973982E+01
  7.59869910E+00  7.59869910E+00 -1.51973982E+01  7.59869910E+00  7.59869910E+00
 -1.51973982E+01  7.59869910E+00  7.59869910E+00 -1.51973982E+01  7.59869910E+00
  7.59869910E+00 -1.51973982E+01  7.59869910E+00  7.59869910E+00 -1.51973982E+01
  7.59869910E+00  7.59869910E+00 -1.51973982E+01  7.59869910E+00  7.59869910E+00
 -1.51973982E+01  7.59869910E+00  7.59869910E+00 -1.51973982E+01  7.59869910E+00
  7.59869910E+00 -1.51973982E+01  7.59869910E+00  7.59869910E+00 -1.51973982E+01
  7.59869910E+00  7.59869910E+00 -1.51973982E+01  7.59869910E+00  7.59869910E+00
 -1.51973982E+01  7.59869910E+00  7.59869910E+00 -1.51973982E+01  7.59869910E+00
  7.59869910E+00 -1.51973982E+01  7.59869910E+00  7.59869910E+00 -1.51973982E+01
  7.59869910E+00  7.59869910E+00 -1.51973982E+01  7.59869910E+00  7.59869910E+00
 -1.51973982E+01  7.59869910E+00  7.59869910E+00 -1.51973982E+01  7.59869910E+00
  7.59869910E+00 -1.51973982E+01  7.59869910E+00  7.59869910E+00 -1.51973982E+01
  7.59869910E+00  7.59869910E+00 -1.51973982E+01  7.59869910E+00  7.59869910E+00
 -1.51973982E+01  7.59869910E+00  7.59869910E+00 -1.51973982E+01  7.59869910E+00
  7.59869910E+00 -1.51973982E+01  7.59869910E+00  7.59869910E+00 -1.51973982E+01
  7.59869910E+00  7.59869910E+00 -1.51973982E+01  7.59869910E+00  7.59869910E+00
 -1.51973982E+01  7.59869910E+00  7.59869910E+00 -1.51973982E+01  7.59869910E+00
  7.59869910E+00 -1.51973982E+01  7.59869910E+00  7.59869910E+00 -1.51973982E+01
  7.59869910E+00  7.59869910E+00 -1.51973982E+01  7.59869910E+00  7.59869910E+00
 -1.51973982E+01  7.59869910E+00  7.59869910E+00 -1.51973982E+01  7.59869910E+00
  7.59869910E+00 -1.51973982E+01  7.59869910E+00  7.59869910E+00 -1.51973982E+01
  7.59869910E+00  7.59869910E+00 -1.51973982E+01  7.59869910E+00  7.59869910E+00
 -1.51973982E+01  7.59869910E+00  7.59869910E+00 -1.51973982E+01  7.59869910E+00
  7.59869910E+00 -1.51973982E+01  7.59869910E+00  7.59869910E+00 -1.51973982E+01
  7.59869910E+00  7.59869910E+00 -1.51973982E+01  7.59869910E+00  7.59869910E+00
 -1.51973982E+01  7.59869910E+00  7.59869910E+00 -1.51973982E+01  7.59869910E+00
  7.59869910E+00 -1.51973982E+01  7.59869910E+00  7.59869910E+00 -1.51973982E+01
  7.59869910E+00  7.59869910E+00 -1.51973982E+01  7.59869910E+00  7.59869910E+00
 -1.51973982E+01  7.59869910E+00  7.59869910E+00 -1.51973982E+01  7.59869910E+00
  7.59869910E+00 -1.51973982E+01  7.59869910E+00  7.59869910E+00 -1.51973982E+01
  7.59869910E+00  7.59869910E+00 -1.51973982E+01  7.59869910E+00  7.59869910E+00
 -1.51973982E+01  7.59869910E+00  7.59869910E+00 -1.51973982E+01  7.59869910E+00
  7.59869910E+00 -1.51973982E+01  7.59869910E+00  7.59869910E+00 -1.51973982E+01
  7.59869910E+00  7.59869910E+00 -1.51973982E+01  7.59869910E+00  7.59869910E+00
 -1.51973982E+01  7.59869910E+00  7.59869910E+00 -1.51973982E+01  7.59869910E+00
  7.59869910E+00 -1.51973982E+01  7.59869910E+00  7.59869910E+00 -1.51973982E+01
  7.59869910E+00  7.59869910E+00 -1.51973982E+01  7.59869910E+00  7.59869910E+00
 -1.51973982E+01  7.59869910E+00  7.59869910E+00 -1.51973982E+01  7.59869910E+00
  7.59869910E+00 -1.51973982E+01  7.59869910E+00  7.59869910E+00 -1.51973982E+01
  7.59869910E+00  7.59869910E+00 -1.51973982E+01  7.59869910E+00  7.59869910E+00
 -1.51973982E+01  7.59869910E+00  7.59869910E+00 -1.51973982E+01  7.59869910E+00
  7.59869910E+00 -1.51973982E+01  7.59869910E+00  7.59869910E+00 -1.51973982E+01
  7.59869910E+00  7.59869910E+00 -1.51973982E+01  7.59869910E+00  7.59869910E+00
 -1.51973982E+01  7.59869910E+00  7.59869910E+00 -1.51973982E+01  7.59869910E+00
  7.59869910E+00 -1.51973982E+01  7.59869910E+00  7.59869910E+00 -1.51973982E+01
  7.59869910E+00  7.59869910E+00 -1.51973982E+01  7.59869910E+00  7.59869910E+00
 -1.51973982E+01  7.59869910E+00  7.59869910E+00 -1.51973982E+01  7.59869910E+00
  7.59869910E+00 -1.51973982E+01  7.59869910E+00  7.59869910E+00 -1.51973982E+01
  7.59869910E+00  7.59869910E+00 -1.51973982E+01  7.59869910E+00  7.59869910E+00
 -1.51973982E+01  7.59869910E+00  7.59869910E+00 -1.51973982E+01  7.59869910E+00
  7.59869910E+00 -1.51973982E+01  7.59869910E+00  7.59869910E+00 -1.51973982E+01
  7.59869910E+00  7.59869910E+00 -1.51973982E+01  7.59869910E+00  7.59869910E+00
 -1.51973982E+01  7.59869910E+00  7.59869910E+00 -1.51973982E+01  7.59869910E+00
  7.59869910E+00 -1.51973982E+01  7.59869910E+00  7.59869910E+00 -1.51973982E+01
  7.59869910E+00  7.59869910E+00 -1.51973982E+01  7.59869910E+00  7.59869910E+00
 -1.51973982E+01  7.59869910E+00  7.59869910E+00 -1.51973982E+01  7.59869910E+00
  7.59869910E+00 -1.51973982E+01  7.59869910E+00  7.59869910E+00 -1.51973982E+01
  7.59869910E+00  7.59869910E+00 -1.51973982E+01  7.59869910E+00  7.59869910E+00
 -1.51973982E+01  7.59869910E+00  7.59869910E+00 -1.51973982E+01  7.59869910E+00
  7.59869910E+00 -1.51973982E+01  7.59869910E+00  7.59869910E+00 -1.51973982E+01
  7.59869910E+00  7.59869910E+00 -1.51973982E+01  7.59869910E+00  7.59869910E+00
 -1.51973982E+01  7.59869910E+00  7.59869910E+00 -1.51973982E+01  7.59869910E+00
  7.59869910E+00 -1.51973982E+01  7.59869910E+00  7.59869910E+00 -1.51973982E+01
  7.59869910E+00  7.59869910E+00 -1.51973982E+01  7.59869910E+00  7.59869910E+00
 -1.51973982E+01  7.59869910E+00  7.59869910E+00 -1.51973982E+01  7.59869910E+00
  7.59869910E+00 -1.51973982E+01  7.59869910E+00  7.59869910E+00 -1.51973982E+01
  7.59869910E+00  7.59869910E+00 -1.51973982E+01  7.59869910E+00  7.59869910E+00
 -1.51973982E+01  7.59869910E+00  7.59869910E+00 -1.51973982E+01  7.59869910E+00
  7.59869910E+00 -1.51973982E+01  7.59869910E+00  7.59869910E+00 -1.51973982E+01
  7.59869910E+00  7.59869910E+00 -1.51973982E+01  7.59869910E+00  7.59869910E+00
 -1.51973982E+01  7.59869910E+00  7.59869910E+00 -1.51973982E+01  7.59869910E+00
  7.59869910E+00 -1.51973982E+01  7.59869910E+00  7.59869910E+00 -1.51973982E+01
  7.59869910E+00  7.59869910E+00 -1.51973982E+01  7.59869910E+00  7.59869910E+00
 -1.51973982E+01  7.59869910E+00  7.59869910E+00 -1.51973982E+01  7.59869910E+00
  7.59869910E+00 -1.51973982E+01  7.59869910E+00  7.59869910E+00 -1.51973982E+01
  7.59869910E+00  7.59869910E+00 -1.51973982E+01  7.59869910E+00  7.59869910E+00
%FLAG ATOMIC_NUMBER                                                             
%FORMAT(10I8)                                                                   
       6       6       6       6       6       6       6       6       6       6
       6       6       6       6       6       6       6       6       6       6
       6       6       6       6       6       6       6       6       6       6
       6       6       6       6       6       6       6       6       6       6
       6       6       6       6       6       6       6       6       6       6
       6       6       6       6       6       6       6       6       6       6
       6       6       6       6       6       6       6       6       6       6
       6       6       6       6       6       6       6       7       6       6
       6       6       6       6       6       6       6       6       7       6
       6       6       6       6       6       6       6       6       6       7
       6       6       6       6       6       6       6       6       6       6
       7       6       6       6       6       6       6       6       6       6
       6       7       6       6       6       6       6       6       6       6
       6       6       7       6       6       6       6       6       6       6
       6       6       6       7       6       6       6       6       6       6
       6       6       6       6       7       6       6       6       6       6
       6       6       6       6       6       7       6       6       6       6
       6       6       6       6       6       6       7       6       6       6
       6       6       6       6       6       6       6       7       6       6
       6       6       6       6       6       6       6       6       7       6
       6       6       6       6       6       6       6       6       6       6
       6       6       6       6       6       6       6       6       6       6
       6       6       6       6       6       6       6       6       6       6
       6       6       6       6       6       6       6       6       6       6
       6       6       6       6       6       6       6       6       7       6
       6       6       6       6       6       6       6       6       6       7
       6       6       6       6       6       6       6       6       6       6
       7       6       6       6       6       6       6       6       6       6
       6       7       6       6       6       6       6       6       6       6
       6       6       7       6       6       6       6       6       6       6
       6       6       6       7       6       6       6       6       6       6
       6       6       6       6       7       6       6       6       6       6
       6       6       6       6       6       7       6       6       6       6
       6       6       6       6       6       6       7       6       6       6
       6       6       6       6       6       6       6       7       6       6
       6       6       6       6       6       6       6       6       7       6
       6       6       6       6       6       6       6       6       6       6
       6       6       6       6       6       6       6       6       6       6
       6       6       6       6       6       6       6       6       6       6
       6       6       6       6       6       6       6       6       6       6
       6       6       6       6       6       6       7       6       6       6
       6       6       6       6       6       6       6       7       6       6
       6       6       6       6       6       6       6       6       7       6
       6       6       6       6       6       6       6       6       6       7
       6       6       6       6       6       6       6       6       6       6
       7       6       6       6       6       6       6       6       6       6
       6       7       6       6       6       6       6       6       6       6
       6       6       7       6       6       6       6       6       6       6
       6       6       6       7       6       6       6       6       6       6
       6       6       6       6       7       6       6       6       6       6
       6       6       6       6       6       7       6       6       6       6
       6       6       6       6       6       6       7       6       6       6
       6       6       6       6       6       6       6       7       6       6
       6       6       6       6       6       6       6       6       7       6
       6       6       6       6       6       6       6       6       6       6
       6       7       6       6       6       6       6       6       6       6
       6       6       7       6       6       6       6       6       6       6
       6       6       6       7       6       6       6       6       6       6
       6       6       6       6       7       6       6       6       6       6
       6       6       6       6       6       7       6       6       6       6
       6       6       6       6       6       6       7       6       6       6
       6       6       6       6       6       6       6       7       6       6
       6       6       6       6       6       6       6       6       7       6
       6       6       6       6       6       6       6       6       6       7
       6       6       6       6       6       6       6       6       6       6
       7       6       6       6       6       6       6       6       6       6
       6       7       6       6       6       6       6       6       6       6
       6       6       7       6       6       6       6       6       1       1
       1       1       1       1       1       1       1       1       1       1
       1       1       1       1       1       1       1       1       1       1
       1       1       1       1       1       1       1       1       1       1
       1       1       1       1       1       1       1       1       1       1
       1       1       1       1       1       1       1       1       1       1
       1       1       1       1       1       1       1       1       1       1
       1       1       1       1       1       1       1       1       1       1
       1       1       1       1       1       1       1       1       1       1
       1       1       1       1       1       1       1       1       1       1
       1       1       1       1       1       1       1       1       1       1
       1       1       1       1       1       1       1       1       1       1
       1       1       1       1       1       1       1       1       1       1
       1       1       1       1       1       1       1       1       1       1
       1       1       1       1       1       1       1       1       1       1
       1       1       1       1       1       1       1       1       1       1
       1       1       1       1       1       1       1       1       1       1
       1       1       1       1       1       1       1       1       1       1
       1       1       1       1       1       1       1       1       1       1
       1       1       1       1       1       1       1       1       1       1
       1       1       1       1       1       1       1       1       1       1
       1       1       1       1       1       1       1       1       1       1
       1       1       1       1       1       1       1       1       1       1
       1       1       1       1       1       1       1       1       1       1
       1       1       1       1       1       1       1       1       1       1
       1       1       1       1       1       1       1       1       1       1
       1       1       1       1       1       1       1       1       1       1
       1       1       1       1       1       1       1       1       1       1
       1       1       1       1       1       1       1       1       1       1
       1       1       1       1       1       1       1       1       1       1
       1       1       1       1       1       1       1       1       1       1
       1       1       1       1       1       1       1       1       1       1
       1       1       1       1       1       1       1       1       1       1
       1       1       1       1       1       1       1       1       1       1
       1       1       1       1       1       1       1       1       1       1
       1       1       1       1       1       1       1       1       1       1
       1       1       1       1       1       1       1       1       1       1
       1       1       1       1       1       1       1       1       1       1
       1       1       1       1       1       1       1       1       1       1
       1       1       1       1       1       1       1       1       1       1
       1       1       1       1       1       1       1       1       1       1
       1       1       1       1       1       1       1       1       1       1
       1       1       1       1       1       1       1       1       1       1
       1       1       1       1       1       1       1       1       1       1
       1       1       1       1       1       1       1       1       1       1
       1       1       1       1       1       1       1       1       1       1
       1       1       1       1       1       1       1       1       1       1
       1       1       1       1       1       1       1       1       1       1
       1       1       1       1       1       1       1       1       1       1
       1       1       1       1       1       1       1       1       1       1
       1       1       1       1       1       1       1       1       1       1
       1       1       1       1       1       1       1       1       1       1
       1       1       1       1       1       1       1       1       1       1
       1       1       1       1       1       1       1       1       1       1
       1       1       1       1       1       1       1       1       1       1
       1       1       1       1       1       1       1       1       1       1
       1       1       1       1       1       1       1       1       1       1
       1       1       1       1       1       1       1       1       1       1
       1       1       1       1       1       1       1       1       1       1
       1       1       1       1       1       1       1       1       1       1
       1       1       1       1       1       1       1       1       1       1
       1       1       1       1       1       1       1       1       1       1
       1       1       1       1       1       1       1       1       1       1
       1       1       1       1       1       1       1       1       1       1
       1       1       1       1       1       1       1       1       1       1
       1       1       1       1       1       1       1       1       1       1
       1       1       1       1       1       1       1       1       1       1
       1       1       1       1       1       1       1       1       1       1
       1       1       1       1       1       1       1       1       1       1
       1       1       1       1       1       1       1       1       1       1
       1       1       1       1       1       1       1       1       1       1
       1       1       1       1       1       1       1       1       1       1
       1       1       1       1       1       1       1       1       1       1
       1       1       1       1       1       1       1       1       1       1
       1       1       1       1       1       1       1       1       1       1
       1       1       1       1       1       1       1       1       1       1
       1       1       1       1       1       1       1       1       1       1
       1       1       1       1       1       1       1       1       1       1
       1       1       1       1       1       1       1       1       1       1
       1       1       1       1       1       1       1       1       1       1
       1       1       1       1       1       1       1       1       1       1
       1       1       1       1       1       1       1       1       1       1
       1       1       1       1       1       1       1       1       1       1
       1       1       1       1       1       1       1       1       1       1
       1       1       1       1       1       1       1       1       1       1
       1       1       1       1       1       1       1       1       1       1
       1       1       1       1       1       1       1       1       1       1
       1       1       1       1       1       1       1       1       1       1
       1       1       1       1       1       1       1       1       1       1
       1       1       1       1       1       1       1       1       1       1
       1       1       1       1       1       1       1       1       1       1
       1       1       1       1       1       1       1       1       1       1
       1       1       1       1       1       1       1       1       1       1
       1       1       1       1       1       1       1       1       1       1
       1       1       1       1       1       1       1       1       1       1
       1       1       1       1       1       1       1       1       1       1
       1       1       1       1       1       1       1       1       1       1
       1       1       1       1      17      17      17      17      17      17
      17      17      17      17      17      17      17      17      17      17
      17      17      17      17      17      17      17      17      17      17
      17      17      17      17      17      17      17      17      17      17
      17      17      17      17      17      17      17      17      17      17
      17      17       8       1       1       8       1       1       8       1
       1       8       1       1       8       1       1       8       1       1
       8       1       1       8       1       1       8       1       1       8
       1       1       8       1       1       8       1       1       8       1
       1       8       1       1       8       1       1       8       1       1
       8       1       1       8       1       1       8       1       1       8
       1       1       8       1       1       8       1       1       8       1
       1       8       1       1       8       1       1       8       1       1
       8       1       1       8       1       1       8       1       1       8
       1       1       8       1       1       8       1       1       8       1
       1       8       1       1       8       1       1       8       1       1
       8       1       1       8       1       1       8       1       1       8
       1       1       8       1       1       8       1       1       8       1
       1       8       1       1       8       1       1       8       1       1
       8       1       1       8       1       1       8       1       1       8
       1       1       8       1       1       8       1       1       8       1
       1       8       1       1       8       1       1       8       1       1
       8       1       1       8       1       1       8       1       1       8
       1       1       8       1       1       8       1       1       8       1
       1       8       1       1       8       1       1       8       1       1
       8       1       1       8       1       1       8       1       1       8
       1       1       8       1       1       8       1       1       8       1
       1       8       1       1       8       1       1       8       1       1
       8       1       1       8       1       1       8       1       1       8
       1       1       8       1       1       8       1       1       8       1
       1       8       1       1       8       1       1       8       1       1
       8       1       1       8       1       1       8       1       1       8
       1       1       8       1       1       8       1       1       8       1
       1       8       1       1       8       1       1       8       1       1
       8       1       1       8       1       1       8       1       1       8
       1       1       8       1       1       8       1       1       8       1
       1       8       1       1       8       1       1       8       1       1
       8       1       1       8       1       1       8       1       1       8
       1       1       8       1       1       8       1       1       8       1
       1       8       1       1       8       1       1       8       1       1
       8       1       1       8       1       1       8       1       1       8
       1       1       8       1       1       8       1       1       8       1
       1       8       1       1       8       1       1       8       1       1
       8       1       1       8       1       1       8       1       1       8
       1       1       8       1       1       8       1       1       8       1
       1       8       1       1       8       1       1       8       1       1
       8       1       1       8       1       1       8       1       1       8
       1       1       8       1       1       8       1       1       8       1
       1       8       1       1       8       1       1       8       1       1
       8       1       1       8       1       1       8       1       1       8
       1       1       8       1       1       8       1       1       8       1
       1       8       1       1       8       1       1       8       1       1
       8       1       1       8       1       1       8       1       1       8
       1       1       8       1       1       8       1       1       8       1
       1       8       1       1       8       1       1       8       1       1
       8       1       1       8       1       1       8       1       1       8
       1       1       8       1       1       8       1       1       8       1
       1       8       1       1       8       1       1       8       1       1
       8       1       1       8       1       1       8       1       1       8
       1       1       8       1       1       8       1       1       8       1
       1       8       1       1       8       1       1       8       1       1
       8       1       1       8       1       1       8       1       1       8
       1       1       8       1       1       8       1       1       8       1
       1       8       1       1       8       1       1       8       1       1
       8       1       1       8       1       1       8       1       1       8
       1       1       8       1       1       8       1       1       8       1
       1       8       1       1       8       1       1       8       1       1
       8       1       1       8       1       1       8       1       1       8
       1       1       8       1       1       8       1       1       8       1
       1       8       1       1       8       1       1       8       1       1
       8       1       1       8       1       1       8       1       1       8
       1       1       8       1       1       8       1       1       8       1
       1       8       1       1       8       1       1       8       1       1
       8       1       1       8       1       1       8       1       1       8
       1       1       8       1       1       8       1       1       8       1
       1       8       1       1       8       1       1       8       1       1
       8       1       1       8       1       1       8       1       1       8
       1       1       8       1       1       8       1       1       8       1
       1       8       1       1       8       1       1       8       1       1
       8       1       1       8       1       1       8       1       1       8
       1       1       8       1       1       8       1       1       8       1
       1       8       1       1       8       1       1       8       1       1
       8       1       1       8       1       1       8       1       1       8
       1       1       8       1       1       8       1       1       8       1
       1       8       1       1       8       1       1       8       1       1
       8       1       1       8       1       1       8       1       1       8
       1       1       8       1       1       8       1       1       8       1
       1       8       1       1       8       1       1       8       1       1
       8       1       1       8       1       1       8       1       1       8
       1       1       8       1       1       8       1       1       8       1
       1       8       1       1       8       1       1       8       1       1
       8       1       1       8       1       1       8       1       1       8
       1       1       8       1       1       8       1       1       8       1
       1       8       1       1       8       1       1       8       1       1
       8       1       1       8       1       1       8       1       1       8
       1       1       8       1       1       8       1       1       8       1
       1       8       1       1       8       1       1       8       1       1
       8       1       1       8       1       1       8       1       1       8
       1       1       8       1       1       8       1       1       8       1
       1       8       1       1       8       1       1       8       1       1
       8       1       1       8       1       1       8       1       1       8
       1       1       8       1       1       8       1       1       8       1
       1       8       1       1       8       1       1       8       1       1
       8       1       1       8       1       1       8       1       1       8
       1       1       8       1       1       8       1       1       8       1
       1       8       1       1       8       1       1       8       1       1
       8       1       1       8       1       1       8       1       1       8
       1       1       8       1       1       8       1       1       8       1
       1       8       1       1       8       1       1       8       1       1
       8       1       1       8       1       1       8       1       1       8
       1       1       8       1       1       8       1       1       8       1
       1       8       1       1       8       1       1       8       1       1
       8       1       1       8       1       1       8       1       1       8
       1       1       8       1       1       8       1       1       8       1
       1       8       1       1       8       1       1       8       1       1
       8       1       1       8       1       1       8       1       1       8
       1       1       8       1       1       8       1       1       8       1
       1       8       1       1       8       1       1       8       1       1
       8       1       1       8       1       1       8       1       1       8
       1       1       8       1       1       8       1       1       8       1
       1       8       1       1       8       1       1       8       1       1
       8       1       1       8       1       1       8       1       1       8
       1       1       8       1       1       8       1       1       8       1
       1       8       1       1       8       1       1       8       1       1
       8       1       1       8       1       1       8       1       1       8
       1       1       8       1       1       8       1       1       8       1
       1       8       1       1       8       1       1       8       1       1
       8       1       1       8       1       1       8       1       1       8
       1       1       8       1       1       8       1       1       8       1
       1       8       1       1       8       1       1       8       1       1
       8       1       1       8       1       1       8       1       1       8
       1       1       8       1       1       8       1       1       8       1
       1       8       1       1       8       1       1       8       1       1
       8       1       1       8       1       1       8       1       1       8
       1       1       8       1       1       8       1       1       8       1
       1       8       1       1       8       1       1       8       1       1
       8       1       1       8       1       1       8       1       1       8
       1       1       8       1       1       8       1       1       8       1
       1       8       1       1       8       1       1       8       1       1
       8       1       1       8       1       1       8       1       1       8
       1       1       8       1       1       8       1       1       8       1
       1       8       1       1       8       1       1       8       1       1
       8       1       1       8       1       1       8       1       1       8
       1       1       8       1       1       8       1       1       8       1
       1       8       1       1       8       1       1       8       1       1
       8       1       1       8       1       1       8       1       1       8
       1       1       8       1       1       8       1       1       8       1
       1       8       1       1       8       1       1       8       1       1
       8       1       1       8       1       1       8       1       1       8
       1       1       8       1       1       8       1       1       8       1
       1       8       1       1       8       1       1       8       1       1
       8       1       1       8       1       1       8       1       1       8
       1       1       8       1       1       8       1       1       8       1
       1       8       1       1       8       1       1       8       1       1
       8       1       1       8       1       1       8       1       1       8
       1       1       8       1       1       8       1       1       8       1
       1       8       1       1       8       1       1       8       1       1
       8       1       1       8       1       1       8       1       1       8
       1       1       8       1       1       8       1       1       8       1
       1       8       1       1       8       1       1       8       1       1
       8       1       1       8       1       1       8       1       1       8
       1       1       8       1       1       8       1       1       8       1
       1       8       1       1       8       1       1       8       1       1
       8       1       1       8       1       1       8       1       1       8
       1       1       8       1       1       8       1       1       8       1
       1       8       1       1       8       1       1       8       1       1
       8       1       1       8       1       1       8       1       1       8
       1       1       8       1       1       8       1       1       8       1
       1       8       1       1       8       1       1       8       1       1
       8       1       1       8       1       1       8       1       1       8
       1       1       8       1       1       8       1       1       8       1
       1       8       1       1       8       1       1       8       1       1
       8       1       1       8       1       1       8       1       1       8
       1       1       8       1       1       8       1       1       8       1
       1       8       1       1       8       1       1       8       1       1
       8       1       1       8       1       1       8       1       1       8
       1       1       8       1       1       8       1       1       8       1
       1       8       1       1       8       1       1       8       1       1
       8       1       1       8       1       1       8       1       1       8
       1       1       8       1       1       8       1       1       8       1
       1       8       1       1       8       1       1       8       1       1
       8       1       1       8       1       1       8       1       1       8
       1       1       8       1       1       8       1       1       8       1
       1       8       1       1       8       1       1       8       1       1
       8       1       1       8       1       1       8       1       1       8
       1       1       8       1       1       8       1       1       8       1
       1       8       1       1       8       1       1       8       1       1
       8       1       1       8       1       1       8       1       1       8
       1       1       8       1       1       8       1       1       8       1
       1       8       1       1       8       1       1       8       1       1
       8       1       1       8       1       1       8       1       1       8
       1       1       8       1       1       8       1       1       8       1
       1       8       1       1       8       1       1       8       1       1
       8       1       1       8       1       1       8       1       1       8
       1       1       8       1       1       8       1       1       8       1
       1       8       1       1       8       1       1       8       1       1
       8       1       1       8       1       1       8       1       1       8
       1       1       8       1       1       8       1       1       8       1
       1       8       1       1       8       1       1       8       1       1
       8       1       1       8       1       1       8       1       1       8
       1       1       8       1       1       8       1       1       8       1
       1       8       1       1       8       1       1       8       1       1
       8       1       1       8       1       1       8       1       1       8
       1       1       8       1       1       8       1       1       8       1
       1       8       1       1       8       1       1       8       1       1
       8       1       1       8       1       1       8       1       1       8
       1       1       8       1       1       8       1       1       8       1
       1       8       1       1       8       1       1       8       1       1
       8       1       1       8       1       1       8       1       1       8
       1       1       8       1       1       8       1       1       8       1
       1       8       1       1       8       1       1       8       1       1
       8       1       1       8       1       1       8       1       1       8
       1       1       8       1       1       8       1       1       8       1
       1       8       1       1       8       1       1       8       1       1
       8       1       1       8       1       1       8       1       1       8
       1       1       8       1       1       8       1       1       8       1
       1       8       1       1       8       1       1       8       1       1
       8       1       1       8       1       1       8       1       1       8
       1       1       8       1       1       8       1       1       8       1
       1       8       1       1       8       1       1       8       1       1
       8       1       1       8       1       1       8       1       1       8
       1       1       8       1       1       8       1       1       8       1
       1       8       1       1       8       1       1       8       1       1
       8       1       1       8       1       1       8       1       1       8
       1       1       8       1       1       8       1       1       8       1
       1       8       1       1       8       1       1       8       1       1
       8       1       1       8       1       1       8       1       1       8
       1       1       8       1       1       8       1       1       8       1
       1       8       1       1       8       1       1       8       1       1
       8       1       1       8       1       1       8       1       1       8
       1       1       8       1       1       8       1       1       8       1
       1       8       1       1       8       1       1       8       1       1
       8       1       1       8       1       1       8       1       1       8
       1       1       8       1       1       8       1       1       8       1
       1       8       1       1       8       1       1       8       1       1
       8       1       1       8       1       1       8       1       1       8
       1       1       8       1       1       8       1       1       8       1
       1       8       1       1       8       1       1       8       1       1
       8       1       1       8       1       1       8       1       1       8
       1       1       8       1       1       8       1       1       8       1
       1       8       1       1       8       1       1       8       1       1
       8       1       1       8       1       1       8       1       1       8
       1       1       8       1       1       8       1       1       8       1
       1       8       1       1       8       1       1       8       1       1
       8       1       1       8       1       1       8       1       1       8
       1       1       8       1       1       8       1       1       8       1
       1       8       1       1       8       1       1       8       1       1
       8       1       1       8       1       1       8       1       1       8
       1       1       8       1       1       8       1       1       8       1
       1       8       1       1       8       1       1       8       1       1
       8       1       1       8       1       1       8       1       1       8
       1       1       8       1       1       8       1       1       8       1
       1       8       1       1       8       1       1       8       1       1
       8       1       1       8       1       1       8       1       1       8
       1       1       8       1       1       8       1       1       8       1
       1       8       1       1       8       1       1       8       1       1
       8       1       1       8       1       1       8       1       1       8
       1       1       8       1       1       8       1       1       8       1
       1       8       1       1       8       1       1       8       1       1
       8       1       1       8       1       1       8       1       1       8
       1       1       8       1       1       8       1       1       8       1
       1       8       1       1       8       1       1       8       1       1
       8       1       1       8       1       1       8       1       1       8
       1       1       8       1       1       8       1       1       8       1
       1       8       1       1       8       1       1       8       1       1
       8       1       1       8       1       1       8       1       1       8
       1       1       8       1       1       8       1       1       8       1
       1       8       1       1       8       1       1       8       1       1
       8       1       1       8       1       1       8       1       1       8
       1       1       8       1       1       8       1       1       8       1
       1       8       1       1       8       1       1       8       1       1
       8       1       1       8       1       1       8       1       1       8
       1       1       8       1       1       8       1       1       8       1
       1       8       1       1       8       1       1       8       1       1
       8       1       1       8       1       1       8       1       1       8
       1       1       8       1       1       8       1       1       8       1
       1       8       1       1       8       1       1       8       1       1
       8       1       1       8       1       1       8       1       1       8
       1       1       8       1       1       8       1       1       8       1
       1       8       1       1       8       1       1       8       1       1
       8       1       1       8       1       1       8       1       1       8
       1       1       8       1       1       8       1       1       8       1
       1       8       1       1       8       1       1       8       1       1
       8       1       1       8       1       1       8       1       1       8
       1       1       8       1       1       8       1       1       8       1
       1       8       1       1       8       1       1       8       1       1
       8       1       1       8       1       1       8       1       1       8
       1       1       8       1       1       8       1       1       8       1
       1       8       1       1       8       1       1       8       1       1
       8       1       1       8       1       1       8       1       1       8
       1       1       8       1       1       8       1       1       8       1
       1       8       1       1       8       1       1       8       1       1
       8       1       1       8       1       1       8       1       1       8
       1       1       8       1       1       8       1       1       8       1
       1       8       1       1       8       1       1       8       1       1
       8       1       1       8       1       1       8       1       1       8
       1       1       8       1       1       8       1       1       8       1
       1       8       1       1       8       1       1       8       1       1
       8       1       1       8       1       1       8       1       1       8
       1       1       8       1       1       8       1       1       8       1
       1       8       1       1       8       1       1       8       1       1
       8       1       1       8       1       1       8       1       1       8
       1       1       8       1       1       8       1       1       8       1
       1       8       1       1       8       1       1       8       1       1
       8       1       1       8       1       1       8       1       1       8
       1       1       8       1       1       8       1       1       8       1
       1       8       1       1       8       1       1       8       1       1
       8       1       1       8       1       1       8       1       1       8
       1       1       8       1       1       8       1       1       8       1
       1       8       1       1       8       1       1       8       1       1
       8       1       1       8       1       1       8       1       1       8
       1       1       8       1       1       8       1       1       8       1
       1       8       1       1       8       1       1       8       1       1
       8       1       1       8       1       1       8       1       1       8
       1       1       8       1       1       8       1       1       8       1
       1       8       1       1       8       1       1       8       1       1
       8       1       1       8       1       1       8       1       1       8
       1       1       8       1       1       8       1       1       8       1
       1       8       1       1       8       1       1       8       1       1
       8       1       1       8       1       1       8       1       1       8
       1       1       8       1       1       8       1       1       8       1
       1       8       1       1       8       1       1       8       1       1
       8       1       1       8       1       1       8       1       1       8
       1       1       8       1       1       8       1       1       8       1
       1       8       1       1       8       1       1       8       1       1
       8       1       1       8       1       1       8       1       1       8
       1       1       8       1       1       8       1       1       8       1
       1       8       1       1       8       1       1       8       1       1
       8       1       1       8       1       1       8       1       1       8
       1       1       8       1       1       8       1       1       8       1
       1       8       1       1       8       1       1       8       1       1
       8       1       1       8       1       1       8       1       1       8
       1       1       8       1       1       8       1       1       8       1
       1       8       1       1       8       1       1       8       1       1
       8       1       1       8       1       1       8       1       1       8
       1       1       8       1       1       8       1       1       8       1
       1       8       1       1       8       1       1       8       1       1
       8       1       1       8       1       1       8       1       1       8
       1       1       8       1       1       8       1       1       8       1
       1       8       1       1       8       1       1       8       1       1
       8       1       1       8       1       1       8       1       1       8
       1       1       8       1       1       8       1       1       8       1
       1       8       1       1       8       1       1       8       1       1
       8       1       1       8       1       1       8       1       1       8
       1       1       8       1       1       8       1       1       8       1
       1       8       1       1       8       1       1       8       1       1
       8       1       1       8       1       1       8       1       1       8
       1       1       8       1       1       8       1       1       8       1
       1       8       1       1       8       1       1       8       1       1
       8       1       1       8       1       1       8       1       1       8
       1       1       8       1       1       8       1       1       8       1
       1       8       1       1       8       1       1       8       1       1
       8       1       1       8       1       1       8       1       1       8
       1       1       8       1       1       8       1       1       8       1
       1       8       1       1       8       1       1       8       1       1
       8       1       1       8       1       1       8       1       1       8
       1       1       8       1       1       8       1       1       8       1
       1       8       1       1       8       1       1       8       1       1
       8       1       1       8       1       1       8       1       1       8
       1       1       8       1       1       8       1       1       8       1
       1       8       1       1       8       1       1       8       1       1
       8       1       1       8       1       1       8       1       1       8
       1       1       8       1       1       8       1       1       8       1
       1       8       1       1       8       1       1       8       1       1
       8       1       1       8       1       1       8       1       1       8
       1       1       8       1       1       8       1       1       8       1
       1       8       1       1       8       1       1       8       1       1
       8       1       1       8       1       1       8       1       1       8
       1       1       8       1       1       8       1       1       8       1
       1       8       1       1       8       1       1       8       1       1
       8       1       1       8       1       1       8       1       1       8
       1       1       8       1       1       8       1       1       8       1
       1       8       1       1       8       1       1       8       1       1
       8       1       1       8       1       1       8       1       1       8
       1       1       8       1       1       8       1       1       8       1
       1       8       1       1       8       1       1       8       1       1
       8       1       1       8       1       1       8       1       1       8
       1       1       8       1       1       8       1       1       8       1
       1       8       1       1       8       1       1       8       1       1
       8       1       1       8       1       1       8       1       1       8
       1       1       8       1       1       8       1       1       8       1
       1       8       1       1       8       1       1       8       1       1
       8       1       1       8       1       1       8       1       1       8
       1       1       8       1       1       8       1       1       8       1
       1       8       1       1       8       1       1       8       1       1
       8       1       1       8       1       1       8       1       1       8
       1       1       8       1       1       8       1       1       8       1
       1       8       1       1       8       1       1       8       1       1
       8       1       1       8       1       1       8       1       1       8
       1       1       8       1       1       8       1       1       8       1
       1       8       1       1       8       1       1       8       1       1
       8       1       1       8       1       1       8       1       1       8
       1       1       8       1       1       8       1       1       8       1
       1       8       1       1       8       1       1       8       1       1
       8       1       1       8       1       1       8       1       1       8
       1       1       8       1       1       8       1       1       8       1
       1       8       1       1       8       1       1       8       1       1
       8       1       1       8       1       1       8       1       1       8
       1       1       8       1       1       8       1       1       8       1
       1       8       1       1       8       1       1       8       1       1
       8       1       1       8       1       1       8       1       1       8
       1       1       8       1       1       8       1       1       8       1
       1       8       1       1       8       1       1       8       1       1
       8       1       1       8       1       1       8       1       1       8
       1       1       8       1       1       8       1       1       8       1
       1       8       1       1       8       1       1       8       1       1
       8       1       1       8       1       1       8       1       1       8
       1       1       8       1       1       8       1       1       8       1
       1       8       1       1       8       1       1       8       1       1
       8       1       1       8       1       1       8       1       1       8
       1       1       8       1       1       8       1       1       8       1
       1       8       1       1       8       1       1       8       1       1
       8       1       1       8       1       1       8       1       1       8
       1       1       8       1       1       8       1       1       8       1
       1       8       1       1       8       1       1       8       1       1
       8       1       1       8       1       1       8       1       1       8
       1       1       8       1       1       8       1       1       8       1
       1       8       1       1       8       1       1       8       1       1
       8       1       1       8       1       1       8       1       1       8
       1       1       8       1       1       8       1       1       8       1
       1       8       1       1       8       1       1       8       1       1
       8       1       1       8       1       1       8       1       1       8
       1       1       8       1       1       8       1       1       8       1
       1       8       1       1       8       1       1       8       1       1
       8       1       1       8       1       1       8       1       1       8
       1       1       8       1       1       8       1       1       8       1
       1       8       1       1       8       1       1       8       1       1
       8       1       1       8       1       1       8       1       1       8
       1       1       8       1       1       8       1       1       8       1
       1       8       1       1       8       1       1       8       1       1
       8       1       1       8       1       1       8       1       1       8
       1       1       8       1       1       8       1       1       8       1
       1       8       1       1       8       1       1       8       1       1
       8       1       1       8       1       1       8       1       1       8
       1       1       8       1       1       8       1       1       8       1
       1       8       1       1       8       1       1       8       1       1
       8       1       1       8       1       1       8       1       1       8
       1       1       8       1       1       8       1       1       8       1
       1       8       1       1       8       1       1       8       1       1
       8       1       1       8       1       1       8       1       1       8
       1       1       8       1       1       8       1       1       8       1
       1       8       1       1       8       1       1       8       1       1
       8       1       1       8       1       1       8       1       1       8
       1       1       8       1       1       8       1       1       8       1
       1       8       1       1       8       1       1       8       1       1
       8       1       1       8       1       1       8       1       1       8
       1       1       8       1       1       8       1       1       8       1
       1       8       1       1       8       1       1       8       1       1
       8       1       1       8       1       1       8       1       1       8
       1       1       8       1       1       8       1       1       8       1
       1       8       1       1       8       1       1       8       1       1
       8       1       1       8       1       1       8       1       1       8
       1       1       8       1       1       8       1       1       8       1
       1       8       1       1       8       1       1       8       1       1
       8       1       1       8       1       1       8       1       1       8
       1       1       8       1       1       8       1       1       8       1
       1       8       1       1       8       1       1       8       1       1
       8       1       1       8       1       1       8       1       1       8
       1       1       8       1       1       8       1       1       8       1
       1       8       1       1       8       1       1       8       1       1
       8       1       1       8       1       1       8       1       1       8
       1       1       8       1       1       8       1       1       8       1
       1       8       1       1       8       1       1       8       1       1
       8       1       1       8       1       1       8       1       1       8
       1       1       8       1       1       8       1       1       8       1
       1       8       1       1       8       1       1       8       1       1
       8       1       1       8       1       1       8       1       1       8
       1       1       8       1       1       8       1       1       8       1
       1       8       1       1       8       1       1       8       1       1
       8       1       1       8       1       1       8       1       1       8
       1       1       8       1       1       8       1       1       8       1
       1       8       1       1       8       1       1       8       1       1
       8       1       1       8       1       1       8       1       1       8
       1       1       8       1       1       8       1       1       8       1
       1       8       1       1       8       1       1       8       1       1
       8       1       1       8       1       1       8       1       1       8
       1       1       8       1       1       8       1       1       8       1
       1       8       1       1       8       1       1       8       1       1
       8       1       1       8       1       1       8       1       1       8
       1       1       8       1       1       8       1       1       8       1
       1       8       1       1       8       1       1       8       1       1
       8       1       1       8       1       1       8       1       1       8
       1       1       8       1       1       8       1       1       8       1
       1       8       1       1       8       1       1       8       1       1
       8       1       1       8       1       1       8       1       1       8
       1       1       8       1       1       8       1       1       8       1
       1       8       1       1       8       1       1       8       1       1
       8       1       1       8       1       1       8       1       1       8
       1       1       8       1       1       8       1       1       8       1
       1       8       1       1       8       1       1       8       1       1
       8       1       1       8       1       1       8       1       1       8
       1       1       8       1       1       8       1       1       8       1
       1       8       1       1       8       1       1       8       1       1
       8       1       1       8       1       1       8       1       1       8
       1       1       8       1       1       8       1       1       8       1
       1       8       1       1       8       1       1       8       1       1
       8       1       1       8       1       1       8       1       1       8
       1       1       8       1       1       8       1       1       8       1
       1       8       1       1       8       1       1       8       1       1
       8       1       1       8       1       1       8       1       1       8
       1       1       8       1       1       8       1       1       8       1
       1       8       1       1       8       1       1       8       1       1
       8       1       1       8       1       1       8       1       1       8
       1       1       8       1       1       8       1       1       8       1
       1       8       1       1       8       1       1       8       1       1
       8       1       1       8       1       1       8       1       1       8
       1       1       8       1       1       8       1       1       8       1
       1       8       1       1       8       1       1       8       1       1
       8       1       1       8       1       1       8       1       1       8
       1       1       8       1       1       8       1       1       8       1
       1       8       1       1       8       1       1       8       1       1
       8       1       1       8       1       1       8       1       1       8
       1       1       8       1       1       8       1       1       8       1
       1       8       1       1       8       1       1       8       1       1
       8       1       1       8       1       1       8       1       1       8
       1       1       8       1       1       8       1       1       8       1
       1       8       1       1       8       1       1       8       1       1
       8       1       1       8       1       1       8       1       1       8
       1       1       8       1       1       8       1       1       8       1
       1       8       1       1       8       1       1       8       1       1
       8       1       1       8       1       1       8       1       1       8
       1       1       8       1       1       8       1       1       8       1
       1       8       1       1       8       1       1       8       1       1
       8       1       1       8       1       1       8       1       1       8
       1       1       8       1       1       8       1       1       8       1
       1       8       1       1       8       1       1       8       1       1
       8       1       1       8       1       1       8       1       1       8
       1       1       8       1       1       8       1       1       8       1
       1       8       1       1       8       1       1       8       1       1
       8       1       1       8       1       1       8       1       1       8
       1       1       8       1       1       8       1       1       8       1
       1       8       1       1       8       1       1       8       1       1
       8       1       1       8       1       1       8       1       1       8
       1       1       8       1       1       8       1       1       8       1
       1       8       1       1       8       1       1       8       1       1
       8       1       1       8       1       1       8       1       1       8
       1       1       8       1       1       8       1       1       8       1
       1       8       1       1       8       1       1       8       1       1
       8       1       1       8       1       1       8       1       1       8
       1       1       8       1       1       8       1       1       8       1
       1       8       1       1       8       1       1       8       1       1
       8       1       1       8       1       1       8       1       1       8
       1       1       8       1       1       8       1       1       8       1
       1       8       1       1       8       1       1       8       1       1
       8       1       1       8       1       1       8       1       1       8
       1       1       8       1       1       8       1       1       8       1
       1       8       1       1       8       1       1       8       1       1
       8       1       1       8       1       1       8       1       1       8
       1       1       8       1       1       8       1       1       8       1
       1       8       1       1       8       1       1       8       1       1
       8       1       1       8       1       1       8       1       1       8
       1       1       8       1       1       8       1       1       8       1
       1       8       1       1       8       1       1       8       1       1
       8       1       1       8       1       1       8       1       1       8
       1       1       8       1       1       8       1       1       8       1
       1       8       1       1       8       1       1       8       1       1
       8       1       1       8       1       1       8       1       1       8
       1       1       8       1       1       8       1       1       8       1
       1       8       1       1       8       1       1       8       1       1
       8       1       1       8       1       1       8       1       1       8
       1       1       8       1       1       8       1       1       8       1
       1       8       1       1       8       1       1       8       1       1
       8       1       1       8       1       1       8       1       1       8
       1       1       8       1       1       8       1       1       8       1
       1       8       1       1       8       1       1       8       1       1
       8       1       1       8       1       1       8       1       1       8
       1       1       8       1       1       8       1       1       8       1
       1       8       1       1       8       1       1       8       1       1
       8       1       1       8       1       1       8       1       1       8
       1       1       8       1       1       8       1       1       8       1
       1       8       1       1       8       1       1       8       1       1
       8       1       1       8       1       1       8       1       1       8
       1       1       8       1       1       8       1       1       8       1
       1       8       1       1       8       1       1       8       1       1
       8       1       1       8       1       1       8       1       1       8
       1       1       8       1       1       8       1       1       8       1
       1       8       1       1       8       1       1       8       1       1
       8       1       1       8       1       1       8       1       1       8
       1       1       8       1       1       8       1       1       8       1
       1       8       1       1       8       1       1       8       1       1
       8       1       1       8       1       1       8       1       1       8
       1       1       8       1       1       8       1       1       8       1
       1       8       1       1       8       1       1       8       1       1
       8       1       1       8       1       1       8       1       1       8
       1       1       8       1       1       8       1       1       8       1
       1       8       1       1       8       1       1       8       1       1
       8       1       1       8       1       1       8       1       1       8
       1       1       8       1       1       8       1       1       8       1
       1       8       1       1       8       1       1       8       1       1
       8       1       1       8       1       1       8       1       1       8
       1       1       8       1       1       8       1       1       8       1
       1       8       1       1       8       1       1       8       1       1
       8       1       1       8       1       1       8       1       1       8
       1       1       8       1       1       8       1       1       8       1
       1       8       1       1       8       1       1       8       1       1
       8       1       1       8       1       1       8       1       1       8
       1       1       8       1       1       8       1       1       8       1
       1       8       1       1       8       1       1       8       1       1
       8       1       1       8       1       1       8       1       1       8
       1       1       8       1       1       8       1       1       8       1
       1       8       1       1       8       1       1       8       1       1
       8       1       1       8       1       1       8       1       1       8
       1       1       8       1       1       8       1       1       8       1
       1       8       1       1       8       1       1       8       1       1
       8       1       1       8       1       1       8       1       1       8
       1       1       8       1       1       8       1       1       8       1
       1       8       1       1       8       1       1       8       1       1
       8       1       1       8       1       1       8       1       1       8
       1       1       8       1       1       8       1       1       8       1
       1       8       1       1       8       1       1       8       1       1
       8       1       1       8       1       1       8       1       1       8
       1       1       8       1       1       8       1       1       8       1
       1       8       1       1       8       1       1       8       1       1
       8       1       1       8       1       1       8       1       1       8
       1       1       8       1       1       8       1       1       8       1
       1       8       1       1       8       1       1       8       1       1
       8       1       1       8       1       1       8       1       1       8
       1       1       8       1       1       8       1       1       8       1
       1       8       1       1       8       1       1       8       1       1
       8       1       1       8       1       1       8       1       1       8
       1       1       8       1       1       8       1       1       8       1
       1       8       1       1       8       1       1       8       1       1
       8       1       1       8       1       1       8       1       1       8
       1       1       8       1       1       8       1       1       8       1
       1       8       1       1       8       1       1       8       1       1
       8       1       1       8       1       1       8       1       1       8
       1       1       8       1       1       8       1       1       8       1
       1       8       1       1       8       1       1       8       1       1
       8       1       1       8       1       1       8       1       1       8
       1       1       8       1       1       8       1       1       8       1
       1       8       1       1       8       1       1       8       1       1
       8       1       1       8       1       1       8       1       1       8
       1       1       8       1       1       8       1       1       8       1
       1       8       1       1       8       1       1       8       1       1
       8       1       1       8       1       1       8       1       1       8
       1       1       8       1       1       8       1       1       8       1
       1       8       1       1       8       1       1       8       1       1
       8       1       1       8       1       1       8       1       1       8
       1       1       8       1       1       8       1       1       8       1
       1       8       1       1       8       1       1       8       1       1
       8       1       1       8       1       1       8       1       1       8
       1       1       8       1       1       8       1       1       8       1
       1       8       1       1       8       1       1       8       1       1
       8       1       1       8       1       1       8       1       1       8
       1       1       8       1       1       8       1       1       8       1
       1       8       1       1       8       1       1       8       1       1
       8       1       1       8       1       1       8       1       1       8
       1       1       8       1       1       8       1       1       8       1
       1       8       1       1       8       1       1       8       1       1
       8       1       1       8       1       1       8       1       1       8
       1       1       8       1       1       8       1       1       8       1
       1       8       1       1       8       1       1       8       1       1
       8       1       1       8       1       1       8       1       1       8
       1       1       8       1       1       8       1       1       8       1
       1       8       1       1       8       1       1       8       1       1
       8       1       1       8       1       1       8       1       1       8
       1       1       8       1       1       8       1       1       8       1
       1       8       1       1       8       1       1       8       1       1
       8       1       1       8       1       1       8       1       1       8
       1       1       8       1       1       8       1       1       8       1
       1       8       1       1       8       1       1       8       1       1
       8       1       1       8       1       1       8       1       1       8
       1       1       8       1       1       8       1       1       8       1
       1       8       1       1       8       1       1       8       1       1
       8       1       1       8       1       1       8       1       1       8
       1       1       8       1       1       8       1       1       8       1
       1       8       1       1       8       1       1       8       1       1
       8       1       1       8       1       1       8       1       1       8
       1       1       8       1       1       8       1       1       8       1
       1       8       1       1       8       1       1       8       1       1
       8       1       1       8       1       1       8       1       1       8
       1       1       8       1       1       8       1       1       8       1
       1       8       1       1       8       1       1       8       1       1
       8       1       1       8       1       1       8       1       1       8
       1       1       8       1       1       8       1       1       8       1
       1       8       1       1       8       1       1       8       1       1
       8       1       1       8       1       1       8       1       1       8
       1       1       8       1       1       8       1       1       8       1
       1       8       1       1       8       1       1       8       1       1
       8       1       1       8       1       1       8       1       1       8
       1       1       8       1       1       8       1       1       8       1
       1       8       1       1       8       1       1       8       1       1
       8       1       1       8       1       1       8       1       1       8
       1       1       8       1       1       8       1       1       8       1
       1       8       1       1       8       1       1       8       1       1
       8       1       1       8       1       1       8       1       1       8
       1       1       8       1       1       8       1       1       8       1
       1       8       1       1       8       1       1       8       1       1
       8       1       1       8       1       1       8       1       1       8
       1       1       8       1       1       8       1       1       8       1
       1       8       1       1       8       1       1       8       1       1
       8       1       1       8       1       1       8       1       1       8
       1       1       8       1       1       8       1       1       8       1
       1       8       1       1       8       1       1       8       1       1
       8       1       1       8       1       1       8       1       1       8
       1       1       8       1       1       8       1       1       8       1
       1       8       1       1       8       1       1       8       1       1
       8       1       1       8       1       1       8       1       1       8
       1       1       8       1       1       8       1       1       8       1
       1       8       1       1       8       1       1       8       1       1
       8       1       1       8       1       1       8       1       1       8
       1       1       8       1       1       8       1       1       8       1
       1       8       1       1       8       1       1       8       1       1
       8       1       1       8       1       1       8       1       1       8
       1       1       8       1       1       8       1       1       8       1
       1       8       1       1       8       1       1       8       1       1
       8       1       1       8       1       1       8       1       1       8
       1       1       8       1       1       8       1       1       8       1
       1       8       1       1       8       1       1       8       1       1
       8       1       1       8       1       1       8       1       1       8
       1       1       8       1       1       8       1       1       8       1
       1       8       1       1       8       1       1       8       1       1
       8       1       1       8       1       1       8       1       1       8
       1       1       8       1       1       8       1       1       8       1
       1       8       1       1       8       1       1       8       1       1
       8       1       1       8       1       1       8       1       1       8
       1       1       8       1       1       8       1       1       8       1
       1       8       1       1       8       1       1       8       1       1
       8       1       1       8       1       1       8       1       1       8
       1       1       8       1       1       8       1       1       8       1
       1       8       1       1       8       1       1       8       1       1
       8       1       1       8       1       1       8       1       1       8
       1       1       8       1       1       8       1       1       8       1
       1       8       1       1       8       1       1       8       1       1
       8       1       1       8       1       1       8       1       1       8
       1       1       8       1       1       8       1       1       8       1
       1       8       1       1       8       1       1       8       1       1
       8       1       1       8       1       1       8       1       1       8
       1       1       8       1       1       8       1       1       8       1
       1       8       1       1       8       1       1       8       1       1
       8       1       1       8       1       1       8       1       1       8
       1       1       8       1       1       8       1       1       8       1
       1       8       1       1       8       1       1       8       1       1
       8       1       1       8       1       1       8       1       1       8
       1       1       8       1       1       8       1       1       8       1
       1       8       1       1       8       1       1       8       1       1
       8       1       1       8       1       1       8       1       1       8
       1       1       8       1       1       8       1       1       8       1
       1       8       1       1       8       1       1       8       1       1
       8       1       1       8       1       1       8       1       1       8
       1       1       8       1       1       8       1       1       8       1
       1       8       1       1       8       1       1       8       1       1
       8       1       1       8       1       1       8       1       1       8
       1       1       8       1       1       8       1       1       8       1
       1       8       1       1       8       1       1       8       1       1
       8       1       1       8       1       1       8       1       1       8
       1       1       8       1       1       8       1       1       8       1
       1       8       1       1       8       1       1       8       1       1
       8       1       1       8       1       1       8       1       1       8
       1       1       8       1       1       8       1       1       8       1
       1       8       1       1       8       1       1       8       1       1
       8       1       1       8       1       1       8       1       1       8
       1       1       8       1       1       8       1       1       8       1
       1       8       1       1       8       1       1       8       1       1
       8       1       1       8       1       1       8       1       1       8
       1       1       8       1       1       8       1       1       8       1
       1       8       1       1       8       1       1       8       1       1
       8       1       1       8       1       1       8       1       1       8
       1       1       8       1       1       8       1       1       8       1
       1       8       1       1       8       1       1       8       1       1
       8       1       1       8       1       1       8       1       1       8
       1       1       8       1       1       8       1       1       8       1
       1       8       1       1       8       1       1       8       1       1
       8       1       1       8       1       1       8       1       1       8
       1       1       8       1       1       8       1       1       8       1
       1       8       1       1       8       1       1       8       1       1
       8       1       1       8       1       1       8       1       1       8
       1       1       8       1       1       8       1       1       8       1
       1       8       1       1       8       1       1       8       1       1
       8       1       1       8       1       1       8       1       1       8
       1       1       8       1       1       8       1       1       8       1
       1       8       1       1       8       1       1       8       1       1
       8       1       1       8       1       1       8       1       1       8
       1       1       8       1       1       8       1       1       8       1
       1       8       1       1       8       1       1       8       1       1
       8       1       1       8       1       1       8       1       1       8
       1       1       8       1       1       8       1       1       8       1
       1       8       1       1       8       1       1       8       1       1
       8       1       1       8       1       1       8       1       1       8
       1       1       8       1       1       8       1       1       8       1
       1       8       1       1       8       1       1       8       1       1
       8       1       1       8       1       1       8       1       1       8
       1       1       8       1       1       8       1       1       8       1
       1       8       1       1       8       1       1       8       1       1
       8       1       1       8       1       1       8       1       1       8
       1       1       8       1       1       8       1       1       8       1
       1       8       1       1       8       1       1       8       1       1
       8       1       1       8       1       1       8       1       1       8
       1       1       8       1       1       8       1       1       8       1
       1       8       1       1       8       1       1       8       1       1
       8       1       1       8       1       1       8       1       1       8
       1       1       8       1       1       8       1       1       8       1
       1       8       1       1       8       1       1       8       1       1
       8       1       1       8       1       1       8       1       1       8
       1       1       8       1       1       8       1       1       8       1
       1       8       1       1       8       1       1       8       1       1
       8       1       1       8       1       1       8       1       1       8
       1       1       8       1       1       8       1       1       8       1
       1       8       1       1       8       1       1       8       1       1
       8       1       1       8       1       1       8       1       1       8
       1       1       8       1       1       8       1       1       8       1
       1       8       1       1       8       1       1       8       1       1
       8       1       1       8       1       1       8       1       1       8
       1       1       8       1       1       8       1       1       8       1
       1       8       1       1       8       1       1       8       1       1
       8       1       1       8       1       1       8       1       1       8
       1       1       8       1       1       8       1       1       8       1
       1       8       1       1       8       1       1       8       1       1
       8       1       1       8       1       1       8       1       1       8
       1       1       8       1       1       8       1       1       8       1
       1       8       1       1       8       1       1       8       1       1
       8       1       1       8       1       1       8       1       1       8
       1       1       8       1       1       8       1       1       8       1
       1       8       1       1       8       1       1       8       1       1
       8       1       1       8       1       1       8       1       1       8
       1       1       8       1       1       8       1       1       8       1
       1       8       1       1       8       1       1       8       1       1
       8       1       1       8       1       1       8       1       1       8
       1       1       8       1       1       8       1       1       8       1
       1       8       1       1       8       1       1       8       1       1
       8       1       1       8       1       1       8       1       1       8
       1       1       8       1       1       8       1       1       8       1
       1       8       1       1       8       1       1       8       1       1
       8       1       1       8       1       1       8       1       1       8
       1       1       8       1       1       8       1       1       8       1
       1       8       1       1       8       1       1       8       1       1
       8       1       1       8       1       1       8       1       1       8
       1       1       8       1       1       8       1       1       8       1
       1       8       1       1       8       1       1       8       1       1
       8       1       1       8       1       1       8       1       1       8
       1       1       8       1       1       8       1       1       8       1
       1       8       1       1       8       1       1       8       1       1
       8       1       1       8       1       1       8       1       1       8
       1       1       8       1       1       8       1       1       8       1
       1       8       1       1       8       1       1       8       1       1
       8       1       1       8       1       1       8       1       1       8
       1       1       8       1       1       8       1       1       8       1
       1       8       1       1       8       1       1       8       1       1
       8       1       1       8       1       1       8       1       1       8
       1       1       8       1       1       8       1       1       8       1
       1       8       1       1       8       1       1       8       1       1
       8       1       1       8       1       1       8       1       1       8
       1       1       8       1       1       8       1       1       8       1
       1       8       1       1       8       1       1       8       1       1
       8       1       1       8       1       1       8       1       1       8
       1       1       8       1       1       8       1       1       8       1
       1       8       1       1       8       1       1       8       1       1
       8       1       1       8       1       1       8       1       1       8
       1       1       8       1       1       8       1       1       8       1
       1       8       1       1       8       1       1       8       1       1
       8       1       1       8       1       1       8       1       1       8
       1       1       8       1       1       8       1       1       8       1
       1       8       1       1       8       1       1       8       1       1
       8       1       1       8       1       1       8       1       1       8
       1       1       8       1       1       8       1       1       8       1
       1       8       1       1       8       1       1       8       1       1
       8       1       1       8       1       1       8       1       1       8
       1       1       8       1       1       8       1       1       8       1
       1       8       1       1       8       1       1       8       1       1
       8       1       1       8       1       1       8       1       1       8
       1       1       8       1       1       8       1       1       8       1
       1       8       1       1       8       1       1       8       1       1
       8       1       1       8       1       1       8       1       1       8
       1       1       8       1       1       8       1       1       8       1
       1       8       1       1       8       1       1       8       1       1
       8       1       1       8       1       1       8       1       1       8
       1       1       8       1       1       8       1       1       8       1
       1       8       1       1       8       1       1       8       1       1
       8       1       1       8       1       1       8       1       1       8
       1       1       8       1       1       8       1       1       8       1
       1       8       1       1       8       1       1       8       1       1
       8       1       1       8       1       1       8       1       1       8
       1       1       8       1       1       8       1       1       8       1
       1       8       1       1       8       1       1       8       1       1
       8       1       1       8       1       1       8       1       1       8
       1       1       8       1       1       8       1       1       8       1
       1       8       1       1       8       1       1       8       1       1
       8       1       1       8       1       1       8       1       1       8
       1       1       8       1       1       8       1       1       8       1
       1       8       1       1       8       1       1       8       1       1
       8       1       1       8       1       1       8       1       1       8
       1       1       8       1       1       8       1       1       8       1
       1       8       1       1       8       1       1       8       1       1
       8       1       1       8       1       1       8       1       1       8
       1       1       8       1       1       8       1       1       8       1
       1       8       1       1       8       1       1       8       1       1
       8       1       1       8       1       1       8       1       1       8
       1       1       8       1       1       8       1       1       8       1
       1       8       1       1       8       1       1       8       1       1
       8       1       1       8       1       1       8       1       1       8
       1       1       8       1       1       8       1       1       8       1
       1       8       1       1       8       1       1       8       1       1
       8       1       1       8       1       1       8       1       1       8
       1       1       8       1       1       8       1       1       8       1
       1       8       1       1       8       1       1       8       1       1
       8       1       1       8       1       1       8       1       1       8
       1       1       8       1       1       8       1       1       8       1
       1       8       1       1       8       1       1       8       1       1
       8       1       1       8       1       1       8       1       1       8
       1       1       8       1       1       8       1       1       8       1
       1       8       1       1       8       1       1       8       1       1
       8       1       1       8       1       1       8       1       1       8
       1       1       8       1       1       8       1       1       8       1
       1       8       1       1       8       1       1       8       1       1
       8       1       1       8       1       1       8       1       1       8
       1       1       8       1       1       8       1       1       8       1
       1       8       1       1       8       1       1       8       1       1
       8       1       1       8       1       1       8       1       1       8
       1       1       8       1       1       8       1       1       8       1
       1       8       1       1       8       1       1       8       1       1
       8       1       1       8       1       1       8       1       1       8
       1       1       8       1       1       8       1       1       8       1
       1       8       1       1       8       1       1       8       1       1
       8       1       1       8       1       1       8       1       1       8
       1       1       8       1       1       8       1       1       8       1
       1       8       1       1       8       1       1       8       1       1
       8       1       1       8       1       1       8       1       1       8
       1       1       8       1       1       8       1       1       8       1
       1       8       1       1       8       1       1       8       1       1
       8       1       1       8       1       1       8       1       1       8
       1       1       8       1       1       8       1       1       8       1
       1       8       1       1       8       1       1       8       1       1
       8       1       1       8       1       1       8       1       1       8
       1       1       8       1       1       8       1       1       8       1
       1       8       1       1       8       1       1       8       1       1
       8       1       1       8       1       1       8       1       1       8
       1       1       8       1       1       8       1       1       8       1
       1       8       1       1       8       1       1       8       1       1
       8       1       1       8       1       1       8       1       1       8
       1       1       8       1       1       8       1       1       8       1
       1       8       1       1       8       1       1       8       1       1
       8       1       1       8       1       1       8       1       1       8
       1       1       8       1       1       8       1       1       8       1
       1       8       1       1       8       1       1       8       1       1
       8       1       1       8       1       1       8       1       1       8
       1       1       8       1       1       8       1       1       8       1
       1       8       1       1       8       1       1       8       1       1
       8       1       1       8       1       1       8       1       1       8
       1       1       8       1       1       8       1       1       8       1
       1       8       1       1       8       1       1       8       1       1
       8       1       1       8       1       1       8       1       1       8
       1       1       8       1       1       8       1       1       8       1
       1       8       1       1       8       1       1       8       1       1
       8       1       1       8       1       1       8       1       1       8
       1       1       8       1       1       8       1       1       8       1
       1       8       1       1       8       1       1       8       1       1
       8       1       1       8       1       1       8       1       1       8
       1       1       8       1       1       8       1       1       8       1
       1       8       1       1       8       1       1       8       1       1
       8       1       1       8       1       1       8       1       1       8
       1       1       8       1       1       8       1       1       8       1
       1       8       1       1       8       1       1       8       1       1
       8       1       1       8       1       1       8       1       1       8
       1       1       8       1       1       8       1       1       8       1
       1       8       1       1       8       1       1       8       1       1
       8       1       1       8       1       1       8       1       1       8
       1       1       8       1       1       8       1       1       8       1
       1       8       1       1       8       1       1       8       1       1
       8       1       1       8       1       1       8       1       1       8
       1       1       8       1       1       8       1       1       8       1
       1       8       1       1       8       1       1       8       1       1
       8       1       1       8       1       1       8       1       1       8
       1       1       8       1       1       8       1       1       8       1
       1       8       1       1       8       1       1       8       1       1
       8       1       1       8       1       1       8       1       1       8
       1       1       8       1       1       8       1       1       8       1
       1       8       1       1       8       1       1       8       1       1
       8       1       1       8       1       1       8       1       1       8
       1       1       8       1       1       8       1       1       8       1
       1       8       1       1       8       1       1       8       1       1
       8       1       1       8       1       1       8       1       1       8
       1       1       8       1       1       8       1       1       8       1
       1       8       1       1       8       1       1       8       1       1
       8       1       1       8       1       1       8       1       1       8
       1       1       8       1       1       8       1       1       8       1
       1       8       1       1       8       1       1       8       1       1
       8       1       1       8       1       1       8       1       1       8
       1       1       8       1       1       8       1       1       8       1
       1       8       1       1       8       1       1       8       1       1
       8       1       1       8       1       1       8       1       1       8
       1       1       8       1       1       8       1       1       8       1
       1       8       1       1       8       1       1       8       1       1
       8       1       1       8       1       1       8       1       1       8
       1       1       8       1       1       8       1       1       8       1
       1       8       1       1       8       1       1       8       1       1
       8       1       1       8       1       1       8       1       1       8
       1       1       8       1       1       8       1       1       8       1
       1       8       1       1       8       1       1       8       1       1
       8       1       1       8       1       1       8       1       1       8
       1       1       8       1       1       8       1       1       8       1
       1       8       1       1       8       1       1       8       1       1
       8       1       1       8       1       1       8       1       1       8
       1       1       8       1       1       8       1       1       8       1
       1       8       1       1       8       1       1       8       1       1
       8       1       1       8       1       1       8       1       1       8
       1       1       8       1       1       8       1       1       8       1
       1       8       1       1       8       1       1       8       1       1
       8       1       1       8       1       1       8       1       1       8
       1       1       8       1       1       8       1       1       8       1
       1       8       1       1       8       1       1       8       1       1
       8       1       1       8       1       1       8       1       1       8
       1       1       8       1       1       8       1       1       8       1
       1       8       1       1       8       1       1       8       1       1
       8       1       1       8       1       1       8       1       1       8
       1       1       8       1       1       8       1       1       8       1
       1       8       1       1       8       1       1       8       1       1
       8       1       1       8       1       1       8       1       1       8
       1       1       8       1       1       8       1       1       8       1
       1       8       1       1       8       1       1       8       1       1
       8       1       1       8       1       1       8       1       1       8
       1       1       8       1       1       8       1       1       8       1
       1       8       1       1       8       1       1       8       1       1
       8       1       1       8       1       1       8       1       1       8
       1       1       8       1       1       8       1       1       8       1
       1       8       1       1       8       1       1       8       1       1
       8       1       1       8       1       1       8       1       1       8
       1       1       8       1       1       8       1       1       8       1
       1       8       1       1       8       1       1       8       1       1
       8       1       1       8       1       1       8       1       1       8
       1       1       8       1       1       8       1       1       8       1
       1       8       1       1       8       1       1       8       1       1
       8       1       1       8       1       1       8       1       1       8
       1       1       8       1       1       8       1       1       8       1
       1       8       1       1       8       1       1       8       1       1
       8       1       1       8       1       1       8       1       1       8
       1       1       8       1       1       8       1       1       8       1
       1       8       1       1       8       1       1       8       1       1
       8       1       1       8       1       1       8       1       1       8
       1       1       8       1       1       8       1       1       8       1
       1       8       1       1       8       1       1       8       1       1
       8       1       1       8       1       1       8       1       1       8
       1       1       8       1       1       8       1       1       8       1
       1       8       1       1       8       1       1       8       1       1
       8       1       1       8       1       1       8       1       1       8
       1       1       8       1       1       8       1       1       8       1
       1       8       1       1       8       1       1       8       1       1
       8       1       1       8       1       1       8       1       1       8
       1       1       8       1       1       8       1       1       8       1
       1       8       1       1       8       1       1       8       1       1
       8       1       1       8       1       1       8       1       1       8
       1       1       8       1       1       8       1       1       8       1
       1       8       1       1       8       1       1       8       1       1
       8       1       1       8       1       1       8       1       1       8
       1       1       8       1       1       8       1       1       8       1
       1       8       1       1       8       1       1       8       1       1
       8       1       1       8       1       1       8       1       1       8
       1       1       8       1       1       8       1       1       8       1
       1       8       1       1       8       1       1       8       1       1
       8       1       1       8       1       1       8       1       1       8
       1       1       8       1       1       8       1       1       8       1
       1       8       1       1       8       1       1       8       1       1
       8       1       1       8       1       1       8       1       1       8
       1       1       8       1       1       8       1       1       8       1
       1       8       1       1       8       1       1       8       1       1
       8       1       1       8       1       1       8       1       1       8
       1       1       8       1       1       8       1       1       8       1
       1       8       1       1       8       1       1       8       1       1
       8       1       1       8       1       1       8       1       1       8
       1       1       8       1       1       8       1       1       8       1
       1       8       1       1       8       1       1       8       1       1
       8       1       1       8       1       1       8       1       1       8
       1       1       8       1       1       8       1       1       8       1
       1       8       1       1       8       1       1       8       1       1
       8       1       1       8       1       1       8       1       1       8
       1       1       8       1       1       8       1       1       8       1
       1       8       1       1       8       1       1       8       1       1
       8       1       1       8       1       1       8       1       1       8
       1       1       8       1       1       8       1       1       8       1
       1       8       1       1       8       1       1       8       1       1
       8       1       1       8       1       1       8       1       1       8
       1       1       8       1       1       8       1       1       8       1
       1       8       1       1       8       1       1       8       1       1
       8       1       1       8       1       1       8       1       1       8
       1       1       8       1       1       8       1       1       8       1
       1       8       1       1       8       1       1       8       1       1
       8       1       1       8       1       1       8       1       1       8
       1       1       8       1       1       8       1       1       8       1
       1       8       1       1       8       1       1       8       1       1
       8       1       1       8       1       1       8       1       1       8
       1       1       8       1       1       8       1       1       8       1
       1       8       1       1       8       1       1       8       1       1
       8       1       1       8       1       1       8       1       1       8
       1       1       8       1       1       8       1       1       8       1
       1       8       1       1       8       1       1       8       1       1
       8       1       1       8       1       1       8       1       1       8
       1       1       8       1       1       8       1       1       8       1
       1       8       1       1       8       1       1       8       1       1
       8       1       1       8       1       1       8       1       1       8
       1       1       8       1       1       8       1       1       8       1
       1       8       1       1       8       1       1       8       1       1
       8       1       1       8       1       1       8       1       1       8
       1       1       8       1       1       8       1       1       8       1
       1       8       1       1       8       1       1       8       1       1
       8       1       1       8       1       1       8       1       1       8
       1       1       8       1       1       8       1       1       8       1
       1       8       1       1       8       1       1       8       1       1
       8       1       1       8       1       1       8       1       1       8
       1       1       8       1       1       8       1       1       8       1
       1       8       1       1       8       1       1       8       1       1
       8       1       1       8       1       1       8       1       1       8
       1       1       8       1       1       8       1       1       8       1
       1       8       1       1       8       1       1       8       1       1
       8       1       1       8       1       1       8       1       1       8
       1       1       8       1       1       8       1       1       8       1
       1       8       1       1       8       1       1       8       1       1
       8       1       1       8       1       1       8       1       1       8
       1       1       8       1       1       8       1       1       8       1
       1       8       1       1       8       1       1       8       1       1
       8       1       1       8       1       1       8       1       1       8
       1       1       8       1       1       8       1       1       8       1
       1       8       1       1       8       1       1       8       1       1
       8       1       1       8       1       1       8       1       1       8
       1       1       8       1       1       8       1       1       8       1
       1       8       1       1       8       1       1       8       1       1
       8       1       1       8       1       1       8       1       1       8
       1       1       8       1       1       8       1       1       8       1
       1       8       1       1       8       1       1       8       1       1
       8       1       1       8       1       1       8       1       1       8
       1       1       8       1       1       8       1       1       8       1
       1       8       1       1       8       1       1       8       1       1
       8       1       1       8       1       1       8       1       1       8
       1       1       8       1       1       8       1       1       8       1
       1       8       1       1       8       1       1       8       1       1
       8       1       1       8       1       1       8       1       1       8
       1       1       8       1       1       8       1       1       8       1
       1       8       1       1       8       1       1       8       1       1
       8       1       1       8       1       1       8       1       1       8
       1       1       8       1       1       8       1       1       8       1
       1       8       1       1       8       1       1       8       1       1
       8       1       1       8       1       1       8       1       1       8
       1       1       8       1       1       8       1       1       8       1
       1       8       1       1       8       1       1       8       1       1
       8       1       1       8       1       1       8       1       1       8
       1       1       8       1       1       8       1       1       8       1
       1       8       1       1       8       1       1       8       1       1
       8       1       1       8       1       1       8       1       1       8
       1       1       8       1       1       8       1       1       8       1
       1       8       1       1       8       1       1       8       1       1
       8       1       1       8       1       1       8       1       1       8
       1       1       8       1       1       8       1       1       8       1
       1       8       1       1       8       1       1       8       1       1
       8       1       1       8       1       1       8       1       1       8
       1       1       8       1       1       8       1       1       8       1
       1       8       1       1       8       1       1       8       1       1
       8       1       1       8       1       1       8       1       1       8
       1       1       8       1       1       8       1       1       8       1
       1       8       1       1       8       1       1       8       1       1
       8       1       1       8       1       1       8       1       1       8
       1       1       8       1       1       8       1       1       8       1
       1       8       1       1       8       1       1       8       1       1
       8       1       1       8       1       1       8       1       1       8
       1       1       8       1       1       8       1       1       8       1
       1       8       1       1       8       1       1       8       1       1
       8       1       1       8       1       1       8       1       1       8
       1       1       8       1       1       8       1       1       8       1
       1       8       1       1       8       1       1       8       1       1
       8       1       1       8       1       1       8       1       1       8
       1       1       8       1       1       8       1       1       8       1
       1       8       1       1       8       1       1       8       1       1
       8       1       1       8       1       1       8       1       1       8
       1       1       8       1       1       8       1       1       8       1
       1       8       1       1       8       1       1       8       1       1
       8       1       1       8       1       1       8       1       1       8
       1       1       8       1       1       8       1       1       8       1
       1       8       1       1       8       1       1       8       1       1
       8       1       1       8       1       1       8       1       1       8
       1       1       8       1       1       8       1       1       8       1
       1       8       1       1       8       1       1       8       1       1
       8       1       1       8       1       1       8       1       1       8
       1       1       8       1       1       8       1       1       8       1
       1       8       1       1       8       1       1       8       1       1
       8       1       1       8       1       1       8       1       1       8
       1       1       8       1       1       8       1       1       8       1
       1       8       1       1       8       1       1       8       1       1
       8       1       1       8       1       1       8       1       1       8
       1       1       8       1       1       8       1       1       8       1
       1       8       1       1       8       1       1       8       1       1
       8       1       1       8       1       1       8       1       1       8
       1       1       8       1       1       8       1       1       8       1
       1       8       1       1       8       1       1       8       1       1
       8       1       1       8       1       1       8       1       1       8
       1       1       8       1       1       8       1       1       8       1
       1       8       1       1       8       1       1       8       1       1
       8       1       1       8       1       1       8       1       1       8
       1       1       8       1       1       8       1       1       8       1
       1       8       1       1       8       1       1       8       1       1
       8       1       1       8       1       1       8       1       1       8
       1       1       8       1       1       8       1       1       8       1
       1       8       1       1       8       1       1       8       1       1
       8       1       1       8       1       1       8       1       1       8
       1       1       8       1       1       8       1       1       8       1
       1       8       1       1       8       1       1       8       1       1
       8       1       1       8       1       1       8       1       1       8
       1       1       8       1       1       8       1       1       8       1
       1       8       1       1       8       1       1       8       1       1
       8       1       1       8       1       1       8       1       1       8
       1       1       8       1       1       8       1       1       8       1
       1       8       1       1       8       1       1       8       1       1
       8       1       1       8       1       1       8       1       1       8
       1       1       8       1       1       8       1       1       8       1
       1       8       1       1       8       1       1       8       1       1
       8       1       1       8       1       1       8       1       1       8
       1       1       8       1       1       8       1       1       8       1
       1       8       1       1       8       1       1       8       1       1
       8       1       1       8       1       1       8       1       1       8
       1       1       8       1       1       8       1       1       8       1
       1       8       1       1       8       1       1       8       1       1
       8       1       1       8       1       1       8       1       1       8
       1       1       8       1       1       8       1       1       8       1
       1       8       1       1       8       1       1       8       1       1
       8       1       1       8       1       1       8       1       1       8
       1       1       8       1       1       8       1       1       8       1
       1       8       1       1       8       1       1       8       1       1
       8       1       1       8       1       1       8       1       1       8
       1       1       8       1       1       8       1       1       8       1
       1       8       1       1       8       1       1       8       1       1
       8       1       1       8       1       1       8       1       1       8
       1       1       8       1       1       8       1       1       8       1
       1       8       1       1       8       1       1       8       1       1
       8       1       1       8       1       1       8       1       1       8
       1       1       8       1       1       8       1       1       8       1
       1       8       1       1       8       1       1       8       1       1
       8       1       1       8       1       1       8       1       1       8
       1       1       8       1       1       8       1       1       8       1
       1       8       1       1       8       1       1       8       1       1
       8       1       1       8       1       1       8       1       1       8
       1       1       8       1       1       8       1       1       8       1
       1       8       1       1       8       1       1       8       1       1
       8       1       1       8       1       1       8       1       1       8
       1       1       8       1       1       8       1       1       8       1
       1       8       1       1       8       1       1       8       1       1
       8       1       1       8       1       1       8       1       1       8
       1       1       8       1       1       8       1       1       8       1
       1       8       1       1       8       1       1       8       1       1
       8       1       1       8       1       1       8       1       1       8
       1       1       8       1       1       8       1       1       8       1
       1       8       1       1       8       1       1       8       1       1
       8       1       1       8       1       1       8       1       1       8
       1       1       8       1       1       8       1       1       8       1
       1       8       1       1       8       1       1       8       1       1
       8       1       1       8       1       1       8       1       1       8
       1       1       8       1       1       8       1       1       8       1
       1       8       1       1       8       1       1       8       1       1
       8       1       1       8       1       1       8       1       1       8
       1       1       8       1       1       8       1       1       8       1
       1       8       1       1       8       1       1       8       1       1
       8       1       1       8       1       1       8       1       1       8
       1       1       8       1       1       8       1       1       8       1
       1       8       1       1       8       1       1       8       1       1
       8       1       1       8       1       1       8       1       1       8
       1       1       8       1       1       8       1       1       8       1
       1       8       1       1       8       1       1       8       1       1
       8       1       1       8       1       1       8       1       1       8
       1       1       8       1       1       8       1       1       8       1
       1       8       1       1       8       1       1       8       1       1
       8       1       1       8       1       1       8       1       1       8
       1       1       8       1       1       8       1       1       8       1
       1       8       1       1       8       1       1       8       1       1
       8       1       1       8       1       1       8       1       1       8
       1       1       8       1       1       8       1       1       8       1
       1       8       1       1       8       1       1       8       1       1
       8       1       1       8       1       1       8       1       1       8
       1       1       8       1       1       8       1       1       8       1
       1       8       1       1       8       1       1       8       1       1
       8       1       1       8       1       1       8       1       1       8
       1       1       8       1       1       8       1       1       8       1
       1       8       1       1       8       1       1       8       1       1
       8       1       1       8       1       1       8       1       1       8
       1       1       8       1       1       8       1       1       8       1
       1       8       1       1       8       1       1       8       1       1
       8       1       1       8       1       1       8       1       1       8
       1       1       8       1       1       8       1       1       8       1
       1       8       1       1       8       1       1       8       1       1
       8       1       1       8       1       1       8       1       1       8
       1       1       8       1       1       8       1       1       8       1
       1       8       1       1       8       1       1       8       1       1
       8       1       1       8       1       1       8       1       1       8
       1       1       8       1       1       8       1       1       8       1
       1       8       1       1       8       1       1       8       1       1
       8       1       1       8       1       1       8       1       1       8
       1       1       8       1       1       8       1       1       8       1
       1       8       1       1       8       1       1       8       1       1
       8       1       1       8       1       1       8       1       1       8
       1       1       8       1       1       8       1       1       8       1
       1       8       1       1       8       1       1       8       1       1
       8       1       1       8       1       1       8       1       1       8
       1       1       8       1       1       8       1       1       8       1
       1       8       1       1       8       1       1       8       1       1
       8       1       1       8       1       1       8       1       1       8
       1       1       8       1       1       8       1       1       8       1
       1       8       1       1       8       1       1       8       1       1
       8       1       1       8       1       1       8       1       1       8
       1       1       8       1       1       8       1       1       8       1
       1       8       1       1       8       1       1       8       1       1
       8       1       1       8       1       1       8       1       1       8
       1       1       8       1       1       8       1       1       8       1
       1       8       1       1       8       1       1       8       1       1
       8       1       1       8       1       1       8       1       1       8
       1       1       8       1       1       8       1       1       8       1
       1       8       1       1       8       1       1       8       1       1
       8       1       1       8       1       1       8       1       1       8
       1       1       8       1       1       8       1       1       8       1
       1       8       1       1       8       1       1       8       1       1
       8       1       1       8       1       1       8       1       1       8
       1       1       8       1       1       8       1       1       8       1
       1       8       1       1       8       1       1       8       1       1
       8       1       1       8       1       1       8       1       1       8
       1       1       8       1       1       8       1       1       8       1
       1       8       1       1       8       1       1       8       1       1
       8       1       1       8       1       1       8       1       1       8
       1       1       8       1       1       8       1       1       8       1
       1       8       1       1       8       1       1       8       1       1
       8       1       1       8       1       1       8       1       1       8
       1       1       8       1       1       8       1       1       8       1
       1       8       1       1       8       1       1       8       1       1
       8       1       1       8       1       1       8       1       1       8
       1       1       8       1       1       8       1       1       8       1
       1       8       1       1       8       1       1       8       1       1
       8       1       1       8       1       1       8       1       1       8
       1       1       8       1       1       8       1       1       8       1
       1       8       1       1       8       1       1       8       1       1
       8       1       1       8       1       1       8       1       1       8
       1       1       8       1       1       8       1       1       8       1
       1       8       1       1       8       1       1       8       1       1
       8       1       1       8       1       1       8       1       1       8
       1       1       8       1       1       8       1       1       8       1
       1       8       1       1       8       1       1       8       1       1
       8       1       1       8       1       1       8       1       1       8
       1       1       8       1       1       8       1       1       8       1
       1       8       1       1       8       1       1       8       1       1
       8       1       1       8       1       1       8       1       1       8
       1       1       8       1       1       8       1       1       8       1
       1       8       1       1       8       1       1       8       1       1
       8       1       1       8       1       1       8       1       1       8
       1       1       8       1       1       8       1       1       8       1
       1       8       1       1       8       1       1       8       1       1
       8       1       1       8       1       1       8       1       1       8
       1       1       8       1       1       8       1       1       8       1
       1       8       1       1       8       1       1       8       1       1
       8       1       1       8       1       1       8       1       1       8
       1       1       8       1       1       8       1       1       8       1
       1       8       1       1       8       1       1       8       1       1
       8       1       1       8       1       1       8       1       1       8
       1       1       8       1       1       8       1       1       8       1
       1       8       1       1       8       1       1       8       1       1
       8       1       1       8       1       1       8       1       1       8
       1       1       8       1       1       8       1       1       8       1
       1       8       1       1       8       1       1       8       1       1
       8       1       1       8       1       1       8       1       1       8
       1       1       8       1       1       8       1       1       8       1
       1       8       1       1       8       1       1       8       1       1
       8       1       1       8       1       1       8       1       1       8
       1       1       8       1       1       8       1       1       8       1
       1       8       1       1       8       1       1       8       1       1
       8       1       1       8       1       1       8       1       1       8
       1       1       8       1       1       8       1       1       8       1
       1       8       1       1       8       1       1       8       1       1
       8       1       1       8       1       1       8       1       1       8
       1       1       8       1       1       8       1       1       8       1
       1       8       1       1       8       1       1       8       1       1
       8       1       1       8       1       1       8       1       1       8
       1       1       8       1       1       8       1       1       8       1
       1       8       1       1       8       1       1       8       1       1
       8       1       1       8       1       1       8       1       1       8
       1       1       8       1       1       8       1       1       8       1
       1       8       1       1       8       1       1       8       1       1
       8       1       1       8       1       1       8       1       1       8
       1       1       8       1       1       8       1       1       8       1
       1       8       1       1       8       1       1       8       1       1
       8       1       1       8       1       1       8       1       1       8
       1       1       8       1       1       8       1       1       8       1
       1       8       1       1       8       1       1       8       1       1
       8       1       1       8       1       1       8       1       1       8
       1       1       8       1       1       8       1       1       8       1
       1       8       1       1       8       1       1       8       1       1
       8       1       1       8       1       1       8       1       1       8
       1       1       8       1       1       8       1       1       8       1
       1       8       1       1       8       1       1       8       1       1
       8       1       1       8       1       1       8       1       1       8
       1       1       8       1       1       8       1       1       8       1
       1       8       1       1       8       1       1       8       1       1
       8       1       1       8       1       1       8       1       1       8
       1       1       8       1       1       8       1       1       8       1
       1       8       1       1       8       1       1       8       1       1
       8       1       1       8       1       1       8       1       1       8
       1       1       8       1       1       8       1       1       8       1
       1       8       1       1       8       1       1       8       1       1
       8       1       1       8       1       1       8       1       1       8
       1       1       8       1       1       8       1       1       8       1
       1       8       1       1       8       1       1       8       1       1
       8       1       1       8       1       1       8       1       1       8
       1       1       8       1       1       8       1       1       8       1
       1       8       1       1       8       1       1       8       1       1
       8       1       1       8       1       1       8       1       1       8
       1       1       8       1       1       8       1       1       8       1
       1       8       1       1       8       1       1       8       1       1
       8       1       1       8       1       1       8       1       1       8
       1       1       8       1       1       8       1       1       8       1
       1       8       1       1       8       1       1       8       1       1
       8       1       1       8       1       1       8       1       1       8
       1       1       8       1       1       8       1       1       8       1
       1       8       1       1       8       1       1       8       1       1
       8       1       1       8       1       1       8       1       1       8
       1       1       8       1       1       8       1       1       8       1
       1       8       1       1       8       1       1       8       1       1
       8       1       1       8       1       1       8       1       1       8
       1       1       8       1       1       8       1       1       8       1
       1       8       1       1       8       1       1       8       1       1
       8       1       1       8       1       1       8       1       1       8
       1       1       8       1       1       8       1       1       8       1
       1       8       1       1       8       1       1       8       1       1
       8       1       1       8       1       1       8       1       1       8
       1       1       8       1       1       8       1       1       8       1
       1       8       1       1       8       1       1       8       1       1
       8       1       1       8       1       1       8       1       1       8
       1       1       8       1       1       8       1       1       8       1
       1       8       1       1       8       1       1       8       1       1
       8       1       1       8       1       1       8       1       1       8
       1       1       8       1       1       8       1       1       8       1
       1       8       1       1       8       1       1       8       1       1
       8       1       1       8       1       1       8       1       1       8
       1       1       8       1       1       8       1       1       8       1
       1       8       1       1       8       1       1       8       1       1
       8       1       1       8       1       1       8       1       1       8
       1       1       8       1       1       8       1       1       8       1
       1       8       1       1       8       1       1       8       1       1
       8       1       1       8       1       1       8       1       1       8
       1       1       8       1       1       8       1       1       8       1
       1       8       1       1       8       1       1       8       1       1
       8       1       1       8       1       1       8       1       1       8
       1       1       8       1       1       8       1       1       8       1
       1       8       1       1       8       1       1       8       1       1
       8       1       1       8       1       1       8       1       1       8
       1       1       8       1       1       8       1       1       8       1
       1       8       1       1       8       1       1       8       1       1
       8       1       1       8       1       1       8       1       1       8
       1       1       8       1       1       8       1       1       8       1
       1       8       1       1       8       1       1       8       1       1
       8       1       1       8       1       1       8       1       1       8
       1       1       8       1       1       8       1       1       8       1
       1       8       1       1       8       1       1       8       1       1
       8       1       1       8       1       1       8       1       1       8
       1       1       8       1       1       8       1       1       8       1
       1       8       1       1       8       1       1       8       1       1
       8       1       1       8       1       1       8       1       1       8
       1       1       8       1       1       8       1       1       8       1
       1       8       1       1       8       1       1       8       1       1
       8       1       1       8       1       1       8       1       1       8
       1       1       8       1       1       8       1       1       8       1
       1       8       1       1       8       1       1       8       1       1
       8       1       1       8       1       1       8       1       1       8
       1       1       8       1       1       8       1       1       8       1
       1       8       1       1       8       1       1       8       1       1
       8       1       1       8       1       1       8       1       1       8
       1       1       8       1       1       8       1       1       8       1
       1       8       1       1       8       1       1       8       1       1
       8       1       1       8       1       1       8       1       1       8
       1       1       8       1       1       8       1       1       8       1
       1       8       1       1       8       1       1       8       1       1
       8       1       1       8       1       1       8       1       1       8
       1       1       8       1       1       8       1       1       8       1
       1       8       1       1       8       1       1       8       1       1
       8       1       1       8       1       1       8       1       1       8
       1       1       8       1       1       8       1       1       8       1
       1       8       1       1       8       1       1       8       1       1
       8       1       1       8       1       1       8       1       1       8
       1       1       8       1       1       8       1       1       8       1
       1       8       1       1       8       1       1       8       1       1
       8       1       1       8       1       1       8       1       1       8
       1       1       8       1       1       8       1       1       8       1
       1       8       1       1       8       1       1       8       1       1
       8       1       1       8       1       1       8       1       1       8
       1       1       8       1       1       8       1       1       8       1
       1       8       1       1       8       1       1       8       1       1
       8       1       1       8       1       1       8       1       1       8
       1       1       8       1       1       8       1       1       8       1
       1       8       1       1       8       1       1       8       1       1
       8       1       1       8       1       1       8       1       1       8
       1       1       8       1       1       8       1       1       8       1
       1       8       1       1       8       1       1       8       1       1
       8       1       1       8       1       1       8       1       1       8
       1       1       8       1       1       8       1       1       8       1
       1       8       1       1       8       1       1       8       1       1
       8       1       1       8       1       1       8       1       1       8
       1       1       8       1       1       8       1       1       8       1
       1       8       1       1       8       1       1       8       1       1
       8       1       1       8       1       1       8       1       1       8
       1       1       8       1       1       8       1       1       8       1
       1       8       1       1       8       1       1       8       1       1
       8       1       1       8       1       1       8       1       1       8
       1       1       8       1       1       8       1       1       8       1
       1       8       1       1       8       1       1       8       1       1
       8       1       1       8       1       1       8       1       1       8
       1       1       8       1       1       8       1       1       8       1
       1       8       1       1       8       1       1       8       1       1
       8       1       1       8       1       1       8       1       1       8
       1       1       8       1       1       8       1       1       8       1
       1       8       1       1       8       1       1       8       1       1
       8       1       1       8       1       1       8       1       1       8
       1       1       8       1       1       8       1       1       8       1
       1       8       1       1       8       1       1       8       1       1
       8       1       1       8       1       1       8       1       1       8
       1       1       8       1       1       8       1       1       8       1
       1       8       1       1       8       1       1       8       1       1
       8       1       1       8       1       1       8       1       1       8
       1       1       8       1       1       8       1       1       8       1
       1       8       1       1       8       1       1       8       1       1
       8       1       1       8       1       1       8       1       1       8
       1       1       8       1       1       8       1       1       8       1
       1       8       1       1       8       1       1       8       1       1
       8       1       1       8       1       1       8       1       1       8
       1       1       8       1       1       8       1       1       8       1
       1       8       1       1       8       1       1       8       1       1
       8       1       1       8       1       1       8       1       1       8
       1       1       8       1       1       8       1       1       8       1
       1       8       1       1       8       1       1       8       1       1
       8       1       1       8       1       1       8       1       1       8
       1       1       8       1       1       8       1       1       8       1
       1       8       1       1       8       1       1       8       1       1
       8       1       1       8       1       1       8       1       1       8
       1       1       8       1       1       8       1       1       8       1
       1       8       1       1       8       1       1       8       1       1
       8       1       1       8       1       1       8       1       1       8
       1       1       8       1       1       8       1       1       8       1
       1       8       1       1       8       1       1       8       1       1
       8       1       1       8       1       1       8       1       1       8
       1       1       8       1       1       8       1       1       8       1
       1       8       1       1       8       1       1       8       1       1
       8       1       1       8       1       1       8       1       1       8
       1       1       8       1       1       8       1       1       8       1
       1       8       1       1       8       1       1       8       1       1
       8       1       1       8       1       1       8       1       1       8
       1       1       8       1       1       8       1       1       8       1
       1       8       1       1       8       1       1       8       1       1
       8       1       1       8       1       1       8       1       1       8
       1       1       8       1       1       8       1       1       8       1
       1       8       1       1       8       1       1       8       1       1
       8       1       1       8       1       1       8       1       1       8
       1       1       8       1       1       8       1       1       8       1
       1       8       1       1       8       1       1       8       1       1
       8       1       1       8       1       1       8       1       1       8
       1       1       8       1       1       8       1       1       8       1
       1       8       1       1       8       1       1       8       1       1
       8       1       1       8       1       1       8       1       1       8
       1       1       8       1       1       8       1       1       8       1
       1       8       1       1       8       1       1       8       1       1
       8       1       1       8       1       1       8       1       1       8
       1       1       8       1       1       8       1       1       8       1
       1       8       1       1       8       1       1       8       1       1
       8       1       1       8       1       1       8       1       1       8
       1       1       8       1       1       8       1       1       8       1
       1       8       1       1       8       1       1       8       1       1
       8       1       1       8       1       1       8       1       1       8
       1       1       8       1       1       8       1       1       8       1
       1       8       1       1       8       1       1       8       1       1
       8       1       1       8       1       1       8       1       1       8
       1       1       8       1       1       8       1       1       8       1
       1       8       1       1       8       1       1       8       1       1
       8       1       1       8       1       1       8       1       1       8
       1       1       8       1       1       8       1       1       8       1
       1       8       1       1       8       1       1       8       1       1
       8       1       1       8       1       1       8       1       1       8
       1       1       8       1       1       8       1       1       8       1
       1       8       1       1       8       1       1       8       1       1
       8       1       1       8       1       1       8       1       1       8
       1       1       8       1       1       8       1       1       8       1
       1       8       1       1       8       1       1       8       1       1
       8       1       1       8       1       1       8       1       1       8
       1       1       8       1       1       8       1       1       8       1
       1       8       1       1       8       1       1       8       1       1
       8       1       1       8       1       1       8       1       1       8
       1       1       8       1       1       8       1       1       8       1
       1       8       1       1       8       1       1       8       1       1
       8       1       1       8       1       1       8       1       1       8
       1       1       8       1       1       8       1       1       8       1
       1       8       1       1       8       1       1       8       1       1
       8       1       1       8       1       1       8       1       1       8
       1       1       8       1       1       8       1       1       8       1
       1       8       1       1       8       1       1       8       1       1
       8       1       1       8       1       1       8       1       1       8
       1       1       8       1       1       8       1       1       8       1
       1       8       1       1       8       1       1       8       1       1
       8       1       1       8       1       1       8       1       1       8
       1       1       8       1       1       8       1       1       8       1
       1       8       1       1       8       1       1       8       1       1
       8       1       1       8       1       1       8       1       1       8
       1       1       8       1       1       8       1       1       8       1
       1       8       1       1       8       1       1       8       1       1
       8       1       1       8       1       1       8       1       1       8
       1       1       8       1       1       8       1       1       8       1
       1       8       1       1       8       1       1       8       1       1
       8       1       1       8       1       1       8       1       1       8
       1       1       8       1       1       8       1       1       8       1
       1       8       1       1       8       1       1       8       1       1
       8       1       1       8       1       1       8       1       1       8
       1       1       8       1       1       8       1       1       8       1
       1       8       1       1       8       1       1       8       1       1
       8       1       1       8       1       1       8       1       1       8
       1       1       8       1       1       8       1       1       8       1
       1       8       1       1       8       1       1       8       1       1
       8       1       1       8       1       1       8       1       1       8
       1       1       8       1       1       8       1       1       8       1
       1       8       1       1       8       1       1       8       1       1
       8       1       1       8       1       1       8       1       1       8
       1       1       8       1       1       8       1       1       8       1
       1       8       1       1       8       1       1       8       1       1
       8       1       1       8       1       1       8       1       1       8
       1       1       8       1       1       8       1       1       8       1
       1       8       1       1       8       1       1       8       1       1
       8       1       1       8       1       1       8       1       1       8
       1       1       8       1       1       8       1       1       8       1
       1       8       1       1       8       1       1       8       1       1
       8       1       1       8       1       1       8       1       1       8
       1       1       8       1       1       8       1       1       8       1
       1       8       1       1       8       1       1       8       1       1
       8       1       1       8       1       1       8       1       1       8
       1       1       8       1       1       8       1       1       8       1
       1       8       1       1       8       1       1       8       1       1
       8       1       1       8       1       1       8       1       1       8
       1       1       8       1       1       8       1       1       8       1
       1       8       1       1       8       1       1       8       1       1
       8       1       1       8       1       1       8       1       1       8
       1       1       8       1       1       8       1       1       8       1
       1       8       1       1       8       1       1       8       1       1
       8       1       1       8       1       1       8       1       1       8
       1       1       8       1       1       8       1       1       8       1
       1       8       1       1       8       1       1       8       1       1
       8       1       1       8       1       1       8       1       1       8
       1       1       8       1       1       8       1       1       8       1
       1       8       1       1       8       1       1       8       1       1
       8       1       1       8       1       1       8       1       1       8
       1       1       8       1       1       8       1       1       8       1
       1       8       1       1       8       1       1       8       1       1
       8       1       1       8       1       1       8       1       1       8
       1       1       8       1       1       8       1       1       8       1
       1       8       1       1       8       1       1       8       1       1
       8       1       1       8       1       1       8       1       1       8
       1       1       8       1       1       8       1       1       8       1
       1       8       1       1       8       1       1       8       1       1
       8       1       1       8       1       1       8       1       1       8
       1       1       8       1       1       8       1       1       8       1
       1       8       1       1       8       1       1       8       1       1
       8       1       1       8       1       1       8       1       1       8
       1       1       8       1       1       8       1       1       8       1
       1       8       1       1       8       1       1       8       1       1
       8       1       1       8       1       1       8       1       1       8
       1       1       8       1       1       8       1       1       8       1
       1       8       1       1       8       1       1       8       1       1
       8       1       1       8       1       1       8       1       1       8
       1       1       8       1       1       8       1       1       8       1
       1       8       1       1       8       1       1       8       1       1
       8       1       1       8       1       1       8       1       1       8
       1       1       8       1       1       8       1       1       8       1
       1       8       1       1       8       1       1       8       1       1
       8       1       1       8       1       1       8       1       1       8
       1       1       8       1       1       8       1       1       8       1
       1       8       1       1       8       1       1       8       1       1
       8       1       1       8       1       1       8       1       1       8
       1       1       8       1       1       8       1       1       8       1
       1       8       1       1       8       1       1       8       1       1
       8       1       1       8       1       1       8       1       1       8
       1       1       8       1       1       8       1       1       8       1
       1       8       1       1       8       1       1       8       1       1
       8       1       1       8       1       1       8       1       1       8
       1       1       8       1       1       8       1       1       8       1
       1       8       1       1       8       1       1       8       1       1
       8       1       1       8       1       1       8       1       1       8
       1       1       8       1       1       8       1       1       8       1
       1       8       1       1       8       1       1       8       1       1
       8       1       1       8       1       1       8       1       1       8
       1       1       8       1       1       8       1       1       8       1
       1       8       1       1       8       1       1       8       1       1
       8       1       1       8       1       1       8       1       1       8
       1       1       8       1       1       8       1       1       8       1
       1       8       1       1       8       1       1       8       1       1
       8       1       1       8       1       1       8       1       1       8
       1       1       8       1       1       8       1       1       8       1
       1       8       1       1       8       1       1       8       1       1
       8       1       1       8       1       1       8       1       1       8
       1       1       8       1       1       8       1       1       8       1
       1       8       1       1       8       1       1       8       1       1
       8       1       1       8       1       1       8       1       1       8
       1       1       8       1       1       8       1       1       8       1
       1       8       1       1       8       1       1       8       1       1
       8       1       1       8       1       1       8       1       1       8
       1       1       8       1       1       8       1       1       8       1
       1       8       1       1       8       1       1       8       1       1
       8       1       1       8       1       1       8       1       1       8
       1       1       8       1       1       8       1       1       8       1
       1       8       1       1       8       1       1       8       1       1
       8       1       1       8       1       1       8       1       1       8
       1       1       8       1       1       8       1       1       8       1
       1       8       1       1       8       1       1       8       1       1
       8       1       1       8       1       1       8       1       1       8
       1       1       8       1       1       8       1       1       8       1
       1       8       1       1       8       1       1       8       1       1
       8       1       1       8       1       1       8       1       1       8
       1       1       8       1       1       8       1       1       8       1
       1       8       1       1       8       1       1       8       1       1
       8       1       1       8       1       1       8       1       1       8
       1       1       8       1       1       8       1       1       8       1
       1       8       1       1       8       1       1       8       1       1
       8       1       1       8       1       1       8       1       1       8
       1       1       8       1       1       8       1       1       8       1
       1       8       1       1       8       1       1       8       1       1
       8       1       1       8       1       1       8       1       1       8
       1       1       8       1       1       8       1       1       8       1
       1       8       1       1       8       1       1       8       1       1
       8       1       1       8       1       1       8       1       1       8
       1       1       8       1       1       8       1       1       8       1
       1       8       1       1       8       1       1       8       1       1
       8       1       1       8       1       1       8       1       1       8
       1       1       8       1       1       8       1       1       8       1
       1       8       1       1       8       1       1       8       1       1
       8       1       1       8       1       1       8       1       1       8
       1       1       8       1       1       8       1       1       8       1
       1       8       1       1       8       1       1       8       1       1
       8       1       1       8       1       1       8       1       1       8
       1       1       8       1       1       8       1       1       8       1
       1       8       1       1       8       1       1       8       1       1
       8       1       1       8       1       1       8       1       1       8
       1       1       8       1       1       8       1       1       8       1
       1       8       1       1       8       1       1       8       1       1
       8       1       1       8       1       1       8       1       1       8
       1       1       8       1       1       8       1       1       8       1
       1       8       1       1       8       1       1       8       1       1
       8       1       1       8       1       1       8       1       1       8
       1       1       8       1       1       8       1       1       8       1
       1       8       1       1       8       1       1       8       1       1
       8       1       1       8       1       1       8       1       1       8
       1       1       8       1       1       8       1       1       8       1
       1       8       1       1       8       1       1       8       1       1
       8       1       1       8       1       1       8       1       1       8
       1       1       8       1       1       8       1       1       8       1
       1       8       1       1       8       1       1       8       1       1
       8       1       1       8       1       1       8       1       1       8
       1       1       8       1       1       8       1       1       8       1
       1       8       1       1       8       1       1       8       1       1
       8       1       1       8       1       1       8       1       1       8
       1       1       8       1       1       8       1       1       8       1
       1       8       1       1       8       1       1       8       1       1
       8       1       1       8       1       1       8       1       1       8
       1       1       8       1       1       8       1       1       8       1
       1       8       1       1       8       1       1       8       1       1
       8       1       1       8       1       1       8       1       1       8
       1       1       8       1       1       8       1       1       8       1
       1       8       1       1       8       1       1       8       1       1
       8       1       1       8       1       1       8       1       1       8
       1       1       8       1       1       8       1       1       8       1
       1       8       1       1       8       1       1       8       1       1
       8       1       1       8       1       1       8       1       1       8
       1       1       8       1       1       8       1       1       8       1
       1       8       1       1       8       1       1       8       1       1
       8       1       1       8       1       1       8       1       1       8
       1       1       8       1       1       8       1       1       8       1
       1       8       1       1       8       1       1       8       1       1
       8       1       1       8       1       1       8       1       1       8
       1       1       8       1       1       8       1       1       8       1
       1       8       1       1       8       1       1       8       1       1
       8       1       1       8       1       1       8       1       1       8
       1       1       8       1       1       8       1       1       8       1
       1       8       1       1       8       1       1       8       1       1
       8       1       1       8       1       1       8       1       1       8
       1       1       8       1       1       8       1       1       8       1
       1       8       1       1       8       1       1       8       1       1
       8       1       1       8       1       1       8       1       1       8
       1       1       8       1       1       8       1       1       8       1
       1       8       1       1       8       1       1       8       1       1
       8       1       1       8       1       1       8       1       1       8
       1       1       8       1       1       8       1       1       8       1
       1       8       1       1       8       1       1       8       1       1
       8       1       1       8       1       1       8       1       1       8
       1       1       8       1       1       8       1       1       8       1
       1       8       1       1       8       1       1       8       1       1
       8       1       1       8       1       1       8       1       1       8
       1       1       8       1       1       8       1       1       8       1
       1       8       1       1       8       1       1       8       1       1
       8       1       1       8       1       1       8       1       1       8
       1       1       8       1       1       8       1       1       8       1
       1       8       1       1       8       1       1       8       1       1
       8       1       1       8       1       1       8       1       1       8
       1       1       8       1       1       8       1       1       8       1
       1       8       1       1       8       1       1       8       1       1
       8       1       1       8       1       1       8       1       1       8
       1       1       8       1       1       8       1       1       8       1
       1       8       1       1       8       1       1       8       1       1
       8       1       1       8       1       1       8       1       1       8
       1       1       8       1       1       8       1       1       8       1
       1       8       1       1       8       1       1       8       1       1
       8       1       1       8       1       1       8       1       1       8
       1       1       8       1       1       8       1       1       8       1
       1       8       1       1       8       1       1       8       1       1
       8       1       1       8       1       1       8       1       1       8
       1       1       8       1       1       8       1       1       8       1
       1       8       1       1       8       1       1       8       1       1
       8       1       1       8       1       1       8       1       1       8
       1       1       8       1       1       8       1       1       8       1
       1       8       1       1       8       1       1       8       1       1
       8       1       1       8       1       1       8       1       1       8
       1       1       8       1       1       8       1       1       8       1
       1       8       1       1       8       1       1       8       1       1
       8       1       1       8       1       1       8       1       1       8
       1       1       8       1       1       8       1       1       8       1
       1       8       1       1       8       1       1       8       1       1
       8       1       1       8       1       1       8       1       1       8
       1       1       8       1       1       8       1       1       8       1
       1       8       1       1       8       1       1       8       1       1
       8       1       1       8       1       1       8       1       1       8
       1       1       8       1       1       8       1       1       8       1
       1       8       1       1       8       1       1       8       1       1
       8       1       1       8       1       1       8       1       1       8
       1       1       8       1       1       8       1       1       8       1
       1       8       1       1       8       1       1       8       1       1
       8       1       1       8       1       1       8       1       1       8
       1       1       8       1       1       8       1       1       8       1
       1       8       1       1       8       1       1       8       1       1
       8       1       1       8       1       1       8       1       1       8
       1       1       8       1       1       8       1       1       8       1
       1       8       1       1       8       1       1       8       1       1
       8       1       1       8       1       1       8       1       1       8
       1       1       8       1       1       8       1       1       8       1
       1       8       1       1       8       1       1       8       1       1
       8       1       1       8       1       1       8       1       1       8
       1       1       8       1       1       8       1       1       8       1
       1       8       1       1       8       1       1       8       1       1
       8       1       1       8       1       1       8       1       1       8
       1       1       8       1       1       8       1       1       8       1
       1       8       1       1       8       1       1       8       1       1
       8       1       1       8       1       1       8       1       1       8
       1       1       8       1       1       8       1       1       8       1
       1       8       1       1       8       1       1       8       1       1
       8       1       1       8       1       1       8       1       1       8
       1       1       8       1       1       8       1       1       8       1
       1       8       1       1       8       1       1       8       1       1
       8       1       1       8       1       1       8       1       1       8
       1       1       8       1       1       8       1       1       8       1
       1       8       1       1       8       1       1       8       1       1
       8       1       1       8       1       1       8       1       1       8
       1       1       8       1       1       8       1       1       8       1
       1       8       1       1       8       1       1       8       1       1
       8       1       1       8       1       1       8       1       1       8
       1       1       8       1       1       8       1       1       8       1
       1       8       1       1       8       1       1       8       1       1
       8       1       1       8       1       1       8       1       1       8
       1       1       8       1       1       8       1       1       8       1
       1       8       1       1       8       1       1       8       1       1
       8       1       1       8       1       1       8       1       1       8
       1       1       8       1       1       8       1       1       8       1
       1       8       1       1       8       1       1       8       1       1
       8       1       1       8       1       1       8       1       1       8
       1       1       8       1       1       8       1       1       8       1
       1       8       1       1       8       1       1       8       1       1
       8       1       1       8       1       1       8       1       1       8
       1       1       8       1       1       8       1       1       8       1
       1       8       1       1       8       1       1       8       1       1
       8       1       1       8       1       1       8       1       1       8
       1       1       8       1       1       8       1       1       8       1
       1       8       1       1       8       1       1       8       1       1
       8       1       1       8       1       1       8       1       1       8
       1       1       8       1       1       8       1       1       8       1
       1       8       1       1       8       1       1       8       1       1
       8       1       1       8       1       1       8       1       1       8
       1       1       8       1       1       8       1       1       8       1
       1       8       1       1       8       1       1       8       1       1
       8       1       1       8       1       1       8       1       1       8
       1       1       8       1       1       8       1       1       8       1
       1       8       1       1       8       1       1       8       1       1
       8       1       1       8       1       1       8       1       1       8
       1       1       8       1       1       8       1       1       8       1
       1       8       1       1       8       1       1       8       1       1
       8       1       1       8       1       1       8       1       1       8
       1       1       8       1       1       8       1       1       8       1
       1       8       1       1       8       1       1       8       1       1
       8       1       1       8       1       1       8       1       1       8
       1       1       8       1       1       8       1       1       8       1
       1       8       1       1       8       1       1       8       1       1
       8       1       1       8       1       1       8       1       1       8
       1       1       8       1       1       8       1       1       8       1
       1       8       1       1       8       1       1       8       1       1
       8       1       1       8       1       1       8       1       1       8
       1       1       8       1       1       8       1       1       8       1
       1       8       1       1       8       1       1       8       1       1
       8       1       1       8       1       1       8       1       1       8
       1       1       8       1       1       8       1       1       8       1
       1       8       1       1       8       1       1       8       1       1
       8       1       1       8       1       1       8       1       1       8
       1       1       8       1       1       8       1       1       8       1
       1       8       1       1       8       1       1       8       1       1
       8       1       1       8       1       1       8       1       1       8
       1       1       8       1       1       8       1       1       8       1
       1       8       1       1       8       1       1       8       1       1
       8       1       1       8       1       1       8       1       1       8
       1       1       8       1       1       8       1       1       8       1
       1       8       1       1       8       1       1       8       1       1
       8       1       1       8       1       1       8       1       1       8
       1       1       8       1       1       8       1       1       8       1
       1       8       1       1       8       1       1       8       1       1
       8       1       1       8       1       1       8       1       1       8
       1       1       8       1       1       8       1       1       8       1
       1       8       1       1       8       1       1       8       1       1
       8       1       1       8       1       1       8       1       1       8
       1       1       8       1       1       8       1       1       8       1
       1       8       1       1       8       1       1       8       1       1
       8       1       1       8       1       1       8       1       1       8
       1       1       8       1       1       8       1       1       8       1
       1       8       1       1       8       1       1       8       1       1
       8       1       1       8       1       1       8       1       1       8
       1       1       8       1       1       8       1       1       8       1
       1       8       1       1       8       1       1       8       1       1
       8       1       1       8       1       1       8       1       1       8
       1       1       8       1       1       8       1       1       8       1
       1       8       1       1       8       1       1       8       1       1
       8       1       1       8       1       1       8       1       1       8
       1       1       8       1       1       8       1       1       8       1
       1       8       1       1       8       1       1       8       1       1
       8       1       1       8       1       1       8       1       1       8
       1       1       8       1       1       8       1       1       8       1
       1       8       1       1       8       1       1       8       1       1
       8       1       1       8       1       1       8       1       1       8
       1       1       8       1       1       8       1       1       8       1
       1       8       1       1       8       1       1       8       1       1
       8       1       1       8       1       1       8       1       1       8
       1       1       8       1       1       8       1       1       8       1
       1       8       1       1       8       1       1       8       1       1
       8       1       1       8       1       1       8       1       1       8
       1       1       8       1       1       8       1       1       8       1
       1       8       1       1       8       1       1       8       1       1
       8       1       1       8       1       1       8       1       1       8
       1       1       8       1       1       8       1       1       8       1
       1       8       1       1       8       1       1       8       1       1
       8       1       1       8       1       1       8       1       1       8
       1       1       8       1       1       8       1       1       8       1
       1       8       1       1       8       1       1       8       1       1
       8       1       1       8       1       1       8       1       1       8
       1       1       8       1       1       8       1       1       8       1
       1       8       1       1       8       1       1       8       1       1
       8       1       1       8       1       1       8       1       1       8
       1       1       8       1       1       8       1       1       8       1
       1       8       1       1       8       1       1       8       1       1
       8       1       1       8       1       1       8       1       1       8
       1       1       8       1       1       8       1       1       8       1
       1       8       1       1       8       1       1       8       1       1
       8       1       1       8       1       1       8       1       1       8
       1       1       8       1       1       8       1       1       8       1
       1       8       1       1       8       1       1       8       1       1
       8       1       1       8       1       1       8       1       1       8
       1       1       8       1       1       8       1       1       8       1
       1       8       1       1       8       1       1       8       1       1
       8       1       1       8       1       1       8       1       1       8
       1       1       8       1       1       8       1       1       8       1
       1       8       1       1       8       1       1       8       1       1
       8       1       1       8       1       1       8       1       1       8
       1       1       8       1       1       8       1       1       8       1
       1       8       1       1       8       1       1       8       1       1
       8       1       1       8       1       1       8       1       1       8
       1       1       8       1       1       8       1       1       8       1
       1       8       1       1       8       1       1       8       1       1
       8       1       1       8       1       1       8       1       1       8
       1       1       8       1       1       8       1       1       8       1
       1       8       1       1       8       1       1       8       1       1
       8       1       1       8       1       1       8       1       1       8
       1       1       8       1       1       8       1       1       8       1
       1       8       1       1       8       1       1       8       1       1
       8       1       1       8       1       1       8       1       1       8
       1       1       8       1       1       8       1       1       8       1
       1       8       1       1       8       1       1       8       1       1
       8       1       1       8       1       1       8       1       1       8
       1       1       8       1       1       8       1       1       8       1
       1       8       1       1       8       1       1       8       1       1
       8       1       1       8       1       1       8       1       1       8
       1       1       8       1       1       8       1       1       8       1
       1       8       1       1       8       1       1       8       1       1
       8       1       1       8       1       1       8       1       1       8
       1       1       8       1       1       8       1       1       8       1
       1       8       1       1       8       1       1       8       1       1
       8       1       1       8       1       1       8       1       1       8
       1       1       8       1       1       8       1       1       8       1
       1       8       1       1       8       1       1       8       1       1
       8       1       1       8       1       1       8       1       1       8
       1       1       8       1       1       8       1       1       8       1
       1       8       1       1       8       1       1       8       1       1
       8       1       1       8       1       1       8       1       1       8
       1       1       8       1       1       8       1       1       8       1
       1       8       1       1       8       1       1       8       1       1
       8       1       1       8       1       1       8       1       1       8
       1       1       8       1       1       8       1       1       8       1
       1       8       1       1       8       1       1       8       1       1
       8       1       1       8       1       1       8       1       1       8
       1       1       8       1       1       8       1       1       8       1
       1       8       1       1       8       1       1       8       1       1
       8       1       1       8       1       1       8       1       1       8
       1       1       8       1       1       8       1       1       8       1
       1       8       1       1       8       1       1       8       1       1
       8       1       1       8       1       1       8       1       1       8
       1       1       8       1       1       8       1       1       8       1
       1       8       1       1       8       1       1       8       1       1
       8       1       1       8       1       1       8       1       1       8
       1       1       8       1       1       8       1       1       8       1
       1       8       1       1       8       1       1       8       1       1
       8       1       1       8       1       1       8       1       1       8
       1       1       8       1       1       8       1       1       8       1
       1       8       1       1       8       1       1       8       1       1
       8       1       1       8       1       1       8       1       1       8
       1       1       8       1       1       8       1       1       8       1
       1       8       1       1       8       1       1       8       1       1
       8       1       1       8       1       1       8       1       1       8
       1       1       8       1       1       8       1       1       8       1
       1       8       1       1       8       1       1       8       1       1
       8       1       1       8       1       1       8       1       1       8
       1       1       8       1       1       8       1       1       8       1
       1       8       1       1       8       1       1       8       1       1
       8       1       1       8       1       1       8       1       1       8
       1       1       8       1       1       8       1       1       8       1
       1       8       1       1       8       1       1       8       1       1
       8       1       1       8       1       1       8       1       1       8
       1       1       8       1       1       8       1       1       8       1
       1       8       1       1       8       1       1       8       1       1
       8       1       1       8       1       1       8       1       1       8
       1       1       8       1       1       8       1       1       8       1
       1       8       1       1       8       1       1       8       1       1
       8       1       1       8       1       1       8       1       1       8
       1       1       8       1       1       8       1       1       8       1
       1       8       1       1       8       1       1       8       1       1
       8       1       1       8       1       1       8       1       1       8
       1       1       8       1       1       8       1       1       8       1
       1       8       1       1       8       1       1       8       1       1
       8       1       1       8       1       1       8       1       1       8
       1       1       8       1       1       8       1       1       8       1
       1       8       1       1       8       1       1       8       1       1
       8       1       1       8       1       1       8       1       1       8
       1       1       8       1       1       8       1       1       8       1
       1       8       1       1       8       1       1       8       1       1
       8       1       1       8       1       1       8       1       1       8
       1       1       8       1       1       8       1       1       8       1
       1       8       1       1       8       1       1       8       1       1
       8       1       1       8       1       1       8       1       1       8
       1       1       8       1       1       8       1       1       8       1
       1       8       1       1       8       1       1       8       1       1
       8       1       1       8       1       1       8       1       1       8
       1       1       8       1       1       8       1       1       8       1
       1       8       1       1       8       1       1       8       1       1
       8       1       1       8       1       1       8       1       1       8
       1       1       8       1       1       8       1       1       8       1
       1       8       1       1       8       1       1       8       1       1
       8       1       1       8       1       1       8       1       1       8
       1       1       8       1       1       8       1       1       8       1
       1       8       1       1       8       1       1       8       1       1
       8       1       1       8       1       1       8       1       1       8
       1       1       8       1       1       8       1       1       8       1
       1       8       1       1       8       1       1       8       1       1
       8       1       1       8       1       1       8       1       1       8
       1       1       8       1       1       8       1       1       8       1
       1       8       1       1       8       1       1       8       1       1
       8       1       1       8       1       1       8       1       1       8
       1       1       8       1       1       8       1       1       8       1
       1       8       1       1       8       1       1       8       1       1
       8       1       1       8       1       1       8       1       1       8
       1       1       8       1       1       8       1       1       8       1
       1       8       1       1       8       1       1       8       1       1
       8       1       1       8       1       1       8       1       1       8
       1       1       8       1       1       8       1       1       8       1
       1       8       1       1       8       1       1       8       1       1
       8       1       1       8       1       1       8       1       1       8
       1       1       8       1       1       8       1       1       8       1
       1       8       1       1       8       1       1       8       1       1
       8       1       1       8       1       1       8       1       1       8
       1       1       8       1       1       8       1       1       8       1
       1       8       1       1       8       1       1       8       1       1
       8       1       1       8       1       1       8       1       1       8
       1       1       8       1       1       8       1       1       8       1
       1       8       1       1       8       1       1       8       1       1
       8       1       1       8       1       1       8       1       1       8
       1       1       8       1       1       8       1       1       8       1
       1       8       1       1       8       1       1       8       1       1
       8       1       1       8       1       1       8       1       1       8
       1       1       8       1       1       8       1       1       8       1
       1       8       1       1       8       1       1       8       1       1
       8       1       1       8       1       1       8       1       1       8
       1       1       8       1       1       8       1       1       8       1
       1       8       1       1       8       1       1       8       1       1
       8       1       1       8       1       1       8       1       1       8
       1       1       8       1       1       8       1       1       8       1
       1       8       1       1       8       1       1       8       1       1
       8       1       1       8       1       1       8       1       1       8
       1       1       8       1       1       8       1       1       8       1
       1       8       1       1       8       1       1       8       1       1
       8       1       1       8       1       1       8       1       1       8
       1       1       8       1       1       8       1       1       8       1
       1       8       1       1       8       1       1       8       1       1
       8       1       1       8       1       1       8       1       1       8
       1       1       8       1       1       8       1       1       8       1
       1       8       1       1       8       1       1       8       1       1
       8       1       1       8       1       1       8       1       1       8
       1       1       8       1       1       8       1       1       8       1
       1       8       1       1       8       1       1       8       1       1
       8       1       1       8       1       1       8       1       1       8
       1       1       8       1       1       8       1       1       8       1
       1       8       1       1       8       1       1       8       1       1
       8       1       1       8       1       1       8       1       1       8
       1       1       8       1       1       8       1       1       8       1
       1       8       1       1       8       1       1       8       1       1
       8       1       1       8       1       1       8       1       1       8
       1       1       8       1       1       8       1       1       8       1
       1       8       1       1       8       1       1       8       1       1
       8       1       1       8       1       1       8       1       1       8
       1       1       8       1       1       8       1       1       8       1
       1       8       1       1       8       1       1       8       1       1
       8       1       1       8       1       1       8       1       1       8
       1       1       8       1       1       8       1       1       8       1
       1       8       1       1       8       1       1       8       1       1
       8       1       1       8       1       1       8       1       1       8
       1       1       8       1       1       8       1       1       8       1
       1       8       1       1       8       1       1       8       1       1
       8       1       1       8       1       1       8       1       1       8
       1       1       8       1       1       8       1       1       8       1
       1       8       1       1       8       1       1       8       1       1
       8       1       1       8       1       1       8       1       1       8
       1       1       8       1       1       8       1       1       8       1
       1       8       1       1       8       1       1       8       1       1
       8       1       1       8       1       1       8       1       1       8
       1       1       8       1       1       8       1       1       8       1
       1       8       1       1       8       1       1       8       1       1
       8       1       1       8       1       1       8       1       1       8
       1       1       8       1       1       8       1       1       8       1
       1       8       1       1       8       1       1       8       1       1
       8       1       1       8       1       1       8       1       1       8
       1       1       8       1       1       8       1       1       8       1
       1       8       1       1       8       1       1       8       1       1
       8       1       1       8       1       1       8       1       1       8
       1       1       8       1       1       8       1       1       8       1
       1       8       1       1       8       1       1       8       1       1
       8       1       1       8       1       1       8       1       1       8
       1       1       8       1       1       8       1       1       8       1
       1       8       1       1       8       1       1       8       1       1
       8       1       1       8       1       1       8       1       1       8
       1       1       8       1       1       8       1       1       8       1
       1       8       1       1       8       1       1       8       1       1
       8       1       1       8       1       1       8       1       1       8
       1       1       8       1       1       8       1       1       8       1
       1       8       1       1       8       1       1       8       1       1
       8       1       1       8       1       1       8       1       1       8
       1       1       8       1       1       8       1       1       8       1
       1       8       1       1       8       1       1       8       1       1
       8       1       1       8       1       1       8       1       1       8
       1       1       8       1       1       8       1       1       8       1
       1       8       1       1       8       1       1       8       1       1
       8       1       1       8       1       1       8       1       1       8
       1       1       8       1       1       8       1       1       8       1
       1       8       1       1       8       1       1       8       1       1
       8       1       1       8       1       1       8       1       1       8
       1       1       8       1       1       8       1       1       8       1
       1       8       1       1       8       1       1       8       1       1
       8       1       1       8       1       1       8       1       1       8
       1       1       8       1       1       8       1       1       8       1
       1       8       1       1       8       1       1       8       1       1
       8       1       1       8       1       1       8       1       1       8
       1       1       8       1       1       8       1       1       8       1
       1       8       1       1       8       1       1       8       1       1
       8       1       1       8       1       1       8       1       1       8
       1       1       8       1       1       8       1       1       8       1
       1       8       1       1       8       1       1       8       1       1
       8       1       1       8       1       1       8       1       1       8
       1       1       8       1       1       8       1       1       8       1
       1       8       1       1       8       1       1       8       1       1
       8       1       1       8       1       1       8       1       1       8
       1       1       8       1       1       8       1       1       8       1
       1       8       1       1       8       1       1       8       1       1
       8       1       1       8       1       1       8       1       1       8
       1       1       8       1       1       8       1       1       8       1
       1       8       1       1       8       1       1       8       1       1
       8       1       1       8       1       1       8       1       1       8
       1       1       8       1       1       8       1       1       8       1
       1       8       1       1       8       1       1       8       1       1
       8       1       1       8       1       1       8       1       1       8
       1       1       8       1       1       8       1       1       8       1
       1       8       1       1       8       1       1       8       1       1
       8       1       1       8       1       1       8       1       1       8
       1       1       8       1       1       8       1       1       8       1
       1       8       1       1       8       1       1       8       1       1
       8       1       1       8       1       1       8       1       1       8
       1       1       8       1       1       8       1       1       8       1
       1       8       1       1       8       1       1       8       1       1
       8       1       1       8       1       1       8       1       1       8
       1       1       8       1       1       8       1       1       8       1
       1       8       1       1       8       1       1       8       1       1
       8       1       1       8       1       1       8       1       1       8
       1       1       8       1       1       8       1       1       8       1
       1       8       1       1       8       1       1       8       1       1
       8       1       1       8       1       1       8       1       1       8
       1       1       8       1       1       8       1       1       8       1
       1       8       1       1       8       1       1       8       1       1
       8       1       1       8       1       1       8       1       1       8
       1       1       8       1       1       8       1       1       8       1
       1       8       1       1       8       1       1       8       1       1
       8       1       1       8       1       1       8       1       1       8
       1       1       8       1       1       8       1       1       8       1
       1       8       1       1       8       1       1       8       1       1
       8       1       1       8       1       1       8       1       1       8
       1       1       8       1       1       8       1       1       8       1
       1       8       1       1       8       1       1       8       1       1
       8       1       1       8       1       1       8       1       1       8
       1       1       8       1       1       8       1       1       8       1
       1       8       1       1       8       1       1       8       1       1
       8       1       1       8       1       1       8       1       1       8
       1       1       8       1       1       8       1       1       8       1
       1       8       1       1       8       1       1       8       1       1
       8       1       1       8       1       1       8       1       1       8
       1       1       8       1       1       8       1       1       8       1
       1       8       1       1       8       1       1       8       1       1
       8       1       1       8       1       1       8       1       1       8
       1       1       8       1       1       8       1       1       8       1
       1       8       1       1       8       1       1       8       1       1
       8       1       1       8       1       1       8       1       1       8
       1       1       8       1       1       8       1       1       8       1
       1       8       1       1       8       1       1       8       1       1
       8       1       1       8       1       1       8       1       1       8
       1       1       8       1       1       8       1       1       8       1
       1       8       1       1       8       1       1       8       1       1
       8       1       1       8       1       1       8       1       1       8
       1       1       8       1       1       8       1       1       8       1
       1       8       1       1       8       1       1       8       1       1
       8       1       1       8       1       1       8       1       1       8
       1       1       8       1       1       8       1       1       8       1
       1       8       1       1       8       1       1       8       1       1
       8       1       1       8       1       1       8       1       1       8
       1       1       8       1       1       8       1       1       8       1
       1       8       1       1       8       1       1       8       1       1
       8       1       1       8       1       1       8       1       1       8
       1       1       8       1       1       8       1       1       8       1
       1       8       1       1       8       1       1       8       1       1
       8       1       1       8       1       1       8       1       1       8
       1       1       8       1       1       8       1       1       8       1
       1       8       1       1       8       1       1       8       1       1
       8       1       1       8       1       1       8       1       1       8
       1       1       8       1       1       8       1       1       8       1
       1       8       1       1       8       1       1       8       1       1
       8       1       1       8       1       1       8       1       1       8
       1       1       8       1       1       8       1       1       8       1
       1       8       1       1       8       1       1       8       1       1
       8       1       1       8       1       1       8       1       1       8
       1       1       8       1       1       8       1       1       8       1
       1       8       1       1       8       1       1       8       1       1
       8       1       1       8       1       1       8       1       1       8
       1       1       8       1       1       8       1       1       8       1
       1       8       1       1       8       1       1       8       1       1
       8       1       1       8       1       1       8       1       1       8
       1       1       8       1       1       8       1       1       8       1
       1       8       1       1       8       1       1       8       1       1
       8       1       1       8       1       1       8       1       1       8
       1       1       8       1       1       8       1       1       8       1
       1       8       1       1       8       1       1       8       1       1
       8       1       1       8       1       1       8       1       1       8
       1       1       8       1       1       8       1       1       8       1
       1       8       1       1       8       1       1       8       1       1
       8       1       1       8       1       1       8       1       1       8
       1       1       8       1       1       8       1       1       8       1
       1       8       1       1       8       1       1       8       1       1
       8       1       1       8       1       1       8       1       1       8
       1       1       8       1       1       8       1       1       8       1
       1       8       1       1       8       1       1       8       1       1
       8       1       1       8       1       1       8       1       1       8
       1       1       8       1       1       8       1       1       8       1
       1       8       1       1       8       1       1       8       1       1
       8       1       1       8       1       1       8       1       1       8
       1       1       8       1       1       8       1       1       8       1
       1       8       1       1       8       1       1       8       1       1
       8       1       1       8       1       1       8       1       1       8
       1       1       8       1       1       8       1       1       8       1
       1       8       1       1       8       1       1       8       1       1
       8       1       1       8       1       1       8       1       1       8
       1       1       8       1       1       8       1       1       8       1
       1       8       1       1       8       1       1       8       1       1
       8       1       1       8       1       1       8       1       1       8
       1       1       8       1       1       8       1       1       8       1
       1       8       1       1       8       1       1       8       1       1
       8       1       1       8       1       1       8       1       1       8
       1       1       8       1       1       8       1       1       8       1
       1       8       1       1       8       1       1       8       1       1
       8       1       1       8       1       1       8       1       1       8
       1       1       8       1       1       8       1       1       8       1
       1       8       1       1       8       1       1       8       1       1
       8       1       1       8       1       1       8       1       1       8
       1       1       8       1       1       8       1       1       8       1
       1       8       1       1       8       1       1       8       1       1
       8       1       1       8       1       1       8       1       1       8
       1       1       8       1       1       8       1       1       8       1
       1       8       1       1       8       1       1       8       1       1
       8       1       1       8       1       1       8       1       1       8
       1       1       8       1       1       8       1       1       8       1
       1       8       1       1       8       1       1       8       1       1
       8       1       1       8       1       1       8       1       1       8
       1       1       8       1       1       8       1       1       8       1
       1       8       1       1       8       1       1       8       1       1
       8       1       1       8       1       1       8       1       1       8
       1       1       8       1       1       8       1       1       8       1
       1       8       1       1       8       1       1       8       1       1
       8       1       1       8       1       1       8       1       1       8
       1       1       8       1       1       8       1       1       8       1
       1       8       1       1       8       1       1       8       1       1
       8       1       1       8       1       1       8       1       1       8
       1       1       8       1       1       8       1       1       8       1
       1       8       1       1       8       1       1       8       1       1
       8       1       1       8       1       1       8       1       1       8
       1       1       8       1       1       8       1       1       8       1
       1       8       1       1       8       1       1       8       1       1
       8       1       1       8       1       1       8       1       1       8
       1       1       8       1       1       8       1       1       8       1
       1       8       1       1       8       1       1       8       1       1
       8       1       1       8       1       1       8       1       1       8
       1       1       8       1       1       8       1       1       8       1
       1       8       1       1       8       1       1       8       1       1
       8       1       1       8       1       1       8       1       1       8
       1       1       8       1       1       8       1       1       8       1
       1       8       1       1       8       1       1       8       1       1
       8       1       1       8       1       1       8       1       1       8
       1       1       8       1       1       8       1       1       8       1
       1       8       1       1       8       1       1       8       1       1
       8       1       1       8       1       1       8       1       1       8
       1       1       8       1       1       8       1       1       8       1
       1       8       1       1       8       1       1       8       1       1
       8       1       1       8       1       1       8       1       1       8
       1       1       8       1       1       8       1       1       8       1
       1       8       1       1       8       1       1       8       1       1
       8       1       1       8       1       1       8       1       1       8
       1       1       8       1       1       8       1       1       8       1
       1       8       1       1       8       1       1       8       1       1
       8       1       1       8       1       1       8       1       1       8
       1       1       8       1       1       8       1       1       8       1
       1       8       1       1       8       1       1       8       1       1
       8       1       1       8       1       1       8       1       1       8
       1       1       8       1       1       8       1       1       8       1
       1       8       1       1       8       1       1       8       1       1
       8       1       1       8       1       1       8       1       1       8
       1       1       8       1       1       8       1       1       8       1
       1       8       1       1       8       1       1       8       1       1
       8       1       1       8       1       1       8       1       1       8
       1       1       8       1       1       8       1       1       8       1
       1       8       1       1       8       1       1       8       1       1
       8       1       1       8       1       1       8       1       1       8
       1       1       8       1       1       8       1       1       8       1
       1       8       1       1       8       1       1       8       1       1
       8       1       1       8       1       1       8       1       1       8
       1       1       8       1       1       8       1       1       8       1
       1       8       1       1       8       1       1       8       1       1
       8       1       1       8       1       1       8       1       1       8
       1       1       8       1       1       8       1       1       8       1
       1       8       1       1       8       1       1       8       1       1
       8       1       1       8       1       1       8       1       1       8
       1       1       8       1       1       8       1       1       8       1
       1       8       1       1       8       1       1       8       1       1
       8       1       1       8       1       1       8       1       1       8
       1       1       8       1       1       8       1       1       8       1
       1       8       1       1       8       1       1       8       1       1
       8       1       1       8       1       1       8       1       1       8
       1       1       8       1       1       8       1       1       8       1
       1       8       1       1       8       1       1       8       1       1
       8       1       1       8       1       1       8       1       1       8
       1       1       8       1       1       8       1       1       8       1
       1       8       1       1       8       1       1       8       1       1
       8       1       1       8       1       1       8       1       1       8
       1       1       8       1       1       8       1       1       8       1
       1       8       1       1       8       1       1       8       1       1
       8       1       1       8       1       1       8       1       1       8
       1       1       8       1       1       8       1       1       8       1
       1       8       1       1       8       1       1       8       1       1
       8       1       1       8       1       1       8       1       1       8
       1       1       8       1       1       8       1       1       8       1
       1       8       1       1       8       1       1       8       1       1
       8       1       1       8       1       1       8       1       1       8
       1       1       8       1       1       8       1       1       8       1
       1       8       1       1       8       1       1       8       1       1
       8       1       1       8       1       1       8       1       1       8
       1       1       8       1       1       8       1       1       8       1
       1       8       1       1       8       1       1       8       1       1
       8       1       1       8       1       1       8       1       1       8
       1       1       8       1       1       8       1       1       8       1
       1       8       1       1       8       1       1       8       1       1
       8       1       1       8       1       1       8       1       1       8
       1       1       8       1       1       8       1       1       8       1
       1       8       1       1       8       1       1       8       1       1
       8       1       1       8       1       1       8       1       1       8
       1       1       8       1       1       8       1       1       8       1
       1       8       1       1       8       1       1       8       1       1
       8       1       1       8       1       1       8       1       1       8
       1       1       8       1       1       8       1       1       8       1
       1       8       1       1       8       1       1       8       1       1
       8       1       1       8       1       1       8       1       1       8
       1       1       8       1       1       8       1       1       8       1
       1       8       1       1       8       1       1       8       1       1
       8       1       1       8       1       1       8       1       1       8
       1       1       8       1       1       8       1       1       8       1
       1       8       1       1       8       1       1       8       1       1
       8       1       1       8       1       1       8       1       1       8
       1       1       8       1       1       8       1       1       8       1
       1       8       1       1       8       1       1       8       1       1
       8       1       1       8       1       1       8       1       1       8
       1       1       8       1       1       8       1       1       8       1
       1       8       1       1       8       1       1       8       1       1
       8       1       1       8       1       1       8       1       1       8
       1       1       8       1       1       8       1       1       8       1
       1       8       1       1       8       1       1       8       1       1
       8       1       1       8       1       1       8       1       1       8
       1       1       8       1       1       8       1       1       8       1
       1       8       1       1       8       1       1       8       1       1
       8       1       1       8       1       1       8       1       1       8
       1       1       8       1       1       8       1       1       8       1
       1       8       1       1       8       1       1       8       1       1
       8       1       1       8       1       1       8       1       1       8
       1       1       8       1       1       8       1       1       8       1
       1       8       1       1       8       1       1       8       1       1
       8       1       1       8       1       1       8       1       1       8
       1       1       8       1       1       8       1       1       8       1
       1       8       1       1       8       1       1       8       1       1
       8       1       1       8       1       1       8       1       1       8
       1       1       8       1       1       8       1       1       8       1
       1       8       1       1       8       1       1       8       1       1
       8       1       1       8       1       1       8       1       1       8
       1       1       8       1       1       8       1       1       8       1
       1       8       1       1       8       1       1       8       1       1
       8       1       1       8       1       1       8       1       1       8
       1       1       8       1       1       8       1       1       8       1
       1       8       1       1       8       1       1       8       1       1
       8       1       1       8       1       1       8       1       1       8
       1       1       8       1       1       8       1       1       8       1
       1       8       1       1       8       1       1       8       1       1
       8       1       1       8       1       1       8       1       1       8
       1       1       8       1       1       8       1       1       8       1
       1       8       1       1       8       1       1       8       1       1
       8       1       1       8       1       1       8       1       1       8
       1       1       8       1       1       8       1       1       8       1
       1       8       1       1       8       1       1       8       1       1
       8       1       1       8       1       1       8       1       1       8
       1       1       8       1       1       8       1       1       8       1
       1       8       1       1       8       1       1       8       1       1
       8       1       1       8       1       1       8       1       1       8
       1       1       8       1       1       8       1       1       8       1
       1       8       1       1       8       1       1       8       1       1
       8       1       1       8       1       1       8       1       1       8
       1       1       8       1       1       8       1       1       8       1
       1       8       1       1       8       1       1       8       1       1
       8       1       1       8       1       1       8       1       1       8
       1       1       8       1       1       8       1       1       8       1
       1       8       1       1       8       1       1       8       1       1
       8       1       1       8       1       1       8       1       1       8
       1       1       8       1       1       8       1       1       8       1
       1       8       1       1       8       1       1       8       1       1
       8       1       1       8       1       1       8       1       1       8
       1       1       8       1       1       8       1       1       8       1
       1       8       1       1       8       1       1       8       1       1
       8       1       1       8       1       1       8       1       1       8
       1       1       8       1       1       8       1       1       8       1
       1       8       1       1       8       1       1       8       1       1
       8       1       1       8       1       1       8       1       1       8
       1       1       8       1       1       8       1       1       8       1
       1       8       1       1       8       1       1       8       1       1
       8       1       1       8       1       1       8       1       1       8
       1       1       8       1       1       8       1       1       8       1
       1       8       1       1       8       1       1       8       1       1
       8       1       1       8       1       1       8       1       1       8
       1       1       8       1       1       8       1       1       8       1
       1       8       1       1       8       1       1       8       1       1
       8       1       1       8       1       1       8       1       1       8
       1       1       8       1       1       8       1       1       8       1
       1       8       1       1       8       1       1       8       1       1
       8       1       1       8       1       1       8       1       1       8
       1       1       8       1       1       8       1       1       8       1
       1       8       1       1       8       1       1       8       1       1
       8       1       1       8       1       1       8       1       1       8
       1       1       8       1       1       8       1       1       8       1
       1       8       1       1       8       1       1       8       1       1
       8       1       1       8       1       1       8       1       1       8
       1       1       8       1       1       8       1       1       8       1
       1       8       1       1       8       1       1       8       1       1
       8       1       1       8       1       1       8       1       1       8
       1       1       8       1       1       8       1       1       8       1
       1       8       1       1       8       1       1       8       1       1
       8       1       1       8       1       1       8       1       1       8
       1       1       8       1       1       8       1       1       8       1
       1       8       1       1       8       1       1       8       1       1
       8       1       1       8       1       1       8       1       1       8
       1       1       8       1       1       8       1       1       8       1
       1       8       1       1       8       1       1       8       1       1
       8       1       1       8       1       1       8       1       1       8
       1       1       8       1       1       8       1       1       8       1
       1       8       1       1       8       1       1       8       1       1
       8       1       1       8       1       1       8       1       1       8
       1       1       8       1       1       8       1       1       8       1
       1       8       1       1       8       1       1       8       1       1
       8       1       1       8       1       1       8       1       1       8
       1       1       8       1       1       8       1       1       8       1
       1       8       1       1       8       1       1       8       1       1
       8       1       1       8       1       1       8       1       1       8
       1       1       8       1       1       8       1       1       8       1
       1       8       1       1       8       1       1       8       1       1
       8       1       1       8       1       1       8       1       1       8
       1       1       8       1       1       8       1       1       8       1
       1       8       1       1       8       1       1       8       1       1
       8       1       1       8       1       1       8       1       1       8
       1       1       8       1       1       8       1       1       8       1
       1       8       1       1       8       1       1       8       1       1
       8       1       1       8       1       1       8       1       1       8
       1       1       8       1       1       8       1       1       8       1
       1       8       1       1       8       1       1       8       1       1
       8       1       1       8       1       1       8       1       1       8
       1       1       8       1       1       8       1       1       8       1
       1       8       1       1       8       1       1       8       1       1
       8       1       1       8       1       1       8       1       1       8
       1       1       8       1       1       8       1       1       8       1
       1       8       1       1       8       1       1       8       1       1
       8       1       1       8       1       1       8       1       1       8
       1       1       8       1       1       8       1       1       8       1
       1       8       1       1       8       1       1       8       1       1
       8       1       1       8       1       1       8       1       1       8
       1       1       8       1       1       8       1       1       8       1
       1       8       1       1       8       1       1       8       1       1
       8       1       1       8       1       1       8       1       1       8
       1       1       8       1       1       8       1       1       8       1
       1       8       1       1       8       1       1       8       1       1
       8       1       1       8       1       1       8       1       1       8
       1       1       8       1       1       8       1       1       8       1
       1       8       1       1       8       1       1       8       1       1
       8       1       1       8       1       1       8       1       1       8
       1       1       8       1       1       8       1       1       8       1
       1       8       1       1       8       1       1       8       1       1
       8       1       1       8       1       1       8       1       1       8
       1       1       8       1       1       8       1       1       8       1
       1       8       1       1       8       1       1       8       1       1
       8       1       1       8       1       1       8       1       1       8
       1       1       8       1       1       8       1       1       8       1
       1       8       1       1       8       1       1       8       1       1
       8       1       1       8       1       1       8       1       1       8
       1       1       8       1       1       8       1       1       8       1
       1       8       1       1       8       1       1       8       1       1
       8       1       1       8       1       1       8       1       1       8
       1       1       8       1       1       8       1       1       8       1
       1       8       1       1       8       1       1       8       1       1
       8       1       1       8       1       1       8       1       1       8
       1       1       8       1       1       8       1       1       8       1
       1       8       1       1       8       1       1       8       1       1
       8       1       1       8       1       1       8       1       1       8
       1       1       8       1       1       8       1       1       8       1
       1       8       1       1       8       1       1       8       1       1
       8       1       1       8       1       1       8       1       1       8
       1       1       8       1       1       8       1       1       8       1
       1       8       1       1       8       1       1       8       1       1
       8       1       1       8       1       1       8       1       1       8
       1       1       8       1       1       8       1       1       8       1
       1       8       1       1       8       1       1       8       1       1
       8       1       1       8       1       1       8       1       1       8
       1       1       8       1       1       8       1       1       8       1
       1       8       1       1       8       1       1       8       1       1
       8       1       1       8       1       1       8       1       1       8
       1       1       8       1       1       8       1       1       8       1
       1       8       1       1       8       1       1       8       1       1
       8       1       1       8       1       1       8       1       1       8
       1       1       8       1       1       8       1       1       8       1
       1       8       1       1       8       1       1       8       1       1
       8       1       1       8       1       1       8       1       1       8
       1       1       8       1       1       8       1       1       8       1
       1       8       1       1       8       1       1       8       1       1
       8       1       1       8       1       1       8       1       1       8
       1       1       8       1       1       8       1       1       8       1
       1       8       1       1       8       1       1       8       1       1
       8       1       1       8       1       1       8       1       1       8
       1       1       8       1       1       8       1       1       8       1
       1       8       1       1       8       1       1       8       1       1
       8       1       1       8       1       1       8       1       1       8
       1       1       8       1       1       8       1       1       8       1
       1       8       1       1       8       1       1       8       1       1
       8       1       1       8       1       1       8       1       1       8
       1       1       8       1       1       8       1       1       8       1
       1       8       1       1       8       1       1       8       1       1
       8       1       1       8       1       1       8       1       1       8
       1       1       8       1       1       8       1       1       8       1
       1       8       1       1       8       1       1       8       1       1
       8       1       1       8       1       1       8       1       1       8
       1       1       8       1       1       8       1       1       8       1
       1       8       1       1       8       1       1       8       1       1
       8       1       1       8       1       1       8       1       1       8
       1       1       8       1       1       8       1       1       8       1
       1       8       1       1       8       1       1       8       1       1
       8       1       1       8       1       1       8       1       1       8
       1       1       8       1       1       8       1       1       8       1
       1       8       1       1       8       1       1       8       1       1
       8       1       1       8       1       1       8       1       1       8
       1       1       8       1       1       8       1       1       8       1
       1       8       1       1       8       1       1       8       1       1
       8       1       1       8       1       1       8       1       1       8
       1       1       8       1       1       8       1       1       8       1
       1       8       1       1       8       1       1       8       1       1
       8       1       1       8       1       1       8       1       1       8
       1       1       8       1       1       8       1       1       8       1
       1       8       1       1       8       1       1       8       1       1
       8       1       1       8       1       1       8       1       1       8
       1       1       8       1       1       8       1       1       8       1
       1       8       1       1       8       1       1       8       1       1
       8       1       1       8       1       1       8       1       1       8
       1       1       8       1       1       8       1       1       8       1
       1       8       1       1       8       1       1       8       1       1
       8       1       1       8       1       1       8       1       1       8
       1       1       8       1       1       8       1       1       8       1
       1       8       1       1       8       1       1       8       1       1
       8       1       1       8       1       1       8       1       1       8
       1       1       8       1       1       8       1       1       8       1
       1       8       1       1       8       1       1       8       1       1
       8       1       1       8       1       1       8       1       1       8
       1       1       8       1       1       8       1       1       8       1
       1       8       1       1       8       1       1       8       1       1
       8       1       1       8       1       1       8       1       1       8
       1       1       8       1       1       8       1       1       8       1
       1       8       1       1       8       1       1       8       1       1
       8       1       1       8       1       1       8       1       1       8
       1       1       8       1       1       8       1       1       8       1
       1       8       1       1       8       1       1       8       1       1
       8       1       1       8       1       1       8       1       1       8
       1       1       8       1       1       8       1       1       8       1
       1       8       1       1       8       1       1       8       1       1
       8       1       1       8       1       1       8       1       1       8
       1       1       8       1       1       8       1       1       8       1
       1       8       1       1       8       1       1       8       1       1
       8       1       1       8       1       1       8       1       1       8
       1       1       8       1       1       8       1       1       8       1
       1       8       1       1       8       1       1       8       1       1
       8       1       1       8       1       1       8       1       1       8
       1       1       8       1       1       8       1       1       8       1
       1       8       1       1       8       1       1       8       1       1
       8       1       1       8       1       1       8       1       1       8
       1       1       8       1       1       8       1       1       8       1
       1       8       1       1       8       1       1       8       1       1
       8       1       1       8       1       1       8       1       1       8
       1       1       8       1       1       8       1       1       8       1
       1       8       1       1       8       1       1       8       1       1
       8       1       1       8       1       1       8       1       1       8
       1       1       8       1       1       8       1       1       8       1
       1       8       1       1       8       1       1       8       1       1
       8       1       1       8       1       1       8       1       1       8
       1       1       8       1       1       8       1       1       8       1
       1       8       1       1       8       1       1       8       1       1
       8       1       1       8       1       1       8       1       1       8
       1       1       8       1       1       8       1       1       8       1
       1       8       1       1       8       1       1       8       1       1
       8       1       1       8       1       1       8       1       1       8
       1       1       8       1       1       8       1       1       8       1
       1       8       1       1       8       1       1       8       1       1
       8       1       1       8       1       1       8       1       1       8
       1       1       8       1       1       8       1       1       8       1
       1       8       1       1       8       1       1       8       1       1
       8       1       1       8       1       1       8       1       1       8
       1       1       8       1       1       8       1       1       8       1
       1       8       1       1       8       1       1       8       1       1
       8       1       1       8       1       1       8       1       1       8
       1       1       8       1       1       8       1       1       8       1
       1       8       1       1       8       1       1       8       1       1
       8       1       1       8       1       1       8       1       1       8
       1       1       8       1       1       8       1       1       8       1
       1       8       1       1       8       1       1       8       1       1
       8       1       1       8       1       1       8       1       1       8
       1       1       8       1       1       8       1       1       8       1
       1       8       1       1       8       1       1       8       1       1
       8       1       1       8       1       1       8       1       1       8
       1       1       8       1       1       8       1       1       8       1
       1       8       1       1       8       1       1       8       1       1
       8       1       1       8       1       1       8       1       1       8
       1       1       8       1       1       8       1       1       8       1
       1       8       1       1       8       1       1       8       1       1
       8       1       1       8       1       1       8       1       1       8
       1       1       8       1       1       8       1       1       8       1
       1       8       1       1       8       1       1       8       1       1
       8       1       1       8       1       1       8       1       1       8
       1       1       8       1       1       8       1       1       8       1
       1       8       1       1       8       1       1       8       1       1
       8       1       1       8       1       1       8       1       1       8
       1       1       8       1       1       8       1       1       8       1
       1       8       1       1       8       1       1       8       1       1
       8       1       1       8       1       1       8       1       1       8
       1       1       8       1       1       8       1       1       8       1
       1       8       1       1       8       1       1       8       1       1
       8       1       1       8       1       1       8       1       1       8
       1       1       8       1       1       8       1       1       8       1
       1       8       1       1       8       1       1       8       1       1
       8       1       1       8       1       1       8       1       1       8
       1       1       8       1       1       8       1       1       8       1
       1       8       1       1       8       1       1       8       1       1
       8       1       1       8       1       1       8       1       1       8
       1       1       8       1       1       8       1       1       8       1
       1       8       1       1       8       1       1       8       1       1
       8       1       1       8       1       1       8       1       1       8
       1       1       8       1       1       8       1       1       8       1
       1       8       1       1       8       1       1       8       1       1
       8       1       1       8       1       1       8       1       1       8
       1       1       8       1       1       8       1       1       8       1
       1       8       1       1       8       1       1       8       1       1
       8       1       1       8       1       1       8       1       1       8
       1       1       8       1       1       8       1       1       8       1
       1       8       1       1       8       1       1       8       1       1
       8       1       1       8       1       1       8       1       1       8
       1       1       8       1       1       8       1       1       8       1
       1       8       1       1       8       1       1       8       1       1
       8       1       1       8       1       1       8       1       1       8
       1       1       8       1       1       8       1       1       8       1
       1       8       1       1       8       1       1       8       1       1
       8       1       1       8       1       1       8       1       1       8
       1       1       8       1       1       8       1       1       8       1
       1       8       1       1       8       1       1       8       1       1
       8       1       1       8       1       1       8       1       1       8
       1       1       8       1       1       8       1       1       8       1
       1       8       1       1       8       1       1       8       1       1
       8       1       1       8       1       1       8       1       1       8
       1       1       8       1       1       8       1       1       8       1
       1       8       1       1       8       1       1       8       1       1
       8       1       1       8       1       1       8       1       1       8
       1       1       8       1       1       8       1       1       8       1
       1       8       1       1       8       1       1       8       1       1
       8       1       1       8       1       1       8       1       1       8
       1       1       8       1       1       8       1       1       8       1
       1       8       1       1       8       1       1       8       1       1
       8       1       1       8       1       1       8       1       1       8
       1       1       8       1       1       8       1       1       8       1
       1       8       1       1       8       1       1       8       1       1
       8       1       1       8       1       1       8       1       1       8
       1       1       8       1       1       8       1       1       8       1
       1       8       1       1       8       1       1       8       1       1
       8       1       1       8       1       1       8       1       1       8
       1       1       8       1       1       8       1       1       8       1
       1       8       1       1       8       1       1       8       1       1
       8       1       1       8       1       1       8       1       1       8
       1       1       8       1       1       8       1       1       8       1
       1       8       1       1       8       1       1       8       1       1
       8       1       1       8       1       1       8       1       1       8
       1       1       8       1       1       8       1       1       8       1
       1       8       1       1       8       1       1       8       1       1
       8       1       1       8       1       1       8       1       1       8
       1       1       8       1       1       8       1       1       8       1
       1       8       1       1       8       1       1       8       1       1
       8       1       1       8       1       1       8       1       1       8
       1       1       8       1       1       8       1       1       8       1
       1       8       1       1       8       1       1       8       1       1
       8       1       1       8       1       1       8       1       1       8
       1       1       8       1       1       8       1       1       8       1
       1       8       1       1       8       1       1       8       1       1
       8       1       1       8       1       1       8       1       1       8
       1       1       8       1       1       8       1       1       8       1
       1       8       1       1       8       1       1       8       1       1
       8       1       1       8       1       1       8       1       1       8
       1       1       8       1       1       8       1       1       8       1
       1       8       1       1       8       1       1       8       1       1
       8       1       1       8       1       1       8       1       1       8
       1       1       8       1       1       8       1       1       8       1
       1       8       1       1       8       1       1       8       1       1
       8       1       1       8       1       1       8       1       1       8
       1       1       8       1       1       8       1       1       8       1
       1       8       1       1       8       1       1       8       1       1
       8       1       1       8       1       1       8       1       1       8
       1       1       8       1       1       8       1       1       8       1
       1       8       1       1       8       1       1       8       1       1
       8       1       1       8       1       1       8       1       1       8
       1       1       8       1       1       8       1       1       8       1
       1       8       1       1       8       1       1       8       1       1
       8       1       1       8       1       1       8       1       1       8
       1       1       8       1       1       8       1       1       8       1
       1       8       1       1       8       1       1       8       1       1
       8       1       1       8       1       1       8       1       1       8
       1       1       8       1       1       8       1       1       8       1
       1       8       1       1       8       1       1       8       1       1
       8       1       1       8       1       1       8       1       1       8
       1       1       8       1       1       8       1       1       8       1
       1       8       1       1       8       1       1       8       1       1
       8       1       1       8       1       1       8       1       1       8
       1       1       8       1       1       8       1       1       8       1
       1       8       1       1       8       1       1       8       1       1
       8       1       1       8       1       1       8       1       1       8
       1       1       8       1       1       8       1       1       8       1
       1       8       1       1       8       1       1       8       1       1
       8       1       1       8       1       1       8       1       1       8
       1       1       8       1       1       8       1       1       8       1
       1       8       1       1       8       1       1       8       1       1
       8       1       1       8       1       1       8       1       1       8
       1       1       8       1       1       8       1       1       8       1
       1       8       1       1       8       1       1       8       1       1
       8       1       1       8       1       1       8       1       1       8
       1       1       8       1       1       8       1       1       8       1
       1       8       1       1       8       1       1       8       1       1
       8       1       1       8       1       1       8       1       1       8
       1       1       8       1       1       8       1       1       8       1
       1       8       1       1       8       1       1       8       1       1
       8       1       1       8       1       1       8       1       1       8
       1       1       8       1       1       8       1       1       8       1
       1       8       1       1       8       1       1       8       1       1
       8       1       1       8       1       1       8       1       1       8
       1       1       8       1       1       8       1       1       8       1
       1       8       1       1       8       1       1       8       1       1
       8       1       1       8       1       1       8       1       1       8
       1       1       8       1       1       8       1       1       8       1
       1       8       1       1       8       1       1       8       1       1
       8       1       1       8       1       1       8       1       1       8
       1       1       8       1       1       8       1       1       8       1
       1       8       1       1       8       1       1       8       1       1
       8       1       1       8       1       1       8       1       1       8
       1       1       8       1       1       8       1       1       8       1
       1       8       1       1       8       1       1       8       1       1
       8       1       1       8       1       1       8       1       1       8
       1       1       8       1       1       8       1       1       8       1
       1       8       1       1       8       1       1       8       1       1
       8       1       1       8       1       1       8       1       1       8
       1       1       8       1       1       8       1       1       8       1
       1       8       1       1       8       1       1       8       1       1
       8       1       1       8       1       1       8       1       1       8
       1       1       8       1       1       8       1       1       8       1
       1       8       1       1       8       1       1       8       1       1
       8       1       1       8       1       1       8       1       1       8
       1       1       8       1       1       8       1       1       8       1
       1       8       1       1       8       1       1       8       1       1
       8       1       1       8       1       1       8       1       1       8
       1       1       8       1       1       8       1       1       8       1
       1       8       1       1       8       1       1       8       1       1
       8       1       1       8       1       1       8       1       1       8
       1       1       8       1       1       8       1       1       8       1
       1       8       1       1       8       1       1       8       1       1
       8       1       1       8       1       1       8       1       1       8
       1       1       8       1       1       8       1       1       8       1
       1       8       1       1       8       1       1       8       1       1
       8       1       1       8       1       1       8       1       1       8
       1       1       8       1       1       8       1       1       8       1
       1       8       1       1       8       1       1       8       1       1
       8       1       1       8       1       1       8       1       1       8
       1       1       8       1       1       8       1       1       8       1
       1       8       1       1       8       1       1       8       1       1
       8       1       1       8       1       1       8       1       1       8
       1       1       8       1       1       8       1       1       8       1
       1       8       1       1       8       1       1       8       1       1
       8       1       1       8       1       1       8       1       1       8
       1       1       8       1       1       8       1       1       8       1
       1       8       1       1       8       1       1       8       1       1
       8       1       1       8       1       1       8       1       1       8
       1       1       8       1       1       8       1       1       8       1
       1       8       1       1       8       1       1       8       1       1
       8       1       1       8       1       1       8       1       1       8
       1       1       8       1       1       8       1       1       8       1
       1       8       1       1       8       1       1       8       1       1
       8       1       1       8       1       1       8       1       1       8
       1       1       8       1       1       8       1       1       8       1
       1       8       1       1       8       1       1       8       1       1
       8       1       1       8       1       1       8       1       1       8
       1       1       8       1       1       8       1       1       8       1
       1       8       1       1       8       1       1       8       1       1
       8       1       1       8       1       1       8       1       1       8
       1       1       8       1       1       8       1       1       8       1
       1       8       1       1       8       1       1       8       1       1
       8       1       1       8       1       1       8       1       1       8
       1       1       8       1       1       8       1       1       8       1
       1       8       1       1       8       1       1       8       1       1
       8       1       1       8       1       1       8       1       1       8
       1       1       8       1       1       8       1       1       8       1
       1       8       1       1       8       1       1       8       1       1
       8       1       1       8       1       1       8       1       1       8
       1       1       8       1       1       8       1       1       8       1
       1       8       1       1       8       1       1       8       1       1
       8       1       1       8       1       1       8       1       1       8
       1       1       8       1       1       8       1       1       8       1
       1       8       1       1       8       1       1       8       1       1
       8       1       1       8       1       1       8       1       1       8
       1       1       8       1       1       8       1       1       8       1
       1       8       1       1       8       1       1       8       1       1
       8       1       1       8       1       1       8       1       1       8
       1       1       8       1       1       8       1       1       8       1
       1       8       1       1       8       1       1       8       1       1
       8       1       1       8       1       1       8       1       1       8
       1       1       8       1       1       8       1       1       8       1
       1       8       1       1       8       1       1       8       1       1
       8       1       1       8       1       1       8       1       1       8
       1       1       8       1       1       8       1       1       8       1
       1       8       1       1       8       1       1       8       1       1
       8       1       1       8       1       1       8       1       1       8
       1       1       8       1       1       8       1       1       8       1
       1       8       1       1       8       1       1       8       1       1
       8       1       1       8       1       1       8       1       1       8
       1       1       8       1       1       8       1       1       8       1
       1       8       1       1       8       1       1       8       1       1
       8       1       1       8       1       1       8       1       1       8
       1       1       8       1       1       8       1       1       8       1
       1       8       1       1       8       1       1       8       1       1
       8       1       1       8       1       1       8       1       1       8
       1       1       8       1       1       8       1       1       8       1
       1       8       1       1       8       1       1       8       1       1
       8       1       1       8       1       1       8       1       1       8
       1       1       8       1       1       8       1       1       8       1
       1       8       1       1       8       1       1       8       1       1
       8       1       1       8       1       1       8       1       1       8
       1       1       8       1       1       8       1       1       8       1
       1       8       1       1       8       1       1       8       1       1
       8       1       1       8       1       1       8       1       1       8
       1       1       8       1       1       8       1       1       8       1
       1       8       1       1       8       1       1       8       1       1
       8       1       1       8       1       1       8       1       1       8
       1       1       8       1       1       8       1       1       8       1
       1       8       1       1       8       1       1       8       1       1
       8       1       1       8       1       1       8       1       1       8
       1       1       8       1       1       8       1       1       8       1
       1       8       1       1       8       1       1       8       1       1
       8       1       1       8       1       1       8       1       1       8
       1       1       8       1       1       8       1       1       8       1
       1       8       1       1       8       1       1       8       1       1
       8       1       1       8       1       1       8       1       1       8
       1       1       8       1       1       8       1       1       8       1
       1       8       1       1       8       1       1       8       1       1
       8       1       1       8       1       1       8       1       1       8
       1       1       8       1       1       8       1       1       8       1
       1       8       1       1       8       1       1       8       1       1
       8       1       1       8       1       1       8       1       1       8
       1       1       8       1       1       8       1       1       8       1
       1       8       1       1       8       1       1       8       1       1
       8       1       1       8       1       1       8       1       1       8
       1       1       8       1       1       8       1       1       8       1
       1       8       1       1       8       1       1       8       1       1
       8       1       1       8       1       1       8       1       1       8
       1       1       8       1       1       8       1       1       8       1
       1       8       1       1       8       1       1       8       1       1
       8       1       1       8       1       1       8       1       1       8
       1       1       8       1       1       8       1       1       8       1
       1       8       1       1       8       1       1       8       1       1
       8       1       1       8       1       1       8       1       1       8
       1       1       8       1       1       8       1       1       8       1
       1       8       1       1       8       1       1       8       1       1
       8       1       1       8       1       1       8       1       1       8
       1       1       8       1       1       8       1       1       8       1
       1       8       1       1       8       1       1       8       1       1
       8       1       1       8       1       1       8       1       1       8
       1       1       8       1       1       8       1       1       8       1
       1       8       1       1       8       1       1       8       1       1
       8       1       1       8       1       1       8       1       1       8
       1       1       8       1       1       8       1       1       8       1
       1       8       1       1       8       1       1       8       1       1
       8       1       1       8       1       1       8       1       1       8
       1       1       8       1       1       8       1       1       8       1
       1       8       1       1       8       1       1       8       1       1
       8       1       1       8       1       1       8       1       1       8
       1       1       8       1       1       8       1       1       8       1
       1       8       1       1       8       1       1       8       1       1
       8       1       1       8       1       1       8       1       1       8
       1       1       8       1       1       8       1       1       8       1
       1       8       1       1       8       1       1       8       1       1
       8       1       1       8       1       1       8       1       1       8
       1       1       8       1       1       8       1       1       8       1
       1       8       1       1       8       1       1       8       1       1
       8       1       1       8       1       1       8       1       1       8
       1       1       8       1       1       8       1       1       8       1
       1       8       1       1       8       1       1       8       1       1
       8       1       1       8       1       1       8       1       1       8
       1       1       8       1       1       8       1       1       8       1
       1       8       1       1       8       1       1       8       1       1
       8       1       1       8       1       1       8       1       1       8
       1       1       8       1       1       8       1       1       8       1
       1       8       1       1       8       1       1       8       1       1
       8       1       1       8       1       1       8       1       1       8
       1       1       8       1       1       8       1       1       8       1
       1       8       1       1       8       1       1       8       1       1
       8       1       1       8       1       1       8       1       1       8
       1       1       8       1       1       8       1       1       8       1
       1       8       1       1       8       1       1       8       1       1
       8       1       1       8       1       1       8       1       1       8
       1       1       8       1       1       8       1       1       8       1
       1       8       1       1       8       1       1       8       1       1
       8       1       1       8       1       1       8       1       1       8
       1       1       8       1       1       8       1       1       8       1
       1       8       1       1       8       1       1       8       1       1
       8       1       1       8       1       1       8       1       1       8
       1       1       8       1       1       8       1       1       8       1
       1       8       1       1       8       1       1       8       1       1
       8       1       1       8       1       1       8       1       1       8
       1       1       8       1       1       8       1       1       8       1
       1       8       1       1       8       1       1       8       1       1
       8       1       1       8       1       1       8       1       1       8
       1       1       8       1       1       8       1       1       8       1
       1       8       1       1       8       1       1       8       1       1
       8       1       1       8       1       1       8       1       1       8
       1       1       8       1       1       8       1       1       8       1
       1       8       1       1       8       1       1       8       1       1
       8       1       1       8       1       1       8       1       1       8
       1       1       8       1       1       8       1       1       8       1
       1       8       1       1       8       1       1       8       1       1
       8       1       1       8       1       1       8       1       1       8
       1       1       8       1       1       8       1       1       8       1
       1       8       1       1       8       1       1       8       1       1
       8       1       1       8       1       1       8       1       1       8
       1       1       8       1       1       8       1       1       8       1
       1       8       1       1       8       1       1       8       1       1
       8       1       1       8       1       1       8       1       1       8
       1       1       8       1       1       8       1       1       8       1
       1       8       1       1       8       1       1       8       1       1
       8       1       1       8       1       1       8       1       1       8
       1       1       8       1       1       8       1       1       8       1
       1       8       1       1       8       1       1       8       1       1
       8       1       1       8       1       1       8       1       1       8
       1       1       8       1       1       8       1       1       8       1
       1       8       1       1       8       1       1       8       1       1
       8       1       1       8       1       1       8       1       1       8
       1       1       8       1       1       8       1       1       8       1
       1       8       1       1       8       1       1       8       1       1
       8       1       1       8       1       1       8       1       1       8
       1       1       8       1       1       8       1       1       8       1
       1       8       1       1       8       1       1       8       1       1
       8       1       1       8       1       1       8       1       1       8
       1       1       8       1       1       8       1       1       8       1
       1       8       1       1       8       1       1       8       1       1
       8       1       1       8       1       1       8       1       1       8
       1       1       8       1       1       8       1       1       8       1
       1       8       1       1       8       1       1       8       1       1
       8       1       1       8       1       1       8       1       1       8
       1       1       8       1       1       8       1       1       8       1
       1       8       1       1       8       1       1       8       1       1
       8       1       1       8       1       1       8       1       1       8
       1       1       8       1       1       8       1       1       8       1
       1       8       1       1       8       1       1       8       1       1
       8       1       1       8       1       1       8       1       1       8
       1       1       8       1       1       8       1       1       8       1
       1       8       1       1       8       1       1       8       1       1
       8       1       1       8       1       1       8       1       1       8
       1       1       8       1       1       8       1       1       8       1
       1       8       1       1       8       1       1       8       1       1
       8       1       1       8       1       1       8       1       1       8
       1       1       8       1       1       8       1       1       8       1
       1       8       1       1       8       1       1       8       1       1
       8       1       1       8       1       1       8       1       1       8
       1       1       8       1       1       8       1       1       8       1
       1       8       1       1       8       1       1       8       1       1
       8       1       1       8       1       1       8       1       1       8
       1       1       8       1       1       8       1       1       8       1
       1       8       1       1       8       1       1       8       1       1
       8       1       1       8       1       1       8       1       1       8
       1       1       8       1       1       8       1       1       8       1
       1       8       1       1       8       1       1       8       1       1
       8       1       1       8       1       1       8       1       1       8
       1       1       8       1       1       8       1       1       8       1
       1       8       1       1       8       1       1       8       1       1
       8       1       1       8       1       1       8       1       1       8
       1       1       8       1       1       8       1       1       8       1
       1       8       1       1       8       1       1       8       1       1
       8       1       1       8       1       1       8       1       1       8
       1       1       8       1       1       8       1       1       8       1
       1       8       1       1       8       1       1       8       1       1
       8       1       1       8       1       1       8       1       1       8
       1       1       8       1       1       8       1       1       8       1
       1       8       1       1       8       1       1       8       1       1
       8       1       1       8       1       1       8       1       1       8
       1       1       8       1       1       8       1       1       8       1
       1       8       1       1       8       1       1       8       1       1
       8       1       1       8       1       1       8       1       1       8
       1       1       8       1       1       8       1       1       8       1
       1       8       1       1       8       1       1       8       1       1
       8       1       1       8       1       1       8       1       1       8
       1       1       8       1       1       8       1       1       8       1
       1       8       1       1       8       1       1       8       1       1
       8       1       1       8       1       1       8       1       1       8
       1       1       8       1       1       8       1       1       8       1
       1       8       1       1       8       1       1       8       1       1
       8       1       1       8       1       1       8       1       1       8
       1       1       8       1       1       8       1       1       8       1
       1       8       1       1       8       1       1       8       1       1
       8       1       1       8       1       1       8       1       1       8
       1       1       8       1       1       8       1       1       8       1
       1       8       1       1       8       1       1       8       1       1
       8       1       1       8       1       1       8       1       1       8
       1       1       8       1       1       8       1       1       8       1
       1       8       1       1       8       1       1       8       1       1
       8       1       1       8       1       1       8       1       1       8
       1       1       8       1       1       8       1       1       8       1
       1       8       1       1       8       1       1       8       1       1
       8       1       1       8       1       1       8       1       1       8
       1       1       8       1       1       8       1       1       8       1
       1       8       1       1       8       1       1       8       1       1
       8       1       1       8       1       1       8       1       1       8
       1       1       8       1       1       8       1       1       8       1
       1       8       1       1       8       1       1       8       1       1
       8       1       1       8       1       1       8       1       1       8
       1       1       8       1       1       8       1       1       8       1
       1       8       1       1       8       1       1       8       1       1
       8       1       1       8       1       1       8       1       1       8
       1       1       8       1       1       8       1       1       8       1
       1       8       1       1       8       1       1       8       1       1
       8       1       1       8       1       1       8       1       1       8
       1       1       8       1       1       8       1       1       8       1
       1       8       1       1       8       1       1       8       1       1
       8       1       1       8       1       1       8       1       1       8
       1       1       8       1       1       8       1       1       8       1
       1       8       1       1       8       1       1       8       1       1
       8       1       1       8       1       1       8       1       1       8
       1       1       8       1       1       8       1       1       8       1
       1       8       1       1       8       1       1       8       1       1
       8       1       1       8       1       1       8       1       1       8
       1       1       8       1       1       8       1       1       8       1
       1       8       1       1       8       1       1       8       1       1
       8       1       1       8       1       1       8       1       1       8
       1       1       8       1       1       8       1       1       8       1
       1       8       1       1       8       1       1       8       1       1
       8       1       1       8       1       1       8       1       1       8
       1       1       8       1       1       8       1       1       8       1
       1       8       1       1       8       1       1       8       1       1
       8       1       1       8       1       1       8       1       1       8
       1       1       8       1       1       8       1       1       8       1
       1       8       1       1       8       1       1       8       1       1
       8       1       1       8       1       1       8       1       1       8
       1       1       8       1       1       8       1       1       8       1
       1       8       1       1       8       1       1       8       1       1
       8       1       1       8       1       1       8       1       1       8
       1       1       8       1       1       8       1       1       8       1
       1       8       1       1       8       1       1       8       1       1
       8       1       1       8       1       1       8       1       1       8
       1       1       8       1       1       8       1       1       8       1
       1       8       1       1       8       1       1       8       1       1
       8       1       1       8       1       1       8       1       1       8
       1       1       8       1       1       8       1       1       8       1
       1       8       1       1       8       1       1       8       1       1
       8       1       1       8       1       1       8       1       1       8
       1       1       8       1       1       8       1       1       8       1
       1       8       1       1       8       1       1       8       1       1
       8       1       1       8       1       1       8       1       1       8
       1       1       8       1       1       8       1       1       8       1
       1       8       1       1       8       1       1       8       1       1
       8       1       1       8       1       1       8       1       1       8
       1       1       8       1       1       8       1       1       8       1
       1       8       1       1       8       1       1       8       1       1
       8       1       1       8       1       1       8       1       1       8
       1       1       8       1       1       8       1       1       8       1
       1       8       1       1       8       1       1       8       1       1
       8       1       1       8       1       1       8       1       1       8
       1       1       8       1       1       8       1       1       8       1
       1       8       1       1       8       1       1       8       1       1
       8       1       1       8       1       1       8       1       1       8
       1       1       8       1       1       8       1       1       8       1
       1       8       1       1       8       1       1       8       1       1
       8       1       1       8       1       1       8       1       1       8
       1       1       8       1       1       8       1       1       8       1
       1       8       1       1       8       1       1       8       1       1
       8       1       1       8       1       1       8       1       1       8
       1       1       8       1       1       8       1       1       8       1
       1       8       1       1       8       1       1       8       1       1
       8       1       1       8       1       1       8       1       1       8
       1       1       8       1       1       8       1       1       8       1
       1       8       1       1       8       1       1       8       1       1
       8       1       1       8       1       1       8       1       1       8
       1       1       8       1       1       8       1       1       8       1
       1       8       1       1       8       1       1       8       1       1
       8       1       1       8       1       1       8       1       1       8
       1       1       8       1       1       8       1       1       8       1
       1       8       1       1       8       1       1       8       1       1
       8       1       1       8       1       1       8       1       1       8
       1       1       8       1       1       8       1       1       8       1
       1       8       1       1       8       1       1       8       1       1
       8       1       1       8       1       1       8       1       1       8
       1       1       8       1       1       8       1       1       8       1
       1       8       1       1       8       1       1       8       1       1
       8       1       1       8       1       1       8       1       1       8
       1       1       8       1       1       8       1       1       8       1
       1       8       1       1       8       1       1       8       1       1
       8       1       1       8       1       1       8       1       1       8
       1       1       8       1       1       8       1       1       8       1
       1       8       1       1       8       1       1       8       1       1
       8       1       1       8       1       1       8       1       1       8
       1       1       8       1       1       8       1       1       8       1
       1       8       1       1       8       1       1       8       1       1
       8       1       1       8       1       1       8       1       1       8
       1       1       8       1       1       8       1       1       8       1
       1       8       1       1       8       1       1       8       1       1
       8       1       1       8       1       1       8       1       1       8
       1       1       8       1       1       8       1       1       8       1
       1       8       1       1       8       1       1       8       1       1
       8       1       1       8       1       1       8       1       1       8
       1       1       8       1       1       8       1       1       8       1
       1       8       1       1       8       1       1       8       1       1
       8       1       1       8       1       1       8       1       1       8
       1       1       8       1       1       8       1       1       8       1
       1       8       1       1       8       1       1       8       1       1
       8       1       1       8       1       1       8       1       1       8
       1       1       8       1       1       8       1       1       8       1
       1       8       1       1       8       1       1       8       1       1
       8       1       1       8       1       1       8       1       1       8
       1       1       8       1       1       8       1       1       8       1
       1       8       1       1       8       1       1       8       1       1
       8       1       1       8       1       1       8       1       1       8
       1       1       8       1       1       8       1       1       8       1
       1       8       1       1       8       1       1       8       1       1
       8       1       1       8       1       1       8       1       1       8
       1       1       8       1       1       8       1       1       8       1
       1       8       1       1       8       1       1       8       1       1
       8       1       1       8       1       1       8       1       1       8
       1       1       8       1       1       8       1       1       8       1
       1       8       1       1       8       1       1       8       1       1
       8       1       1       8       1       1       8       1       1       8
       1       1       8       1       1       8       1       1       8       1
       1       8       1       1       8       1       1       8       1       1
       8       1       1       8       1       1       8       1       1       8
       1       1       8       1       1       8       1       1       8       1
       1       8       1       1       8       1       1       8       1       1
       8       1       1       8       1       1       8       1       1       8
       1       1       8       1       1       8       1       1       8       1
       1       8       1       1       8       1       1       8       1       1
       8       1       1       8       1       1       8       1       1       8
       1       1       8       1       1       8       1       1       8       1
       1       8       1       1       8       1       1       8       1       1
       8       1       1       8       1       1       8       1       1       8
       1       1       8       1       1       8       1       1       8       1
       1       8       1       1       8       1       1       8       1       1
       8       1       1       8       1       1       8       1       1       8
       1       1       8       1       1       8       1       1       8       1
       1       8       1       1       8       1       1       8       1       1
       8       1       1       8       1       1       8       1       1       8
       1       1       8       1       1       8       1       1       8       1
       1       8       1       1       8       1       1       8       1       1
       8       1       1       8       1       1       8       1       1       8
       1       1       8       1       1       8       1       1       8       1
       1       8       1       1       8       1       1       8       1       1
       8       1       1       8       1       1       8       1       1       8
       1       1       8       1       1       8       1       1       8       1
       1       8       1       1       8       1       1       8       1       1
       8       1       1       8       1       1       8       1       1       8
       1       1       8       1       1       8       1       1       8       1
       1       8       1       1       8       1       1       8       1       1
       8       1       1       8       1       1       8       1       1       8
       1       1       8       1       1       8       1       1       8       1
       1       8       1       1       8       1       1       8       1       1
       8       1       1       8       1       1       8       1       1       8
       1       1       8       1       1       8       1       1       8       1
       1       8       1       1       8       1       1       8       1       1
       8       1       1       8       1       1       8       1       1       8
       1       1       8       1       1       8       1       1       8       1
       1       8       1       1       8       1       1       8       1       1
       8       1       1       8       1       1       8       1       1       8
       1       1       8       1       1       8       1       1       8       1
       1       8       1       1       8       1       1       8       1       1
       8       1       1       8       1       1       8       1       1       8
       1       1       8       1       1       8       1       1       8       1
       1       8       1       1       8       1       1       8       1       1
       8       1       1       8       1       1       8       1       1       8
       1       1       8       1       1       8       1       1       8       1
       1       8       1       1       8       1       1       8       1       1
       8       1       1       8       1       1       8       1       1       8
       1       1       8       1       1       8       1       1       8       1
       1       8       1       1       8       1       1       8       1       1
       8       1       1       8       1       1       8       1       1       8
       1       1       8       1       1       8       1       1       8       1
       1       8       1       1       8       1       1       8       1       1
       8       1       1       8       1       1       8       1       1       8
       1       1       8       1       1       8       1       1       8       1
       1       8       1       1       8       1       1       8       1       1
       8       1       1       8       1       1       8       1       1       8
       1       1       8       1       1       8       1       1       8       1
       1       8       1       1       8       1       1       8       1       1
       8       1       1       8       1       1       8       1       1       8
       1       1       8       1       1       8       1       1       8       1
       1       8       1       1       8       1       1       8       1       1
       8       1       1       8       1       1       8       1       1       8
       1       1       8       1       1       8       1       1       8       1
       1       8       1       1       8       1       1       8       1       1
       8       1       1       8       1       1       8       1       1       8
       1       1       8       1       1       8       1       1       8       1
       1       8       1       1       8       1       1       8       1       1
       8       1       1       8       1       1       8       1       1       8
       1       1       8       1       1       8       1       1       8       1
       1       8       1       1       8       1       1       8       1       1
       8       1       1       8       1       1       8       1       1       8
       1       1       8       1       1       8       1       1       8       1
       1       8       1       1       8       1       1       8       1       1
       8       1       1       8       1       1       8       1       1       8
       1       1       8       1       1       8       1       1       8       1
       1       8       1       1       8       1       1       8       1       1
       8       1       1       8       1       1       8       1       1       8
       1       1       8       1       1       8       1       1       8       1
       1       8       1       1       8       1       1       8       1       1
       8       1       1       8       1       1       8       1       1       8
       1       1       8       1       1       8       1       1       8       1
       1       8       1       1       8       1       1       8       1       1
       8       1       1       8       1       1       8       1       1       8
       1       1       8       1       1       8       1       1       8       1
       1       8       1       1       8       1       1       8       1       1
       8       1       1       8       1       1       8       1       1       8
       1       1       8       1       1       8       1       1       8       1
       1       8       1       1       8       1       1       8       1       1
       8       1       1       8       1       1       8       1       1       8
       1       1       8       1       1       8       1       1       8       1
       1       8       1       1       8       1       1       8       1       1
       8       1       1       8       1       1       8       1       1       8
       1       1       8       1       1       8       1       1       8       1
       1       8       1       1       8       1       1       8       1       1
       8       1       1       8       1       1       8       1       1       8
       1       1       8       1       1       8       1       1       8       1
       1       8       1       1       8       1       1       8       1       1
       8       1       1       8       1       1       8       1       1       8
       1       1       8       1       1       8       1       1       8       1
       1       8       1       1       8       1       1       8       1       1
       8       1       1       8       1       1       8       1       1       8
       1       1       8       1       1       8       1       1       8       1
       1       8       1       1       8       1       1       8       1       1
       8       1       1       8       1       1       8       1       1       8
       1       1       8       1       1       8       1       1       8       1
       1       8       1       1       8       1       1       8       1       1
       8       1       1       8       1       1       8       1       1       8
       1       1       8       1       1       8       1       1       8       1
       1       8       1       1       8       1       1       8       1       1
       8       1       1       8       1       1       8       1       1       8
       1       1       8       1       1       8       1       1       8       1
       1       8       1       1       8       1       1       8       1       1
       8       1       1       8       1       1       8       1       1       8
       1       1       8       1       1       8       1       1       8       1
       1       8       1       1       8       1       1       8       1       1
       8       1       1       8       1       1       8       1       1       8
       1       1       8       1       1       8       1       1       8       1
       1       8       1       1       8       1       1       8       1       1
       8       1       1       8       1       1       8       1       1       8
       1       1       8       1       1       8       1       1       8       1
       1       8       1       1       8       1       1       8       1       1
       8       1       1       8       1       1       8       1       1       8
       1       1       8       1       1       8       1       1       8       1
       1       8       1       1       8       1       1       8       1       1
       8       1       1       8       1       1       8       1       1       8
       1       1       8       1       1       8       1       1       8       1
       1       8       1       1       8       1       1       8       1       1
       8       1       1       8       1       1       8       1       1       8
       1       1       8       1       1       8       1       1       8       1
       1       8       1       1       8       1       1       8       1       1
       8       1       1       8       1       1       8       1       1       8
       1       1       8       1       1       8       1       1       8       1
       1       8       1       1       8       1       1       8       1       1
       8       1       1       8       1       1       8       1       1       8
       1       1       8       1       1       8       1       1       8       1
       1       8       1       1       8       1       1       8       1       1
       8       1       1       8       1       1       8       1       1       8
       1       1       8       1       1       8       1       1       8       1
       1       8       1       1       8       1       1       8       1       1
       8       1       1       8       1       1       8       1       1       8
       1       1       8       1       1       8       1       1       8       1
       1       8       1       1       8       1       1       8       1       1
       8       1       1       8       1       1       8       1       1       8
       1       1       8       1       1       8       1       1       8       1
       1       8       1       1       8       1       1       8       1       1
       8       1       1       8       1       1       8       1       1       8
       1       1       8       1       1       8       1       1       8       1
       1       8       1       1       8       1       1       8       1       1
       8       1       1       8       1       1       8       1       1       8
       1       1       8       1       1       8       1       1       8       1
       1       8       1       1       8       1       1       8       1       1
       8       1       1       8       1       1       8       1       1       8
       1       1       8       1       1       8       1       1       8       1
       1       8       1       1       8       1       1       8       1       1
       8       1       1       8       1       1       8       1       1       8
       1       1       8       1       1       8       1       1       8       1
       1       8       1       1       8       1       1       8       1       1
       8       1       1       8       1       1       8       1       1       8
       1       1       8       1       1       8       1       1       8       1
       1       8       1       1       8       1       1       8       1       1
       8       1       1       8       1       1       8       1       1       8
       1       1       8       1       1       8       1       1       8       1
       1       8       1       1       8       1       1       8       1       1
       8       1       1       8       1       1       8       1       1       8
       1       1       8       1       1       8       1       1       8       1
       1       8       1       1       8       1       1       8       1       1
       8       1       1       8       1       1       8       1       1       8
       1       1       8       1       1       8       1       1       8       1
       1       8       1       1       8       1       1       8       1       1
       8       1       1       8       1       1       8       1       1       8
       1       1       8       1       1       8       1       1       8       1
       1       8       1       1       8       1       1       8       1       1
       8       1       1       8       1       1       8       1       1       8
       1       1       8       1       1       8       1       1       8       1
       1       8       1       1       8       1       1       8       1       1
       8       1       1       8       1       1       8       1       1       8
       1       1       8       1       1       8       1       1       8       1
       1       8       1       1       8       1       1       8       1       1
       8       1       1       8       1       1       8       1       1       8
       1       1       8       1       1       8       1       1       8       1
       1       8       1       1       8       1       1       8       1       1
       8       1       1       8       1       1       8       1       1       8
       1       1       8       1       1       8       1       1       8       1
       1       8       1       1       8       1       1       8       1       1
       8       1       1       8       1       1       8       1       1       8
       1       1       8       1       1       8       1       1       8       1
       1       8       1       1       8       1       1       8       1       1
       8       1       1       8       1       1       8       1       1       8
       1       1       8       1       1       8       1       1       8       1
       1       8       1       1       8       1       1       8       1       1
       8       1       1       8       1       1       8       1       1       8
       1       1       8       1       1       8       1       1       8       1
       1       8       1       1       8       1       1       8       1       1
       8       1       1       8       1       1       8       1       1       8
       1       1       8       1       1       8       1       1       8       1
       1       8       1       1       8       1       1       8       1       1
       8       1       1       8       1       1       8       1       1       8
       1       1       8       1       1       8       1       1       8       1
       1       8       1       1       8       1       1       8       1       1
       8       1       1       8       1       1       8       1       1       8
       1       1       8       1       1       8       1       1       8       1
       1       8       1       1       8       1       1       8       1       1
       8       1       1       8       1       1       8       1       1       8
       1       1       8       1       1       8       1       1       8       1
       1       8       1       1       8       1       1       8       1       1
       8       1       1       8       1       1       8       1       1       8
       1       1       8       1       1       8       1       1       8       1
       1       8       1       1       8       1       1       8       1       1
       8       1       1       8       1       1       8       1       1       8
       1       1       8       1       1       8       1       1       8       1
       1       8       1       1       8       1       1       8       1       1
       8       1       1       8       1       1       8       1       1       8
       1       1       8       1       1       8       1       1       8       1
       1       8       1       1       8       1       1       8       1       1
       8       1       1       8       1       1       8       1       1       8
       1       1       8       1       1       8       1       1       8       1
       1       8       1       1       8       1       1       8       1       1
       8       1       1       8       1       1       8       1       1       8
       1       1       8       1       1       8       1       1       8       1
       1       8       1       1       8       1       1       8       1       1
       8       1       1       8       1       1       8       1       1       8
       1       1       8       1       1       8       1       1       8       1
       1       8       1       1       8       1       1       8       1       1
       8       1       1       8       1       1       8       1       1       8
       1       1       8       1       1       8       1       1       8       1
       1       8       1       1       8       1       1       8       1       1
       8       1       1       8       1       1       8       1       1       8
       1       1       8       1       1       8       1       1       8       1
       1       8       1       1       8       1       1       8       1       1
       8       1       1       8       1       1       8       1       1       8
       1       1       8       1       1       8       1       1       8       1
       1       8       1       1       8       1       1       8       1       1
       8       1       1       8       1       1       8       1       1       8
       1       1       8       1       1       8       1       1       8       1
       1       8       1       1       8       1       1       8       1       1
       8       1       1       8       1       1       8       1       1       8
       1       1       8       1       1       8       1       1       8       1
       1       8       1       1       8       1       1       8       1       1
       8       1       1       8       1       1       8       1       1       8
       1       1       8       1       1       8       1       1       8       1
       1       8       1       1       8       1       1       8       1       1
       8       1       1       8       1       1       8       1       1       8
       1       1       8       1       1       8       1       1       8       1
       1       8       1       1       8       1       1       8       1       1
       8       1       1       8       1       1       8       1       1       8
       1       1       8       1       1       8       1       1       8       1
       1       8       1       1       8       1       1       8       1       1
       8       1       1       8       1       1       8       1       1       8
       1       1       8       1       1       8       1       1       8       1
       1       8       1       1       8       1       1       8       1       1
       8       1       1       8       1       1       8       1       1       8
       1       1       8       1       1       8       1       1       8       1
       1       8       1       1       8       1       1       8       1       1
       8       1       1       8       1       1       8       1       1       8
       1       1       8       1       1       8       1       1       8       1
       1       8       1       1       8       1       1       8       1       1
       8       1       1       8       1       1       8       1       1       8
       1       1       8       1       1       8       1       1       8       1
       1       8       1       1       8       1       1       8       1       1
       8       1       1       8       1       1       8       1       1       8
       1       1       8       1       1       8       1       1       8       1
       1       8       1       1       8       1       1       8       1       1
       8       1       1       8       1       1       8       1       1       8
       1       1       8       1       1       8       1       1       8       1
       1       8       1       1       8       1       1       8       1       1
       8       1       1       8       1       1       8       1       1       8
       1       1       8       1       1       8       1       1       8       1
       1       8       1       1       8       1       1       8       1       1
       8       1       1       8       1       1       8       1       1       8
       1       1       8       1       1       8       1       1       8       1
       1       8       1       1       8       1       1       8       1       1
       8       1       1       8       1       1       8       1       1       8
       1       1       8       1       1       8       1       1       8       1
       1       8       1       1       8       1       1       8       1       1
       8       1       1       8       1       1       8       1       1       8
       1       1       8       1       1       8       1       1       8       1
       1       8       1       1       8       1       1       8       1       1
       8       1       1       8       1       1       8       1       1       8
       1       1       8       1       1       8       1       1       8       1
       1       8       1       1       8       1       1       8       1       1
       8       1       1       8       1       1       8       1       1       8
       1       1       8       1       1       8       1       1       8       1
       1       8       1       1       8       1       1       8       1       1
       8       1       1       8       1       1       8       1       1       8
       1       1       8       1       1       8       1       1       8       1
       1       8       1       1       8       1       1       8       1       1
       8       1       1       8       1       1       8       1       1       8
       1       1       8       1       1       8       1       1       8       1
       1       8       1       1       8       1       1       8       1       1
       8       1       1       8       1       1       8       1       1       8
       1       1       8       1       1       8       1       1       8       1
       1       8       1       1       8       1       1       8       1       1
       8       1       1       8       1       1       8       1       1       8
       1       1       8       1       1       8       1       1       8       1
       1       8       1       1       8       1       1       8       1       1
       8       1       1       8       1       1       8       1       1       8
       1       1       8       1       1       8       1       1       8       1
       1       8       1       1       8       1       1       8       1       1
       8       1       1       8       1       1       8       1       1       8
       1       1       8       1       1       8       1       1       8       1
       1       8       1       1       8       1       1       8       1       1
       8       1       1       8       1       1       8       1       1       8
       1       1       8       1       1       8       1       1       8       1
       1       8       1       1       8       1       1       8       1       1
       8       1       1       8       1       1       8       1       1       8
       1       1       8       1       1       8       1       1       8       1
       1       8       1       1       8       1       1       8       1       1
       8       1       1       8       1       1       8       1       1       8
       1       1       8       1       1       8       1       1       8       1
       1       8       1       1       8       1       1       8       1       1
       8       1       1       8       1       1       8       1       1       8
       1       1       8       1       1       8       1       1       8       1
       1       8       1       1       8       1       1       8       1       1
       8       1       1       8       1       1       8       1       1       8
       1       1       8       1       1       8       1       1       8       1
       1       8       1       1       8       1       1       8       1       1
       8       1       1       8       1       1       8       1       1       8
       1       1       8       1       1       8       1       1       8       1
       1       8       1       1       8       1       1       8       1       1
       8       1       1       8       1       1       8       1       1       8
       1       1       8       1       1       8       1       1       8       1
       1       8       1       1       8       1       1       8       1       1
       8       1       1       8       1       1       8       1       1       8
       1       1       8       1       1       8       1       1       8       1
       1       8       1       1       8       1       1       8       1       1
       8       1       1       8       1       1       8       1       1       8
       1       1       8       1       1       8       1       1       8       1
       1       8       1       1       8       1       1       8       1       1
       8       1       1       8       1       1       8       1       1       8
       1       1       8       1       1       8       1       1       8       1
       1       8       1       1       8       1       1       8       1       1
       8       1       1       8       1       1       8       1       1       8
       1       1       8       1       1       8       1       1       8       1
       1       8       1       1       8       1       1       8       1       1
       8       1       1       8       1       1       8       1       1       8
       1       1       8       1       1       8       1       1       8       1
       1       8       1       1       8       1       1       8       1       1
       8       1       1       8       1       1       8       1       1       8
       1       1       8       1       1       8       1       1       8       1
       1       8       1       1       8       1       1       8       1       1
       8       1       1       8       1       1       8       1       1       8
       1       1       8       1       1       8       1       1       8       1
       1       8       1       1       8       1       1       8       1       1
       8       1       1       8       1       1       8       1       1       8
       1       1       8       1       1       8       1       1       8       1
       1       8       1       1       8       1       1       8       1       1
       8       1       1       8       1       1       8       1       1       8
       1       1       8       1       1       8       1       1       8       1
       1       8       1       1       8       1       1       8       1       1
       8       1       1       8       1       1       8       1       1       8
       1       1       8       1       1       8       1       1       8       1
       1       8       1       1       8       1       1       8       1       1
       8       1       1       8       1       1       8       1       1       8
       1       1       8       1       1       8       1       1       8       1
       1       8       1       1       8       1       1       8       1       1
       8       1       1       8       1       1       8       1       1       8
       1       1       8       1       1       8       1       1       8       1
       1       8       1       1       8       1       1       8       1       1
       8       1       1       8       1       1       8       1       1       8
       1       1       8       1       1       8       1       1       8       1
       1       8       1       1       8       1       1       8       1       1
       8       1       1       8       1       1       8       1       1       8
       1       1       8       1       1       8       1       1       8       1
       1       8       1       1       8       1       1       8       1       1
       8       1       1       8       1       1       8       1       1       8
       1       1       8       1       1       8       1       1       8       1
       1       8       1       1       8       1       1       8       1       1
       8       1       1       8       1       1       8       1       1       8
       1       1       8       1       1       8       1       1       8       1
       1       8       1       1       8       1       1       8       1       1
       8       1       1       8       1       1       8       1       1       8
       1       1       8       1       1       8       1       1       8       1
       1       8       1       1       8       1       1       8       1       1
       8       1       1       8       1       1       8       1       1       8
       1       1       8       1       1       8       1       1       8       1
       1       8       1       1       8       1       1       8       1       1
       8       1       1       8       1       1       8       1       1       8
       1       1       8       1       1       8       1       1       8       1
       1       8       1       1       8       1       1       8       1       1
       8       1       1       8       1       1       8       1       1       8
       1       1       8       1       1       8       1       1       8       1
       1       8       1       1       8       1       1       8       1       1
       8       1       1       8       1       1       8       1       1       8
       1       1       8       1       1       8       1       1       8       1
       1       8       1       1       8       1       1       8       1       1
       8       1       1       8       1       1       8       1       1       8
       1       1       8       1       1       8       1       1       8       1
       1       8       1       1       8       1       1       8       1       1
       8       1       1       8       1       1       8       1       1       8
       1       1       8       1       1       8       1       1       8       1
       1       8       1       1       8       1       1       8       1       1
       8       1       1       8       1       1       8       1       1       8
       1       1       8       1       1       8       1       1       8       1
       1       8       1       1       8       1       1       8       1       1
       8       1       1       8       1       1       8       1       1       8
       1       1       8       1       1       8       1       1       8       1
       1       8       1       1       8       1       1       8       1       1
       8       1       1       8       1       1       8       1       1       8
       1       1       8       1       1       8       1       1       8       1
       1       8       1       1       8       1       1       8       1       1
       8       1       1       8       1       1       8       1       1       8
       1       1       8       1       1       8       1       1       8       1
       1       8       1       1       8       1       1       8       1       1
       8       1       1       8       1       1       8       1       1       8
       1       1       8       1       1       8       1       1       8       1
       1       8       1       1       8       1       1       8       1       1
       8       1       1       8       1       1       8       1       1       8
       1       1       8       1       1       8       1       1       8       1
       1       8       1       1       8       1       1       8       1       1
       8       1       1       8       1       1       8       1       1       8
       1       1       8       1       1       8       1       1       8       1
       1       8       1       1       8       1       1       8       1       1
       8       1       1       8       1       1       8       1       1       8
       1       1       8       1       1       8       1       1       8       1
       1       8       1       1       8       1       1       8       1       1
       8       1       1       8       1       1       8       1       1       8
       1       1       8       1       1       8       1       1       8       1
       1       8       1       1       8       1       1       8       1       1
       8       1       1       8       1       1       8       1       1       8
       1       1       8       1       1       8       1       1       8       1
       1       8       1       1       8       1       1       8       1       1
       8       1       1       8       1       1       8       1       1       8
       1       1       8       1       1       8       1       1       8       1
       1       8       1       1       8       1       1       8       1       1
       8       1       1       8       1       1       8       1       1       8
       1       1       8       1       1       8       1       1       8       1
       1       8       1       1       8       1       1       8       1       1
       8       1       1       8       1       1       8       1       1       8
       1       1       8       1       1       8       1       1       8       1
       1       8       1       1       8       1       1       8       1       1
       8       1       1       8       1       1       8       1       1       8
       1       1       8       1       1       8       1       1       8       1
       1       8       1       1       8       1       1       8       1       1
       8       1       1       8       1       1       8       1       1       8
       1       1       8       1       1       8       1       1       8       1
       1       8       1       1       8       1       1       8       1       1
       8       1       1       8       1       1       8       1       1       8
       1       1       8       1       1       8       1       1       8       1
       1       8       1       1       8       1       1       8       1       1
       8       1       1       8       1       1       8       1       1       8
       1       1       8       1       1       8       1       1       8       1
       1       8       1       1       8       1       1       8       1       1
       8       1       1       8       1       1       8       1       1       8
       1       1       8       1       1       8       1       1       8       1
       1       8       1       1       8       1       1       8       1       1
       8       1       1       8       1       1       8       1       1       8
       1       1       8       1       1       8       1       1       8       1
       1       8       1       1       8       1       1       8       1       1
       8       1       1       8       1       1       8       1       1       8
       1       1       8       1       1       8       1       1       8       1
       1       8       1       1       8       1       1       8       1       1
       8       1       1       8       1       1       8       1       1       8
       1       1       8       1       1       8       1       1       8       1
       1       8       1       1       8       1       1       8       1       1
       8       1       1       8       1       1       8       1       1       8
       1       1       8       1       1       8       1       1       8       1
       1       8       1       1       8       1       1       8       1       1
       8       1       1       8       1       1       8       1       1       8
       1       1       8       1       1       8       1       1       8       1
       1       8       1       1       8       1       1       8       1       1
       8       1       1       8       1       1       8       1       1       8
       1       1       8       1       1       8       1       1       8       1
       1       8       1       1       8       1       1       8       1       1
       8       1       1       8       1       1       8       1       1       8
       1       1       8       1       1       8       1       1       8       1
       1       8       1       1       8       1       1       8       1       1
       8       1       1       8       1       1       8       1       1       8
       1       1       8       1       1       8       1       1       8       1
       1       8       1       1       8       1       1       8       1       1
       8       1       1       8       1       1       8       1       1       8
       1       1       8       1       1       8       1       1       8       1
       1       8       1       1       8       1       1       8       1       1
       8       1       1       8       1       1       8       1       1       8
       1       1       8       1       1       8       1       1       8       1
       1       8       1       1       8       1       1       8       1       1
       8       1       1       8       1       1       8       1       1       8
       1       1       8       1       1       8       1       1       8       1
       1       8       1       1       8       1       1       8       1       1
       8       1       1       8       1       1       8       1       1       8
       1       1       8       1       1       8       1       1       8       1
       1       8       1       1       8       1       1       8       1       1
       8       1       1       8       1       1       8       1       1       8
       1       1       8       1       1       8       1       1       8       1
       1       8       1       1       8       1       1       8       1       1
       8       1       1       8       1       1       8       1       1       8
       1       1       8       1       1       8       1       1       8       1
       1       8       1       1       8       1       1       8       1       1
       8       1       1       8       1       1       8       1       1       8
       1       1       8       1       1       8       1       1       8       1
       1       8       1       1       8       1       1       8       1       1
       8       1       1       8       1       1       8       1       1       8
       1       1       8       1       1       8       1       1       8       1
       1       8       1       1       8       1       1       8       1       1
       8       1       1       8       1       1       8       1       1       8
       1       1       8       1       1       8       1       1       8       1
       1       8       1       1       8       1       1       8       1       1
       8       1       1       8       1       1       8       1       1       8
       1       1       8       1       1       8       1       1       8       1
       1       8       1       1       8       1       1       8       1       1
       8       1       1       8       1       1       8       1       1       8
       1       1       8       1       1       8       1       1       8       1
       1       8       1       1       8       1       1       8       1       1
       8       1       1       8       1       1       8       1       1       8
       1       1       8       1       1       8       1       1       8       1
       1       8       1       1       8       1       1       8       1       1
       8       1       1       8       1       1       8       1       1       8
       1       1       8       1       1       8       1       1       8       1
       1       8       1       1       8       1       1       8       1       1
       8       1       1       8       1       1       8       1       1       8
       1       1       8       1       1       8       1       1       8       1
       1       8       1       1       8       1       1       8       1       1
       8       1       1       8       1       1       8       1       1       8
       1       1       8       1       1       8       1       1       8       1
       1       8       1       1       8       1       1       8       1       1
       8       1       1       8       1       1       8       1       1       8
       1       1       8       1       1       8       1       1       8       1
       1       8       1       1       8       1       1       8       1       1
       8       1       1       8       1       1       8       1       1       8
       1       1       8       1       1       8       1       1       8       1
       1       8       1       1       8       1       1       8       1       1
       8       1       1       8       1       1       8       1       1       8
       1       1       8       1       1       8       1       1       8       1
       1       8       1       1       8       1       1       8       1       1
       8       1       1       8       1       1       8       1       1       8
       1       1       8       1       1       8       1       1       8       1
       1       8       1       1       8       1       1       8       1       1
       8       1       1       8       1       1       8       1       1       8
       1       1       8       1       1       8       1       1       8       1
       1       8       1       1       8       1       1       8       1       1
       8       1       1       8       1       1       8       1       1       8
       1       1       8       1       1       8       1       1       8       1
       1       8       1       1       8       1       1       8       1       1
       8       1       1       8       1       1       8       1       1       8
       1       1       8       1       1       8       1       1       8       1
       1       8       1       1       8       1       1       8       1       1
       8       1       1       8       1       1       8       1       1       8
       1       1       8       1       1       8       1       1       8       1
       1       8       1       1       8       1       1       8       1       1
       8       1       1       8       1       1       8       1       1       8
       1       1       8       1       1       8       1       1       8       1
       1       8       1       1       8       1       1       8       1       1
       8       1       1       8       1       1       8       1       1       8
       1       1       8       1       1       8       1       1       8       1
       1       8       1       1       8       1       1       8       1       1
       8       1       1       8       1       1       8       1       1       8
       1       1       8       1       1       8       1       1       8       1
       1       8       1       1       8       1       1       8       1       1
       8       1       1       8       1       1       8       1       1       8
       1       1       8       1       1       8       1       1       8       1
       1       8       1       1       8       1       1       8       1       1
       8       1       1       8       1       1       8       1       1       8
       1       1       8       1       1       8       1       1       8       1
       1       8       1       1       8       1       1       8       1       1
       8       1       1       8       1       1       8       1       1       8
       1       1       8       1       1       8       1       1       8       1
       1       8       1       1       8       1       1       8       1       1
       8       1       1       8       1       1       8       1       1       8
       1       1       8       1       1       8       1       1       8       1
       1       8       1       1       8       1       1       8       1       1
       8       1       1       8       1       1       8       1       1       8
       1       1       8       1       1       8       1       1       8       1
       1       8       1       1       8       1       1       8       1       1
       8       1       1       8       1       1       8       1       1       8
       1       1       8       1       1       8       1       1       8       1
       1       8       1       1       8       1       1       8       1       1
       8       1       1       8       1       1       8       1       1       8
       1       1       8       1       1       8       1       1       8       1
       1       8       1       1       8       1       1       8       1       1
       8       1       1       8       1       1       8       1       1       8
       1       1       8       1       1       8       1       1       8       1
       1       8       1       1       8       1       1       8       1       1
       8       1       1       8       1       1       8       1       1       8
       1       1       8       1       1       8       1       1       8       1
       1       8       1       1       8       1       1       8       1       1
       8       1       1       8       1       1       8       1       1       8
       1       1       8       1       1       8       1       1       8       1
       1       8       1       1       8       1       1       8       1       1
       8       1       1       8       1       1       8       1       1       8
       1       1       8       1       1       8       1       1       8       1
       1       8       1       1       8       1       1       8       1       1
       8       1       1       8       1       1       8       1       1       8
       1       1       8       1       1       8       1       1       8       1
       1       8       1       1       8       1       1       8       1       1
       8       1       1       8       1       1       8       1       1       8
       1       1       8       1       1       8       1       1       8       1
       1       8       1       1       8       1       1       8       1       1
       8       1       1       8       1       1       8       1       1       8
       1       1       8       1       1       8       1       1       8       1
       1       8       1       1       8       1       1       8       1       1
       8       1       1       8       1       1       8       1       1       8
       1       1       8       1       1       8       1       1       8       1
       1       8       1       1       8       1       1       8       1       1
       8       1       1       8       1       1       8       1       1       8
       1       1       8       1       1       8       1       1       8       1
       1       8       1       1       8       1       1       8       1       1
       8       1       1       8       1       1       8       1       1       8
       1       1       8       1       1       8       1       1       8       1
       1       8       1       1       8       1       1       8       1       1
       8       1       1       8       1       1       8       1       1       8
       1       1       8       1       1       8       1       1       8       1
       1       8       1       1       8       1       1       8       1       1
       8       1       1       8       1       1       8       1       1       8
       1       1       8       1       1       8       1       1       8       1
       1       8       1       1       8       1       1       8       1       1
       8       1       1       8       1       1       8       1       1       8
       1       1       8       1       1       8       1       1       8       1
       1       8       1       1       8       1       1       8       1       1
       8       1       1       8       1       1       8       1       1       8
       1       1       8       1       1       8       1       1       8       1
       1       8       1       1       8       1       1       8       1       1
       8       1       1       8       1       1       8       1       1       8
       1       1       8       1       1       8       1       1       8       1
       1       8       1       1       8       1       1       8       1       1
       8       1       1       8       1       1       8       1       1       8
       1       1       8       1       1       8       1       1       8       1
       1       8       1       1       8       1       1       8       1       1
       8       1       1       8       1       1       8       1       1       8
       1       1       8       1       1       8       1       1       8       1
       1       8       1       1       8       1       1       8       1       1
       8       1       1       8       1       1       8       1       1       8
       1       1       8       1       1       8       1       1       8       1
       1       8       1       1       8       1       1       8       1       1
       8       1       1       8       1       1       8       1       1       8
       1       1       8       1       1       8       1       1       8       1
       1       8       1       1       8       1       1       8       1       1
       8       1       1       8       1       1       8       1       1       8
       1       1       8       1       1       8       1       1       8       1
       1       8       1       1       8       1       1       8       1       1
       8       1       1       8       1       1       8       1       1       8
       1       1       8       1       1       8       1       1       8       1
       1       8       1       1       8       1       1       8       1       1
       8       1       1       8       1       1       8       1       1       8
       1       1       8       1       1       8       1       1       8       1
       1       8       1       1       8       1       1       8       1       1
       8       1       1       8       1       1       8       1       1       8
       1       1       8       1       1       8       1       1       8       1
       1       8       1       1       8       1       1       8       1       1
       8       1       1       8       1       1       8       1       1       8
       1       1       8       1       1       8       1       1       8       1
       1       8       1       1       8       1       1       8       1       1
       8       1       1       8       1       1       8       1       1       8
       1       1       8       1       1       8       1       1       8       1
       1       8       1       1       8       1       1       8       1       1
       8       1       1       8       1       1       8       1       1       8
       1       1       8       1       1       8       1       1       8       1
       1       8       1       1       8       1       1       8       1       1
       8       1       1       8       1       1       8       1       1       8
       1       1       8       1       1       8       1       1       8       1
       1       8       1       1       8       1       1       8       1       1
       8       1       1       8       1       1       8       1       1       8
       1       1       8       1       1       8       1       1       8       1
       1       8       1       1       8       1       1       8       1       1
       8       1       1       8       1       1       8       1       1       8
       1       1       8       1       1       8       1       1       8       1
       1       8       1       1       8       1       1       8       1       1
       8       1       1       8       1       1       8       1       1       8
       1       1       8       1       1       8       1       1       8       1
       1       8       1       1       8       1       1       8       1       1
       8       1       1       8       1       1       8       1       1       8
       1       1       8       1       1       8       1       1       8       1
       1       8       1       1       8       1       1       8       1       1
       8       1       1       8       1       1       8       1       1       8
       1       1       8       1       1       8       1       1       8       1
       1       8       1       1       8       1       1       8       1       1
       8       1       1       8       1       1       8       1       1       8
       1       1       8       1       1       8       1       1       8       1
       1       8       1       1       8       1       1       8       1       1
       8       1       1       8       1       1       8       1       1       8
       1       1       8       1       1       8       1       1       8       1
       1       8       1       1       8       1       1       8       1       1
       8       1       1       8       1       1       8       1       1       8
       1       1       8       1       1       8       1       1       8       1
       1       8       1       1       8       1       1       8       1       1
       8       1       1       8       1       1       8       1       1       8
       1       1       8       1       1       8       1       1       8       1
       1       8       1       1       8       1       1       8       1       1
       8       1       1       8       1       1       8       1       1       8
       1       1       8       1       1       8       1       1       8       1
       1       8       1       1       8       1       1       8       1       1
       8       1       1       8       1       1       8       1       1       8
       1       1       8       1       1       8       1       1       8       1
       1       8       1       1       8       1       1       8       1       1
       8       1       1       8       1       1       8       1       1       8
       1       1       8       1       1       8       1       1       8       1
       1       8       1       1       8       1       1       8       1       1
       8       1       1       8       1       1       8       1       1       8
       1       1       8       1       1       8       1       1       8       1
       1       8       1       1       8       1       1       8       1       1
       8       1       1       8       1       1       8       1       1       8
       1       1       8       1       1       8       1       1       8       1
       1       8       1       1       8       1       1       8       1       1
       8       1       1       8       1       1       8       1       1       8
       1       1       8       1       1       8       1       1       8       1
       1       8       1       1       8       1       1       8       1       1
       8       1       1       8       1       1       8       1       1       8
       1       1       8       1       1       8       1       1       8       1
       1       8       1       1       8       1       1       8       1       1
       8       1       1       8       1       1       8       1       1       8
       1       1       8       1       1       8       1       1       8       1
       1       8       1       1       8       1       1       8       1       1
       8       1       1       8       1       1       8       1       1       8
       1       1       8       1       1       8       1       1       8       1
       1       8       1       1       8       1       1       8       1       1
       8       1       1       8       1       1       8       1       1       8
       1       1       8       1       1       8       1       1       8       1
       1       8       1       1       8       1       1       8       1       1
       8       1       1       8       1       1       8       1       1       8
       1       1       8       1       1       8       1       1       8       1
       1       8       1       1       8       1       1       8       1       1
       8       1       1       8       1       1       8       1       1       8
       1       1       8       1       1       8       1       1       8       1
       1       8       1       1       8       1       1       8       1       1
       8       1       1       8       1       1       8       1       1       8
       1       1       8       1       1       8       1       1       8       1
       1       8       1       1       8       1       1       8       1       1
       8       1       1       8       1       1       8       1       1       8
       1       1       8       1       1       8       1       1       8       1
       1       8       1       1       8       1       1       8       1       1
       8       1       1       8       1       1       8       1       1       8
       1       1       8       1       1       8       1       1       8       1
       1       8       1       1       8       1       1       8       1       1
       8       1       1       8       1       1       8       1       1       8
       1       1       8       1       1       8       1       1       8       1
       1       8       1       1       8       1       1       8       1       1
       8       1       1       8       1       1       8       1       1       8
       1       1       8       1       1       8       1       1       8       1
       1       8       1       1       8       1       1       8       1       1
       8       1       1       8       1       1       8       1       1       8
       1       1       8       1       1       8       1       1       8       1
       1       8       1       1       8       1       1       8       1       1
       8       1       1       8       1       1       8       1       1       8
       1       1       8       1       1       8       1       1       8       1
       1       8       1       1       8       1       1       8       1       1
       8       1       1       8       1       1       8       1       1       8
       1       1       8       1       1       8       1       1       8       1
       1       8       1       1       8       1       1       8       1       1
       8       1       1       8       1       1       8       1       1       8
       1       1       8       1       1       8       1       1       8       1
       1       8       1       1       8       1       1       8       1       1
       8       1       1       8       1       1       8       1       1       8
       1       1       8       1       1       8       1       1       8       1
       1       8       1       1       8       1       1       8       1       1
       8       1       1       8       1       1       8       1       1       8
       1       1       8       1       1       8       1       1       8       1
       1       8       1       1       8       1       1       8       1       1
       8       1       1       8       1       1       8       1       1       8
       1       1       8       1       1       8       1       1       8       1
       1       8       1       1       8       1       1       8       1       1
       8       1       1       8       1       1       8       1       1       8
       1       1       8       1       1       8       1       1       8       1
       1       8       1       1       8       1       1       8       1       1
       8       1       1       8       1       1       8       1       1       8
       1       1       8       1       1       8       1       1       8       1
       1       8       1       1       8       1       1       8       1       1
       8       1       1       8       1       1       8       1       1       8
       1       1       8       1       1       8       1       1       8       1
       1       8       1       1       8       1       1       8       1       1
       8       1       1       8       1       1       8       1       1       8
       1       1       8       1       1       8       1       1       8       1
       1       8       1       1       8       1       1       8       1       1
       8       1       1       8       1       1       8       1       1       8
       1       1       8       1       1       8       1       1       8       1
       1       8       1       1       8       1       1       8       1       1
       8       1       1       8       1       1       8       1       1       8
       1       1       8       1       1       8       1       1       8       1
       1       8       1       1       8       1       1       8       1       1
       8       1       1       8       1       1       8       1       1       8
       1       1       8       1       1       8       1       1       8       1
       1       8       1       1       8       1       1       8       1       1
       8       1       1       8       1       1       8       1       1       8
       1       1       8       1       1       8       1       1       8       1
       1       8       1       1       8       1       1       8       1       1
       8       1       1       8       1       1       8       1       1       8
       1       1       8       1       1       8       1       1       8       1
       1       8       1       1       8       1       1       8       1       1
       8       1       1       8       1       1       8       1       1       8
       1       1       8       1       1       8       1       1       8       1
       1       8       1       1       8       1       1       8       1       1
       8       1       1       8       1       1       8       1       1       8
       1       1       8       1       1       8       1       1       8       1
       1       8       1       1       8       1       1       8       1       1
       8       1       1       8       1       1       8       1       1       8
       1       1       8       1       1       8       1       1       8       1
       1       8       1       1       8       1       1       8       1       1
       8       1       1       8       1       1       8       1       1       8
       1       1       8       1       1       8       1       1       8       1
       1       8       1       1       8       1       1       8       1       1
       8       1       1       8       1       1       8       1       1       8
       1       1       8       1       1       8       1       1       8       1
       1       8       1       1       8       1       1       8       1       1
       8       1       1       8       1       1       8       1       1       8
       1       1       8       1       1       8       1       1       8       1
       1       8       1       1       8       1       1       8       1       1
       8       1       1       8       1       1       8       1       1       8
       1       1       8       1       1       8       1       1       8       1
       1       8       1       1       8       1       1       8       1       1
       8       1       1       8       1       1       8       1       1       8
       1       1       8       1       1       8       1       1       8       1
       1       8       1       1       8       1       1       8       1       1
       8       1       1       8       1       1       8       1       1       8
       1       1       8       1       1       8       1       1       8       1
       1       8       1       1       8       1       1       8       1       1
       8       1       1       8       1       1       8       1       1       8
       1       1       8       1       1       8       1       1       8       1
       1       8       1       1       8       1       1       8       1       1
       8       1       1       8       1       1       8       1       1       8
       1       1       8       1       1       8       1       1       8       1
       1       8       1       1       8       1       1       8       1       1
       8       1       1       8       1       1       8       1       1       8
       1       1       8       1       1       8       1       1       8       1
       1       8       1       1       8       1       1       8       1       1
       8       1       1       8       1       1       8       1       1       8
       1       1       8       1       1       8       1       1       8       1
       1       8       1       1       8       1       1       8       1       1
       8       1       1       8       1       1       8       1       1       8
       1       1       8       1       1       8       1       1       8       1
       1       8       1       1       8       1       1       8       1       1
       8       1       1       8       1       1       8       1       1       8
       1       1       8       1       1       8       1       1       8       1
       1       8       1       1       8       1       1       8       1       1
       8       1       1       8       1       1       8       1       1       8
       1       1       8       1       1       8       1       1       8       1
       1       8       1       1       8       1       1       8       1       1
       8       1       1       8       1       1       8       1       1       8
       1       1       8       1       1       8       1       1       8       1
       1       8       1       1       8       1       1       8       1       1
       8       1       1       8       1       1       8       1       1       8
       1       1       8       1       1       8       1       1       8       1
       1       8       1       1       8       1       1       8       1       1
       8       1       1       8       1       1       8       1       1       8
       1       1       8       1       1       8       1       1       8       1
       1       8       1       1       8       1       1       8       1       1
       8       1       1       8       1       1       8       1       1       8
       1       1       8       1       1       8       1       1       8       1
       1       8       1       1       8       1       1       8       1       1
       8       1       1       8       1       1       8       1       1       8
       1       1       8       1       1       8       1       1       8       1
       1       8       1       1       8       1       1       8       1       1
       8       1       1       8       1       1       8       1       1       8
       1       1       8       1       1       8       1       1       8       1
       1       8       1       1       8       1       1       8       1       1
       8       1       1       8       1       1       8       1       1       8
       1       1       8       1       1       8       1       1       8       1
       1       8       1       1       8       1       1       8       1       1
       8       1       1       8       1       1       8       1       1       8
       1       1       8       1       1       8       1       1       8       1
       1       8       1       1       8       1       1       8       1       1
       8       1       1       8       1       1       8       1       1       8
       1       1       8       1       1       8       1       1       8       1
       1       8       1       1       8       1       1       8       1       1
       8       1       1       8       1       1       8       1       1       8
       1       1       8       1       1       8       1       1       8       1
       1       8       1       1       8       1       1       8       1       1
       8       1       1       8       1       1       8       1       1       8
       1       1       8       1       1       8       1       1       8       1
       1       8       1       1       8       1       1       8       1       1
       8       1       1       8       1       1       8       1       1       8
       1       1       8       1       1       8       1       1       8       1
       1       8       1       1       8       1       1       8       1       1
       8       1       1       8       1       1       8       1       1       8
       1       1       8       1       1       8       1       1       8       1
       1       8       1       1       8       1       1       8       1       1
       8       1       1       8       1       1       8       1       1       8
       1       1       8       1       1       8       1       1       8       1
       1       8       1       1       8       1       1       8       1       1
       8       1       1       8       1       1       8       1       1       8
       1       1       8       1       1       8       1       1       8       1
       1       8       1       1       8       1       1       8       1       1
       8       1       1       8       1       1       8       1       1       8
       1       1       8       1       1       8       1       1       8       1
       1       8       1       1       8       1       1       8       1       1
       8       1       1       8       1       1       8       1       1       8
       1       1       8       1       1       8       1       1       8       1
       1       8       1       1       8       1       1       8       1       1
       8       1       1       8       1       1       8       1       1       8
       1       1       8       1       1       8       1       1       8       1
       1       8       1       1       8       1       1       8       1       1
       8       1       1       8       1       1       8       1       1       8
       1       1       8       1       1       8       1       1       8       1
       1       8       1       1       8       1       1       8       1       1
       8       1       1       8       1       1       8       1       1       8
       1       1       8       1       1       8       1       1       8       1
       1       8       1       1       8       1       1       8       1       1
       8       1       1       8       1       1       8       1       1       8
       1       1       8       1       1       8       1       1       8       1
       1       8       1       1       8       1       1       8       1       1
       8       1       1       8       1       1       8       1       1       8
       1       1       8       1       1       8       1       1       8       1
       1       8       1       1       8       1       1       8       1       1
       8       1       1       8       1       1       8       1       1       8
       1       1       8       1       1       8       1       1       8       1
       1       8       1       1       8       1       1       8       1       1
       8       1       1       8       1       1       8       1       1       8
       1       1       8       1       1       8       1       1       8       1
       1       8       1       1       8       1       1       8       1       1
       8       1       1       8       1       1       8       1       1       8
       1       1       8       1       1       8       1       1       8       1
       1       8       1       1       8       1       1       8       1       1
       8       1       1       8       1       1       8       1       1       8
       1       1       8       1       1       8       1       1       8       1
       1       8       1       1       8       1       1       8       1       1
       8       1       1       8       1       1       8       1       1       8
       1       1       8       1       1       8       1       1       8       1
       1       8       1       1       8       1       1       8       1       1
       8       1       1       8       1       1       8       1       1       8
       1       1       8       1       1       8       1       1       8       1
       1       8       1       1       8       1       1       8       1       1
       8       1       1       8       1       1       8       1       1       8
       1       1       8       1       1       8       1       1       8       1
       1       8       1       1       8       1       1       8       1       1
       8       1       1       8       1       1       8       1       1       8
       1       1       8       1       1       8       1       1       8       1
       1       8       1       1       8       1       1       8       1       1
       8       1       1       8       1       1       8       1       1       8
       1       1       8       1       1       8       1       1       8       1
       1       8       1       1       8       1       1       8       1       1
       8       1       1       8       1       1       8       1       1       8
       1       1       8       1       1       8       1       1       8       1
       1       8       1       1       8       1       1       8       1       1
       8       1       1       8       1       1       8       1       1       8
       1       1       8       1       1       8       1       1       8       1
       1       8       1       1       8       1       1       8       1       1
       8       1       1       8       1       1       8       1       1       8
       1       1       8       1       1       8       1       1       8       1
       1       8       1       1       8       1       1       8       1       1
       8       1       1       8       1       1       8       1       1       8
       1       1       8       1       1       8       1       1       8       1
       1       8       1       1       8       1       1       8       1       1
       8       1       1       8       1       1       8       1       1       8
       1       1       8       1       1       8       1       1       8       1
       1       8       1       1       8       1       1       8       1       1
       8       1       1       8       1       1       8       1       1       8
       1       1       8       1       1       8       1       1       8       1
       1       8       1       1       8       1       1       8       1       1
       8       1       1       8       1       1       8       1       1       8
       1       1       8       1       1       8       1       1       8       1
       1       8       1       1       8       1       1       8       1       1
       8       1       1       8       1       1       8       1       1       8
       1       1       8       1       1       8       1       1       8       1
       1       8       1       1       8       1       1       8       1       1
       8       1       1       8       1       1       8       1       1       8
       1       1       8       1       1       8       1       1       8       1
       1       8       1       1       8       1       1       8       1       1
       8       1       1       8       1       1       8       1       1       8
       1       1       8       1       1       8       1       1       8       1
       1       8       1       1       8       1       1       8       1       1
       8       1       1       8       1       1       8       1       1       8
       1       1       8       1       1       8       1       1       8       1
       1       8       1       1       8       1       1       8       1       1
       8       1       1       8       1       1       8       1       1       8
       1       1       8       1       1       8       1       1       8       1
       1       8       1       1       8       1       1       8       1       1
       8       1       1       8       1       1       8       1       1       8
       1       1       8       1       1       8       1       1       8       1
       1       8       1       1       8       1       1       8       1       1
       8       1       1       8       1       1       8       1       1       8
       1       1       8       1       1       8       1       1       8       1
       1       8       1       1       8       1       1       8       1       1
       8       1       1       8       1       1       8       1       1       8
       1       1       8       1       1       8       1       1       8       1
       1       8       1       1       8       1       1       8       1       1
       8       1       1       8       1       1       8       1       1       8
       1       1       8       1       1       8       1       1       8       1
       1       8       1       1       8       1       1       8       1       1
       8       1       1       8       1       1       8       1       1       8
       1       1       8       1       1       8       1       1       8       1
       1       8       1       1       8       1       1       8       1       1
       8       1       1       8       1       1       8       1       1       8
       1       1       8       1       1       8       1       1       8       1
       1       8       1       1       8       1       1       8       1       1
       8       1       1       8       1       1       8       1       1       8
       1       1       8       1       1       8       1       1       8       1
       1       8       1       1       8       1       1       8       1       1
       8       1       1       8       1       1       8       1       1       8
       1       1       8       1       1       8       1       1       8       1
       1       8       1       1       8       1       1       8       1       1
       8       1       1       8       1       1       8       1       1       8
       1       1       8       1       1       8       1       1       8       1
       1       8       1       1       8       1       1       8       1       1
       8       1       1       8       1       1       8       1       1       8
       1       1       8       1       1       8       1       1       8       1
       1       8       1       1       8       1       1       8       1       1
       8       1       1       8       1       1       8       1       1       8
       1       1       8       1       1       8       1       1       8       1
       1       8       1       1       8       1       1       8       1       1
       8       1       1       8       1       1       8       1       1       8
       1       1       8       1       1       8       1       1       8       1
       1       8       1       1       8       1       1       8       1       1
       8       1       1       8       1       1       8       1       1       8
       1       1       8       1       1       8       1       1       8       1
       1       8       1       1       8       1       1       8       1       1
       8       1       1       8       1       1       8       1       1       8
       1       1       8       1       1       8       1       1       8       1
       1       8       1       1       8       1       1       8       1       1
       8       1       1       8       1       1       8       1       1       8
       1       1       8       1       1       8       1       1       8       1
       1       8       1       1       8       1       1       8       1       1
       8       1       1       8       1       1       8       1       1       8
       1       1       8       1       1       8       1       1       8       1
       1       8       1       1       8       1       1       8       1       1
       8       1       1       8       1       1       8       1       1       8
       1       1       8       1       1       8       1       1       8       1
       1       8       1       1       8       1       1       8       1       1
       8       1       1       8       1       1       8       1       1       8
       1       1       8       1       1       8       1       1       8       1
       1       8       1       1       8       1       1       8       1       1
       8       1       1       8       1       1       8       1       1       8
       1       1       8       1       1       8       1       1       8       1
       1       8       1       1       8       1       1       8       1       1
       8       1       1       8       1       1       8       1       1       8
       1       1       8       1       1       8       1       1       8       1
       1       8       1       1       8       1       1       8       1       1
       8       1       1       8       1       1       8       1       1       8
       1       1       8       1       1       8       1       1       8       1
       1       8       1       1       8       1       1       8       1       1
       8       1       1       8       1       1       8       1       1       8
       1       1       8       1       1       8       1       1       8       1
       1       8       1       1       8       1       1       8       1       1
       8       1       1       8       1       1       8       1       1       8
       1       1       8       1       1       8       1       1       8       1
       1       8       1       1       8       1       1       8       1       1
       8       1       1       8       1       1       8       1       1       8
       1       1       8       1       1       8       1       1       8       1
       1       8       1       1       8       1       1       8       1       1
       8       1       1       8       1       1       8       1       1       8
       1       1       8       1       1       8       1       1       8       1
       1       8       1       1       8       1       1       8       1       1
       8       1       1       8       1       1       8       1       1       8
       1       1       8       1       1       8       1       1       8       1
       1       8       1       1       8       1       1       8       1       1
       8       1       1       8       1       1       8       1       1       8
       1       1       8       1       1       8       1       1       8       1
       1       8       1       1       8       1       1       8       1       1
       8       1       1       8       1       1       8       1       1       8
       1       1       8       1       1       8       1       1       8       1
       1       8       1       1       8       1       1       8       1       1
       8       1       1       8       1       1       8       1       1       8
       1       1       8       1       1       8       1       1       8       1
       1       8       1       1       8       1       1       8       1       1
       8       1       1       8       1       1       8       1       1       8
       1       1       8       1       1       8       1       1       8       1
       1       8       1       1       8       1       1       8       1       1
       8       1       1       8       1       1       8       1       1       8
       1       1       8       1       1       8       1       1       8       1
       1       8       1       1       8       1       1       8       1       1
       8       1       1       8       1       1       8       1       1       8
       1       1       8       1       1       8       1       1       8       1
       1       8       1       1       8       1       1       8       1       1
       8       1       1       8       1       1       8       1       1       8
       1       1       8       1       1       8       1       1       8       1
       1       8       1       1       8       1       1       8       1       1
       8       1       1       8       1       1       8       1       1       8
       1       1       8       1       1       8       1       1       8       1
       1       8       1       1       8       1       1       8       1       1
       8       1       1       8       1       1       8       1       1       8
       1       1       8       1       1       8       1       1       8       1
       1       8       1       1       8       1       1       8       1       1
       8       1       1       8       1       1       8       1       1       8
       1       1       8       1       1       8       1       1       8       1
       1       8       1       1       8       1       1       8       1       1
       8       1       1       8       1       1       8       1       1       8
       1       1       8       1       1       8       1       1       8       1
       1       8       1       1       8       1       1       8       1       1
       8       1       1       8       1       1       8       1       1       8
       1       1       8       1       1       8       1       1       8       1
       1       8       1       1       8       1       1       8       1       1
       8       1       1       8       1       1       8       1       1       8
       1       1       8       1       1       8       1       1       8       1
       1       8       1       1       8       1       1       8       1       1
       8       1       1       8       1       1       8       1       1       8
       1       1       8       1       1       8       1       1       8       1
       1       8       1       1       8       1       1       8       1       1
       8       1       1       8       1       1       8       1       1       8
       1       1       8       1       1       8       1       1       8       1
       1       8       1       1       8       1       1       8       1       1
       8       1       1       8       1       1       8       1       1       8
       1       1       8       1       1       8       1       1       8       1
       1       8       1       1       8       1       1       8       1       1
       8       1       1       8       1       1       8       1       1       8
       1       1       8       1       1       8       1       1       8       1
       1       8       1       1       8       1       1       8       1       1
       8       1       1       8       1       1       8       1       1       8
       1       1       8       1       1       8       1       1       8       1
       1       8       1       1       8       1       1       8       1       1
       8       1       1       8       1       1       8       1       1       8
       1       1       8       1       1       8       1       1       8       1
       1       8       1       1       8       1       1       8       1       1
       8       1       1       8       1       1       8       1       1       8
       1       1       8       1       1       8       1       1       8       1
       1       8       1       1       8       1       1       8       1       1
       8       1       1       8       1       1       8       1       1       8
       1       1       8       1       1       8       1       1       8       1
       1       8       1       1       8       1       1       8       1       1
       8       1       1       8       1       1       8       1       1       8
       1       1       8       1       1       8       1       1       8       1
       1       8       1       1       8       1       1       8       1       1
       8       1       1       8       1       1       8       1       1       8
       1       1       8       1       1       8       1       1       8       1
       1       8       1       1       8       1       1       8       1       1
       8       1       1       8       1       1       8       1       1       8
       1       1       8       1       1       8       1       1       8       1
       1       8       1       1       8       1       1       8       1       1
       8       1       1       8       1       1       8       1       1       8
       1       1       8       1       1       8       1       1       8       1
       1       8       1       1       8       1       1       8       1       1
       8       1       1       8       1       1       8       1       1       8
       1       1       8       1       1       8       1       1       8       1
       1       8       1       1       8       1       1       8       1       1
       8       1       1       8       1       1       8       1       1       8
       1       1       8       1       1       8       1       1       8       1
       1       8       1       1       8       1       1       8       1       1
       8       1       1       8       1       1       8       1       1       8
       1       1       8       1       1       8       1       1       8       1
       1       8       1       1       8       1       1       8       1       1
       8       1       1       8       1       1       8       1       1       8
       1       1       8       1       1       8       1       1       8       1
       1       8       1       1       8       1       1       8       1       1
       8       1       1       8       1       1       8       1       1       8
       1       1       8       1       1       8       1       1       8       1
       1       8       1       1       8       1       1       8       1       1
       8       1       1       8       1       1       8       1       1       8
       1       1       8       1       1       8       1       1       8       1
       1       8       1       1       8       1       1       8       1       1
       8       1       1       8       1       1       8       1       1       8
       1       1       8       1       1       8       1       1       8       1
       1       8       1       1       8       1       1       8       1       1
       8       1       1       8       1       1       8       1       1       8
       1       1       8       1       1       8       1       1       8       1
       1       8       1       1       8       1       1       8       1       1
       8       1       1       8       1       1       8       1       1       8
       1       1       8       1       1       8       1       1       8       1
       1       8       1       1       8       1       1       8       1       1
       8       1       1       8       1       1       8       1       1       8
       1       1       8       1       1       8       1       1       8       1
       1       8       1       1       8       1       1       8       1       1
       8       1       1       8       1       1       8       1       1       8
       1       1       8       1       1       8       1       1       8       1
       1       8       1       1       8       1       1       8       1       1
       8       1       1       8       1       1       8       1       1       8
       1       1       8       1       1       8       1       1       8       1
       1       8       1       1       8       1       1       8       1       1
       8       1       1       8       1       1       8       1       1       8
       1       1       8       1       1       8       1       1       8       1
       1       8       1       1       8       1       1       8       1       1
       8       1       1       8       1       1       8       1       1       8
       1       1       8       1       1       8       1       1       8       1
       1       8       1       1       8       1       1       8       1       1
       8       1       1       8       1       1       8       1       1       8
       1       1       8       1       1       8       1       1       8       1
       1       8       1       1       8       1       1       8       1       1
       8       1       1       8       1       1       8       1       1       8
       1       1       8       1       1       8       1       1       8       1
       1       8       1       1       8       1       1       8       1       1
       8       1       1       8       1       1       8       1       1       8
       1       1       8       1       1       8       1       1       8       1
       1       8       1       1       8       1       1       8       1       1
       8       1       1       8       1       1       8       1       1       8
       1       1       8       1       1       8       1       1       8       1
       1       8       1       1       8       1       1       8       1       1
       8       1       1       8       1       1       8       1       1       8
       1       1       8       1       1       8       1       1       8       1
       1       8       1       1       8       1       1       8       1       1
       8       1       1       8       1       1       8       1       1       8
       1       1       8       1       1       8       1       1       8       1
       1       8       1       1       8       1       1       8       1       1
       8       1       1       8       1       1       8       1       1       8
       1       1       8       1       1       8       1       1       8       1
       1       8       1       1       8       1       1       8       1       1
       8       1       1       8       1       1       8       1       1       8
       1       1       8       1       1       8       1       1       8       1
       1       8       1       1       8       1       1       8       1       1
       8       1       1       8       1       1       8       1       1       8
       1       1       8       1       1       8       1       1       8       1
       1       8       1       1       8       1       1       8       1       1
       8       1       1       8       1       1       8       1       1       8
       1       1       8       1       1       8       1       1       8       1
       1       8       1       1       8       1       1       8       1       1
       8       1       1       8       1       1       8       1       1       8
       1       1       8       1       1       8       1       1       8       1
       1       8       1       1       8       1       1       8       1       1
       8       1       1       8       1       1       8       1       1       8
       1       1       8       1       1       8       1       1       8       1
       1       8       1       1       8       1       1       8       1       1
       8       1       1       8       1       1       8       1       1       8
       1       1       8       1       1       8       1       1       8       1
       1       8       1       1       8       1       1       8       1       1
       8       1       1       8       1       1       8       1       1       8
       1       1       8       1       1       8       1       1       8       1
       1       8       1       1       8       1       1       8       1       1
       8       1       1       8       1       1       8       1       1       8
       1       1       8       1       1       8       1       1       8       1
       1       8       1       1       8       1       1       8       1       1
       8       1       1       8       1       1       8       1       1       8
       1       1       8       1       1       8       1       1       8       1
       1       8       1       1       8       1       1       8       1       1
       8       1       1       8       1       1       8       1       1       8
       1       1       8       1       1       8       1       1       8       1
       1       8       1       1       8       1       1       8       1       1
       8       1       1       8       1       1       8       1       1       8
       1       1       8       1       1       8       1       1       8       1
       1       8       1       1       8       1       1       8       1       1
       8       1       1       8       1       1       8       1       1       8
       1       1       8       1       1       8       1       1       8       1
       1       8       1       1       8       1       1       8       1       1
       8       1       1       8       1       1       8       1       1       8
       1       1       8       1       1       8       1       1       8       1
       1       8       1       1       8       1       1       8       1       1
       8       1       1       8       1       1       8       1       1       8
       1       1       8       1       1       8       1       1       8       1
       1       8       1       1       8       1       1       8       1       1
       8       1       1       8       1       1       8       1       1       8
       1       1       8       1       1       8       1       1       8       1
       1       8       1       1       8       1       1       8       1       1
       8       1       1       8       1       1       8       1       1       8
       1       1       8       1       1       8       1       1       8       1
       1       8       1       1       8       1       1       8       1       1
       8       1       1       8       1       1       8       1       1       8
       1       1       8       1       1       8       1       1       8       1
       1       8       1       1       8       1       1       8       1       1
       8       1       1       8       1       1       8       1       1       8
       1       1       8       1       1       8       1       1       8       1
       1       8       1       1       8       1       1       8       1       1
       8       1       1       8       1       1       8       1       1       8
       1       1       8       1       1       8       1       1       8       1
       1       8       1       1       8       1       1       8       1       1
       8       1       1       8       1       1       8       1       1       8
       1       1       8       1       1       8       1       1       8       1
       1       8       1       1       8       1       1       8       1       1
       8       1       1       8       1       1       8       1       1       8
       1       1       8       1       1       8       1       1       8       1
       1       8       1       1       8       1       1       8       1       1
       8       1       1       8       1       1       8       1       1       8
       1       1       8       1       1       8       1       1       8       1
       1       8       1       1       8       1       1       8       1       1
       8       1       1       8       1       1       8       1       1       8
       1       1       8       1       1       8       1       1       8       1
       1       8       1       1       8       1       1       8       1       1
       8       1       1       8       1       1       8       1       1       8
       1       1       8       1       1       8       1       1       8       1
       1       8       1       1       8       1       1       8       1       1
       8       1       1       8       1       1       8       1       1       8
       1       1       8       1       1       8       1       1       8       1
       1       8       1       1       8       1       1       8       1       1
       8       1       1       8       1       1       8       1       1       8
       1       1       8       1       1       8       1       1       8       1
       1       8       1       1       8       1       1       8       1       1
       8       1       1       8       1       1       8       1       1       8
       1       1       8       1       1       8       1       1       8       1
       1       8       1       1       8       1       1       8       1       1
       8       1       1       8       1       1       8       1       1       8
       1       1       8       1       1       8       1       1       8       1
       1       8       1       1       8       1       1       8       1       1
       8       1       1       8       1       1       8       1       1       8
       1       1       8       1       1       8       1       1       8       1
       1       8       1       1       8       1       1       8       1       1
       8       1       1       8       1       1       8       1       1       8
       1       1       8       1       1       8       1       1       8       1
       1       8       1       1       8       1       1       8       1       1
       8       1       1       8       1       1       8       1       1       8
       1       1       8       1       1       8       1       1       8       1
       1       8       1       1       8       1       1       8       1       1
       8       1       1       8       1       1       8       1       1       8
       1       1       8       1       1       8       1       1       8       1
       1       8       1       1       8       1       1       8       1       1
       8       1       1       8       1       1       8       1       1       8
       1       1       8       1       1       8       1       1       8       1
       1       8       1       1       8       1       1       8       1       1
       8       1       1       8       1       1       8       1       1       8
       1       1       8       1       1       8       1       1       8       1
       1       8       1       1       8       1       1       8       1       1
       8       1       1       8       1       1       8       1       1       8
       1       1       8       1       1       8       1       1       8       1
       1       8       1       1       8       1       1       8       1       1
       8       1       1       8       1       1       8       1       1       8
       1       1       8       1       1       8       1       1       8       1
       1       8       1       1       8       1       1       8       1       1
       8       1       1       8       1       1       8       1       1       8
       1       1       8       1       1       8       1       1       8       1
       1       8       1       1       8       1       1       8       1       1
       8       1       1       8       1       1       8       1       1       8
       1       1       8       1       1       8       1       1       8       1
       1       8       1       1       8       1       1       8       1       1
       8       1       1       8       1       1       8       1       1       8
       1       1       8       1       1       8       1       1       8       1
       1       8       1       1       8       1       1       8       1       1
       8       1       1       8       1       1       8       1       1       8
       1       1       8       1       1       8       1       1       8       1
       1       8       1       1       8       1       1       8       1       1
       8       1       1       8       1       1       8       1       1       8
       1       1       8       1       1       8       1       1       8       1
       1       8       1       1       8       1       1       8       1       1
       8       1       1       8       1       1       8       1       1       8
       1       1       8       1       1       8       1       1       8       1
       1       8       1       1       8       1       1       8       1       1
       8       1       1       8       1       1       8       1       1       8
       1       1       8       1       1       8       1       1       8       1
       1       8       1       1       8       1       1       8       1       1
       8       1       1       8       1       1       8       1       1       8
       1       1       8       1       1       8       1       1       8       1
       1       8       1       1       8       1       1       8       1       1
       8       1       1       8       1       1       8       1       1       8
       1       1       8       1       1       8       1       1       8       1
       1       8       1       1       8       1       1       8       1       1
       8       1       1       8       1       1       8       1       1       8
       1       1       8       1       1       8       1       1       8       1
       1       8       1       1       8       1       1       8       1       1
       8       1       1       8       1       1       8       1       1       8
       1       1       8       1       1       8       1       1       8       1
       1       8       1       1       8       1       1       8       1       1
       8       1       1       8       1       1       8       1       1       8
       1       1       8       1       1       8       1       1       8       1
       1       8       1       1       8       1       1       8       1       1
       8       1       1       8       1       1       8       1       1       8
       1       1       8       1       1       8       1       1       8       1
       1       8       1       1       8       1       1       8       1       1
       8       1       1       8       1       1       8       1       1       8
       1       1       8       1       1       8       1       1       8       1
       1       8       1       1       8       1       1       8       1       1
       8       1       1       8       1       1       8       1       1       8
       1       1       8       1       1       8       1       1       8       1
       1       8       1       1       8       1       1       8       1       1
       8       1       1       8       1       1       8       1       1       8
       1       1       8       1       1       8       1       1       8       1
       1       8       1       1       8       1       1       8       1       1
       8       1       1       8       1       1       8       1       1       8
       1       1       8       1       1       8       1       1       8       1
       1       8       1       1       8       1       1       8       1       1
       8       1       1       8       1       1       8       1       1       8
       1       1       8       1       1       8       1       1       8       1
       1       8       1       1       8       1       1       8       1       1
       8       1       1       8       1       1       8       1       1       8
       1       1       8       1       1       8       1       1       8       1
       1       8       1       1       8       1       1       8       1       1
       8       1       1       8       1       1       8       1       1       8
       1       1       8       1       1       8       1       1       8       1
       1       8       1       1       8       1       1       8       1       1
       8       1       1       8       1       1       8       1       1       8
       1       1       8       1       1       8       1       1       8       1
       1       8       1       1       8       1       1       8       1       1
       8       1       1       8       1       1       8       1       1       8
       1       1       8       1       1       8       1       1       8       1
       1       8       1       1       8       1       1       8       1       1
       8       1       1       8       1       1       8       1       1       8
       1       1       8       1       1       8       1       1       8       1
       1       8       1       1       8       1       1       8       1       1
       8       1       1       8       1       1       8       1       1       8
       1       1       8       1       1       8       1       1       8       1
       1       8       1       1       8       1       1       8       1       1
       8       1       1       8       1       1       8       1       1       8
       1       1       8       1       1       8       1       1       8       1
       1       8       1       1       8       1       1       8       1       1
       8       1       1       8       1       1       8       1       1       8
       1       1       8       1       1       8       1       1       8       1
       1       8       1       1       8       1       1       8       1       1
       8       1       1       8       1       1       8       1       1       8
       1       1       8       1       1       8       1       1       8       1
       1       8       1       1       8       1       1       8       1       1
       8       1       1       8       1       1       8       1       1       8
       1       1       8       1       1       8       1       1       8       1
       1       8       1       1       8       1       1       8       1       1
       8       1       1       8       1       1       8       1       1       8
       1       1       8       1       1       8       1       1       8       1
       1       8       1       1       8       1       1       8       1       1
       8       1       1       8       1       1       8       1       1       8
       1       1       8       1       1       8       1       1       8       1
       1       8       1       1       8       1       1       8       1       1
       8       1       1       8       1       1       8       1       1       8
       1       1       8       1       1       8       1       1       8       1
       1       8       1       1       8       1       1       8       1       1
       8       1       1       8       1       1       8       1       1       8
       1       1       8       1       1       8       1       1       8       1
       1       8       1       1       8       1       1       8       1       1
       8       1       1       8       1       1       8       1       1       8
       1       1       8       1       1       8       1       1       8       1
       1       8       1       1       8       1       1       8       1       1
       8       1       1       8       1       1       8       1       1       8
       1       1       8       1       1       8       1       1       8       1
       1       8       1       1       8       1       1       8       1       1
       8       1       1       8       1       1       8       1       1       8
       1       1       8       1       1       8       1       1       8       1
       1       8       1       1       8       1       1       8       1       1
       8       1       1       8       1       1       8       1       1       8
       1       1       8       1       1       8       1       1       8       1
       1       8       1       1       8       1       1       8       1       1
       8       1       1       8       1       1       8       1       1       8
       1       1       8       1       1       8       1       1       8       1
       1       8       1       1       8       1       1       8       1       1
       8       1       1       8       1       1       8       1       1       8
       1       1       8       1       1       8       1       1       8       1
       1       8       1       1       8       1       1       8       1       1
       8       1       1       8       1       1       8       1       1       8
       1       1       8       1       1       8       1       1       8       1
       1       8       1       1       8       1       1       8       1       1
       8       1       1       8       1       1       8       1       1       8
       1       1       8       1       1       8       1       1       8       1
       1       8       1       1       8       1       1       8       1       1
       8       1       1       8       1       1       8       1       1       8
       1       1       8       1       1       8       1       1       8       1
       1       8       1       1       8       1       1       8       1       1
       8       1       1       8       1       1       8       1       1       8
       1       1       8       1       1       8       1       1       8       1
       1       8       1       1       8       1       1       8       1       1
       8       1       1       8       1       1       8       1       1       8
       1       1       8       1       1       8       1       1       8       1
       1       8       1       1       8       1       1       8       1       1
       8       1       1       8       1       1       8       1       1       8
       1       1       8       1       1       8       1       1       8       1
       1       8       1       1       8       1       1       8       1       1
       8       1       1       8       1       1       8       1       1       8
       1       1       8       1       1       8       1       1       8       1
       1       8       1       1       8       1       1       8       1       1
       8       1       1       8       1       1       8       1       1       8
       1       1       8       1       1       8       1       1       8       1
       1       8       1       1       8       1       1       8       1       1
       8       1       1       8       1       1       8       1       1       8
       1       1       8       1       1       8       1       1       8       1
       1       8       1       1       8       1       1       8       1       1
       8       1       1       8       1       1       8       1       1       8
       1       1       8       1       1       8       1       1       8       1
       1       8       1       1       8       1       1       8       1       1
       8       1       1       8       1       1       8       1       1       8
       1       1       8       1       1       8       1       1       8       1
       1       8       1       1       8       1       1       8       1       1
       8       1       1       8       1       1       8       1       1       8
       1       1       8       1       1       8       1       1       8       1
       1       8       1       1       8       1       1       8       1       1
       8       1       1       8       1       1       8       1       1       8
       1       1       8       1       1       8       1       1       8       1
       1       8       1       1       8       1       1       8       1       1
       8       1       1       8       1       1       8       1       1       8
       1       1       8       1       1       8       1       1       8       1
       1       8       1       1       8       1       1       8       1       1
       8       1       1       8       1       1       8       1       1       8
       1       1       8       1       1       8       1       1       8       1
       1       8       1       1       8       1       1       8       1       1
       8       1       1       8       1       1       8       1       1       8
       1       1       8       1       1       8       1       1       8       1
       1       8       1       1       8       1       1       8       1       1
       8       1       1       8       1       1       8       1       1       8
       1       1       8       1       1       8       1       1       8       1
       1       8       1       1       8       1       1       8       1       1
       8       1       1       8       1       1       8       1       1       8
       1       1       8       1       1       8       1       1       8       1
       1       8       1       1       8       1       1       8       1       1
       8       1       1       8       1       1       8       1       1       8
       1       1       8       1       1       8       1       1       8       1
       1       8       1       1       8       1       1       8       1       1
       8       1       1       8       1       1       8       1       1       8
       1       1       8       1       1       8       1       1       8       1
       1       8       1       1       8       1       1       8       1       1
       8       1       1       8       1       1       8       1       1       8
       1       1       8       1       1       8       1       1       8       1
       1       8       1       1       8       1       1       8       1       1
       8       1       1       8       1       1       8       1       1       8
       1       1       8       1       1       8       1       1       8       1
       1       8       1       1       8       1       1       8       1       1
       8       1       1       8       1       1       8       1       1       8
       1       1       8       1       1       8       1       1       8       1
       1       8       1       1       8       1       1       8       1       1
       8       1       1       8       1       1       8       1       1       8
       1       1       8       1       1       8       1       1       8       1
       1       8       1       1       8       1       1       8       1       1
       8       1       1       8       1       1       8       1       1       8
       1       1       8       1       1       8       1       1       8       1
       1       8       1       1       8       1       1       8       1       1
       8       1       1       8       1       1       8       1       1       8
       1       1       8       1       1       8       1       1       8       1
       1       8       1       1       8       1       1       8       1       1
       8       1       1       8       1       1       8       1       1       8
       1       1       8       1       1       8       1       1       8       1
       1       8       1       1       8       1       1       8       1       1
       8       1       1       8       1       1       8       1       1       8
       1       1       8       1       1       8       1       1       8       1
       1       8       1       1       8       1       1       8       1       1
       8       1       1       8       1       1       8       1       1       8
       1       1       8       1       1       8       1       1       8       1
       1       8       1       1       8       1       1       8       1       1
       8       1       1       8       1       1       8       1       1       8
       1       1       8       1       1       8       1       1       8       1
       1       8       1       1       8       1       1       8       1       1
       8       1       1       8       1       1       8       1       1       8
       1       1       8       1       1       8       1       1       8       1
       1       8       1       1       8       1       1       8       1       1
       8       1       1       8       1       1       8       1       1       8
       1       1       8       1       1       8       1       1       8       1
       1       8       1       1       8       1       1       8       1       1
       8       1       1       8       1       1       8       1       1       8
       1       1       8       1       1       8       1       1       8       1
       1       8       1       1       8       1       1       8       1       1
       8       1       1       8       1       1       8       1       1       8
       1       1       8       1       1       8       1       1       8       1
       1       8       1       1       8       1       1       8       1       1
       8       1       1       8       1       1       8       1       1       8
       1       1       8       1       1       8       1       1       8       1
       1       8       1       1       8       1       1       8       1       1
       8       1       1       8       1       1       8       1       1       8
       1       1       8       1       1       8       1       1       8       1
       1       8       1       1       8       1       1       8       1       1
       8       1       1       8       1       1       8       1       1       8
       1       1       8       1       1       8       1       1       8       1
       1       8       1       1       8       1       1       8       1       1
       8       1       1       8       1       1       8       1       1       8
       1       1       8       1       1       8       1       1       8       1
       1       8       1       1       8       1       1       8       1       1
       8       1       1       8       1       1       8       1       1       8
       1       1       8       1       1       8       1       1       8       1
       1       8       1       1       8       1       1       8       1       1
       8       1       1       8       1       1       8       1       1       8
       1       1       8       1       1       8       1       1       8       1
       1       8       1       1       8       1       1       8       1       1
       8       1       1       8       1       1       8       1       1       8
       1       1       8       1       1       8       1       1       8       1
       1       8       1       1       8       1       1       8       1       1
       8       1       1       8       1       1       8       1       1       8
       1       1       8       1       1       8       1       1       8       1
       1       8       1       1       8       1       1       8       1       1
       8       1       1       8       1       1       8       1       1       8
       1       1       8       1       1       8       1       1       8       1
       1       8       1       1       8       1       1       8       1       1
       8       1       1       8       1       1       8       1       1       8
       1       1       8       1       1       8       1       1       8       1
       1       8       1       1       8       1       1       8       1       1
       8       1       1       8       1       1       8       1       1       8
       1       1       8       1       1       8       1       1       8       1
       1       8       1       1       8       1       1       8       1       1
       8       1       1       8       1       1       8       1       1       8
       1       1       8       1       1       8       1       1       8       1
       1       8       1       1       8       1       1       8       1       1
       8       1       1       8       1       1       8       1       1       8
       1       1       8       1       1       8       1       1       8       1
       1       8       1       1       8       1       1       8       1       1
       8       1       1       8       1       1       8       1       1       8
       1       1       8       1       1       8       1       1       8       1
       1       8       1       1       8       1       1       8       1       1
       8       1       1       8       1       1       8       1       1       8
       1       1       8       1       1       8       1       1       8       1
       1       8       1       1       8       1       1       8       1       1
       8       1       1       8       1       1       8       1       1       8
       1       1       8       1       1       8       1       1       8       1
       1       8       1       1       8       1       1       8       1       1
       8       1       1       8       1       1       8       1       1       8
       1       1       8       1       1       8       1       1       8       1
       1       8       1       1       8       1       1       8       1       1
       8       1       1       8       1       1       8       1       1       8
       1       1       8       1       1       8       1       1       8       1
       1       8       1       1       8       1       1       8       1       1
       8       1       1       8       1       1       8       1       1       8
       1       1       8       1       1       8       1       1       8       1
       1       8       1       1       8       1       1       8       1       1
       8       1       1       8       1       1       8       1       1       8
       1       1       8       1       1       8       1       1       8       1
       1       8       1       1       8       1       1       8       1       1
       8       1       1       8       1       1       8       1       1       8
       1       1       8       1       1       8       1       1       8       1
       1       8       1       1       8       1       1       8       1       1
       8       1       1       8       1       1       8       1       1       8
       1       1       8       1       1       8       1       1       8       1
       1       8       1       1       8       1       1       8       1       1
       8       1       1       8       1       1       8       1       1       8
       1       1       8       1       1       8       1       1       8       1
       1       8       1       1       8       1       1       8       1       1
       8       1       1       8       1       1       8       1       1       8
       1       1       8       1       1       8       1       1       8       1
       1       8       1       1       8       1       1       8       1       1
       8       1       1       8       1       1       8       1       1       8
       1       1       8       1       1       8       1       1       8       1
       1       8       1       1       8       1       1       8       1       1
       8       1       1       8       1       1       8       1       1       8
       1       1       8       1       1       8       1       1       8       1
       1       8       1       1       8       1       1       8       1       1
       8       1       1       8       1       1       8       1       1       8
       1       1       8       1       1       8       1       1       8       1
       1       8       1       1       8       1       1       8       1       1
       8       1       1       8       1       1       8       1       1       8
       1       1       8       1       1       8       1       1       8       1
       1       8       1       1       8       1       1       8       1       1
       8       1       1       8       1       1       8       1       1       8
       1       1       8       1       1       8       1       1       8       1
       1       8       1       1       8       1       1       8       1       1
       8       1       1       8       1       1       8       1       1       8
       1       1       8       1       1       8       1       1       8       1
       1       8       1       1       8       1       1       8       1       1
       8       1       1       8       1       1       8       1       1       8
       1       1       8       1       1       8       1       1       8       1
       1       8       1       1       8       1       1       8       1       1
       8       1       1       8       1       1       8       1       1       8
       1       1       8       1       1       8       1       1       8       1
       1       8       1       1       8       1       1       8       1       1
       8       1       1       8       1       1       8       1       1       8
       1       1       8       1       1       8       1       1       8       1
       1       8       1       1       8       1       1       8       1       1
       8       1       1       8       1       1       8       1       1       8
       1       1       8       1       1       8       1       1       8       1
       1       8       1       1       8       1       1       8       1       1
       8       1       1       8       1       1       8       1       1       8
       1       1       8       1       1       8       1       1       8       1
       1       8       1       1       8       1       1       8       1       1
       8       1       1       8       1       1       8       1       1       8
       1       1       8       1       1       8       1       1       8       1
       1       8       1       1       8       1       1       8       1       1
       8       1       1       8       1       1       8       1       1       8
       1       1       8       1       1       8       1       1       8       1
       1       8       1       1       8       1       1       8       1       1
       8       1       1       8       1       1       8       1       1       8
       1       1       8       1       1       8       1       1       8       1
       1       8       1       1       8       1       1       8       1       1
       8       1       1       8       1       1       8       1       1       8
       1       1       8       1       1       8       1       1       8       1
       1       8       1       1       8       1       1       8       1       1
       8       1       1       8       1       1       8       1       1       8
       1       1       8       1       1       8       1       1       8       1
       1       8       1       1       8       1       1       8       1       1
       8       1       1       8       1       1       8       1       1       8
       1       1       8       1       1       8       1       1       8       1
       1       8       1       1       8       1       1       8       1       1
       8       1       1       8       1       1       8       1       1       8
       1       1       8       1       1       8       1       1       8       1
       1       8       1       1       8       1       1       8       1       1
       8       1       1       8       1       1       8       1       1       8
       1       1       8       1       1       8       1       1       8       1
       1       8       1       1       8       1       1       8       1       1
       8       1       1       8       1       1       8       1       1       8
       1       1       8       1       1       8       1       1       8       1
       1       8       1       1       8       1       1       8       1       1
       8       1       1       8       1       1       8       1       1       8
       1       1       8       1       1       8       1       1       8       1
       1       8       1       1       8       1       1       8       1       1
       8       1       1       8       1       1       8       1       1       8
       1       1       8       1       1       8       1       1       8       1
       1       8       1       1       8       1       1       8       1       1
       8       1       1       8       1       1       8       1       1       8
       1       1       8       1       1       8       1       1       8       1
       1       8       1       1       8       1       1       8       1       1
       8       1       1       8       1       1       8       1       1       8
       1       1       8       1       1       8       1       1       8       1
       1       8       1       1       8       1       1       8       1       1
       8       1       1       8       1       1       8       1       1       8
       1       1       8       1       1       8       1       1       8       1
       1       8       1       1       8       1       1       8       1       1
       8       1       1       8       1       1       8       1       1       8
       1       1       8       1       1       8       1       1       8       1
       1       8       1       1       8       1       1       8       1       1
       8       1       1       8       1       1       8       1       1       8
       1       1       8       1       1       8       1       1       8       1
       1       8       1       1       8       1       1       8       1       1
       8       1       1       8       1       1       8       1       1       8
       1       1       8       1       1       8       1       1       8       1
       1       8       1       1       8       1       1       8       1       1
       8       1       1       8       1       1       8       1       1       8
       1       1       8       1       1       8       1       1       8       1
       1       8       1       1       8       1       1       8       1       1
       8       1       1       8       1       1       8       1       1       8
       1       1       8       1       1       8       1       1       8       1
       1       8       1       1       8       1       1       8       1       1
       8       1       1       8       1       1       8       1       1       8
       1       1       8       1       1       8       1       1       8       1
       1       8       1       1       8       1       1       8       1       1
       8       1       1       8       1       1       8       1       1       8
       1       1       8       1       1       8       1       1       8       1
       1       8       1       1       8       1       1       8       1       1
       8       1       1       8       1       1       8       1       1       8
       1       1       8       1       1       8       1       1       8       1
       1       8       1       1       8       1       1       8       1       1
       8       1       1       8       1       1       8       1       1       8
       1       1       8       1       1       8       1       1       8       1
       1       8       1       1       8       1       1       8       1       1
       8       1       1       8       1       1       8       1       1       8
       1       1       8       1       1       8       1       1       8       1
       1       8       1       1       8       1       1       8       1       1
       8       1       1       8       1       1       8       1       1       8
       1       1       8       1       1       8       1       1       8       1
       1       8       1       1       8       1       1       8       1       1
       8       1       1       8       1       1       8       1       1       8
       1       1       8       1       1       8       1       1       8       1
       1       8       1       1       8       1       1       8       1       1
       8       1       1       8       1       1       8       1       1       8
       1       1       8       1       1       8       1       1       8       1
       1       8       1       1       8       1       1       8       1       1
       8       1       1       8       1       1       8       1       1       8
       1       1       8       1       1       8       1       1       8       1
       1       8       1       1       8       1       1       8       1       1
       8       1       1       8       1       1       8       1       1       8
       1       1       8       1       1       8       1       1       8       1
       1       8       1       1       8       1       1       8       1       1
       8       1       1       8       1       1       8       1       1       8
       1       1       8       1       1       8       1       1       8       1
       1       8       1       1       8       1       1       8       1       1
       8       1       1       8       1       1       8       1       1       8
       1       1       8       1       1       8       1       1       8       1
       1       8       1       1       8       1       1       8       1       1
       8       1       1       8       1       1       8       1       1       8
       1       1       8       1       1       8       1       1       8       1
       1       8       1       1       8       1       1       8       1       1
       8       1       1       8       1       1       8       1       1       8
       1       1       8       1       1       8       1       1       8       1
       1       8       1       1       8       1       1       8       1       1
       8       1       1       8       1       1       8       1       1       8
       1       1       8       1       1       8       1       1       8       1
       1       8       1       1       8       1       1       8       1       1
       8       1       1       8       1       1       8       1       1       8
       1       1       8       1       1       8       1       1       8       1
       1       8       1       1       8       1       1       8       1       1
       8       1       1       8       1       1       8       1       1       8
       1       1       8       1       1       8       1       1       8       1
       1       8       1       1       8       1       1       8       1       1
       8       1       1       8       1       1       8       1       1       8
       1       1       8       1       1       8       1       1       8       1
       1       8       1       1       8       1       1       8       1       1
       8       1       1       8       1       1       8       1       1       8
       1       1       8       1       1       8       1       1       8       1
       1       8       1       1       8       1       1       8       1       1
       8       1       1       8       1       1       8       1       1       8
       1       1       8       1       1       8       1       1       8       1
       1       8       1       1       8       1       1       8       1       1
       8       1       1       8       1       1       8       1       1       8
       1       1       8       1       1       8       1       1       8       1
       1       8       1       1       8       1       1       8       1       1
       8       1       1       8       1       1       8       1       1       8
       1       1       8       1       1       8       1       1       8       1
       1       8       1       1       8       1       1       8       1       1
       8       1       1       8       1       1       8       1       1       8
       1       1       8       1       1       8       1       1       8       1
       1       8       1       1       8       1       1       8       1       1
       8       1       1       8       1       1       8       1       1       8
       1       1       8       1       1       8       1       1       8       1
       1       8       1       1       8       1       1       8       1       1
       8       1       1       8       1       1       8       1       1       8
       1       1       8       1       1       8       1       1       8       1
       1       8       1       1       8       1       1       8       1       1
       8       1       1       8       1       1       8       1       1       8
       1       1       8       1       1       8       1       1       8       1
       1       8       1       1       8       1       1       8       1       1
       8       1       1       8       1       1       8       1       1       8
       1       1       8       1       1       8       1       1       8       1
       1       8       1       1       8       1       1       8       1       1
       8       1       1       8       1       1       8       1       1       8
       1       1       8       1       1       8       1       1       8       1
       1       8       1       1       8       1       1       8       1       1
       8       1       1       8       1       1       8       1       1       8
       1       1       8       1       1       8       1       1       8       1
       1       8       1       1       8       1       1       8       1       1
       8       1       1       8       1       1       8       1       1       8
       1       1       8       1       1       8       1       1       8       1
       1       8       1       1       8       1       1       8       1       1
       8       1       1       8       1       1       8       1       1       8
       1       1       8       1       1       8       1       1       8       1
       1       8       1       1       8       1       1       8       1       1
       8       1       1       8       1       1       8       1       1       8
       1       1       8       1       1       8       1       1       8       1
       1       8       1       1       8       1       1       8       1       1
       8       1       1       8       1       1       8       1       1       8
       1       1       8       1       1       8       1       1       8       1
       1       8       1       1       8       1       1       8       1       1
       8       1       1       8       1       1       8       1       1       8
       1       1       8       1       1       8       1       1       8       1
       1       8       1       1       8       1       1       8       1       1
       8       1       1       8       1       1       8       1       1       8
       1       1       8       1       1       8       1       1       8       1
       1       8       1       1       8       1       1       8       1       1
       8       1       1       8       1       1       8       1       1       8
       1       1       8       1       1       8       1       1       8       1
       1       8       1       1       8       1       1       8       1       1
       8       1       1       8       1       1       8       1       1       8
       1       1       8       1       1       8       1       1       8       1
       1       8       1       1       8       1       1       8       1       1
       8       1       1       8       1       1       8       1       1       8
       1       1       8       1       1       8       1       1       8       1
       1       8       1       1       8       1       1       8       1       1
       8       1       1       8       1       1       8       1       1       8
       1       1       8       1       1       8       1       1       8       1
       1       8       1       1       8       1       1       8       1       1
       8       1       1       8       1       1       8       1       1       8
       1       1       8       1       1       8       1       1       8       1
       1       8       1       1       8       1       1       8       1       1
       8       1       1       8       1       1       8       1       1       8
       1       1       8       1       1       8       1       1       8       1
       1       8       1       1       8       1       1       8       1       1
       8       1       1       8       1       1       8       1       1       8
       1       1       8       1       1       8       1       1       8       1
       1       8       1       1       8       1       1       8       1       1
       8       1       1       8       1       1       8       1       1       8
       1       1       8       1       1       8       1       1       8       1
       1       8       1       1       8       1       1       8       1       1
       8       1       1       8       1       1       8       1       1       8
       1       1       8       1       1       8       1       1       8       1
       1       8       1       1       8       1       1       8       1       1
       8       1       1       8       1       1       8       1       1       8
       1       1       8       1       1       8       1       1       8       1
       1       8       1       1       8       1       1       8       1       1
       8       1       1       8       1       1       8       1       1       8
       1       1       8       1       1       8       1       1       8       1
       1       8       1       1       8       1       1       8       1       1
       8       1       1       8       1       1       8       1       1       8
       1       1       8       1       1       8       1       1       8       1
       1       8       1       1       8       1       1       8       1       1
       8       1       1       8       1       1       8       1       1       8
       1       1       8       1       1       8       1       1       8       1
       1       8       1       1       8       1       1       8       1       1
       8       1       1       8       1       1       8       1       1       8
       1       1       8       1       1       8       1       1       8       1
       1       8       1       1       8       1       1       8       1       1
       8       1       1       8       1       1       8       1       1       8
       1       1       8       1       1       8       1       1       8       1
       1       8       1       1       8       1       1       8       1       1
       8       1       1       8       1       1       8       1       1       8
       1       1       8       1       1       8       1       1       8       1
       1       8       1       1       8       1       1       8       1       1
       8       1       1       8       1       1       8       1       1       8
       1       1       8       1       1       8       1       1       8       1
       1       8       1       1       8       1       1       8       1       1
       8       1       1       8       1       1       8       1       1       8
       1       1       8       1       1       8       1       1       8       1
       1       8       1       1       8       1       1       8       1       1
       8       1       1       8       1       1       8       1       1       8
       1       1       8       1       1       8       1       1       8       1
       1       8       1       1       8       1       1       8       1       1
       8       1       1       8       1       1       8       1       1       8
       1       1       8       1       1       8       1       1       8       1
       1       8       1       1       8       1       1       8       1       1
       8       1       1       8       1       1       8       1       1       8
       1       1       8       1       1       8       1       1       8       1
       1       8       1       1       8       1       1       8       1       1
       8       1       1       8       1       1       8       1       1       8
       1       1       8       1       1       8       1       1       8       1
       1       8       1       1       8       1       1       8       1       1
       8       1       1       8       1       1       8       1       1       8
       1       1       8       1       1       8       1       1       8       1
       1       8       1       1       8       1       1       8       1       1
       8       1       1       8       1       1       8       1       1       8
       1       1       8       1       1       8       1       1       8       1
       1       8       1       1       8       1       1       8       1       1
       8       1       1       8       1       1       8       1       1       8
       1       1       8       1       1       8       1       1       8       1
       1       8       1       1       8       1       1       8       1       1
       8       1       1       8       1       1       8       1       1       8
       1       1       8       1       1       8       1       1       8       1
       1       8       1       1       8       1       1       8       1       1
       8       1       1       8       1       1       8       1       1       8
       1       1       8       1       1       8       1       1       8       1
       1       8       1       1       8       1       1       8       1       1
       8       1       1       8       1       1       8       1       1       8
       1       1       8       1       1       8       1       1       8       1
       1       8       1       1       8       1       1       8       1       1
       8       1       1       8       1       1       8       1       1       8
       1       1       8       1       1       8       1       1       8       1
       1       8       1       1       8       1       1       8       1       1
       8       1       1       8       1       1       8       1       1       8
       1       1       8       1       1       8       1       1       8       1
       1       8       1       1       8       1       1       8       1       1
       8       1       1       8       1       1       8       1       1       8
       1       1       8       1       1       8       1       1       8       1
       1       8       1       1       8       1       1       8       1       1
       8       1       1       8       1       1       8       1       1       8
       1       1       8       1       1       8       1       1       8       1
       1       8       1       1       8       1       1       8       1       1
       8       1       1       8       1       1       8       1       1       8
       1       1       8       1       1       8       1       1       8       1
       1       8       1       1       8       1       1       8       1       1
       8       1       1       8       1       1       8       1       1       8
       1       1       8       1       1       8       1       1       8       1
       1       8       1       1       8       1       1       8       1       1
       8       1       1       8       1       1       8       1       1       8
       1       1       8       1       1       8       1       1       8       1
       1       8       1       1       8       1       1       8       1       1
       8       1       1       8       1       1       8       1       1       8
       1       1       8       1       1       8       1       1       8       1
       1       8       1       1       8       1       1       8       1       1
       8       1       1       8       1       1       8       1       1       8
       1       1       8       1       1       8       1       1       8       1
       1       8       1       1       8       1       1       8       1       1
       8       1       1       8       1       1       8       1       1       8
       1       1       8       1       1       8       1       1       8       1
       1       8       1       1       8       1       1       8       1       1
       8       1       1       8       1       1       8       1       1       8
       1       1       8       1       1       8       1       1       8       1
       1       8       1       1       8       1       1       8       1       1
       8       1       1       8       1       1       8       1       1       8
       1       1       8       1       1       8       1       1       8       1
       1       8       1       1       8       1       1       8       1       1
       8       1       1       8       1       1       8       1       1       8
       1       1       8       1       1       8       1       1       8       1
       1       8       1       1       8       1       1       8       1       1
       8       1       1       8       1       1       8       1       1       8
       1       1       8       1       1       8       1       1       8       1
       1       8       1       1       8       1       1       8       1       1
       8       1       1       8       1       1       8       1       1       8
       1       1       8       1       1       8       1       1       8       1
       1       8       1       1       8       1       1       8       1       1
       8       1       1       8       1       1       8       1       1       8
       1       1       8       1       1       8       1       1       8       1
       1       8       1       1       8       1       1       8       1       1
       8       1       1       8       1       1       8       1       1       8
       1       1       8       1       1       8       1       1       8       1
       1       8       1       1       8       1       1       8       1       1
       8       1       1       8       1       1       8       1       1       8
       1       1       8       1       1       8       1       1       8       1
       1       8       1       1       8       1       1       8       1       1
       8       1       1       8       1       1       8       1       1       8
       1       1       8       1       1       8       1       1       8       1
       1       8       1       1       8       1       1       8       1       1
       8       1       1       8       1       1       8       1       1       8
       1       1       8       1       1       8       1       1       8       1
       1       8       1       1       8       1       1       8       1       1
       8       1       1       8       1       1       8       1       1       8
       1       1       8       1       1       8       1       1       8       1
       1       8       1       1       8       1       1       8       1       1
       8       1       1       8       1       1       8       1       1       8
       1       1       8       1       1       8       1       1       8       1
       1       8       1       1       8       1       1       8       1       1
       8       1       1       8       1       1       8       1       1       8
       1       1       8       1       1       8       1       1       8       1
       1       8       1       1       8       1       1       8       1       1
       8       1       1       8       1       1       8       1       1       8
       1       1       8       1       1       8       1       1       8       1
       1       8       1       1       8       1       1       8       1       1
       8       1       1       8       1       1       8       1       1       8
       1       1       8       1       1       8       1       1       8       1
       1       8       1       1       8       1       1       8       1       1
       8       1       1       8       1       1       8       1       1       8
       1       1       8       1       1       8       1       1       8       1
       1       8       1       1       8       1       1       8       1       1
       8       1       1       8       1       1       8       1       1       8
       1       1       8       1       1       8       1       1       8       1
       1       8       1       1       8       1       1       8       1       1
       8       1       1       8       1       1       8       1       1       8
       1       1       8       1       1       8       1       1       8       1
       1       8       1       1       8       1       1       8       1       1
       8       1       1       8       1       1       8       1       1       8
       1       1       8       1       1       8       1       1       8       1
       1       8       1       1       8       1       1       8       1       1
       8       1       1       8       1       1       8       1       1       8
       1       1       8       1       1       8       1       1       8       1
       1       8       1       1       8       1       1       8       1       1
       8       1       1       8       1       1       8       1       1       8
       1       1       8       1       1       8       1       1       8       1
       1       8       1       1       8       1       1       8       1       1
       8       1       1       8       1       1       8       1       1       8
       1       1       8       1       1       8       1       1       8       1
       1       8       1       1       8       1       1       8       1       1
       8       1       1       8       1       1       8       1       1       8
       1       1       8       1       1       8       1       1       8       1
       1       8       1       1       8       1       1       8       1       1
       8       1       1       8       1       1       8       1       1       8
       1       1       8       1       1       8       1       1       8       1
       1       8       1       1       8       1       1       8       1       1
       8       1       1       8       1       1       8       1       1       8
       1       1       8       1       1       8       1       1       8       1
       1       8       1       1       8       1       1       8       1       1
       8       1       1       8       1       1       8       1       1       8
       1       1       8       1       1       8       1       1       8       1
       1       8       1       1       8       1       1       8       1       1
       8       1       1       8       1       1       8       1       1       8
       1       1       8       1       1       8       1       1       8       1
       1       8       1       1       8       1       1       8       1       1
       8       1       1       8       1       1       8       1       1       8
       1       1       8       1       1       8       1       1       8       1
       1       8       1       1       8       1       1       8       1       1
       8       1       1       8       1       1       8       1       1       8
       1       1       8       1       1       8       1       1       8       1
       1       8       1       1       8       1       1       8       1       1
       8       1       1       8       1       1       8       1       1       8
       1       1       8       1       1       8       1       1       8       1
       1       8       1       1       8       1       1       8       1       1
       8       1       1       8       1       1       8       1       1       8
       1       1       8       1       1       8       1       1       8       1
       1       8       1       1       8       1       1       8       1       1
       8       1       1       8       1       1       8       1       1       8
       1       1       8       1       1       8       1       1       8       1
       1       8       1       1       8       1       1       8       1       1
       8       1       1       8       1       1       8       1       1       8
       1       1       8       1       1       8       1       1       8       1
       1       8       1       1       8       1       1       8       1       1
       8       1       1       8       1       1       8       1       1       8
       1       1       8       1       1       8       1       1       8       1
       1       8       1       1       8       1       1       8       1       1
       8       1       1       8       1       1       8       1       1       8
       1       1       8       1       1       8       1       1       8       1
       1       8       1       1       8       1       1       8       1       1
       8       1       1       8       1       1       8       1       1       8
       1       1       8       1       1       8       1       1       8       1
       1       8       1       1       8       1       1       8       1       1
       8       1       1       8       1       1       8       1       1       8
       1       1       8       1       1       8       1       1       8       1
       1       8       1       1       8       1       1       8       1       1
       8       1       1       8       1       1       8       1       1       8
       1       1       8       1       1       8       1       1       8       1
       1       8       1       1       8       1       1       8       1       1
       8       1       1       8       1       1       8       1       1       8
       1       1       8       1       1       8       1       1       8       1
       1       8       1       1       8       1       1       8       1       1
       8       1       1       8       1       1       8       1       1       8
       1       1       8       1       1       8       1       1       8       1
       1       8       1       1       8       1       1       8       1       1
       8       1       1       8       1       1       8       1       1       8
       1       1       8       1       1       8       1       1       8       1
       1       8       1       1       8       1       1       8       1       1
       8       1       1       8       1       1       8       1       1       8
       1       1       8       1       1       8       1       1       8       1
       1       8       1       1       8       1       1       8       1       1
       8       1       1       8       1       1       8       1       1       8
       1       1       8       1       1       8       1       1       8       1
       1       8       1       1       8       1       1       8       1       1
       8       1       1       8       1       1       8       1       1       8
       1       1       8       1       1       8       1       1       8       1
       1       8       1       1       8       1       1       8       1       1
       8       1       1       8       1       1       8       1       1       8
       1       1       8       1       1       8       1       1       8       1
       1       8       1       1       8       1       1       8       1       1
       8       1       1       8       1       1       8       1       1       8
       1       1       8       1       1       8       1       1       8       1
       1       8       1       1       8       1       1       8       1       1
       8       1       1       8       1       1       8       1       1       8
       1       1       8       1       1       8       1       1       8       1
       1       8       1       1       8       1       1       8       1       1
       8       1       1       8       1       1       8       1       1       8
       1       1       8       1       1       8       1       1       8       1
       1       8       1       1       8       1       1       8       1       1
       8       1       1       8       1       1       8       1       1       8
       1       1       8       1       1       8       1       1       8       1
       1       8       1       1       8       1       1       8       1       1
       8       1       1       8       1       1       8       1       1       8
       1       1       8       1       1       8       1       1       8       1
       1       8       1       1       8       1       1       8       1       1
       8       1       1       8       1       1       8       1       1       8
       1       1       8       1       1       8       1       1       8       1
       1       8       1       1       8       1       1       8       1       1
       8       1       1       8       1       1       8       1       1       8
       1       1       8       1       1       8       1       1       8       1
       1       8       1       1       8       1       1       8       1       1
       8       1       1       8       1       1       8       1       1       8
       1       1       8       1       1       8       1       1       8       1
       1       8       1       1       8       1       1       8       1       1
       8       1       1       8       1       1       8       1       1       8
       1       1       8       1       1       8       1       1       8       1
       1       8       1       1       8       1       1       8       1       1
       8       1       1       8       1       1       8       1       1       8
       1       1       8       1       1       8       1       1       8       1
       1       8       1       1       8       1       1       8       1       1
       8       1       1       8       1       1       8       1       1       8
       1       1       8       1       1       8       1       1       8       1
       1       8       1       1       8       1       1       8       1       1
       8       1       1       8       1       1       8       1       1       8
       1       1       8       1       1       8       1       1       8       1
       1       8       1       1       8       1       1       8       1       1
       8       1       1       8       1       1       8       1       1       8
       1       1       8       1       1       8       1       1       8       1
       1       8       1       1       8       1       1       8       1       1
       8       1       1       8       1       1       8       1       1       8
       1       1       8       1       1       8       1       1       8       1
       1       8       1       1       8       1       1       8       1       1
       8       1       1       8       1       1       8       1       1       8
       1       1       8       1       1       8       1       1       8       1
       1       8       1       1       8       1       1       8       1       1
       8       1       1       8       1       1       8       1       1       8
       1       1       8       1       1       8       1       1       8       1
       1       8       1       1       8       1       1       8       1       1
       8       1       1       8       1       1       8       1       1       8
       1       1       8       1       1       8       1       1       8       1
       1       8       1       1       8       1       1       8       1       1
       8       1       1       8       1       1       8       1       1       8
       1       1       8       1       1       8       1       1       8       1
       1       8       1       1       8       1       1       8       1       1
       8       1       1       8       1       1       8       1       1       8
       1       1       8       1       1       8       1       1       8       1
       1       8       1       1       8       1       1       8       1       1
       8       1       1       8       1       1       8       1       1       8
       1       1       8       1       1       8       1       1       8       1
       1       8       1       1       8       1       1       8       1       1
       8       1       1       8       1       1       8       1       1       8
       1       1       8       1       1       8       1       1       8       1
       1       8       1       1       8       1       1       8       1       1
       8       1       1       8       1       1       8       1       1       8
       1       1       8       1       1       8       1       1       8       1
       1       8       1       1       8       1       1       8       1       1
       8       1       1       8       1       1       8       1       1       8
       1       1       8       1       1       8       1       1       8       1
       1       8       1       1       8       1       1       8       1       1
       8       1       1       8       1       1       8       1       1       8
       1       1       8       1       1       8       1       1       8       1
       1       8       1       1       8       1       1       8       1       1
       8       1       1       8       1       1       8       1       1       8
       1       1       8       1       1       8       1       1       8       1
       1       8       1       1       8       1       1       8       1       1
       8       1       1       8       1       1       8       1       1       8
       1       1       8       1       1       8       1       1       8       1
       1       8       1       1       8       1       1       8       1       1
       8       1       1       8       1       1       8       1       1       8
       1       1       8       1       1       8       1       1       8       1
       1       8       1       1       8       1       1       8       1       1
       8       1       1       8       1       1       8       1       1       8
       1       1       8       1       1       8       1       1       8       1
       1       8       1       1       8       1       1       8       1       1
       8       1       1       8       1       1       8       1       1       8
       1       1       8       1       1       8       1       1       8       1
       1       8       1       1       8       1       1       8       1       1
       8       1       1       8       1       1       8       1       1       8
       1       1       8       1       1       8       1       1       8       1
       1       8       1       1       8       1       1       8       1       1
       8       1       1       8       1       1       8       1       1       8
       1       1       8       1       1       8       1       1       8       1
       1       8       1       1       8       1       1       8       1       1
       8       1       1       8       1       1       8       1       1       8
       1       1       8       1       1       8       1       1       8       1
       1       8       1       1       8       1       1       8       1       1
       8       1       1       8       1       1       8       1       1       8
       1       1       8       1       1       8       1       1       8       1
       1       8       1       1       8       1       1       8       1       1
       8       1       1       8       1       1       8       1       1       8
       1       1       8       1       1       8       1       1       8       1
       1       8       1       1       8       1       1       8       1       1
       8       1       1       8       1       1       8       1       1       8
       1       1       8       1       1       8       1       1       8       1
       1       8       1       1       8       1       1       8       1       1
       8       1       1       8       1       1       8       1       1       8
       1       1       8       1       1       8       1       1       8       1
       1       8       1       1       8       1       1       8       1       1
       8       1       1       8       1       1       8       1       1       8
       1       1       8       1       1       8       1       1       8       1
       1       8       1       1       8       1       1       8       1       1
       8       1       1       8       1       1       8       1       1       8
       1       1       8       1       1       8       1       1       8       1
       1       8       1       1       8       1       1       8       1       1
       8       1       1       8       1       1       8       1       1       8
       1       1       8       1       1       8       1       1       8       1
       1       8       1       1       8       1       1       8       1       1
       8       1       1       8       1       1       8       1       1       8
       1       1       8       1       1       8       1       1       8       1
       1       8       1       1       8       1       1       8       1       1
       8       1       1       8       1       1       8       1       1       8
       1       1       8       1       1       8       1       1       8       1
       1       8       1       1       8       1       1       8       1       1
       8       1       1       8       1       1       8       1       1       8
       1       1       8       1       1       8       1       1       8       1
       1       8       1       1       8       1       1       8       1       1
       8       1       1       8       1       1       8       1       1       8
       1       1       8       1       1       8       1       1       8       1
       1       8       1       1       8       1       1       8       1       1
       8       1       1       8       1       1       8       1       1       8
       1       1       8       1       1       8       1       1       8       1
       1       8       1       1       8       1       1       8       1       1
       8       1       1       8       1       1       8       1       1       8
       1       1       8       1       1       8       1       1       8       1
       1       8       1       1       8       1       1       8       1       1
       8       1       1       8       1       1       8       1       1       8
       1       1       8       1       1       8       1       1       8       1
       1       8       1       1       8       1       1       8       1       1
       8       1       1       8       1       1       8       1       1       8
       1       1       8       1       1       8       1       1       8       1
       1       8       1       1       8       1       1       8       1       1
       8       1       1       8       1       1       8       1       1       8
       1       1       8       1       1       8       1       1       8       1
       1       8       1       1       8       1       1       8       1       1
       8       1       1       8       1       1       8       1       1       8
       1       1       8       1       1       8       1       1       8       1
       1       8       1       1       8       1       1       8       1       1
       8       1       1       8       1       1       8       1       1       8
       1       1       8       1       1       8       1       1       8       1
       1       8       1       1       8       1       1       8       1       1
       8       1       1       8       1       1       8       1       1       8
       1       1       8       1       1       8       1       1       8       1
       1       8       1       1       8       1       1       8       1       1
       8       1       1       8       1       1       8       1       1       8
       1       1       8       1       1       8       1       1       8       1
       1       8       1       1       8       1       1       8       1       1
       8       1       1       8       1       1       8       1       1       8
       1       1       8       1       1       8       1       1       8       1
       1       8       1       1       8       1       1       8       1       1
       8       1       1       8       1       1       8       1       1       8
       1       1       8       1       1       8       1       1       8       1
       1       8       1       1       8       1       1       8       1       1
       8       1       1       8       1       1       8       1       1       8
       1       1       8       1       1       8       1       1       8       1
       1       8       1       1       8       1       1       8       1       1
       8       1       1       8       1       1       8       1       1       8
       1       1       8       1       1       8       1       1       8       1
       1       8       1       1       8       1       1       8       1       1
       8       1       1       8       1       1       8       1       1       8
       1       1       8       1       1       8       1       1       8       1
       1       8       1       1       8       1       1       8       1       1
       8       1       1       8       1       1       8       1       1       8
       1       1       8       1       1       8       1       1       8       1
       1       8       1       1       8       1       1       8       1       1
       8       1       1       8       1       1       8       1       1       8
       1       1       8       1       1       8       1       1       8       1
       1       8       1       1       8       1       1       8       1       1
       8       1       1       8       1       1       8       1       1       8
       1       1       8       1       1       8       1       1       8       1
       1       8       1       1       8       1       1       8       1       1
       8       1       1       8       1       1       8       1       1       8
       1       1       8       1       1       8       1       1       8       1
       1       8       1       1       8       1       1       8       1       1
       8       1       1       8       1       1       8       1       1       8
       1       1       8       1       1       8       1       1       8       1
       1       8       1       1       8       1       1       8       1       1
       8       1       1       8       1       1       8       1       1       8
       1       1       8       1       1       8       1       1       8       1
       1       8       1       1       8       1       1       8       1       1
       8       1       1       8       1       1       8       1       1       8
       1       1       8       1       1       8       1       1       8       1
       1       8       1       1       8       1       1       8       1       1
       8       1       1       8       1       1       8       1       1       8
       1       1       8       1       1       8       1       1       8       1
       1       8       1       1       8       1       1       8       1       1
       8       1       1       8       1       1       8       1       1       8
       1       1       8       1       1       8       1       1       8       1
       1       8       1       1       8       1       1       8       1       1
       8       1       1       8       1       1       8       1       1       8
       1       1       8       1       1       8       1       1       8       1
       1       8       1       1       8       1       1       8       1       1
       8       1       1       8       1       1       8       1       1       8
       1       1       8       1       1       8       1       1       8       1
       1       8       1       1       8       1       1       8       1       1
       8       1       1       8       1       1       8       1       1       8
       1       1       8       1       1       8       1       1       8       1
       1       8       1       1       8       1       1       8       1       1
       8       1       1       8       1       1       8       1       1       8
       1       1       8       1       1       8       1       1       8       1
       1       8       1       1       8       1       1       8       1       1
       8       1       1       8       1       1       8       1       1       8
       1       1       8       1       1       8       1       1       8       1
       1       8       1       1       8       1       1       8       1       1
       8       1       1       8       1       1       8       1       1       8
       1       1       8       1       1       8       1       1       8       1
       1       8       1       1       8       1       1       8       1       1
       8       1       1       8       1       1       8       1       1       8
       1       1       8       1       1       8       1       1       8       1
       1       8       1       1       8       1       1       8       1       1
       8       1       1       8       1       1       8       1       1       8
       1       1       8       1       1       8       1       1       8       1
       1       8       1       1       8       1       1       8       1       1
       8       1       1       8       1       1       8       1       1       8
       1       1       8       1       1       8       1       1       8       1
       1       8       1       1       8       1       1       8       1       1
       8       1       1       8       1       1       8       1       1       8
       1       1       8       1       1       8       1       1       8       1
       1       8       1       1       8       1       1       8       1       1
       8       1       1       8       1       1       8       1       1       8
       1       1       8       1       1       8       1       1       8       1
       1       8       1       1       8       1       1       8       1       1
       8       1       1       8       1       1       8       1       1       8
       1       1       8       1       1       8       1       1       8       1
       1       8       1       1       8       1       1       8       1       1
       8       1       1       8       1       1       8       1       1       8
       1       1       8       1       1       8       1       1       8       1
       1       8       1       1       8       1       1       8       1       1
       8       1       1       8       1       1       8       1       1       8
       1       1       8       1       1       8       1       1       8       1
       1       8       1       1       8       1       1       8       1       1
       8       1       1       8       1       1       8       1       1       8
       1       1       8       1       1       8       1       1       8       1
       1       8       1       1       8       1       1       8       1       1
       8       1       1       8       1       1       8       1       1       8
       1       1       8       1       1       8       1       1       8       1
       1       8       1       1       8       1       1       8       1       1
       8       1       1       8       1       1       8       1       1       8
       1       1       8       1       1       8       1       1       8       1
       1       8       1       1       8       1       1       8       1       1
       8       1       1       8       1       1       8       1       1       8
       1       1       8       1       1       8       1       1       8       1
       1       8       1       1       8       1       1       8       1       1
       8       1       1       8       1       1       8       1       1       8
       1       1       8       1       1       8       1       1       8       1
       1       8       1       1       8       1       1       8       1       1
       8       1       1       8       1       1       8       1       1       8
       1       1       8       1       1       8       1       1       8       1
       1       8       1       1       8       1       1       8       1       1
       8       1       1       8       1       1       8       1       1       8
       1       1       8       1       1       8       1       1       8       1
       1       8       1       1       8       1       1       8       1       1
       8       1       1       8       1       1       8       1       1       8
       1       1       8       1       1       8       1       1       8       1
       1       8       1       1       8       1       1       8       1       1
       8       1       1       8       1       1       8       1       1       8
       1       1       8       1       1       8       1       1       8       1
       1       8       1       1       8       1       1       8       1       1
       8       1       1       8       1       1       8       1       1       8
       1       1       8       1       1       8       1       1       8       1
       1       8       1       1       8       1       1       8       1       1
       8       1       1       8       1       1       8       1       1       8
       1       1       8       1       1       8       1       1       8       1
       1       8       1       1       8       1       1       8       1       1
       8       1       1       8       1       1       8       1       1       8
       1       1       8       1       1       8       1       1       8       1
       1       8       1       1       8       1       1       8       1       1
       8       1       1       8       1       1       8       1       1       8
       1       1       8       1       1       8       1       1       8       1
       1       8       1       1       8       1       1       8       1       1
       8       1       1       8       1       1       8       1       1       8
       1       1       8       1       1       8       1       1       8       1
       1       8       1       1       8       1       1       8       1       1
       8       1       1       8       1       1       8       1       1       8
       1       1       8       1       1       8       1       1       8       1
       1       8       1       1       8       1       1       8       1       1
       8       1       1       8       1       1       8       1       1       8
       1       1       8       1       1       8       1       1       8       1
       1       8       1       1       8       1       1       8       1       1
       8       1       1       8       1       1       8       1       1       8
       1       1       8       1       1       8       1       1       8       1
       1       8       1       1       8       1       1       8       1       1
       8       1       1       8       1       1       8       1       1       8
       1       1       8       1       1       8       1       1       8       1
       1       8       1       1       8       1       1       8       1       1
       8       1       1       8       1       1       8       1       1       8
       1       1       8       1       1       8       1       1       8       1
       1       8       1       1       8       1       1       8       1       1
       8       1       1       8       1       1       8       1       1       8
       1       1       8       1       1       8       1       1       8       1
       1       8       1       1       8       1       1       8       1       1
       8       1       1       8       1       1       8       1       1       8
       1       1       8       1       1       8       1       1       8       1
       1       8       1       1       8       1       1       8       1       1
       8       1       1       8       1       1       8       1       1       8
       1       1       8       1       1       8       1       1       8       1
       1       8       1       1       8       1       1       8       1       1
       8       1       1       8       1       1       8       1       1       8
       1       1       8       1       1       8       1       1       8       1
       1       8       1       1       8       1       1       8       1       1
       8       1       1       8       1       1       8       1       1       8
       1       1       8       1       1       8       1       1       8       1
       1       8       1       1       8       1       1       8       1       1
       8       1       1       8       1       1       8       1       1       8
       1       1       8       1       1       8       1       1       8       1
       1       8       1       1       8       1       1       8       1       1
       8       1       1       8       1       1       8       1       1       8
       1       1       8       1       1       8       1       1       8       1
       1       8       1       1       8       1       1       8       1       1
       8       1       1       8       1       1       8       1       1       8
       1       1       8       1       1       8       1       1       8       1
       1       8       1       1       8       1       1       8       1       1
       8       1       1       8       1       1       8       1       1       8
       1       1       8       1       1       8       1       1       8       1
       1       8       1       1       8       1       1       8       1       1
       8       1       1       8       1       1       8       1       1       8
       1       1       8       1       1       8       1       1       8       1
       1       8       1       1       8       1       1       8       1       1
       8       1       1       8       1       1       8       1       1       8
       1       1       8       1       1       8       1       1       8       1
       1       8       1       1       8       1       1       8       1       1
       8       1       1       8       1       1       8       1       1       8
       1       1       8       1       1       8       1       1       8       1
       1       8       1       1       8       1       1       8       1       1
       8       1       1       8       1       1       8       1       1       8
       1       1       8       1       1       8       1       1       8       1
       1       8       1       1       8       1       1       8       1       1
       8       1       1       8       1       1       8       1       1       8
       1       1       8       1       1       8       1       1       8       1
       1       8       1       1       8       1       1       8       1       1
       8       1       1       8       1       1       8       1       1       8
       1       1       8       1       1       8       1       1       8       1
       1       8       1       1       8       1       1       8       1       1
       8       1       1       8       1       1       8       1       1       8
       1       1       8       1       1       8       1       1       8       1
       1       8       1       1       8       1       1       8       1       1
       8       1       1       8       1       1       8       1       1       8
       1       1       8       1       1       8       1       1       8       1
       1       8       1       1       8       1       1       8       1       1
       8       1       1       8       1       1       8       1       1       8
       1       1       8       1       1       8       1       1       8       1
       1       8       1       1       8       1       1       8       1       1
       8       1       1       8       1       1       8       1       1       8
       1       1       8       1       1       8       1       1       8       1
       1       8       1       1       8       1       1       8       1       1
       8       1       1       8       1       1       8       1       1       8
       1       1       8       1       1       8       1       1       8       1
       1       8       1       1       8       1       1       8       1       1
       8       1       1       8       1       1       8       1       1       8
       1       1       8       1       1       8       1       1       8       1
       1       8       1       1       8       1       1       8       1       1
       8       1       1       8       1       1       8       1       1       8
       1       1       8       1       1       8       1       1       8       1
       1       8       1       1       8       1       1       8       1       1
       8       1       1       8       1       1       8       1       1       8
       1       1       8       1       1       8       1       1       8       1
       1       8       1       1       8       1       1       8       1       1
       8       1       1       8       1       1       8       1       1       8
       1       1       8       1       1       8       1       1       8       1
       1       8       1       1       8       1       1       8       1       1
       8       1       1       8       1       1       8       1       1       8
       1       1       8       1       1       8       1       1       8       1
       1       8       1       1       8       1       1       8       1       1
       8       1       1       8       1       1       8       1       1       8
       1       1       8       1       1       8       1       1       8       1
       1       8       1       1       8       1       1       8       1       1
       8       1       1       8       1       1       8       1       1       8
       1       1       8       1       1       8       1       1       8       1
       1       8       1       1       8       1       1       8       1       1
       8       1       1       8       1       1       8       1       1       8
       1       1       8       1       1       8       1       1       8       1
       1       8       1       1       8       1       1       8       1       1
       8       1       1       8       1       1       8       1       1       8
       1       1       8       1       1       8       1       1       8       1
       1       8       1       1       8       1       1       8       1       1
       8       1       1       8       1       1       8       1       1       8
       1       1       8       1       1       8       1       1       8       1
       1       8       1       1       8       1       1       8       1       1
       8       1       1       8       1       1       8       1       1       8
       1       1       8       1       1       8       1       1       8       1
       1       8       1       1       8       1       1       8       1       1
       8       1       1       8       1       1       8       1       1       8
       1       1       8       1       1       8       1       1       8       1
       1       8       1       1       8       1       1       8       1       1
       8       1       1       8       1       1       8       1       1       8
       1       1       8       1       1       8       1       1       8       1
       1       8       1       1       8       1       1       8       1       1
       8       1       1       8       1       1       8       1       1       8
       1       1       8       1       1       8       1       1       8       1
       1       8       1       1       8       1       1       8       1       1
       8       1       1       8       1       1       8       1       1       8
       1       1       8       1       1       8       1       1       8       1
       1       8       1       1       8       1       1       8       1       1
       8       1       1       8       1       1       8       1       1       8
       1       1       8       1       1       8       1       1       8       1
       1       8       1       1       8       1       1       8       1       1
       8       1       1       8       1       1       8       1       1       8
       1       1       8       1       1       8       1       1       8       1
       1       8       1       1       8       1       1       8       1       1
       8       1       1       8       1       1       8       1       1       8
       1       1       8       1       1       8       1       1       8       1
       1       8       1       1       8       1       1       8       1       1
       8       1       1       8       1       1       8       1       1       8
       1       1       8       1       1       8       1       1       8       1
       1       8       1       1       8       1       1       8       1       1
       8       1       1       8       1       1       8       1       1       8
       1       1       8       1       1       8       1       1       8       1
       1       8       1       1       8       1       1       8       1       1
       8       1       1       8       1       1       8       1       1       8
       1       1       8       1       1       8       1       1       8       1
       1       8       1       1       8       1       1       8       1       1
       8       1       1       8       1       1       8       1       1       8
       1       1       8       1       1       8       1       1       8       1
       1       8       1       1       8       1       1       8       1       1
       8       1       1       8       1       1       8       1       1       8
       1       1       8       1       1       8       1       1       8       1
       1       8       1       1       8       1       1       8       1       1
       8       1       1       8       1       1       8       1       1       8
       1       1       8       1       1       8       1       1       8       1
       1       8       1       1       8       1       1       8       1       1
       8       1       1       8       1       1       8       1       1       8
       1       1       8       1       1       8       1       1       8       1
       1       8       1       1       8       1       1       8       1       1
       8       1       1       8       1       1       8       1       1       8
       1       1       8       1       1       8       1       1       8       1
       1       8       1       1       8       1       1       8       1       1
       8       1       1       8       1       1       8       1       1       8
       1       1       8       1       1       8       1       1       8       1
       1       8       1       1       8       1       1       8       1       1
       8       1       1       8       1       1       8       1       1       8
       1       1       8       1       1       8       1       1       8       1
       1       8       1       1       8       1       1       8       1       1
       8       1       1       8       1       1       8       1       1       8
       1       1       8       1       1       8       1       1       8       1
       1       8       1       1       8       1       1       8       1       1
       8       1       1       8       1       1       8       1       1       8
       1       1       8       1       1       8       1       1       8       1
       1       8       1       1       8       1       1       8       1       1
       8       1       1       8       1       1       8       1       1       8
       1       1       8       1       1       8       1       1       8       1
       1       8       1       1       8       1       1       8       1       1
       8       1       1       8       1       1       8       1       1       8
       1       1       8       1       1       8       1       1       8       1
       1       8       1       1       8       1       1       8       1       1
       8       1       1       8       1       1       8       1       1       8
       1       1       8       1       1       8       1       1       8       1
       1       8       1       1       8       1       1       8       1       1
       8       1       1       8       1       1       8       1       1       8
       1       1       8       1       1       8       1       1       8       1
       1       8       1       1       8       1       1       8       1       1
       8       1       1       8       1       1       8       1       1       8
       1       1       8       1       1       8       1       1       8       1
       1       8       1       1       8       1       1       8       1       1
       8       1       1       8       1       1       8       1       1       8
       1       1       8       1       1       8       1       1       8       1
       1       8       1       1       8       1       1       8       1       1
       8       1       1       8       1       1       8       1       1       8
       1       1       8       1       1       8       1       1       8       1
       1       8       1       1       8       1       1       8       1       1
       8       1       1       8       1       1       8       1       1       8
       1       1       8       1       1       8       1       1       8       1
       1       8       1       1       8       1       1       8       1       1
       8       1       1       8       1       1       8       1       1       8
       1       1       8       1       1       8       1       1       8       1
       1       8       1       1       8       1       1       8       1       1
       8       1       1       8       1       1       8       1       1       8
       1       1       8       1       1       8       1       1       8       1
       1       8       1       1       8       1       1       8       1       1
       8       1       1       8       1       1       8       1       1       8
       1       1       8       1       1       8       1       1       8       1
       1       8       1       1       8       1       1       8       1       1
       8       1       1       8       1       1       8       1       1       8
       1       1       8       1       1       8       1       1       8       1
       1       8       1       1       8       1       1       8       1       1
       8       1       1       8       1       1       8       1       1       8
       1       1       8       1       1       8       1       1       8       1
       1       8       1       1       8       1       1       8       1       1
       8       1       1       8       1       1       8       1       1       8
       1       1       8       1       1       8       1       1       8       1
       1       8       1       1       8       1       1       8       1       1
       8       1       1       8       1       1       8       1       1       8
       1       1       8       1       1       8       1       1       8       1
       1       8       1       1       8       1       1       8       1       1
       8       1       1       8       1       1       8       1       1       8
       1       1       8       1       1       8       1       1       8       1
       1       8       1       1       8       1       1       8       1       1
       8       1       1       8       1       1       8       1       1       8
       1       1       8       1       1       8       1       1       8       1
       1       8       1       1       8       1       1       8       1       1
       8       1       1       8       1       1       8       1       1       8
       1       1       8       1       1       8       1       1       8       1
       1       8       1       1       8       1       1       8       1       1
       8       1       1       8       1       1       8       1       1       8
       1       1       8       1       1       8       1       1       8       1
       1       8       1       1       8       1       1       8       1       1
       8       1       1       8       1       1       8       1       1       8
       1       1       8       1       1       8       1       1       8       1
       1       8       1       1       8       1       1       8       1       1
       8       1       1       8       1       1       8       1       1       8
       1       1       8       1       1       8       1       1       8       1
       1       8       1       1       8       1       1       8       1       1
       8       1       1       8       1       1       8       1       1       8
       1       1       8       1       1       8       1       1       8       1
       1       8       1       1       8       1       1       8       1       1
       8       1       1       8       1       1       8       1       1       8
       1       1       8       1       1       8       1       1       8       1
       1       8       1       1       8       1       1       8       1       1
       8       1       1       8       1       1       8       1       1       8
       1       1       8       1       1       8       1       1       8       1
       1       8       1       1       8       1       1       8       1       1
       8       1       1       8       1       1       8       1       1       8
       1       1       8       1       1       8       1       1       8       1
       1       8       1       1       8       1       1       8       1       1
       8       1       1       8       1       1       8       1       1       8
       1       1       8       1       1       8       1       1       8       1
       1       8       1       1       8       1       1       8       1       1
       8       1       1       8       1       1       8       1       1       8
       1       1       8       1       1       8       1       1       8       1
       1       8       1       1       8       1       1       8       1       1
       8       1       1       8       1       1       8       1       1       8
       1       1       8       1       1       8       1       1       8       1
       1       8       1       1       8       1       1       8       1       1
       8       1       1       8       1       1       8       1       1       8
       1       1       8       1       1       8       1       1       8       1
       1       8       1       1       8       1       1       8       1       1
       8       1       1       8       1       1       8       1       1       8
       1       1       8       1       1       8       1       1       8       1
       1       8       1       1       8       1       1       8       1       1
       8       1       1       8       1       1       8       1       1       8
       1       1       8       1       1       8       1       1       8       1
       1       8       1       1       8       1       1       8       1       1
       8       1       1       8       1       1       8       1       1       8
       1       1       8       1       1       8       1       1       8       1
       1       8       1       1       8       1       1       8       1       1
       8       1       1       8       1       1       8       1       1       8
       1       1       8       1       1       8       1       1       8       1
       1       8       1       1       8       1       1       8       1       1
       8       1       1       8       1       1       8       1       1       8
       1       1       8       1       1       8       1       1       8       1
       1       8       1       1       8       1       1       8       1       1
       8       1       1       8       1       1       8       1       1       8
       1       1       8       1       1       8       1       1       8       1
       1       8       1       1       8       1       1       8       1       1
       8       1       1       8       1       1       8       1       1       8
       1       1       8       1       1       8       1       1       8       1
       1       8       1       1       8       1       1       8       1       1
       8       1       1       8       1       1       8       1       1       8
       1       1       8       1       1       8       1       1       8       1
       1       8       1       1       8       1       1       8       1       1
       8       1       1       8       1       1       8       1       1       8
       1       1       8       1       1       8       1       1       8       1
       1       8       1       1       8       1       1       8       1       1
       8       1       1       8       1       1       8       1       1       8
       1       1       8       1       1       8       1       1       8       1
       1       8       1       1       8       1       1       8       1       1
       8       1       1       8       1       1       8       1       1       8
       1       1       8       1       1       8       1       1       8       1
       1       8       1       1       8       1       1       8       1       1
       8       1       1       8       1       1       8       1       1       8
       1       1       8       1       1       8       1       1       8       1
       1       8       1       1       8       1       1       8       1       1
       8       1       1       8       1       1       8       1       1       8
       1       1       8       1       1       8       1       1       8       1
       1       8       1       1       8       1       1       8       1       1
       8       1       1       8       1       1       8       1       1       8
       1       1       8       1       1       8       1       1       8       1
       1       8       1       1       8       1       1       8       1       1
       8       1       1       8       1       1       8       1       1       8
       1       1       8       1       1       8       1       1       8       1
       1       8       1       1       8       1       1       8       1       1
       8       1       1       8       1       1       8       1       1       8
       1       1       8       1       1       8       1       1       8       1
       1       8       1       1       8       1       1       8       1       1
       8       1       1       8       1       1       8       1       1       8
       1       1       8       1       1       8       1       1       8       1
       1       8       1       1       8       1       1       8       1       1
       8       1       1       8       1       1       8       1       1       8
       1       1       8       1       1       8       1       1       8       1
       1       8       1       1       8       1       1       8       1       1
       8       1       1       8       1       1       8       1       1       8
       1       1       8       1       1       8       1       1       8       1
       1       8       1       1       8       1       1       8       1       1
       8       1       1       8       1       1       8       1       1       8
       1       1       8       1       1       8       1       1       8       1
       1       8       1       1       8       1       1       8       1       1
       8       1       1       8       1       1       8       1       1       8
       1       1       8       1       1       8       1       1       8       1
       1       8       1       1       8       1       1       8       1       1
       8       1       1       8       1       1       8       1       1       8
       1       1       8       1       1       8       1       1       8       1
       1       8       1       1       8       1       1       8       1       1
       8       1       1       8       1       1       8       1       1       8
       1       1       8       1       1       8       1       1       8       1
       1       8       1       1       8       1       1       8       1       1
       8       1       1       8       1       1       8       1       1       8
       1       1       8       1       1       8       1       1       8       1
       1       8       1       1       8       1       1       8       1       1
       8       1       1       8       1       1       8       1       1       8
       1       1       8       1       1       8       1       1       8       1
       1       8       1       1       8       1       1       8       1       1
       8       1       1       8       1       1       8       1       1       8
       1       1       8       1       1       8       1       1       8       1
       1       8       1       1       8       1       1       8       1       1
       8       1       1       8       1       1       8       1       1       8
       1       1       8       1       1       8       1       1       8       1
       1       8       1       1       8       1       1       8       1       1
       8       1       1       8       1       1       8       1       1       8
       1       1       8       1       1       8       1       1       8       1
       1       8       1       1       8       1       1       8       1       1
       8       1       1       8       1       1       8       1       1       8
       1       1       8       1       1       8       1       1       8       1
       1       8       1       1       8       1       1       8       1       1
       8       1       1       8       1       1       8       1       1       8
       1       1       8       1       1       8       1       1       8       1
       1       8       1       1       8       1       1       8       1       1
       8       1       1       8       1       1       8       1       1       8
       1       1       8       1       1       8       1       1       8       1
       1       8       1       1       8       1       1       8       1       1
       8       1       1       8       1       1       8       1       1       8
       1       1       8       1       1       8       1       1       8       1
       1       8       1       1       8       1       1       8       1       1
       8       1       1       8       1       1       8       1       1       8
       1       1       8       1       1       8       1       1       8       1
       1       8       1       1       8       1       1       8       1       1
       8       1       1       8       1       1       8       1       1       8
       1       1       8       1       1       8       1       1       8       1
       1       8       1       1       8       1       1       8       1       1
       8       1       1       8       1       1       8       1       1       8
       1       1       8       1       1       8       1       1       8       1
       1       8       1       1       8       1       1       8       1       1
       8       1       1       8       1       1       8       1       1       8
       1       1       8       1       1       8       1       1       8       1
       1       8       1       1       8       1       1       8       1       1
       8       1       1       8       1       1       8       1       1       8
       1       1       8       1       1       8       1       1       8       1
       1       8       1       1       8       1       1       8       1       1
       8       1       1       8       1       1       8       1       1       8
       1       1       8       1       1       8       1       1       8       1
       1       8       1       1       8       1       1       8       1       1
       8       1       1       8       1       1       8       1       1       8
       1       1       8       1       1       8       1       1       8       1
       1       8       1       1       8       1       1       8       1       1
       8       1       1       8       1       1       8       1       1       8
       1       1       8       1       1       8       1       1       8       1
       1       8       1       1       8       1       1       8       1       1
       8       1       1       8       1       1       8       1       1       8
       1       1       8       1       1       8       1       1       8       1
       1       8       1       1       8       1       1       8       1       1
       8       1       1       8       1       1       8       1       1       8
       1       1       8       1       1       8       1       1       8       1
       1       8       1       1       8       1       1       8       1       1
       8       1       1       8       1       1       8       1       1       8
       1       1       8       1       1       8       1       1       8       1
       1       8       1       1       8       1       1       8       1       1
       8       1       1       8       1       1       8       1       1       8
       1       1       8       1       1       8       1       1       8       1
       1       8       1       1       8       1       1       8       1       1
       8       1       1       8       1       1       8       1       1       8
       1       1       8       1       1       8       1       1       8       1
       1       8       1       1       8       1       1       8       1       1
       8       1       1       8       1       1       8       1       1       8
       1       1       8       1       1       8       1       1       8       1
       1       8       1       1       8       1       1       8       1       1
       8       1       1       8       1       1       8       1       1       8
       1       1       8       1       1       8       1       1       8       1
       1       8       1       1       8       1       1       8       1       1
       8       1       1       8       1       1       8       1       1       8
       1       1       8       1       1       8       1       1       8       1
       1       8       1       1       8       1       1       8       1       1
       8       1       1       8       1       1       8       1       1       8
       1       1       8       1       1       8       1       1       8       1
       1       8       1       1       8       1       1       8       1       1
       8       1       1       8       1       1       8       1       1       8
       1       1       8       1       1       8       1       1       8       1
       1       8       1       1       8       1       1       8       1       1
       8       1       1       8       1       1       8       1       1       8
       1       1       8       1       1       8       1       1       8       1
       1       8       1       1       8       1       1       8       1       1
       8       1       1       8       1       1       8       1       1       8
       1       1       8       1       1       8       1       1       8       1
       1       8       1       1       8       1       1       8       1       1
       8       1       1       8       1       1       8       1       1       8
       1       1       8       1       1       8       1       1       8       1
       1       8       1       1       8       1       1       8       1       1
       8       1       1       8       1       1       8       1       1       8
       1       1       8       1       1       8       1       1       8       1
       1       8       1       1       8       1       1       8       1       1
       8       1       1       8       1       1       8       1       1       8
       1       1       8       1       1       8       1       1       8       1
       1       8       1       1       8       1       1       8       1       1
       8       1       1       8       1       1       8       1       1       8
       1       1       8       1       1       8       1       1       8       1
       1       8       1       1       8       1       1       8       1       1
       8       1       1       8       1       1       8       1       1       8
       1       1       8       1       1       8       1       1       8       1
       1       8       1       1       8       1       1       8       1       1
       8       1       1       8       1       1       8       1       1       8
       1       1       8       1       1       8       1       1       8       1
       1       8       1       1       8       1       1       8       1       1
       8       1       1       8       1       1       8       1       1       8
       1       1       8       1       1       8       1       1       8       1
       1       8       1       1       8       1       1       8       1       1
       8       1       1       8       1       1       8       1       1       8
       1       1       8       1       1       8       1       1       8       1
       1       8       1       1       8       1       1       8       1       1
       8       1       1       8       1       1       8       1       1       8
       1       1       8       1       1       8       1       1       8       1
       1       8       1       1       8       1       1       8       1       1
       8       1       1       8       1       1       8       1       1       8
       1       1       8       1       1       8       1       1       8       1
       1       8       1       1       8       1       1       8       1       1
       8       1       1       8       1       1       8       1       1       8
       1       1       8       1       1       8       1       1       8       1
       1       8       1       1       8       1       1       8       1       1
       8       1       1       8       1       1       8       1       1       8
       1       1       8       1       1       8       1       1       8       1
       1       8       1       1       8       1       1       8       1       1
       8       1       1       8       1       1       8       1       1       8
       1       1       8       1       1       8       1       1       8       1
       1       8       1       1       8       1       1       8       1       1
       8       1       1       8       1       1       8       1       1       8
       1       1       8       1       1       8       1       1       8       1
       1       8       1       1       8       1       1       8       1       1
       8       1       1       8       1       1       8       1       1       8
       1       1       8       1       1       8       1       1       8       1
       1       8       1       1       8       1       1       8       1       1
       8       1       1       8       1       1       8       1       1       8
       1       1       8       1       1       8       1       1       8       1
       1       8       1       1       8       1       1       8       1       1
       8       1       1       8       1       1       8       1       1       8
       1       1       8       1       1       8       1       1       8       1
       1       8       1       1       8       1       1       8       1       1
       8       1       1       8       1       1       8       1       1       8
       1       1       8       1       1       8       1       1       8       1
       1       8       1       1       8       1       1       8       1       1
       8       1       1       8       1       1       8       1       1       8
       1       1       8       1       1       8       1       1       8       1
       1       8       1       1       8       1       1       8       1       1
       8       1       1       8       1       1       8       1       1       8
       1       1       8       1       1       8       1       1       8       1
       1       8       1       1       8       1       1       8       1       1
       8       1       1       8       1       1       8       1       1       8
       1       1       8       1       1       8       1       1       8       1
       1       8       1       1       8       1       1       8       1       1
       8       1       1       8       1       1       8       1       1       8
       1       1       8       1       1       8       1       1       8       1
       1       8       1       1       8       1       1       8       1       1
       8       1       1       8       1       1       8       1       1       8
       1       1       8       1       1       8       1       1       8       1
       1       8       1       1       8       1       1       8       1       1
       8       1       1       8       1       1       8       1       1       8
       1       1       8       1       1       8       1       1       8       1
       1       8       1       1       8       1       1       8       1       1
       8       1       1       8       1       1       8       1       1       8
       1       1       8       1       1       8       1       1       8       1
       1       8       1       1       8       1       1       8       1       1
       8       1       1       8       1       1       8       1       1       8
       1       1       8       1       1       8       1       1       8       1
       1       8       1       1       8       1       1       8       1       1
       8       1       1       8       1       1       8       1       1       8
       1       1       8       1       1       8       1       1       8       1
       1       8       1       1       8       1       1       8       1       1
       8       1       1       8       1       1       8       1       1       8
       1       1       8       1       1       8       1       1       8       1
       1       8       1       1       8       1       1       8       1       1
       8       1       1       8       1       1       8       1       1       8
       1       1       8       1       1       8       1       1       8       1
       1       8       1       1       8       1       1       8       1       1
       8       1       1       8       1       1       8       1       1       8
       1       1       8       1       1       8       1       1       8       1
       1       8       1       1       8       1       1       8       1       1
       8       1       1       8       1       1       8       1       1       8
       1       1       8       1       1       8       1       1       8       1
       1       8       1       1       8       1       1       8       1       1
       8       1       1       8       1       1       8       1       1       8
       1       1       8       1       1       8       1       1       8       1
       1       8       1       1       8       1       1       8       1       1
       8       1       1       8       1       1       8       1       1       8
       1       1       8       1       1       8       1       1       8       1
       1       8       1       1       8       1       1       8       1       1
       8       1       1       8       1       1       8       1       1       8
       1       1       8       1       1       8       1       1       8       1
       1       8       1       1       8       1       1       8       1       1
       8       1       1       8       1       1       8       1       1       8
       1       1       8       1       1       8       1       1       8       1
       1       8       1       1       8       1       1       8       1       1
       8       1       1       8       1       1       8       1       1       8
       1       1       8       1       1       8       1       1       8       1
       1       8       1       1       8       1       1       8       1       1
       8       1       1       8       1       1       8       1       1       8
       1       1       8       1       1       8       1       1       8       1
       1       8       1       1       8       1       1       8       1       1
       8       1       1       8       1       1       8       1       1       8
       1       1       8       1       1       8       1       1       8       1
       1       8       1       1       8       1       1       8       1       1
       8       1       1       8       1       1       8       1       1       8
       1       1       8       1       1       8       1       1       8       1
       1       8       1       1       8       1       1       8       1       1
       8       1       1       8       1       1       8       1       1       8
       1       1       8       1       1       8       1       1       8       1
       1       8       1       1       8       1       1       8       1       1
       8       1       1       8       1       1       8       1       1       8
       1       1       8       1       1       8       1       1       8       1
       1       8       1       1       8       1       1       8       1       1
       8       1       1       8       1       1       8       1       1       8
       1       1       8       1       1       8       1       1       8       1
       1       8       1       1       8       1       1       8       1       1
       8       1       1       8       1       1       8       1       1       8
       1       1       8       1       1       8       1       1       8       1
       1       8       1       1       8       1       1       8       1       1
       8       1       1       8       1       1       8       1       1       8
       1       1       8       1       1       8       1       1       8       1
       1       8       1       1       8       1       1       8       1       1
       8       1       1       8       1       1       8       1       1       8
       1       1       8       1       1       8       1       1       8       1
       1       8       1       1       8       1       1       8       1       1
       8       1       1       8       1       1       8       1       1       8
       1       1       8       1       1       8       1       1       8       1
       1       8       1       1       8       1       1       8       1       1
       8       1       1       8       1       1       8       1       1       8
       1       1       8       1       1       8       1       1       8       1
       1       8       1       1       8       1       1       8       1       1
       8       1       1       8       1       1       8       1       1       8
       1       1       8       1       1       8       1       1       8       1
       1       8       1       1       8       1       1       8       1       1
       8       1       1       8       1       1       8       1       1       8
       1       1       8       1       1       8       1       1       8       1
       1       8       1       1       8       1       1       8       1       1
       8       1       1       8       1       1       8       1       1       8
       1       1       8       1       1       8       1       1       8       1
       1       8       1       1       8       1       1       8       1       1
       8       1       1       8       1       1       8       1       1       8
       1       1       8       1       1       8       1       1       8       1
       1       8       1       1       8       1       1       8       1       1
       8       1       1       8       1       1       8       1       1       8
       1       1       8       1       1       8       1       1       8       1
       1       8       1       1       8       1       1       8       1       1
       8       1       1       8       1       1       8       1       1       8
       1       1       8       1       1       8       1       1       8       1
       1       8       1       1       8       1       1       8       1       1
       8       1       1       8       1       1       8       1       1       8
       1       1       8       1       1       8       1       1       8       1
       1       8       1       1       8       1       1       8       1       1
       8       1       1       8       1       1       8       1       1       8
       1       1       8       1       1       8       1       1       8       1
       1       8       1       1       8       1       1       8       1       1
       8       1       1       8       1       1       8       1       1       8
       1       1       8       1       1       8       1       1       8       1
       1       8       1       1       8       1       1       8       1       1
       8       1       1       8       1       1       8       1       1       8
       1       1       8       1       1       8       1       1       8       1
       1       8       1       1       8       1       1       8       1       1
       8       1       1       8       1       1       8       1       1       8
       1       1       8       1       1       8       1       1       8       1
       1       8       1       1       8       1       1       8       1       1
       8       1       1       8       1       1       8       1       1       8
       1       1       8       1       1       8       1       1       8       1
       1       8       1       1       8       1       1       8       1       1
       8       1       1       8       1       1       8       1       1       8
       1       1       8       1       1       8       1       1       8       1
       1       8       1       1       8       1       1       8       1       1
       8       1       1       8       1       1       8       1       1       8
       1       1       8       1       1       8       1       1       8       1
       1       8       1       1       8       1       1       8       1       1
       8       1       1       8       1       1       8       1       1       8
       1       1       8       1       1       8       1       1       8       1
       1       8       1       1       8       1       1       8       1       1
       8       1       1       8       1       1       8       1       1       8
       1       1       8       1       1       8       1       1       8       1
       1       8       1       1       8       1       1       8       1       1
       8       1       1       8       1       1       8       1       1       8
       1       1       8       1       1       8       1       1       8       1
       1       8       1       1       8       1       1       8       1       1
       8       1       1       8       1       1       8       1       1       8
       1       1       8       1       1       8       1       1       8       1
       1       8       1       1       8       1       1       8       1       1
       8       1       1       8       1       1       8       1       1       8
       1       1       8       1       1       8       1       1       8       1
       1       8       1       1       8       1       1       8       1       1
       8       1       1       8       1       1       8       1       1       8
       1       1       8       1       1       8       1       1       8       1
       1       8       1       1       8       1       1       8       1       1
       8       1       1       8       1       1       8       1       1       8
       1       1       8       1       1       8       1       1       8       1
       1       8       1       1       8       1       1       8       1       1
       8       1       1       8       1       1       8       1       1       8
       1       1       8       1       1       8       1       1       8       1
       1       8       1       1       8       1       1       8       1       1
       8       1       1       8       1       1       8       1       1       8
       1       1       8       1       1       8       1       1       8       1
       1       8       1       1       8       1       1       8       1       1
       8       1       1       8       1       1       8       1       1       8
       1       1       8       1       1       8       1       1       8       1
       1       8       1       1       8       1       1       8       1       1
       8       1       1       8       1       1       8       1       1       8
       1       1       8       1       1       8       1       1       8       1
       1       8       1       1       8       1       1       8       1       1
       8       1       1       8       1       1       8       1       1       8
       1       1       8       1       1       8       1       1       8       1
       1       8       1       1       8       1       1       8       1       1
       8       1       1       8       1       1       8       1       1       8
       1       1       8       1       1       8       1       1       8       1
       1       8       1       1       8       1       1       8       1       1
       8       1       1       8       1       1       8       1       1       8
       1       1       8       1       1       8       1       1       8       1
       1       8       1       1       8       1       1       8       1       1
       8       1       1       8       1       1       8       1       1       8
       1       1       8       1       1       8       1       1       8       1
       1       8       1       1       8       1       1       8       1       1
       8       1       1       8       1       1       8       1       1       8
       1       1       8       1       1       8       1       1       8       1
       1       8       1       1       8       1       1       8       1       1
       8       1       1       8       1       1       8       1       1       8
       1       1       8       1       1       8       1       1       8       1
       1       8       1       1       8       1       1       8       1       1
       8       1       1       8       1       1       8       1       1       8
       1       1       8       1       1       8       1       1       8       1
       1       8       1       1       8       1       1       8       1       1
       8       1       1       8       1       1       8       1       1       8
       1       1       8       1       1       8       1       1       8       1
       1       8       1       1       8       1       1       8       1       1
       8       1       1       8       1       1       8       1       1       8
       1       1       8       1       1       8       1       1       8       1
       1       8       1       1       8       1       1       8       1       1
       8       1       1       8       1       1       8       1       1       8
       1       1       8       1       1       8       1       1       8       1
       1       8       1       1       8       1       1       8       1       1
       8       1       1       8       1       1       8       1       1       8
       1       1       8       1       1       8       1       1       8       1
       1       8       1       1       8       1       1       8       1       1
       8       1       1       8       1       1       8       1       1       8
       1       1       8       1       1       8       1       1       8       1
       1       8       1       1       8       1       1       8       1       1
       8       1       1       8       1       1       8       1       1       8
       1       1       8       1       1       8       1       1       8       1
       1       8       1       1       8       1       1       8       1       1
       8       1       1       8       1       1       8       1       1       8
       1       1       8       1       1       8       1       1       8       1
       1       8       1       1       8       1       1       8       1       1
       8       1       1       8       1       1       8       1       1       8
       1       1       8       1       1       8       1       1       8       1
       1       8       1       1       8       1       1       8       1       1
       8       1       1       8       1       1       8       1       1       8
       1       1       8       1       1       8       1       1       8       1
       1       8       1       1       8       1       1       8       1       1
       8       1       1       8       1       1       8       1       1       8
       1       1       8       1       1       8       1       1       8       1
       1       8       1       1       8       1       1       8       1       1
       8       1       1       8       1       1       8       1       1       8
       1       1       8       1       1       8       1       1       8       1
       1       8       1       1       8       1       1       8       1       1
       8       1       1       8       1       1       8       1       1       8
       1       1       8       1       1       8       1       1       8       1
       1       8       1       1       8       1       1       8       1       1
       8       1       1       8       1       1       8       1       1       8
       1       1       8       1       1       8       1       1       8       1
       1       8       1       1       8       1       1       8       1       1
       8       1       1       8       1       1       8       1       1       8
       1       1       8       1       1       8       1       1       8       1
       1       8       1       1       8       1       1       8       1       1
       8       1       1       8       1       1       8       1       1       8
       1       1       8       1       1       8       1       1       8       1
       1       8       1       1       8       1       1       8       1       1
       8       1       1       8       1       1       8       1       1       8
       1       1       8       1       1       8       1       1       8       1
       1       8       1       1       8       1       1       8       1       1
       8       1       1       8       1       1       8       1       1       8
       1       1       8       1       1       8       1       1       8       1
       1       8       1       1       8       1       1       8       1       1
       8       1       1       8       1       1       8       1       1       8
       1       1       8       1       1       8       1       1       8       1
       1       8       1       1       8       1       1       8       1       1
       8       1       1       8       1       1       8       1       1       8
       1       1       8       1       1       8       1       1       8       1
       1       8       1       1       8       1       1       8       1       1
       8       1       1       8       1       1       8       1       1       8
       1       1       8       1       1       8       1       1       8       1
       1       8       1       1       8       1       1       8       1       1
       8       1       1       8       1       1       8       1       1       8
       1       1       8       1       1       8       1       1       8       1
       1       8       1       1       8       1       1       8       1       1
       8       1       1       8       1       1       8       1       1       8
       1       1       8       1       1       8       1       1       8       1
       1       8       1       1       8       1       1       8       1       1
       8       1       1       8       1       1       8       1       1       8
       1       1       8       1       1       8       1       1       8       1
       1       8       1       1       8       1       1       8       1       1
       8       1       1       8       1       1       8       1       1       8
       1       1       8       1       1       8       1       1       8       1
       1       8       1       1       8       1       1       8       1       1
       8       1       1       8       1       1       8       1       1       8
       1       1       8       1       1       8       1       1       8       1
       1       8       1       1       8       1       1       8       1       1
       8       1       1       8       1       1       8       1       1       8
       1       1       8       1       1       8       1       1       8       1
       1       8       1       1       8       1       1       8       1       1
       8       1       1       8       1       1       8       1       1       8
       1       1       8       1       1       8       1       1       8       1
       1       8       1       1       8       1       1       8       1       1
       8       1       1       8       1       1       8       1       1       8
       1       1       8       1       1       8       1       1       8       1
       1       8       1       1       8       1       1       8       1       1
       8       1       1       8       1       1       8       1       1       8
       1       1       8       1       1       8       1       1       8       1
       1       8       1       1       8       1       1       8       1       1
       8       1       1       8       1       1       8       1       1       8
       1       1       8       1       1       8       1       1       8       1
       1       8       1       1       8       1       1       8       1       1
       8       1       1       8       1       1       8       1       1       8
       1       1       8       1       1       8       1       1       8       1
       1       8       1       1       8       1       1       8       1       1
       8       1       1       8       1       1       8       1       1       8
       1       1       8       1       1       8       1       1       8       1
       1       8       1       1       8       1       1       8       1       1
       8       1       1       8       1       1       8       1       1       8
       1       1       8       1       1       8       1       1       8       1
       1       8       1       1       8       1       1       8       1       1
       8       1       1       8       1       1       8       1       1       8
       1       1       8       1       1       8       1       1       8       1
       1       8       1       1       8       1       1       8       1       1
       8       1       1       8       1       1       8       1       1       8
       1       1       8       1       1       8       1       1       8       1
       1       8       1       1       8       1       1       8       1       1
       8       1       1       8       1       1       8       1       1       8
       1       1       8       1       1       8       1       1       8       1
       1       8       1       1       8       1       1       8       1       1
       8       1       1       8       1       1       8       1       1       8
       1       1       8       1       1       8       1       1       8       1
       1       8       1       1       8       1       1       8       1       1
%FLAG MASS                                                                      
%FORMAT(5E16.8)                                                                 
  1.20100000E+01  1.20100000E+01  1.20100000E+01  1.20100000E+01  1.20100000E+01
  1.20100000E+01  1.20100000E+01  1.20100000E+01  1.20100000E+01  1.20100000E+01
  1.20100000E+01  1.20100000E+01  1.20100000E+01  1.20100000E+01  1.20100000E+01
  1.20100000E+01  1.20100000E+01  1.20100000E+01  1.20100000E+01  1.20100000E+01
  1.20100000E+01  1.20100000E+01  1.20100000E+01  1.20100000E+01  1.20100000E+01
  1.20100000E+01  1.20100000E+01  1.20100000E+01  1.20100000E+01  1.20100000E+01
  1.20100000E+01  1.20100000E+01  1.20100000E+01  1.20100000E+01  1.20100000E+01
  1.20100000E+01  1.20100000E+01  1.20100000E+01  1.20100000E+01  1.20100000E+01
  1.20100000E+01  1.20100000E+01  1.20100000E+01  1.20100000E+01  1.20100000E+01
  1.20100000E+01  1.20100000E+01  1.20100000E+01  1.20100000E+01  1.20100000E+01
  1.20100000E+01  1.20100000E+01  1.20100000E+01  1.20100000E+01  1.20100000E+01
  1.20100000E+01  1.20100000E+01  1.20100000E+01  1.20100000E+01  1.20100000E+01
  1.20100000E+01  1.20100000E+01  1.20100000E+01  1.20100000E+01  1.20100000E+01
  1.20100000E+01  1.20100000E+01  1.20100000E+01  1.20100000E+01  1.20100000E+01
  1.20100000E+01  1.20100000E+01  1.20100000E+01  1.20100000E+01  1.20100000E+01
  1.20100000E+01  1.20100000E+01  1.40100000E+01  1.20100000E+01  1.20100000E+01
  1.20100000E+01  1.20100000E+01  1.20100000E+01  1.20100000E+01  1.20100000E+01
  1.20100000E+01  1.20100000E+01  1.20100000E+01  1.40100000E+01  1.20100000E+01
  1.20100000E+01  1.20100000E+01  1.20100000E+01  1.20100000E+01  1.20100000E+01
  1.20100000E+01  1.20100000E+01  1.20100000E+01  1.20100000E+01  1.40100000E+01
  1.20100000E+01  1.20100000E+01  1.20100000E+01  1.20100000E+01  1.20100000E+01
  1.20100000E+01  1.20100000E+01  1.20100000E+01  1.20100000E+01  1.20100000E+01
  1.40100000E+01  1.20100000E+01  1.20100000E+01  1.20100000E+01  1.20100000E+01
  1.20100000E+01  1.20100000E+01  1.20100000E+01  1.20100000E+01  1.20100000E+01
  1.20100000E+01  1.40100000E+01  1.20100000E+01  1.20100000E+01  1.20100000E+01
  1.20100000E+01  1.20100000E+01  1.20100000E+01  1.20100000E+01  1.20100000E+01
  1.20100000E+01  1.20100000E+01  1.40100000E+01  1.20100000E+01  1.20100000E+01
  1.20100000E+01  1.20100000E+01  1.20100000E+01  1.20100000E+01  1.20100000E+01
  1.20100000E+01  1.20100000E+01  1.20100000E+01  1.40100000E+01  1.20100000E+01
  1.20100000E+01  1.20100000E+01  1.20100000E+01  1.20100000E+01  1.20100000E+01
  1.20100000E+01  1.20100000E+01  1.20100000E+01  1.20100000E+01  1.40100000E+01
  1.20100000E+01  1.20100000E+01  1.20100000E+01  1.20100000E+01  1.20100000E+01
  1.20100000E+01  1.20100000E+01  1.20100000E+01  1.20100000E+01  1.20100000E+01
  1.40100000E+01  1.20100000E+01  1.20100000E+01  1.20100000E+01  1.20100000E+01
  1.20100000E+01  1.20100000E+01  1.20100000E+01  1.20100000E+01  1.20100000E+01
  1.20100000E+01  1.40100000E+01  1.20100000E+01  1.20100000E+01  1.20100000E+01
  1.20100000E+01  1.20100000E+01  1.20100000E+01  1.20100000E+01  1.20100000E+01
  1.20100000E+01  1.20100000E+01  1.40100000E+01  1.20100000E+01  1.20100000E+01
  1.20100000E+01  1.20100000E+01  1.20100000E+01  1.20100000E+01  1.20100000E+01
  1.20100000E+01  1.20100000E+01  1.20100000E+01  1.40100000E+01  1.20100000E+01
  1.20100000E+01  1.20100000E+01  1.20100000E+01  1.20100000E+01  1.20100000E+01
  1.20100000E+01  1.20100000E+01  1.20100000E+01  1.20100000E+01  1.20100000E+01
  1.20100000E+01  1.20100000E+01  1.20100000E+01  1.20100000E+01  1.20100000E+01
  1.20100000E+01  1.20100000E+01  1.20100000E+01  1.20100000E+01  1.20100000E+01
  1.20100000E+01  1.20100000E+01  1.20100000E+01  1.20100000E+01  1.20100000E+01
  1.20100000E+01  1.20100000E+01  1.20100000E+01  1.20100000E+01  1.20100000E+01
  1.20100000E+01  1.20100000E+01  1.20100000E+01  1.20100000E+01  1.20100000E+01
  1.20100000E+01  1.20100000E+01  1.20100000E+01  1.20100000E+01  1.20100000E+01
  1.20100000E+01  1.20100000E+01  1.20100000E+01  1.20100000E+01  1.20100000E+01
  1.20100000E+01  1.20100000E+01  1.20100000E+01  1.40100000E+01  1.20100000E+01
  1.20100000E+01  1.20100000E+01  1.20100000E+01  1.20100000E+01  1.20100000E+01
  1.20100000E+01  1.20100000E+01  1.20100000E+01  1.20100000E+01  1.40100000E+01
  1.20100000E+01  1.20100000E+01  1.20100000E+01  1.20100000E+01  1.20100000E+01
  1.20100000E+01  1.20100000E+01  1.20100000E+01  1.20100000E+01  1.20100000E+01
  1.40100000E+01  1.20100000E+01  1.20100000E+01  1.20100000E+01  1.20100000E+01
  1.20100000E+01  1.20100000E+01  1.20100000E+01  1.20100000E+01  1.20100000E+01
  1.20100000E+01  1.40100000E+01  1.20100000E+01  1.20100000E+01  1.20100000E+01
  1.20100000E+01  1.20100000E+01  1.20100000E+01  1.20100000E+01  1.20100000E+01
  1.20100000E+01  1.20100000E+01  1.40100000E+01  1.20100000E+01  1.20100000E+01
  1.20100000E+01  1.20100000E+01  1.20100000E+01  1.20100000E+01  1.20100000E+01
  1.20100000E+01  1.20100000E+01  1.20100000E+01  1.40100000E+01  1.20100000E+01
  1.20100000E+01  1.20100000E+01  1.20100000E+01  1.20100000E+01  1.20100000E+01
  1.20100000E+01  1.20100000E+01  1.20100000E+01  1.20100000E+01  1.40100000E+01
  1.20100000E+01  1.20100000E+01  1.20100000E+01  1.20100000E+01  1.20100000E+01
  1.20100000E+01  1.20100000E+01  1.20100000E+01  1.20100000E+01  1.20100000E+01
  1.40100000E+01  1.20100000E+01  1.20100000E+01  1.20100000E+01  1.20100000E+01
  1.20100000E+01  1.20100000E+01  1.20100000E+01  1.20100000E+01  1.20100000E+01
  1.20100000E+01  1.40100000E+01  1.20100000E+01  1.20100000E+01  1.20100000E+01
  1.20100000E+01  1.20100000E+01  1.20100000E+01  1.20100000E+01  1.20100000E+01
  1.20100000E+01  1.20100000E+01  1.40100000E+01  1.20100000E+01  1.20100000E+01
  1.20100000E+01  1.20100000E+01  1.20100000E+01  1.20100000E+01  1.20100000E+01
  1.20100000E+01  1.20100000E+01  1.20100000E+01  1.40100000E+01  1.20100000E+01
  1.20100000E+01  1.20100000E+01  1.20100000E+01  1.20100000E+01  1.20100000E+01
  1.20100000E+01  1.20100000E+01  1.20100000E+01  1.20100000E+01  1.20100000E+01
  1.20100000E+01  1.20100000E+01  1.20100000E+01  1.20100000E+01  1.20100000E+01
  1.20100000E+01  1.20100000E+01  1.20100000E+01  1.20100000E+01  1.20100000E+01
  1.20100000E+01  1.20100000E+01  1.20100000E+01  1.20100000E+01  1.20100000E+01
  1.20100000E+01  1.20100000E+01  1.20100000E+01  1.20100000E+01  1.20100000E+01
  1.20100000E+01  1.20100000E+01  1.20100000E+01  1.20100000E+01  1.20100000E+01
  1.20100000E+01  1.20100000E+01  1.20100000E+01  1.20100000E+01  1.20100000E+01
  1.20100000E+01  1.20100000E+01  1.20100000E+01  1.20100000E+01  1.20100000E+01
  1.20100000E+01  1.40100000E+01  1.20100000E+01  1.20100000E+01  1.20100000E+01
  1.20100000E+01  1.20100000E+01  1.20100000E+01  1.20100000E+01  1.20100000E+01
  1.20100000E+01  1.20100000E+01  1.40100000E+01  1.20100000E+01  1.20100000E+01
  1.20100000E+01  1.20100000E+01  1.20100000E+01  1.20100000E+01  1.20100000E+01
  1.20100000E+01  1.20100000E+01  1.20100000E+01  1.40100000E+01  1.20100000E+01
  1.20100000E+01  1.20100000E+01  1.20100000E+01  1.20100000E+01  1.20100000E+01
  1.20100000E+01  1.20100000E+01  1.20100000E+01  1.20100000E+01  1.40100000E+01
  1.20100000E+01  1.20100000E+01  1.20100000E+01  1.20100000E+01  1.20100000E+01
  1.20100000E+01  1.20100000E+01  1.20100000E+01  1.20100000E+01  1.20100000E+01
  1.40100000E+01  1.20100000E+01  1.20100000E+01  1.20100000E+01  1.20100000E+01
  1.20100000E+01  1.20100000E+01  1.20100000E+01  1.20100000E+01  1.20100000E+01
  1.20100000E+01  1.40100000E+01  1.20100000E+01  1.20100000E+01  1.20100000E+01
  1.20100000E+01  1.20100000E+01  1.20100000E+01  1.20100000E+01  1.20100000E+01
  1.20100000E+01  1.20100000E+01  1.40100000E+01  1.20100000E+01  1.20100000E+01
  1.20100000E+01  1.20100000E+01  1.20100000E+01  1.20100000E+01  1.20100000E+01
  1.20100000E+01  1.20100000E+01  1.20100000E+01  1.40100000E+01  1.20100000E+01
  1.20100000E+01  1.20100000E+01  1.20100000E+01  1.20100000E+01  1.20100000E+01
  1.20100000E+01  1.20100000E+01  1.20100000E+01  1.20100000E+01  1.40100000E+01
  1.20100000E+01  1.20100000E+01  1.20100000E+01  1.20100000E+01  1.20100000E+01
  1.20100000E+01  1.20100000E+01  1.20100000E+01  1.20100000E+01  1.20100000E+01
  1.40100000E+01  1.20100000E+01  1.20100000E+01  1.20100000E+01  1.20100000E+01
  1.20100000E+01  1.20100000E+01  1.20100000E+01  1.20100000E+01  1.20100000E+01
  1.20100000E+01  1.40100000E+01  1.20100000E+01  1.20100000E+01  1.20100000E+01
  1.20100000E+01  1.20100000E+01  1.20100000E+01  1.20100000E+01  1.20100000E+01
  1.20100000E+01  1.20100000E+01  1.40100000E+01  1.20100000E+01  1.20100000E+01
  1.20100000E+01  1.20100000E+01  1.20100000E+01  1.20100000E+01  1.20100000E+01
  1.20100000E+01  1.20100000E+01  1.20100000E+01  1.40100000E+01  1.20100000E+01
  1.20100000E+01  1.20100000E+01  1.20100000E+01  1.20100000E+01  1.20100000E+01
  1.20100000E+01  1.20100000E+01  1.20100000E+01  1.20100000E+01  1.20100000E+01
  1.20100000E+01  1.40100000E+01  1.20100000E+01  1.20100000E+01  1.20100000E+01
  1.20100000E+01  1.20100000E+01  1.20100000E+01  1.20100000E+01  1.20100000E+01
  1.20100000E+01  1.20100000E+01  1.40100000E+01  1.20100000E+01  1.20100000E+01
  1.20100000E+01  1.20100000E+01  1.20100000E+01  1.20100000E+01  1.20100000E+01
  1.20100000E+01  1.20100000E+01  1.20100000E+01  1.40100000E+01  1.20100000E+01
  1.20100000E+01  1.20100000E+01  1.20100000E+01  1.20100000E+01  1.20100000E+01
  1.20100000E+01  1.20100000E+01  1.20100000E+01  1.20100000E+01  1.40100000E+01
  1.20100000E+01  1.20100000E+01  1.20100000E+01  1.20100000E+01  1.20100000E+01
  1.20100000E+01  1.20100000E+01  1.20100000E+01  1.20100000E+01  1.20100000E+01
  1.40100000E+01  1.20100000E+01  1.20100000E+01  1.20100000E+01  1.20100000E+01
  1.20100000E+01  1.20100000E+01  1.20100000E+01  1.20100000E+01  1.20100000E+01
  1.20100000E+01  1.40100000E+01  1.20100000E+01  1.20100000E+01  1.20100000E+01
  1.20100000E+01  1.20100000E+01  1.20100000E+01  1.20100000E+01  1.20100000E+01
  1.20100000E+01  1.20100000E+01  1.40100000E+01  1.20100000E+01  1.20100000E+01
  1.20100000E+01  1.20100000E+01  1.20100000E+01  1.20100000E+01  1.20100000E+01
  1.20100000E+01  1.20100000E+01  1.20100000E+01  1.40100000E+01  1.20100000E+01
  1.20100000E+01  1.20100000E+01  1.20100000E+01  1.20100000E+01  1.20100000E+01
  1.20100000E+01  1.20100000E+01  1.20100000E+01  1.20100000E+01  1.40100000E+01
  1.20100000E+01  1.20100000E+01  1.20100000E+01  1.20100000E+01  1.20100000E+01
  1.20100000E+01  1.20100000E+01  1.20100000E+01  1.20100000E+01  1.20100000E+01
  1.40100000E+01  1.20100000E+01  1.20100000E+01  1.20100000E+01  1.20100000E+01
  1.20100000E+01  1.20100000E+01  1.20100000E+01  1.20100000E+01  1.20100000E+01
  1.20100000E+01  1.40100000E+01  1.20100000E+01  1.20100000E+01  1.20100000E+01
  1.20100000E+01  1.20100000E+01  1.20100000E+01  1.20100000E+01  1.20100000E+01
  1.20100000E+01  1.20100000E+01  1.40100000E+01  1.20100000E+01  1.20100000E+01
  1.20100000E+01  1.20100000E+01  1.20100000E+01  1.00800000E+00  1.00800000E+00
  1.00800000E+00  1.00800000E+00  1.00800000E+00  1.00800000E+00  1.00800000E+00
  1.00800000E+00  1.00800000E+00  1.00800000E+00  1.00800000E+00  1.00800000E+00
  1.00800000E+00  1.00800000E+00  1.00800000E+00  1.00800000E+00  1.00800000E+00
  1.00800000E+00  1.00800000E+00  1.00800000E+00  1.00800000E+00  1.00800000E+00
  1.00800000E+00  1.00800000E+00  1.00800000E+00  1.00800000E+00  1.00800000E+00
  1.00800000E+00  1.00800000E+00  1.00800000E+00  1.00800000E+00  1.00800000E+00
  1.00800000E+00  1.00800000E+00  1.00800000E+00  1.00800000E+00  1.00800000E+00
  1.00800000E+00  1.00800000E+00  1.00800000E+00  1.00800000E+00  1.00800000E+00
  1.00800000E+00  1.00800000E+00  1.00800000E+00  1.00800000E+00  1.00800000E+00
  1.00800000E+00  1.00800000E+00  1.00800000E+00  1.00800000E+00  1.00800000E+00
  1.00800000E+00  1.00800000E+00  1.00800000E+00  1.00800000E+00  1.00800000E+00
  1.00800000E+00  1.00800000E+00  1.00800000E+00  1.00800000E+00  1.00800000E+00
  1.00800000E+00  1.00800000E+00  1.00800000E+00  1.00800000E+00  1.00800000E+00
  1.00800000E+00  1.00800000E+00  1.00800000E+00  1.00800000E+00  1.00800000E+00
  1.00800000E+00  1.00800000E+00  1.00800000E+00  1.00800000E+00  1.00800000E+00
  1.00800000E+00  1.00800000E+00  1.00800000E+00  1.00800000E+00  1.00800000E+00
  1.00800000E+00  1.00800000E+00  1.00800000E+00  1.00800000E+00  1.00800000E+00
  1.00800000E+00  1.00800000E+00  1.00800000E+00  1.00800000E+00  1.00800000E+00
  1.00800000E+00  1.00800000E+00  1.00800000E+00  1.00800000E+00  1.00800000E+00
  1.00800000E+00  1.00800000E+00  1.00800000E+00  1.00800000E+00  1.00800000E+00
  1.00800000E+00  1.00800000E+00  1.00800000E+00  1.00800000E+00  1.00800000E+00
  1.00800000E+00  1.00800000E+00  1.00800000E+00  1.00800000E+00  1.00800000E+00
  1.00800000E+00  1.00800000E+00  1.00800000E+00  1.00800000E+00  1.00800000E+00
  1.00800000E+00  1.00800000E+00  1.00800000E+00  1.00800000E+00  1.00800000E+00
  1.00800000E+00  1.00800000E+00  1.00800000E+00  1.00800000E+00  1.00800000E+00
  1.00800000E+00  1.00800000E+00  1.00800000E+00  1.00800000E+00  1.00800000E+00
  1.00800000E+00  1.00800000E+00  1.00800000E+00  1.00800000E+00  1.00800000E+00
  1.00800000E+00  1.00800000E+00  1.00800000E+00  1.00800000E+00  1.00800000E+00
  1.00800000E+00  1.00800000E+00  1.00800000E+00  1.00800000E+00  1.00800000E+00
  1.00800000E+00  1.00800000E+00  1.00800000E+00  1.00800000E+00  1.00800000E+00
  1.00800000E+00  1.00800000E+00  1.00800000E+00  1.00800000E+00  1.00800000E+00
  1.00800000E+00  1.00800000E+00  1.00800000E+00  1.00800000E+00  1.00800000E+00
  1.00800000E+00  1.00800000E+00  1.00800000E+00  1.00800000E+00  1.00800000E+00
  1.00800000E+00  1.00800000E+00  1.00800000E+00  1.00800000E+00  1.00800000E+00
  1.00800000E+00  1.00800000E+00  1.00800000E+00  1.00800000E+00  1.00800000E+00
  1.00800000E+00  1.00800000E+00  1.00800000E+00  1.00800000E+00  1.00800000E+00
  1.00800000E+00  1.00800000E+00  1.00800000E+00  1.00800000E+00  1.00800000E+00
  1.00800000E+00  1.00800000E+00  1.00800000E+00  1.00800000E+00  1.00800000E+00
  1.00800000E+00  1.00800000E+00  1.00800000E+00  1.00800000E+00  1.00800000E+00
  1.00800000E+00  1.00800000E+00  1.00800000E+00  1.00800000E+00  1.00800000E+00
  1.00800000E+00  1.00800000E+00  1.00800000E+00  1.00800000E+00  1.00800000E+00
  1.00800000E+00  1.00800000E+00  1.00800000E+00  1.00800000E+00  1.00800000E+00
  1.00800000E+00  1.00800000E+00  1.00800000E+00  1.00800000E+00  1.00800000E+00
  1.00800000E+00  1.00800000E+00  1.00800000E+00  1.00800000E+00  1.00800000E+00
  1.00800000E+00  1.00800000E+00  1.00800000E+00  1.00800000E+00  1.00800000E+00
  1.00800000E+00  1.00800000E+00  1.00800000E+00  1.00800000E+00  1.00800000E+00
  1.00800000E+00  1.00800000E+00  1.00800000E+00  1.00800000E+00  1.00800000E+00
  1.00800000E+00  1.00800000E+00  1.00800000E+00  1.00800000E+00  1.00800000E+00
  1.00800000E+00  1.00800000E+00  1.00800000E+00  1.00800000E+00  1.00800000E+00
  1.00800000E+00  1.00800000E+00  1.00800000E+00  1.00800000E+00  1.00800000E+00
  1.00800000E+00  1.00800000E+00  1.00800000E+00  1.00800000E+00  1.00800000E+00
  1.00800000E+00  1.00800000E+00  1.00800000E+00  1.00800000E+00  1.00800000E+00
  1.00800000E+00  1.00800000E+00  1.00800000E+00  1.00800000E+00  1.00800000E+00
  1.00800000E+00  1.00800000E+00  1.00800000E+00  1.00800000E+00  1.00800000E+00
  1.00800000E+00  1.00800000E+00  1.00800000E+00  1.00800000E+00  1.00800000E+00
  1.00800000E+00  1.00800000E+00  1.00800000E+00  1.00800000E+00  1.00800000E+00
  1.00800000E+00  1.00800000E+00  1.00800000E+00  1.00800000E+00  1.00800000E+00
  1.00800000E+00  1.00800000E+00  1.00800000E+00  1.00800000E+00  1.00800000E+00
  1.00800000E+00  1.00800000E+00  1.00800000E+00  1.00800000E+00  1.00800000E+00
  1.00800000E+00  1.00800000E+00  1.00800000E+00  1.00800000E+00  1.00800000E+00
  1.00800000E+00  1.00800000E+00  1.00800000E+00  1.00800000E+00  1.00800000E+00
  1.00800000E+00  1.00800000E+00  1.00800000E+00  1.00800000E+00  1.00800000E+00
  1.00800000E+00  1.00800000E+00  1.00800000E+00  1.00800000E+00  1.00800000E+00
  1.00800000E+00  1.00800000E+00  1.00800000E+00  1.00800000E+00  1.00800000E+00
  1.00800000E+00  1.00800000E+00  1.00800000E+00  1.00800000E+00  1.00800000E+00
  1.00800000E+00  1.00800000E+00  1.00800000E+00  1.00800000E+00  1.00800000E+00
  1.00800000E+00  1.00800000E+00  1.00800000E+00  1.00800000E+00  1.00800000E+00
  1.00800000E+00  1.00800000E+00  1.00800000E+00  1.00800000E+00  1.00800000E+00
  1.00800000E+00  1.00800000E+00  1.00800000E+00  1.00800000E+00  1.00800000E+00
  1.00800000E+00  1.00800000E+00  1.00800000E+00  1.00800000E+00  1.00800000E+00
  1.00800000E+00  1.00800000E+00  1.00800000E+00  1.00800000E+00  1.00800000E+00
  1.00800000E+00  1.00800000E+00  1.00800000E+00  1.00800000E+00  1.00800000E+00
  1.00800000E+00  1.00800000E+00  1.00800000E+00  1.00800000E+00  1.00800000E+00
  1.00800000E+00  1.00800000E+00  1.00800000E+00  1.00800000E+00  1.00800000E+00
  1.00800000E+00  1.00800000E+00  1.00800000E+00  1.00800000E+00  1.00800000E+00
  1.00800000E+00  1.00800000E+00  1.00800000E+00  1.00800000E+00  1.00800000E+00
  1.00800000E+00  1.00800000E+00  1.00800000E+00  1.00800000E+00  1.00800000E+00
  1.00800000E+00  1.00800000E+00  1.00800000E+00  1.00800000E+00  1.00800000E+00
  1.00800000E+00  1.00800000E+00  1.00800000E+00  1.00800000E+00  1.00800000E+00
  1.00800000E+00  1.00800000E+00  1.00800000E+00  1.00800000E+00  1.00800000E+00
  1.00800000E+00  1.00800000E+00  1.00800000E+00  1.00800000E+00  1.00800000E+00
  1.00800000E+00  1.00800000E+00  1.00800000E+00  1.00800000E+00  1.00800000E+00
  1.00800000E+00  1.00800000E+00  1.00800000E+00  1.00800000E+00  1.00800000E+00
  1.00800000E+00  1.00800000E+00  1.00800000E+00  1.00800000E+00  1.00800000E+00
  1.00800000E+00  1.00800000E+00  1.00800000E+00  1.00800000E+00  1.00800000E+00
  1.00800000E+00  1.00800000E+00  1.00800000E+00  1.00800000E+00  1.00800000E+00
  1.00800000E+00  1.00800000E+00  1.00800000E+00  1.00800000E+00  1.00800000E+00
  1.00800000E+00  1.00800000E+00  1.00800000E+00  1.00800000E+00  1.00800000E+00
  1.00800000E+00  1.00800000E+00  1.00800000E+00  1.00800000E+00  1.00800000E+00
  1.00800000E+00  1.00800000E+00  1.00800000E+00  1.00800000E+00  1.00800000E+00
  1.00800000E+00  1.00800000E+00  1.00800000E+00  1.00800000E+00  1.00800000E+00
  1.00800000E+00  1.00800000E+00  1.00800000E+00  1.00800000E+00  1.00800000E+00
  1.00800000E+00  1.00800000E+00  1.00800000E+00  1.00800000E+00  1.00800000E+00
  1.00800000E+00  1.00800000E+00  1.00800000E+00  1.00800000E+00  1.00800000E+00
  1.00800000E+00  1.00800000E+00  1.00800000E+00  1.00800000E+00  1.00800000E+00
  1.00800000E+00  1.00800000E+00  1.00800000E+00  1.00800000E+00  1.00800000E+00
  1.00800000E+00  1.00800000E+00  1.00800000E+00  1.00800000E+00  1.00800000E+00
  1.00800000E+00  1.00800000E+00  1.00800000E+00  1.00800000E+00  1.00800000E+00
  1.00800000E+00  1.00800000E+00  1.00800000E+00  1.00800000E+00  1.00800000E+00
  1.00800000E+00  1.00800000E+00  1.00800000E+00  1.00800000E+00  1.00800000E+00
  1.00800000E+00  1.00800000E+00  1.00800000E+00  1.00800000E+00  1.00800000E+00
  1.00800000E+00  1.00800000E+00  1.00800000E+00  1.00800000E+00  1.00800000E+00
  1.00800000E+00  1.00800000E+00  1.00800000E+00  1.00800000E+00  1.00800000E+00
  1.00800000E+00  1.00800000E+00  1.00800000E+00  1.00800000E+00  1.00800000E+00
  1.00800000E+00  1.00800000E+00  1.00800000E+00  1.00800000E+00  1.00800000E+00
  1.00800000E+00  1.00800000E+00  1.00800000E+00  1.00800000E+00  1.00800000E+00
  1.00800000E+00  1.00800000E+00  1.00800000E+00  1.00800000E+00  1.00800000E+00
  1.00800000E+00  1.00800000E+00  1.00800000E+00  1.00800000E+00  1.00800000E+00
  1.00800000E+00  1.00800000E+00  1.00800000E+00  1.00800000E+00  1.00800000E+00
  1.00800000E+00  1.00800000E+00  1.00800000E+00  1.00800000E+00  1.00800000E+00
  1.00800000E+00  1.00800000E+00  1.00800000E+00  1.00800000E+00  1.00800000E+00
  1.00800000E+00  1.00800000E+00  1.00800000E+00  1.00800000E+00  1.00800000E+00
  1.00800000E+00  1.00800000E+00  1.00800000E+00  1.00800000E+00  1.00800000E+00
  1.00800000E+00  1.00800000E+00  1.00800000E+00  1.00800000E+00  1.00800000E+00
  1.00800000E+00  1.00800000E+00  1.00800000E+00  1.00800000E+00  1.00800000E+00
  1.00800000E+00  1.00800000E+00  1.00800000E+00  1.00800000E+00  1.00800000E+00
  1.00800000E+00  1.00800000E+00  1.00800000E+00  1.00800000E+00  1.00800000E+00
  1.00800000E+00  1.00800000E+00  1.00800000E+00  1.00800000E+00  1.00800000E+00
  1.00800000E+00  1.00800000E+00  1.00800000E+00  1.00800000E+00  1.00800000E+00
  1.00800000E+00  1.00800000E+00  1.00800000E+00  1.00800000E+00  1.00800000E+00
  1.00800000E+00  1.00800000E+00  1.00800000E+00  1.00800000E+00  1.00800000E+00
  1.00800000E+00  1.00800000E+00  1.00800000E+00  1.00800000E+00  1.00800000E+00
  1.00800000E+00  1.00800000E+00  1.00800000E+00  1.00800000E+00  1.00800000E+00
  1.00800000E+00  1.00800000E+00  1.00800000E+00  1.00800000E+00  1.00800000E+00
  1.00800000E+00  1.00800000E+00  1.00800000E+00  1.00800000E+00  1.00800000E+00
  1.00800000E+00  1.00800000E+00  1.00800000E+00  1.00800000E+00  1.00800000E+00
  1.00800000E+00  1.00800000E+00  1.00800000E+00  1.00800000E+00  1.00800000E+00
  1.00800000E+00  1.00800000E+00  1.00800000E+00  1.00800000E+00  1.00800000E+00
  1.00800000E+00  1.00800000E+00  1.00800000E+00  1.00800000E+00  1.00800000E+00
  1.00800000E+00  1.00800000E+00  1.00800000E+00  1.00800000E+00  1.00800000E+00
  1.00800000E+00  1.00800000E+00  1.00800000E+00  1.00800000E+00  1.00800000E+00
  1.00800000E+00  1.00800000E+00  1.00800000E+00  1.00800000E+00  1.00800000E+00
  1.00800000E+00  1.00800000E+00  1.00800000E+00  1.00800000E+00  1.00800000E+00
  1.00800000E+00  1.00800000E+00  1.00800000E+00  1.00800000E+00  1.00800000E+00
  1.00800000E+00  1.00800000E+00  1.00800000E+00  1.00800000E+00  1.00800000E+00
  1.00800000E+00  1.00800000E+00  1.00800000E+00  1.00800000E+00  1.00800000E+00
  1.00800000E+00  1.00800000E+00  1.00800000E+00  1.00800000E+00  1.00800000E+00
  1.00800000E+00  1.00800000E+00  1.00800000E+00  1.00800000E+00  1.00800000E+00
  1.00800000E+00  1.00800000E+00  1.00800000E+00  1.00800000E+00  1.00800000E+00
  1.00800000E+00  1.00800000E+00  1.00800000E+00  1.00800000E+00  1.00800000E+00
  1.00800000E+00  1.00800000E+00  1.00800000E+00  1.00800000E+00  1.00800000E+00
  1.00800000E+00  1.00800000E+00  1.00800000E+00  1.00800000E+00  1.00800000E+00
  1.00800000E+00  1.00800000E+00  1.00800000E+00  1.00800000E+00  1.00800000E+00
  1.00800000E+00  1.00800000E+00  1.00800000E+00  1.00800000E+00  1.00800000E+00
  1.00800000E+00  1.00800000E+00  1.00800000E+00  1.00800000E+00  1.00800000E+00
  1.00800000E+00  1.00800000E+00  1.00800000E+00  1.00800000E+00  1.00800000E+00
  1.00800000E+00  1.00800000E+00  1.00800000E+00  1.00800000E+00  1.00800000E+00
  1.00800000E+00  1.00800000E+00  1.00800000E+00  1.00800000E+00  1.00800000E+00
  1.00800000E+00  1.00800000E+00  1.00800000E+00  1.00800000E+00  1.00800000E+00
  1.00800000E+00  1.00800000E+00  1.00800000E+00  1.00800000E+00  1.00800000E+00
  1.00800000E+00  1.00800000E+00  1.00800000E+00  1.00800000E+00  1.00800000E+00
  1.00800000E+00  1.00800000E+00  1.00800000E+00  1.00800000E+00  1.00800000E+00
  1.00800000E+00  1.00800000E+00  1.00800000E+00  1.00800000E+00  1.00800000E+00
  1.00800000E+00  1.00800000E+00  1.00800000E+00  1.00800000E+00  1.00800000E+00
  1.00800000E+00  1.00800000E+00  1.00800000E+00  1.00800000E+00  1.00800000E+00
  1.00800000E+00  1.00800000E+00  1.00800000E+00  1.00800000E+00  1.00800000E+00
  1.00800000E+00  1.00800000E+00  1.00800000E+00  1.00800000E+00  1.00800000E+00
  1.00800000E+00  1.00800000E+00  1.00800000E+00  1.00800000E+00  1.00800000E+00
  1.00800000E+00  1.00800000E+00  1.00800000E+00  1.00800000E+00  1.00800000E+00
  1.00800000E+00  1.00800000E+00  1.00800000E+00  1.00800000E+00  1.00800000E+00
  1.00800000E+00  1.00800000E+00  1.00800000E+00  1.00800000E+00  1.00800000E+00
  1.00800000E+00  1.00800000E+00  1.00800000E+00  1.00800000E+00  1.00800000E+00
  1.00800000E+00  1.00800000E+00  1.00800000E+00  1.00800000E+00  1.00800000E+00
  1.00800000E+00  1.00800000E+00  1.00800000E+00  1.00800000E+00  1.00800000E+00
  1.00800000E+00  1.00800000E+00  1.00800000E+00  1.00800000E+00  1.00800000E+00
  1.00800000E+00  1.00800000E+00  1.00800000E+00  1.00800000E+00  1.00800000E+00
  1.00800000E+00  1.00800000E+00  1.00800000E+00  1.00800000E+00  1.00800000E+00
  1.00800000E+00  1.00800000E+00  1.00800000E+00  1.00800000E+00  1.00800000E+00
  1.00800000E+00  1.00800000E+00  1.00800000E+00  1.00800000E+00  1.00800000E+00
  1.00800000E+00  1.00800000E+00  1.00800000E+00  1.00800000E+00  1.00800000E+00
  1.00800000E+00  1.00800000E+00  1.00800000E+00  1.00800000E+00  1.00800000E+00
  1.00800000E+00  1.00800000E+00  1.00800000E+00  1.00800000E+00  1.00800000E+00
  1.00800000E+00  1.00800000E+00  1.00800000E+00  1.00800000E+00  1.00800000E+00
  1.00800000E+00  1.00800000E+00  1.00800000E+00  1.00800000E+00  1.00800000E+00
  1.00800000E+00  1.00800000E+00  1.00800000E+00  1.00800000E+00  1.00800000E+00
  1.00800000E+00  1.00800000E+00  1.00800000E+00  1.00800000E+00  1.00800000E+00
  1.00800000E+00  1.00800000E+00  1.00800000E+00  1.00800000E+00  1.00800000E+00
  1.00800000E+00  1.00800000E+00  1.00800000E+00  1.00800000E+00  1.00800000E+00
  1.00800000E+00  1.00800000E+00  1.00800000E+00  1.00800000E+00  1.00800000E+00
  1.00800000E+00  1.00800000E+00  1.00800000E+00  1.00800000E+00  1.00800000E+00
  1.00800000E+00  1.00800000E+00  1.00800000E+00  1.00800000E+00  1.00800000E+00
  1.00800000E+00  1.00800000E+00  1.00800000E+00  1.00800000E+00  1.00800000E+00
  1.00800000E+00  1.00800000E+00  1.00800000E+00  1.00800000E+00  1.00800000E+00
  1.00800000E+00  1.00800000E+00  1.00800000E+00  1.00800000E+00  1.00800000E+00
  1.00800000E+00  1.00800000E+00  1.00800000E+00  1.00800000E+00  1.00800000E+00
  1.00800000E+00  1.00800000E+00  1.00800000E+00  1.00800000E+00  1.00800000E+00
  1.00800000E+00  1.00800000E+00  1.00800000E+00  1.00800000E+00  1.00800000E+00
  1.00800000E+00  1.00800000E+00  1.00800000E+00  1.00800000E+00  1.00800000E+00
  1.00800000E+00  1.00800000E+00  1.00800000E+00  1.00800000E+00  1.00800000E+00
  1.00800000E+00  1.00800000E+00  1.00800000E+00  1.00800000E+00  1.00800000E+00
  1.00800000E+00  1.00800000E+00  1.00800000E+00  1.00800000E+00  1.00800000E+00
  1.00800000E+00  1.00800000E+00  1.00800000E+00  1.00800000E+00  1.00800000E+00
  1.00800000E+00  1.00800000E+00  1.00800000E+00  1.00800000E+00  3.54500000E+01
  3.54500000E+01  3.54500000E+01  3.54500000E+01  3.54500000E+01  3.54500000E+01
  3.54500000E+01  3.54500000E+01  3.54500000E+01  3.54500000E+01  3.54500000E+01
  3.54500000E+01  3.54500000E+01  3.54500000E+01  3.54500000E+01  3.54500000E+01
  3.54500000E+01  3.54500000E+01  3.54500000E+01  3.54500000E+01  3.54500000E+01
  3.54500000E+01  3.54500000E+01  3.54500000E+01  3.54500000E+01  3.54500000E+01
  3.54500000E+01  3.54500000E+01  3.54500000E+01  3.54500000E+01  3.54500000E+01
  3.54500000E+01  3.54500000E+01  3.54500000E+01  3.54500000E+01  3.54500000E+01
  3.54500000E+01  3.54500000E+01  3.54500000E+01  3.54500000E+01  3.54500000E+01
  3.54500000E+01  3.54500000E+01  3.54500000E+01  3.54500000E+01  3.54500000E+01
  3.54500000E+01  3.54500000E+01  1.60000000E+01  1.00800000E+00  1.00800000E+00
  1.60000000E+01  1.00800000E+00  1.00800000E+00  1.60000000E+01  1.00800000E+00
  1.00800000E+00  1.60000000E+01  1.00800000E+00  1.00800000E+00  1.60000000E+01
  1.00800000E+00  1.00800000E+00  1.60000000E+01  1.00800000E+00  1.00800000E+00
  1.60000000E+01  1.00800000E+00  1.00800000E+00  1.60000000E+01  1.00800000E+00
  1.00800000E+00  1.60000000E+01  1.00800000E+00  1.00800000E+00  1.60000000E+01
  1.00800000E+00  1.00800000E+00  1.60000000E+01  1.00800000E+00  1.00800000E+00
  1.60000000E+01  1.00800000E+00  1.00800000E+00  1.60000000E+01  1.00800000E+00
  1.00800000E+00  1.60000000E+01  1.00800000E+00  1.00800000E+00  1.60000000E+01
  1.00800000E+00  1.00800000E+00  1.60000000E+01  1.00800000E+00  1.00800000E+00
  1.60000000E+01  1.00800000E+00  1.00800000E+00  1.60000000E+01  1.00800000E+00
  1.00800000E+00  1.60000000E+01  1.00800000E+00  1.00800000E+00  1.60000000E+01
  1.00800000E+00  1.00800000E+00  1.60000000E+01  1.00800000E+00  1.00800000E+00
  1.60000000E+01  1.00800000E+00  1.00800000E+00  1.60000000E+01  1.00800000E+00
  1.00800000E+00  1.60000000E+01  1.00800000E+00  1.00800000E+00  1.60000000E+01
  1.00800000E+00  1.00800000E+00  1.60000000E+01  1.00800000E+00  1.00800000E+00
  1.60000000E+01  1.00800000E+00  1.00800000E+00  1.60000000E+01  1.00800000E+00
  1.00800000E+00  1.60000000E+01  1.00800000E+00  1.00800000E+00  1.60000000E+01
  1.00800000E+00  1.00800000E+00  1.60000000E+01  1.00800000E+00  1.00800000E+00
  1.60000000E+01  1.00800000E+00  1.00800000E+00  1.60000000E+01  1.00800000E+00
  1.00800000E+00  1.60000000E+01  1.00800000E+00  1.00800000E+00  1.60000000E+01
  1.00800000E+00  1.00800000E+00  1.60000000E+01  1.00800000E+00  1.00800000E+00
  1.60000000E+01  1.00800000E+00  1.00800000E+00  1.60000000E+01  1.00800000E+00
  1.00800000E+00  1.60000000E+01  1.00800000E+00  1.00800000E+00  1.60000000E+01
  1.00800000E+00  1.00800000E+00  1.60000000E+01  1.00800000E+00  1.00800000E+00
  1.60000000E+01  1.00800000E+00  1.00800000E+00  1.60000000E+01  1.00800000E+00
  1.00800000E+00  1.60000000E+01  1.00800000E+00  1.00800000E+00  1.60000000E+01
  1.00800000E+00  1.00800000E+00  1.60000000E+01  1.00800000E+00  1.00800000E+00
  1.60000000E+01  1.00800000E+00  1.00800000E+00  1.60000000E+01  1.00800000E+00
  1.00800000E+00  1.60000000E+01  1.00800000E+00  1.00800000E+00  1.60000000E+01
  1.00800000E+00  1.00800000E+00  1.60000000E+01  1.00800000E+00  1.00800000E+00
  1.60000000E+01  1.00800000E+00  1.00800000E+00  1.60000000E+01  1.00800000E+00
  1.00800000E+00  1.60000000E+01  1.00800000E+00  1.00800000E+00  1.60000000E+01
  1.00800000E+00  1.00800000E+00  1.60000000E+01  1.00800000E+00  1.00800000E+00
  1.60000000E+01  1.00800000E+00  1.00800000E+00  1.60000000E+01  1.00800000E+00
  1.00800000E+00  1.60000000E+01  1.00800000E+00  1.00800000E+00  1.60000000E+01
  1.00800000E+00  1.00800000E+00  1.60000000E+01  1.00800000E+00  1.00800000E+00
  1.60000000E+01  1.00800000E+00  1.00800000E+00  1.60000000E+01  1.00800000E+00
  1.00800000E+00  1.60000000E+01  1.00800000E+00  1.00800000E+00  1.60000000E+01
  1.00800000E+00  1.00800000E+00  1.60000000E+01  1.00800000E+00  1.00800000E+00
  1.60000000E+01  1.00800000E+00  1.00800000E+00  1.60000000E+01  1.00800000E+00
  1.00800000E+00  1.60000000E+01  1.00800000E+00  1.00800000E+00  1.60000000E+01
  1.00800000E+00  1.00800000E+00  1.60000000E+01  1.00800000E+00  1.00800000E+00
  1.60000000E+01  1.00800000E+00  1.00800000E+00  1.60000000E+01  1.00800000E+00
  1.00800000E+00  1.60000000E+01  1.00800000E+00  1.00800000E+00  1.60000000E+01
  1.00800000E+00  1.00800000E+00  1.60000000E+01  1.00800000E+00  1.00800000E+00
  1.60000000E+01  1.00800000E+00  1.00800000E+00  1.60000000E+01  1.00800000E+00
  1.00800000E+00  1.60000000E+01  1.00800000E+00  1.00800000E+00  1.60000000E+01
  1.00800000E+00  1.00800000E+00  1.60000000E+01  1.00800000E+00  1.00800000E+00
  1.60000000E+01  1.00800000E+00  1.00800000E+00  1.60000000E+01  1.00800000E+00
  1.00800000E+00  1.60000000E+01  1.00800000E+00  1.00800000E+00  1.60000000E+01
  1.00800000E+00  1.00800000E+00  1.60000000E+01  1.00800000E+00  1.00800000E+00
  1.60000000E+01  1.00800000E+00  1.00800000E+00  1.60000000E+01  1.00800000E+00
  1.00800000E+00  1.60000000E+01  1.00800000E+00  1.00800000E+00  1.60000000E+01
  1.00800000E+00  1.00800000E+00  1.60000000E+01  1.00800000E+00  1.00800000E+00
  1.60000000E+01  1.00800000E+00  1.00800000E+00  1.60000000E+01  1.00800000E+00
  1.00800000E+00  1.60000000E+01  1.00800000E+00  1.00800000E+00  1.60000000E+01
  1.00800000E+00  1.00800000E+00  1.60000000E+01  1.00800000E+00  1.00800000E+00
  1.60000000E+01  1.00800000E+00  1.00800000E+00  1.60000000E+01  1.00800000E+00
  1.00800000E+00  1.60000000E+01  1.00800000E+00  1.00800000E+00  1.60000000E+01
  1.00800000E+00  1.00800000E+00  1.60000000E+01  1.00800000E+00  1.00800000E+00
  1.60000000E+01  1.00800000E+00  1.00800000E+00  1.60000000E+01  1.00800000E+00
  1.00800000E+00  1.60000000E+01  1.00800000E+00  1.00800000E+00  1.60000000E+01
  1.00800000E+00  1.00800000E+00  1.60000000E+01  1.00800000E+00  1.00800000E+00
  1.60000000E+01  1.00800000E+00  1.00800000E+00  1.60000000E+01  1.00800000E+00
  1.00800000E+00  1.60000000E+01  1.00800000E+00  1.00800000E+00  1.60000000E+01
  1.00800000E+00  1.00800000E+00  1.60000000E+01  1.00800000E+00  1.00800000E+00
  1.60000000E+01  1.00800000E+00  1.00800000E+00  1.60000000E+01  1.00800000E+00
  1.00800000E+00  1.60000000E+01  1.00800000E+00  1.00800000E+00  1.60000000E+01
  1.00800000E+00  1.00800000E+00  1.60000000E+01  1.00800000E+00  1.00800000E+00
  1.60000000E+01  1.00800000E+00  1.00800000E+00  1.60000000E+01  1.00800000E+00
  1.00800000E+00  1.60000000E+01  1.00800000E+00  1.00800000E+00  1.60000000E+01
  1.00800000E+00  1.00800000E+00  1.60000000E+01  1.00800000E+00  1.00800000E+00
  1.60000000E+01  1.00800000E+00  1.00800000E+00  1.60000000E+01  1.00800000E+00
  1.00800000E+00  1.60000000E+01  1.00800000E+00  1.00800000E+00  1.60000000E+01
  1.00800000E+00  1.00800000E+00  1.60000000E+01  1.00800000E+00  1.00800000E+00
  1.60000000E+01  1.00800000E+00  1.00800000E+00  1.60000000E+01  1.00800000E+00
  1.00800000E+00  1.60000000E+01  1.00800000E+00  1.00800000E+00  1.60000000E+01
  1.00800000E+00  1.00800000E+00  1.60000000E+01  1.00800000E+00  1.00800000E+00
  1.60000000E+01  1.00800000E+00  1.00800000E+00  1.60000000E+01  1.00800000E+00
  1.00800000E+00  1.60000000E+01  1.00800000E+00  1.00800000E+00  1.60000000E+01
  1.00800000E+00  1.00800000E+00  1.60000000E+01  1.00800000E+00  1.00800000E+00
  1.60000000E+01  1.00800000E+00  1.00800000E+00  1.60000000E+01  1.00800000E+00
  1.00800000E+00  1.60000000E+01  1.00800000E+00  1.00800000E+00  1.60000000E+01
  1.00800000E+00  1.00800000E+00  1.60000000E+01  1.00800000E+00  1.00800000E+00
  1.60000000E+01  1.00800000E+00  1.00800000E+00  1.60000000E+01  1.00800000E+00
  1.00800000E+00  1.60000000E+01  1.00800000E+00  1.00800000E+00  1.60000000E+01
  1.00800000E+00  1.00800000E+00  1.60000000E+01  1.00800000E+00  1.00800000E+00
  1.60000000E+01  1.00800000E+00  1.00800000E+00  1.60000000E+01  1.00800000E+00
  1.00800000E+00  1.60000000E+01  1.00800000E+00  1.00800000E+00  1.60000000E+01
  1.00800000E+00  1.00800000E+00  1.60000000E+01  1.00800000E+00  1.00800000E+00
  1.60000000E+01  1.00800000E+00  1.00800000E+00  1.60000000E+01  1.00800000E+00
  1.00800000E+00  1.60000000E+01  1.00800000E+00  1.00800000E+00  1.60000000E+01
  1.00800000E+00  1.00800000E+00  1.60000000E+01  1.00800000E+00  1.00800000E+00
  1.60000000E+01  1.00800000E+00  1.00800000E+00  1.60000000E+01  1.00800000E+00
  1.00800000E+00  1.60000000E+01  1.00800000E+00  1.00800000E+00  1.60000000E+01
  1.00800000E+00  1.00800000E+00  1.60000000E+01  1.00800000E+00  1.00800000E+00
  1.60000000E+01  1.00800000E+00  1.00800000E+00  1.60000000E+01  1.00800000E+00
  1.00800000E+00  1.60000000E+01  1.00800000E+00  1.00800000E+00  1.60000000E+01
  1.00800000E+00  1.00800000E+00  1.60000000E+01  1.00800000E+00  1.00800000E+00
  1.60000000E+01  1.00800000E+00  1.00800000E+00  1.60000000E+01  1.00800000E+00
  1.00800000E+00  1.60000000E+01  1.00800000E+00  1.00800000E+00  1.60000000E+01
  1.00800000E+00  1.00800000E+00  1.60000000E+01  1.00800000E+00  1.00800000E+00
  1.60000000E+01  1.00800000E+00  1.00800000E+00  1.60000000E+01  1.00800000E+00
  1.00800000E+00  1.60000000E+01  1.00800000E+00  1.00800000E+00  1.60000000E+01
  1.00800000E+00  1.00800000E+00  1.60000000E+01  1.00800000E+00  1.00800000E+00
  1.60000000E+01  1.00800000E+00  1.00800000E+00  1.60000000E+01  1.00800000E+00
  1.00800000E+00  1.60000000E+01  1.00800000E+00  1.00800000E+00  1.60000000E+01
  1.00800000E+00  1.00800000E+00  1.60000000E+01  1.00800000E+00  1.00800000E+00
  1.60000000E+01  1.00800000E+00  1.00800000E+00  1.60000000E+01  1.00800000E+00
  1.00800000E+00  1.60000000E+01  1.00800000E+00  1.00800000E+00  1.60000000E+01
  1.00800000E+00  1.00800000E+00  1.60000000E+01  1.00800000E+00  1.00800000E+00
  1.60000000E+01  1.00800000E+00  1.00800000E+00  1.60000000E+01  1.00800000E+00
  1.00800000E+00  1.60000000E+01  1.00800000E+00  1.00800000E+00  1.60000000E+01
  1.00800000E+00  1.00800000E+00  1.60000000E+01  1.00800000E+00  1.00800000E+00
  1.60000000E+01  1.00800000E+00  1.00800000E+00  1.60000000E+01  1.00800000E+00
  1.00800000E+00  1.60000000E+01  1.00800000E+00  1.00800000E+00  1.60000000E+01
  1.00800000E+00  1.00800000E+00  1.60000000E+01  1.00800000E+00  1.00800000E+00
  1.60000000E+01  1.00800000E+00  1.00800000E+00  1.60000000E+01  1.00800000E+00
  1.00800000E+00  1.60000000E+01  1.00800000E+00  1.00800000E+00  1.60000000E+01
  1.00800000E+00  1.00800000E+00  1.60000000E+01  1.00800000E+00  1.00800000E+00
  1.60000000E+01  1.00800000E+00  1.00800000E+00  1.60000000E+01  1.00800000E+00
  1.00800000E+00  1.60000000E+01  1.00800000E+00  1.00800000E+00  1.60000000E+01
  1.00800000E+00  1.00800000E+00  1.60000000E+01  1.00800000E+00  1.00800000E+00
  1.60000000E+01  1.00800000E+00  1.00800000E+00  1.60000000E+01  1.00800000E+00
  1.00800000E+00  1.60000000E+01  1.00800000E+00  1.00800000E+00  1.60000000E+01
  1.00800000E+00  1.00800000E+00  1.60000000E+01  1.00800000E+00  1.00800000E+00
  1.60000000E+01  1.00800000E+00  1.00800000E+00  1.60000000E+01  1.00800000E+00
  1.00800000E+00  1.60000000E+01  1.00800000E+00  1.00800000E+00  1.60000000E+01
  1.00800000E+00  1.00800000E+00  1.60000000E+01  1.00800000E+00  1.00800000E+00
  1.60000000E+01  1.00800000E+00  1.00800000E+00  1.60000000E+01  1.00800000E+00
  1.00800000E+00  1.60000000E+01  1.00800000E+00  1.00800000E+00  1.60000000E+01
  1.00800000E+00  1.00800000E+00  1.60000000E+01  1.00800000E+00  1.00800000E+00
  1.60000000E+01  1.00800000E+00  1.00800000E+00  1.60000000E+01  1.00800000E+00
  1.00800000E+00  1.60000000E+01  1.00800000E+00  1.00800000E+00  1.60000000E+01
  1.00800000E+00  1.00800000E+00  1.60000000E+01  1.00800000E+00  1.00800000E+00
  1.60000000E+01  1.00800000E+00  1.00800000E+00  1.60000000E+01  1.00800000E+00
  1.00800000E+00  1.60000000E+01  1.00800000E+00  1.00800000E+00  1.60000000E+01
  1.00800000E+00  1.00800000E+00  1.60000000E+01  1.00800000E+00  1.00800000E+00
  1.60000000E+01  1.00800000E+00  1.00800000E+00  1.60000000E+01  1.00800000E+00
  1.00800000E+00  1.60000000E+01  1.00800000E+00  1.00800000E+00  1.60000000E+01
  1.00800000E+00  1.00800000E+00  1.60000000E+01  1.00800000E+00  1.00800000E+00
  1.60000000E+01  1.00800000E+00  1.00800000E+00  1.60000000E+01  1.00800000E+00
  1.00800000E+00  1.60000000E+01  1.00800000E+00  1.00800000E+00  1.60000000E+01
  1.00800000E+00  1.00800000E+00  1.60000000E+01  1.00800000E+00  1.00800000E+00
  1.60000000E+01  1.00800000E+00  1.00800000E+00  1.60000000E+01  1.00800000E+00
  1.00800000E+00  1.60000000E+01  1.00800000E+00  1.00800000E+00  1.60000000E+01
  1.00800000E+00  1.00800000E+00  1.60000000E+01  1.00800000E+00  1.00800000E+00
  1.60000000E+01  1.00800000E+00  1.00800000E+00  1.60000000E+01  1.00800000E+00
  1.00800000E+00  1.60000000E+01  1.00800000E+00  1.00800000E+00  1.60000000E+01
  1.00800000E+00  1.00800000E+00  1.60000000E+01  1.00800000E+00  1.00800000E+00
  1.60000000E+01  1.00800000E+00  1.00800000E+00  1.60000000E+01  1.00800000E+00
  1.00800000E+00  1.60000000E+01  1.00800000E+00  1.00800000E+00  1.60000000E+01
  1.00800000E+00  1.00800000E+00  1.60000000E+01  1.00800000E+00  1.00800000E+00
  1.60000000E+01  1.00800000E+00  1.00800000E+00  1.60000000E+01  1.00800000E+00
  1.00800000E+00  1.60000000E+01  1.00800000E+00  1.00800000E+00  1.60000000E+01
  1.00800000E+00  1.00800000E+00  1.60000000E+01  1.00800000E+00  1.00800000E+00
  1.60000000E+01  1.00800000E+00  1.00800000E+00  1.60000000E+01  1.00800000E+00
  1.00800000E+00  1.60000000E+01  1.00800000E+00  1.00800000E+00  1.60000000E+01
  1.00800000E+00  1.00800000E+00  1.60000000E+01  1.00800000E+00  1.00800000E+00
  1.60000000E+01  1.00800000E+00  1.00800000E+00  1.60000000E+01  1.00800000E+00
  1.00800000E+00  1.60000000E+01  1.00800000E+00  1.00800000E+00  1.60000000E+01
  1.00800000E+00  1.00800000E+00  1.60000000E+01  1.00800000E+00  1.00800000E+00
  1.60000000E+01  1.00800000E+00  1.00800000E+00  1.60000000E+01  1.00800000E+00
  1.00800000E+00  1.60000000E+01  1.00800000E+00  1.00800000E+00  1.60000000E+01
  1.00800000E+00  1.00800000E+00  1.60000000E+01  1.00800000E+00  1.00800000E+00
  1.60000000E+01  1.00800000E+00  1.00800000E+00  1.60000000E+01  1.00800000E+00
  1.00800000E+00  1.60000000E+01  1.00800000E+00  1.00800000E+00  1.60000000E+01
  1.00800000E+00  1.00800000E+00  1.60000000E+01  1.00800000E+00  1.00800000E+00
  1.60000000E+01  1.00800000E+00  1.00800000E+00  1.60000000E+01  1.00800000E+00
  1.00800000E+00  1.60000000E+01  1.00800000E+00  1.00800000E+00  1.60000000E+01
  1.00800000E+00  1.00800000E+00  1.60000000E+01  1.00800000E+00  1.00800000E+00
  1.60000000E+01  1.00800000E+00  1.00800000E+00  1.60000000E+01  1.00800000E+00
  1.00800000E+00  1.60000000E+01  1.00800000E+00  1.00800000E+00  1.60000000E+01
  1.00800000E+00  1.00800000E+00  1.60000000E+01  1.00800000E+00  1.00800000E+00
  1.60000000E+01  1.00800000E+00  1.00800000E+00  1.60000000E+01  1.00800000E+00
  1.00800000E+00  1.60000000E+01  1.00800000E+00  1.00800000E+00  1.60000000E+01
  1.00800000E+00  1.00800000E+00  1.60000000E+01  1.00800000E+00  1.00800000E+00
  1.60000000E+01  1.00800000E+00  1.00800000E+00  1.60000000E+01  1.00800000E+00
  1.00800000E+00  1.60000000E+01  1.00800000E+00  1.00800000E+00  1.60000000E+01
  1.00800000E+00  1.00800000E+00  1.60000000E+01  1.00800000E+00  1.00800000E+00
  1.60000000E+01  1.00800000E+00  1.00800000E+00  1.60000000E+01  1.00800000E+00
  1.00800000E+00  1.60000000E+01  1.00800000E+00  1.00800000E+00  1.60000000E+01
  1.00800000E+00  1.00800000E+00  1.60000000E+01  1.00800000E+00  1.00800000E+00
  1.60000000E+01  1.00800000E+00  1.00800000E+00  1.60000000E+01  1.00800000E+00
  1.00800000E+00  1.60000000E+01  1.00800000E+00  1.00800000E+00  1.60000000E+01
  1.00800000E+00  1.00800000E+00  1.60000000E+01  1.00800000E+00  1.00800000E+00
  1.60000000E+01  1.00800000E+00  1.00800000E+00  1.60000000E+01  1.00800000E+00
  1.00800000E+00  1.60000000E+01  1.00800000E+00  1.00800000E+00  1.60000000E+01
  1.00800000E+00  1.00800000E+00  1.60000000E+01  1.00800000E+00  1.00800000E+00
  1.60000000E+01  1.00800000E+00  1.00800000E+00  1.60000000E+01  1.00800000E+00
  1.00800000E+00  1.60000000E+01  1.00800000E+00  1.00800000E+00  1.60000000E+01
  1.00800000E+00  1.00800000E+00  1.60000000E+01  1.00800000E+00  1.00800000E+00
  1.60000000E+01  1.00800000E+00  1.00800000E+00  1.60000000E+01  1.00800000E+00
  1.00800000E+00  1.60000000E+01  1.00800000E+00  1.00800000E+00  1.60000000E+01
  1.00800000E+00  1.00800000E+00  1.60000000E+01  1.00800000E+00  1.00800000E+00
  1.60000000E+01  1.00800000E+00  1.00800000E+00  1.60000000E+01  1.00800000E+00
  1.00800000E+00  1.60000000E+01  1.00800000E+00  1.00800000E+00  1.60000000E+01
  1.00800000E+00  1.00800000E+00  1.60000000E+01  1.00800000E+00  1.00800000E+00
  1.60000000E+01  1.00800000E+00  1.00800000E+00  1.60000000E+01  1.00800000E+00
  1.00800000E+00  1.60000000E+01  1.00800000E+00  1.00800000E+00  1.60000000E+01
  1.00800000E+00  1.00800000E+00  1.60000000E+01  1.00800000E+00  1.00800000E+00
  1.60000000E+01  1.00800000E+00  1.00800000E+00  1.60000000E+01  1.00800000E+00
  1.00800000E+00  1.60000000E+01  1.00800000E+00  1.00800000E+00  1.60000000E+01
  1.00800000E+00  1.00800000E+00  1.60000000E+01  1.00800000E+00  1.00800000E+00
  1.60000000E+01  1.00800000E+00  1.00800000E+00  1.60000000E+01  1.00800000E+00
  1.00800000E+00  1.60000000E+01  1.00800000E+00  1.00800000E+00  1.60000000E+01
  1.00800000E+00  1.00800000E+00  1.60000000E+01  1.00800000E+00  1.00800000E+00
  1.60000000E+01  1.00800000E+00  1.00800000E+00  1.60000000E+01  1.00800000E+00
  1.00800000E+00  1.60000000E+01  1.00800000E+00  1.00800000E+00  1.60000000E+01
  1.00800000E+00  1.00800000E+00  1.60000000E+01  1.00800000E+00  1.00800000E+00
  1.60000000E+01  1.00800000E+00  1.00800000E+00  1.60000000E+01  1.00800000E+00
  1.00800000E+00  1.60000000E+01  1.00800000E+00  1.00800000E+00  1.60000000E+01
  1.00800000E+00  1.00800000E+00  1.60000000E+01  1.00800000E+00  1.00800000E+00
  1.60000000E+01  1.00800000E+00  1.00800000E+00  1.60000000E+01  1.00800000E+00
  1.00800000E+00  1.60000000E+01  1.00800000E+00  1.00800000E+00  1.60000000E+01
  1.00800000E+00  1.00800000E+00  1.60000000E+01  1.00800000E+00  1.00800000E+00
  1.60000000E+01  1.00800000E+00  1.00800000E+00  1.60000000E+01  1.00800000E+00
  1.00800000E+00  1.60000000E+01  1.00800000E+00  1.00800000E+00  1.60000000E+01
  1.00800000E+00  1.00800000E+00  1.60000000E+01  1.00800000E+00  1.00800000E+00
  1.60000000E+01  1.00800000E+00  1.00800000E+00  1.60000000E+01  1.00800000E+00
  1.00800000E+00  1.60000000E+01  1.00800000E+00  1.00800000E+00  1.60000000E+01
  1.00800000E+00  1.00800000E+00  1.60000000E+01  1.00800000E+00  1.00800000E+00
  1.60000000E+01  1.00800000E+00  1.00800000E+00  1.60000000E+01  1.00800000E+00
  1.00800000E+00  1.60000000E+01  1.00800000E+00  1.00800000E+00  1.60000000E+01
  1.00800000E+00  1.00800000E+00  1.60000000E+01  1.00800000E+00  1.00800000E+00
  1.60000000E+01  1.00800000E+00  1.00800000E+00  1.60000000E+01  1.00800000E+00
  1.00800000E+00  1.60000000E+01  1.00800000E+00  1.00800000E+00  1.60000000E+01
  1.00800000E+00  1.00800000E+00  1.60000000E+01  1.00800000E+00  1.00800000E+00
  1.60000000E+01  1.00800000E+00  1.00800000E+00  1.60000000E+01  1.00800000E+00
  1.00800000E+00  1.60000000E+01  1.00800000E+00  1.00800000E+00  1.60000000E+01
  1.00800000E+00  1.00800000E+00  1.60000000E+01  1.00800000E+00  1.00800000E+00
  1.60000000E+01  1.00800000E+00  1.00800000E+00  1.60000000E+01  1.00800000E+00
  1.00800000E+00  1.60000000E+01  1.00800000E+00  1.00800000E+00  1.60000000E+01
  1.00800000E+00  1.00800000E+00  1.60000000E+01  1.00800000E+00  1.00800000E+00
  1.60000000E+01  1.00800000E+00  1.00800000E+00  1.60000000E+01  1.00800000E+00
  1.00800000E+00  1.60000000E+01  1.00800000E+00  1.00800000E+00  1.60000000E+01
  1.00800000E+00  1.00800000E+00  1.60000000E+01  1.00800000E+00  1.00800000E+00
  1.60000000E+01  1.00800000E+00  1.00800000E+00  1.60000000E+01  1.00800000E+00
  1.00800000E+00  1.60000000E+01  1.00800000E+00  1.00800000E+00  1.60000000E+01
  1.00800000E+00  1.00800000E+00  1.60000000E+01  1.00800000E+00  1.00800000E+00
  1.60000000E+01  1.00800000E+00  1.00800000E+00  1.60000000E+01  1.00800000E+00
  1.00800000E+00  1.60000000E+01  1.00800000E+00  1.00800000E+00  1.60000000E+01
  1.00800000E+00  1.00800000E+00  1.60000000E+01  1.00800000E+00  1.00800000E+00
  1.60000000E+01  1.00800000E+00  1.00800000E+00  1.60000000E+01  1.00800000E+00
  1.00800000E+00  1.60000000E+01  1.00800000E+00  1.00800000E+00  1.60000000E+01
  1.00800000E+00  1.00800000E+00  1.60000000E+01  1.00800000E+00  1.00800000E+00
  1.60000000E+01  1.00800000E+00  1.00800000E+00  1.60000000E+01  1.00800000E+00
  1.00800000E+00  1.60000000E+01  1.00800000E+00  1.00800000E+00  1.60000000E+01
  1.00800000E+00  1.00800000E+00  1.60000000E+01  1.00800000E+00  1.00800000E+00
  1.60000000E+01  1.00800000E+00  1.00800000E+00  1.60000000E+01  1.00800000E+00
  1.00800000E+00  1.60000000E+01  1.00800000E+00  1.00800000E+00  1.60000000E+01
  1.00800000E+00  1.00800000E+00  1.60000000E+01  1.00800000E+00  1.00800000E+00
  1.60000000E+01  1.00800000E+00  1.00800000E+00  1.60000000E+01  1.00800000E+00
  1.00800000E+00  1.60000000E+01  1.00800000E+00  1.00800000E+00  1.60000000E+01
  1.00800000E+00  1.00800000E+00  1.60000000E+01  1.00800000E+00  1.00800000E+00
  1.60000000E+01  1.00800000E+00  1.00800000E+00  1.60000000E+01  1.00800000E+00
  1.00800000E+00  1.60000000E+01  1.00800000E+00  1.00800000E+00  1.60000000E+01
  1.00800000E+00  1.00800000E+00  1.60000000E+01  1.00800000E+00  1.00800000E+00
  1.60000000E+01  1.00800000E+00  1.00800000E+00  1.60000000E+01  1.00800000E+00
  1.00800000E+00  1.60000000E+01  1.00800000E+00  1.00800000E+00  1.60000000E+01
  1.00800000E+00  1.00800000E+00  1.60000000E+01  1.00800000E+00  1.00800000E+00
  1.60000000E+01  1.00800000E+00  1.00800000E+00  1.60000000E+01  1.00800000E+00
  1.00800000E+00  1.60000000E+01  1.00800000E+00  1.00800000E+00  1.60000000E+01
  1.00800000E+00  1.00800000E+00  1.60000000E+01  1.00800000E+00  1.00800000E+00
  1.60000000E+01  1.00800000E+00  1.00800000E+00  1.60000000E+01  1.00800000E+00
  1.00800000E+00  1.60000000E+01  1.00800000E+00  1.00800000E+00  1.60000000E+01
  1.00800000E+00  1.00800000E+00  1.60000000E+01  1.00800000E+00  1.00800000E+00
  1.60000000E+01  1.00800000E+00  1.00800000E+00  1.60000000E+01  1.00800000E+00
  1.00800000E+00  1.60000000E+01  1.00800000E+00  1.00800000E+00  1.60000000E+01
  1.00800000E+00  1.00800000E+00  1.60000000E+01  1.00800000E+00  1.00800000E+00
  1.60000000E+01  1.00800000E+00  1.00800000E+00  1.60000000E+01  1.00800000E+00
  1.00800000E+00  1.60000000E+01  1.00800000E+00  1.00800000E+00  1.60000000E+01
  1.00800000E+00  1.00800000E+00  1.60000000E+01  1.00800000E+00  1.00800000E+00
  1.60000000E+01  1.00800000E+00  1.00800000E+00  1.60000000E+01  1.00800000E+00
  1.00800000E+00  1.60000000E+01  1.00800000E+00  1.00800000E+00  1.60000000E+01
  1.00800000E+00  1.00800000E+00  1.60000000E+01  1.00800000E+00  1.00800000E+00
  1.60000000E+01  1.00800000E+00  1.00800000E+00  1.60000000E+01  1.00800000E+00
  1.00800000E+00  1.60000000E+01  1.00800000E+00  1.00800000E+00  1.60000000E+01
  1.00800000E+00  1.00800000E+00  1.60000000E+01  1.00800000E+00  1.00800000E+00
  1.60000000E+01  1.00800000E+00  1.00800000E+00  1.60000000E+01  1.00800000E+00
  1.00800000E+00  1.60000000E+01  1.00800000E+00  1.00800000E+00  1.60000000E+01
  1.00800000E+00  1.00800000E+00  1.60000000E+01  1.00800000E+00  1.00800000E+00
  1.60000000E+01  1.00800000E+00  1.00800000E+00  1.60000000E+01  1.00800000E+00
  1.00800000E+00  1.60000000E+01  1.00800000E+00  1.00800000E+00  1.60000000E+01
  1.00800000E+00  1.00800000E+00  1.60000000E+01  1.00800000E+00  1.00800000E+00
  1.60000000E+01  1.00800000E+00  1.00800000E+00  1.60000000E+01  1.00800000E+00
  1.00800000E+00  1.60000000E+01  1.00800000E+00  1.00800000E+00  1.60000000E+01
  1.00800000E+00  1.00800000E+00  1.60000000E+01  1.00800000E+00  1.00800000E+00
  1.60000000E+01  1.00800000E+00  1.00800000E+00  1.60000000E+01  1.00800000E+00
  1.00800000E+00  1.60000000E+01  1.00800000E+00  1.00800000E+00  1.60000000E+01
  1.00800000E+00  1.00800000E+00  1.60000000E+01  1.00800000E+00  1.00800000E+00
  1.60000000E+01  1.00800000E+00  1.00800000E+00  1.60000000E+01  1.00800000E+00
  1.00800000E+00  1.60000000E+01  1.00800000E+00  1.00800000E+00  1.60000000E+01
  1.00800000E+00  1.00800000E+00  1.60000000E+01  1.00800000E+00  1.00800000E+00
  1.60000000E+01  1.00800000E+00  1.00800000E+00  1.60000000E+01  1.00800000E+00
  1.00800000E+00  1.60000000E+01  1.00800000E+00  1.00800000E+00  1.60000000E+01
  1.00800000E+00  1.00800000E+00  1.60000000E+01  1.00800000E+00  1.00800000E+00
  1.60000000E+01  1.00800000E+00  1.00800000E+00  1.60000000E+01  1.00800000E+00
  1.00800000E+00  1.60000000E+01  1.00800000E+00  1.00800000E+00  1.60000000E+01
  1.00800000E+00  1.00800000E+00  1.60000000E+01  1.00800000E+00  1.00800000E+00
  1.60000000E+01  1.00800000E+00  1.00800000E+00  1.60000000E+01  1.00800000E+00
  1.00800000E+00  1.60000000E+01  1.00800000E+00  1.00800000E+00  1.60000000E+01
  1.00800000E+00  1.00800000E+00  1.60000000E+01  1.00800000E+00  1.00800000E+00
  1.60000000E+01  1.00800000E+00  1.00800000E+00  1.60000000E+01  1.00800000E+00
  1.00800000E+00  1.60000000E+01  1.00800000E+00  1.00800000E+00  1.60000000E+01
  1.00800000E+00  1.00800000E+00  1.60000000E+01  1.00800000E+00  1.00800000E+00
  1.60000000E+01  1.00800000E+00  1.00800000E+00  1.60000000E+01  1.00800000E+00
  1.00800000E+00  1.60000000E+01  1.00800000E+00  1.00800000E+00  1.60000000E+01
  1.00800000E+00  1.00800000E+00  1.60000000E+01  1.00800000E+00  1.00800000E+00
  1.60000000E+01  1.00800000E+00  1.00800000E+00  1.60000000E+01  1.00800000E+00
  1.00800000E+00  1.60000000E+01  1.00800000E+00  1.00800000E+00  1.60000000E+01
  1.00800000E+00  1.00800000E+00  1.60000000E+01  1.00800000E+00  1.00800000E+00
  1.60000000E+01  1.00800000E+00  1.00800000E+00  1.60000000E+01  1.00800000E+00
  1.00800000E+00  1.60000000E+01  1.00800000E+00  1.00800000E+00  1.60000000E+01
  1.00800000E+00  1.00800000E+00  1.60000000E+01  1.00800000E+00  1.00800000E+00
  1.60000000E+01  1.00800000E+00  1.00800000E+00  1.60000000E+01  1.00800000E+00
  1.00800000E+00  1.60000000E+01  1.00800000E+00  1.00800000E+00  1.60000000E+01
  1.00800000E+00  1.00800000E+00  1.60000000E+01  1.00800000E+00  1.00800000E+00
  1.60000000E+01  1.00800000E+00  1.00800000E+00  1.60000000E+01  1.00800000E+00
  1.00800000E+00  1.60000000E+01  1.00800000E+00  1.00800000E+00  1.60000000E+01
  1.00800000E+00  1.00800000E+00  1.60000000E+01  1.00800000E+00  1.00800000E+00
  1.60000000E+01  1.00800000E+00  1.00800000E+00  1.60000000E+01  1.00800000E+00
  1.00800000E+00  1.60000000E+01  1.00800000E+00  1.00800000E+00  1.60000000E+01
  1.00800000E+00  1.00800000E+00  1.60000000E+01  1.00800000E+00  1.00800000E+00
  1.60000000E+01  1.00800000E+00  1.00800000E+00  1.60000000E+01  1.00800000E+00
  1.00800000E+00  1.60000000E+01  1.00800000E+00  1.00800000E+00  1.60000000E+01
  1.00800000E+00  1.00800000E+00  1.60000000E+01  1.00800000E+00  1.00800000E+00
  1.60000000E+01  1.00800000E+00  1.00800000E+00  1.60000000E+01  1.00800000E+00
  1.00800000E+00  1.60000000E+01  1.00800000E+00  1.00800000E+00  1.60000000E+01
  1.00800000E+00  1.00800000E+00  1.60000000E+01  1.00800000E+00  1.00800000E+00
  1.60000000E+01  1.00800000E+00  1.00800000E+00  1.60000000E+01  1.00800000E+00
  1.00800000E+00  1.60000000E+01  1.00800000E+00  1.00800000E+00  1.60000000E+01
  1.00800000E+00  1.00800000E+00  1.60000000E+01  1.00800000E+00  1.00800000E+00
  1.60000000E+01  1.00800000E+00  1.00800000E+00  1.60000000E+01  1.00800000E+00
  1.00800000E+00  1.60000000E+01  1.00800000E+00  1.00800000E+00  1.60000000E+01
  1.00800000E+00  1.00800000E+00  1.60000000E+01  1.00800000E+00  1.00800000E+00
  1.60000000E+01  1.00800000E+00  1.00800000E+00  1.60000000E+01  1.00800000E+00
  1.00800000E+00  1.60000000E+01  1.00800000E+00  1.00800000E+00  1.60000000E+01
  1.00800000E+00  1.00800000E+00  1.60000000E+01  1.00800000E+00  1.00800000E+00
  1.60000000E+01  1.00800000E+00  1.00800000E+00  1.60000000E+01  1.00800000E+00
  1.00800000E+00  1.60000000E+01  1.00800000E+00  1.00800000E+00  1.60000000E+01
  1.00800000E+00  1.00800000E+00  1.60000000E+01  1.00800000E+00  1.00800000E+00
  1.60000000E+01  1.00800000E+00  1.00800000E+00  1.60000000E+01  1.00800000E+00
  1.00800000E+00  1.60000000E+01  1.00800000E+00  1.00800000E+00  1.60000000E+01
  1.00800000E+00  1.00800000E+00  1.60000000E+01  1.00800000E+00  1.00800000E+00
  1.60000000E+01  1.00800000E+00  1.00800000E+00  1.60000000E+01  1.00800000E+00
  1.00800000E+00  1.60000000E+01  1.00800000E+00  1.00800000E+00  1.60000000E+01
  1.00800000E+00  1.00800000E+00  1.60000000E+01  1.00800000E+00  1.00800000E+00
  1.60000000E+01  1.00800000E+00  1.00800000E+00  1.60000000E+01  1.00800000E+00
  1.00800000E+00  1.60000000E+01  1.00800000E+00  1.00800000E+00  1.60000000E+01
  1.00800000E+00  1.00800000E+00  1.60000000E+01  1.00800000E+00  1.00800000E+00
  1.60000000E+01  1.00800000E+00  1.00800000E+00  1.60000000E+01  1.00800000E+00
  1.00800000E+00  1.60000000E+01  1.00800000E+00  1.00800000E+00  1.60000000E+01
  1.00800000E+00  1.00800000E+00  1.60000000E+01  1.00800000E+00  1.00800000E+00
  1.60000000E+01  1.00800000E+00  1.00800000E+00  1.60000000E+01  1.00800000E+00
  1.00800000E+00  1.60000000E+01  1.00800000E+00  1.00800000E+00  1.60000000E+01
  1.00800000E+00  1.00800000E+00  1.60000000E+01  1.00800000E+00  1.00800000E+00
  1.60000000E+01  1.00800000E+00  1.00800000E+00  1.60000000E+01  1.00800000E+00
  1.00800000E+00  1.60000000E+01  1.00800000E+00  1.00800000E+00  1.60000000E+01
  1.00800000E+00  1.00800000E+00  1.60000000E+01  1.00800000E+00  1.00800000E+00
  1.60000000E+01  1.00800000E+00  1.00800000E+00  1.60000000E+01  1.00800000E+00
  1.00800000E+00  1.60000000E+01  1.00800000E+00  1.00800000E+00  1.60000000E+01
  1.00800000E+00  1.00800000E+00  1.60000000E+01  1.00800000E+00  1.00800000E+00
  1.60000000E+01  1.00800000E+00  1.00800000E+00  1.60000000E+01  1.00800000E+00
  1.00800000E+00  1.60000000E+01  1.00800000E+00  1.00800000E+00  1.60000000E+01
  1.00800000E+00  1.00800000E+00  1.60000000E+01  1.00800000E+00  1.00800000E+00
  1.60000000E+01  1.00800000E+00  1.00800000E+00  1.60000000E+01  1.00800000E+00
  1.00800000E+00  1.60000000E+01  1.00800000E+00  1.00800000E+00  1.60000000E+01
  1.00800000E+00  1.00800000E+00  1.60000000E+01  1.00800000E+00  1.00800000E+00
  1.60000000E+01  1.00800000E+00  1.00800000E+00  1.60000000E+01  1.00800000E+00
  1.00800000E+00  1.60000000E+01  1.00800000E+00  1.00800000E+00  1.60000000E+01
  1.00800000E+00  1.00800000E+00  1.60000000E+01  1.00800000E+00  1.00800000E+00
  1.60000000E+01  1.00800000E+00  1.00800000E+00  1.60000000E+01  1.00800000E+00
  1.00800000E+00  1.60000000E+01  1.00800000E+00  1.00800000E+00  1.60000000E+01
  1.00800000E+00  1.00800000E+00  1.60000000E+01  1.00800000E+00  1.00800000E+00
  1.60000000E+01  1.00800000E+00  1.00800000E+00  1.60000000E+01  1.00800000E+00
  1.00800000E+00  1.60000000E+01  1.00800000E+00  1.00800000E+00  1.60000000E+01
  1.00800000E+00  1.00800000E+00  1.60000000E+01  1.00800000E+00  1.00800000E+00
  1.60000000E+01  1.00800000E+00  1.00800000E+00  1.60000000E+01  1.00800000E+00
  1.00800000E+00  1.60000000E+01  1.00800000E+00  1.00800000E+00  1.60000000E+01
  1.00800000E+00  1.00800000E+00  1.60000000E+01  1.00800000E+00  1.00800000E+00
  1.60000000E+01  1.00800000E+00  1.00800000E+00  1.60000000E+01  1.00800000E+00
  1.00800000E+00  1.60000000E+01  1.00800000E+00  1.00800000E+00  1.60000000E+01
  1.00800000E+00  1.00800000E+00  1.60000000E+01  1.00800000E+00  1.00800000E+00
  1.60000000E+01  1.00800000E+00  1.00800000E+00  1.60000000E+01  1.00800000E+00
  1.00800000E+00  1.60000000E+01  1.00800000E+00  1.00800000E+00  1.60000000E+01
  1.00800000E+00  1.00800000E+00  1.60000000E+01  1.00800000E+00  1.00800000E+00
  1.60000000E+01  1.00800000E+00  1.00800000E+00  1.60000000E+01  1.00800000E+00
  1.00800000E+00  1.60000000E+01  1.00800000E+00  1.00800000E+00  1.60000000E+01
  1.00800000E+00  1.00800000E+00  1.60000000E+01  1.00800000E+00  1.00800000E+00
  1.60000000E+01  1.00800000E+00  1.00800000E+00  1.60000000E+01  1.00800000E+00
  1.00800000E+00  1.60000000E+01  1.00800000E+00  1.00800000E+00  1.60000000E+01
  1.00800000E+00  1.00800000E+00  1.60000000E+01  1.00800000E+00  1.00800000E+00
  1.60000000E+01  1.00800000E+00  1.00800000E+00  1.60000000E+01  1.00800000E+00
  1.00800000E+00  1.60000000E+01  1.00800000E+00  1.00800000E+00  1.60000000E+01
  1.00800000E+00  1.00800000E+00  1.60000000E+01  1.00800000E+00  1.00800000E+00
  1.60000000E+01  1.00800000E+00  1.00800000E+00  1.60000000E+01  1.00800000E+00
  1.00800000E+00  1.60000000E+01  1.00800000E+00  1.00800000E+00  1.60000000E+01
  1.00800000E+00  1.00800000E+00  1.60000000E+01  1.00800000E+00  1.00800000E+00
  1.60000000E+01  1.00800000E+00  1.00800000E+00  1.60000000E+01  1.00800000E+00
  1.00800000E+00  1.60000000E+01  1.00800000E+00  1.00800000E+00  1.60000000E+01
  1.00800000E+00  1.00800000E+00  1.60000000E+01  1.00800000E+00  1.00800000E+00
  1.60000000E+01  1.00800000E+00  1.00800000E+00  1.60000000E+01  1.00800000E+00
  1.00800000E+00  1.60000000E+01  1.00800000E+00  1.00800000E+00  1.60000000E+01
  1.00800000E+00  1.00800000E+00  1.60000000E+01  1.00800000E+00  1.00800000E+00
  1.60000000E+01  1.00800000E+00  1.00800000E+00  1.60000000E+01  1.00800000E+00
  1.00800000E+00  1.60000000E+01  1.00800000E+00  1.00800000E+00  1.60000000E+01
  1.00800000E+00  1.00800000E+00  1.60000000E+01  1.00800000E+00  1.00800000E+00
  1.60000000E+01  1.00800000E+00  1.00800000E+00  1.60000000E+01  1.00800000E+00
  1.00800000E+00  1.60000000E+01  1.00800000E+00  1.00800000E+00  1.60000000E+01
  1.00800000E+00  1.00800000E+00  1.60000000E+01  1.00800000E+00  1.00800000E+00
  1.60000000E+01  1.00800000E+00  1.00800000E+00  1.60000000E+01  1.00800000E+00
  1.00800000E+00  1.60000000E+01  1.00800000E+00  1.00800000E+00  1.60000000E+01
  1.00800000E+00  1.00800000E+00  1.60000000E+01  1.00800000E+00  1.00800000E+00
  1.60000000E+01  1.00800000E+00  1.00800000E+00  1.60000000E+01  1.00800000E+00
  1.00800000E+00  1.60000000E+01  1.00800000E+00  1.00800000E+00  1.60000000E+01
  1.00800000E+00  1.00800000E+00  1.60000000E+01  1.00800000E+00  1.00800000E+00
  1.60000000E+01  1.00800000E+00  1.00800000E+00  1.60000000E+01  1.00800000E+00
  1.00800000E+00  1.60000000E+01  1.00800000E+00  1.00800000E+00  1.60000000E+01
  1.00800000E+00  1.00800000E+00  1.60000000E+01  1.00800000E+00  1.00800000E+00
  1.60000000E+01  1.00800000E+00  1.00800000E+00  1.60000000E+01  1.00800000E+00
  1.00800000E+00  1.60000000E+01  1.00800000E+00  1.00800000E+00  1.60000000E+01
  1.00800000E+00  1.00800000E+00  1.60000000E+01  1.00800000E+00  1.00800000E+00
  1.60000000E+01  1.00800000E+00  1.00800000E+00  1.60000000E+01  1.00800000E+00
  1.00800000E+00  1.60000000E+01  1.00800000E+00  1.00800000E+00  1.60000000E+01
  1.00800000E+00  1.00800000E+00  1.60000000E+01  1.00800000E+00  1.00800000E+00
  1.60000000E+01  1.00800000E+00  1.00800000E+00  1.60000000E+01  1.00800000E+00
  1.00800000E+00  1.60000000E+01  1.00800000E+00  1.00800000E+00  1.60000000E+01
  1.00800000E+00  1.00800000E+00  1.60000000E+01  1.00800000E+00  1.00800000E+00
  1.60000000E+01  1.00800000E+00  1.00800000E+00  1.60000000E+01  1.00800000E+00
  1.00800000E+00  1.60000000E+01  1.00800000E+00  1.00800000E+00  1.60000000E+01
  1.00800000E+00  1.00800000E+00  1.60000000E+01  1.00800000E+00  1.00800000E+00
  1.60000000E+01  1.00800000E+00  1.00800000E+00  1.60000000E+01  1.00800000E+00
  1.00800000E+00  1.60000000E+01  1.00800000E+00  1.00800000E+00  1.60000000E+01
  1.00800000E+00  1.00800000E+00  1.60000000E+01  1.00800000E+00  1.00800000E+00
  1.60000000E+01  1.00800000E+00  1.00800000E+00  1.60000000E+01  1.00800000E+00
  1.00800000E+00  1.60000000E+01  1.00800000E+00  1.00800000E+00  1.60000000E+01
  1.00800000E+00  1.00800000E+00  1.60000000E+01  1.00800000E+00  1.00800000E+00
  1.60000000E+01  1.00800000E+00  1.00800000E+00  1.60000000E+01  1.00800000E+00
  1.00800000E+00  1.60000000E+01  1.00800000E+00  1.00800000E+00  1.60000000E+01
  1.00800000E+00  1.00800000E+00  1.60000000E+01  1.00800000E+00  1.00800000E+00
  1.60000000E+01  1.00800000E+00  1.00800000E+00  1.60000000E+01  1.00800000E+00
  1.00800000E+00  1.60000000E+01  1.00800000E+00  1.00800000E+00  1.60000000E+01
  1.00800000E+00  1.00800000E+00  1.60000000E+01  1.00800000E+00  1.00800000E+00
  1.60000000E+01  1.00800000E+00  1.00800000E+00  1.60000000E+01  1.00800000E+00
  1.00800000E+00  1.60000000E+01  1.00800000E+00  1.00800000E+00  1.60000000E+01
  1.00800000E+00  1.00800000E+00  1.60000000E+01  1.00800000E+00  1.00800000E+00
  1.60000000E+01  1.00800000E+00  1.00800000E+00  1.60000000E+01  1.00800000E+00
  1.00800000E+00  1.60000000E+01  1.00800000E+00  1.00800000E+00  1.60000000E+01
  1.00800000E+00  1.00800000E+00  1.60000000E+01  1.00800000E+00  1.00800000E+00
  1.60000000E+01  1.00800000E+00  1.00800000E+00  1.60000000E+01  1.00800000E+00
  1.00800000E+00  1.60000000E+01  1.00800000E+00  1.00800000E+00  1.60000000E+01
  1.00800000E+00  1.00800000E+00  1.60000000E+01  1.00800000E+00  1.00800000E+00
  1.60000000E+01  1.00800000E+00  1.00800000E+00  1.60000000E+01  1.00800000E+00
  1.00800000E+00  1.60000000E+01  1.00800000E+00  1.00800000E+00  1.60000000E+01
  1.00800000E+00  1.00800000E+00  1.60000000E+01  1.00800000E+00  1.00800000E+00
  1.60000000E+01  1.00800000E+00  1.00800000E+00  1.60000000E+01  1.00800000E+00
  1.00800000E+00  1.60000000E+01  1.00800000E+00  1.00800000E+00  1.60000000E+01
  1.00800000E+00  1.00800000E+00  1.60000000E+01  1.00800000E+00  1.00800000E+00
  1.60000000E+01  1.00800000E+00  1.00800000E+00  1.60000000E+01  1.00800000E+00
  1.00800000E+00  1.60000000E+01  1.00800000E+00  1.00800000E+00  1.60000000E+01
  1.00800000E+00  1.00800000E+00  1.60000000E+01  1.00800000E+00  1.00800000E+00
  1.60000000E+01  1.00800000E+00  1.00800000E+00  1.60000000E+01  1.00800000E+00
  1.00800000E+00  1.60000000E+01  1.00800000E+00  1.00800000E+00  1.60000000E+01
  1.00800000E+00  1.00800000E+00  1.60000000E+01  1.00800000E+00  1.00800000E+00
  1.60000000E+01  1.00800000E+00  1.00800000E+00  1.60000000E+01  1.00800000E+00
  1.00800000E+00  1.60000000E+01  1.00800000E+00  1.00800000E+00  1.60000000E+01
  1.00800000E+00  1.00800000E+00  1.60000000E+01  1.00800000E+00  1.00800000E+00
  1.60000000E+01  1.00800000E+00  1.00800000E+00  1.60000000E+01  1.00800000E+00
  1.00800000E+00  1.60000000E+01  1.00800000E+00  1.00800000E+00  1.60000000E+01
  1.00800000E+00  1.00800000E+00  1.60000000E+01  1.00800000E+00  1.00800000E+00
  1.60000000E+01  1.00800000E+00  1.00800000E+00  1.60000000E+01  1.00800000E+00
  1.00800000E+00  1.60000000E+01  1.00800000E+00  1.00800000E+00  1.60000000E+01
  1.00800000E+00  1.00800000E+00  1.60000000E+01  1.00800000E+00  1.00800000E+00
  1.60000000E+01  1.00800000E+00  1.00800000E+00  1.60000000E+01  1.00800000E+00
  1.00800000E+00  1.60000000E+01  1.00800000E+00  1.00800000E+00  1.60000000E+01
  1.00800000E+00  1.00800000E+00  1.60000000E+01  1.00800000E+00  1.00800000E+00
  1.60000000E+01  1.00800000E+00  1.00800000E+00  1.60000000E+01  1.00800000E+00
  1.00800000E+00  1.60000000E+01  1.00800000E+00  1.00800000E+00  1.60000000E+01
  1.00800000E+00  1.00800000E+00  1.60000000E+01  1.00800000E+00  1.00800000E+00
  1.60000000E+01  1.00800000E+00  1.00800000E+00  1.60000000E+01  1.00800000E+00
  1.00800000E+00  1.60000000E+01  1.00800000E+00  1.00800000E+00  1.60000000E+01
  1.00800000E+00  1.00800000E+00  1.60000000E+01  1.00800000E+00  1.00800000E+00
  1.60000000E+01  1.00800000E+00  1.00800000E+00  1.60000000E+01  1.00800000E+00
  1.00800000E+00  1.60000000E+01  1.00800000E+00  1.00800000E+00  1.60000000E+01
  1.00800000E+00  1.00800000E+00  1.60000000E+01  1.00800000E+00  1.00800000E+00
  1.60000000E+01  1.00800000E+00  1.00800000E+00  1.60000000E+01  1.00800000E+00
  1.00800000E+00  1.60000000E+01  1.00800000E+00  1.00800000E+00  1.60000000E+01
  1.00800000E+00  1.00800000E+00  1.60000000E+01  1.00800000E+00  1.00800000E+00
  1.60000000E+01  1.00800000E+00  1.00800000E+00  1.60000000E+01  1.00800000E+00
  1.00800000E+00  1.60000000E+01  1.00800000E+00  1.00800000E+00  1.60000000E+01
  1.00800000E+00  1.00800000E+00  1.60000000E+01  1.00800000E+00  1.00800000E+00
  1.60000000E+01  1.00800000E+00  1.00800000E+00  1.60000000E+01  1.00800000E+00
  1.00800000E+00  1.60000000E+01  1.00800000E+00  1.00800000E+00  1.60000000E+01
  1.00800000E+00  1.00800000E+00  1.60000000E+01  1.00800000E+00  1.00800000E+00
  1.60000000E+01  1.00800000E+00  1.00800000E+00  1.60000000E+01  1.00800000E+00
  1.00800000E+00  1.60000000E+01  1.00800000E+00  1.00800000E+00  1.60000000E+01
  1.00800000E+00  1.00800000E+00  1.60000000E+01  1.00800000E+00  1.00800000E+00
  1.60000000E+01  1.00800000E+00  1.00800000E+00  1.60000000E+01  1.00800000E+00
  1.00800000E+00  1.60000000E+01  1.00800000E+00  1.00800000E+00  1.60000000E+01
  1.00800000E+00  1.00800000E+00  1.60000000E+01  1.00800000E+00  1.00800000E+00
  1.60000000E+01  1.00800000E+00  1.00800000E+00  1.60000000E+01  1.00800000E+00
  1.00800000E+00  1.60000000E+01  1.00800000E+00  1.00800000E+00  1.60000000E+01
  1.00800000E+00  1.00800000E+00  1.60000000E+01  1.00800000E+00  1.00800000E+00
  1.60000000E+01  1.00800000E+00  1.00800000E+00  1.60000000E+01  1.00800000E+00
  1.00800000E+00  1.60000000E+01  1.00800000E+00  1.00800000E+00  1.60000000E+01
  1.00800000E+00  1.00800000E+00  1.60000000E+01  1.00800000E+00  1.00800000E+00
  1.60000000E+01  1.00800000E+00  1.00800000E+00  1.60000000E+01  1.00800000E+00
  1.00800000E+00  1.60000000E+01  1.00800000E+00  1.00800000E+00  1.60000000E+01
  1.00800000E+00  1.00800000E+00  1.60000000E+01  1.00800000E+00  1.00800000E+00
  1.60000000E+01  1.00800000E+00  1.00800000E+00  1.60000000E+01  1.00800000E+00
  1.00800000E+00  1.60000000E+01  1.00800000E+00  1.00800000E+00  1.60000000E+01
  1.00800000E+00  1.00800000E+00  1.60000000E+01  1.00800000E+00  1.00800000E+00
  1.60000000E+01  1.00800000E+00  1.00800000E+00  1.60000000E+01  1.00800000E+00
  1.00800000E+00  1.60000000E+01  1.00800000E+00  1.00800000E+00  1.60000000E+01
  1.00800000E+00  1.00800000E+00  1.60000000E+01  1.00800000E+00  1.00800000E+00
  1.60000000E+01  1.00800000E+00  1.00800000E+00  1.60000000E+01  1.00800000E+00
  1.00800000E+00  1.60000000E+01  1.00800000E+00  1.00800000E+00  1.60000000E+01
  1.00800000E+00  1.00800000E+00  1.60000000E+01  1.00800000E+00  1.00800000E+00
  1.60000000E+01  1.00800000E+00  1.00800000E+00  1.60000000E+01  1.00800000E+00
  1.00800000E+00  1.60000000E+01  1.00800000E+00  1.00800000E+00  1.60000000E+01
  1.00800000E+00  1.00800000E+00  1.60000000E+01  1.00800000E+00  1.00800000E+00
  1.60000000E+01  1.00800000E+00  1.00800000E+00  1.60000000E+01  1.00800000E+00
  1.00800000E+00  1.60000000E+01  1.00800000E+00  1.00800000E+00  1.60000000E+01
  1.00800000E+00  1.00800000E+00  1.60000000E+01  1.00800000E+00  1.00800000E+00
  1.60000000E+01  1.00800000E+00  1.00800000E+00  1.60000000E+01  1.00800000E+00
  1.00800000E+00  1.60000000E+01  1.00800000E+00  1.00800000E+00  1.60000000E+01
  1.00800000E+00  1.00800000E+00  1.60000000E+01  1.00800000E+00  1.00800000E+00
  1.60000000E+01  1.00800000E+00  1.00800000E+00  1.60000000E+01  1.00800000E+00
  1.00800000E+00  1.60000000E+01  1.00800000E+00  1.00800000E+00  1.60000000E+01
  1.00800000E+00  1.00800000E+00  1.60000000E+01  1.00800000E+00  1.00800000E+00
  1.60000000E+01  1.00800000E+00  1.00800000E+00  1.60000000E+01  1.00800000E+00
  1.00800000E+00  1.60000000E+01  1.00800000E+00  1.00800000E+00  1.60000000E+01
  1.00800000E+00  1.00800000E+00  1.60000000E+01  1.00800000E+00  1.00800000E+00
  1.60000000E+01  1.00800000E+00  1.00800000E+00  1.60000000E+01  1.00800000E+00
  1.00800000E+00  1.60000000E+01  1.00800000E+00  1.00800000E+00  1.60000000E+01
  1.00800000E+00  1.00800000E+00  1.60000000E+01  1.00800000E+00  1.00800000E+00
  1.60000000E+01  1.00800000E+00  1.00800000E+00  1.60000000E+01  1.00800000E+00
  1.00800000E+00  1.60000000E+01  1.00800000E+00  1.00800000E+00  1.60000000E+01
  1.00800000E+00  1.00800000E+00  1.60000000E+01  1.00800000E+00  1.00800000E+00
  1.60000000E+01  1.00800000E+00  1.00800000E+00  1.60000000E+01  1.00800000E+00
  1.00800000E+00  1.60000000E+01  1.00800000E+00  1.00800000E+00  1.60000000E+01
  1.00800000E+00  1.00800000E+00  1.60000000E+01  1.00800000E+00  1.00800000E+00
  1.60000000E+01  1.00800000E+00  1.00800000E+00  1.60000000E+01  1.00800000E+00
  1.00800000E+00  1.60000000E+01  1.00800000E+00  1.00800000E+00  1.60000000E+01
  1.00800000E+00  1.00800000E+00  1.60000000E+01  1.00800000E+00  1.00800000E+00
  1.60000000E+01  1.00800000E+00  1.00800000E+00  1.60000000E+01  1.00800000E+00
  1.00800000E+00  1.60000000E+01  1.00800000E+00  1.00800000E+00  1.60000000E+01
  1.00800000E+00  1.00800000E+00  1.60000000E+01  1.00800000E+00  1.00800000E+00
  1.60000000E+01  1.00800000E+00  1.00800000E+00  1.60000000E+01  1.00800000E+00
  1.00800000E+00  1.60000000E+01  1.00800000E+00  1.00800000E+00  1.60000000E+01
  1.00800000E+00  1.00800000E+00  1.60000000E+01  1.00800000E+00  1.00800000E+00
  1.60000000E+01  1.00800000E+00  1.00800000E+00  1.60000000E+01  1.00800000E+00
  1.00800000E+00  1.60000000E+01  1.00800000E+00  1.00800000E+00  1.60000000E+01
  1.00800000E+00  1.00800000E+00  1.60000000E+01  1.00800000E+00  1.00800000E+00
  1.60000000E+01  1.00800000E+00  1.00800000E+00  1.60000000E+01  1.00800000E+00
  1.00800000E+00  1.60000000E+01  1.00800000E+00  1.00800000E+00  1.60000000E+01
  1.00800000E+00  1.00800000E+00  1.60000000E+01  1.00800000E+00  1.00800000E+00
  1.60000000E+01  1.00800000E+00  1.00800000E+00  1.60000000E+01  1.00800000E+00
  1.00800000E+00  1.60000000E+01  1.00800000E+00  1.00800000E+00  1.60000000E+01
  1.00800000E+00  1.00800000E+00  1.60000000E+01  1.00800000E+00  1.00800000E+00
  1.60000000E+01  1.00800000E+00  1.00800000E+00  1.60000000E+01  1.00800000E+00
  1.00800000E+00  1.60000000E+01  1.00800000E+00  1.00800000E+00  1.60000000E+01
  1.00800000E+00  1.00800000E+00  1.60000000E+01  1.00800000E+00  1.00800000E+00
  1.60000000E+01  1.00800000E+00  1.00800000E+00  1.60000000E+01  1.00800000E+00
  1.00800000E+00  1.60000000E+01  1.00800000E+00  1.00800000E+00  1.60000000E+01
  1.00800000E+00  1.00800000E+00  1.60000000E+01  1.00800000E+00  1.00800000E+00
  1.60000000E+01  1.00800000E+00  1.00800000E+00  1.60000000E+01  1.00800000E+00
  1.00800000E+00  1.60000000E+01  1.00800000E+00  1.00800000E+00  1.60000000E+01
  1.00800000E+00  1.00800000E+00  1.60000000E+01  1.00800000E+00  1.00800000E+00
  1.60000000E+01  1.00800000E+00  1.00800000E+00  1.60000000E+01  1.00800000E+00
  1.00800000E+00  1.60000000E+01  1.00800000E+00  1.00800000E+00  1.60000000E+01
  1.00800000E+00  1.00800000E+00  1.60000000E+01  1.00800000E+00  1.00800000E+00
  1.60000000E+01  1.00800000E+00  1.00800000E+00  1.60000000E+01  1.00800000E+00
  1.00800000E+00  1.60000000E+01  1.00800000E+00  1.00800000E+00  1.60000000E+01
  1.00800000E+00  1.00800000E+00  1.60000000E+01  1.00800000E+00  1.00800000E+00
  1.60000000E+01  1.00800000E+00  1.00800000E+00  1.60000000E+01  1.00800000E+00
  1.00800000E+00  1.60000000E+01  1.00800000E+00  1.00800000E+00  1.60000000E+01
  1.00800000E+00  1.00800000E+00  1.60000000E+01  1.00800000E+00  1.00800000E+00
  1.60000000E+01  1.00800000E+00  1.00800000E+00  1.60000000E+01  1.00800000E+00
  1.00800000E+00  1.60000000E+01  1.00800000E+00  1.00800000E+00  1.60000000E+01
  1.00800000E+00  1.00800000E+00  1.60000000E+01  1.00800000E+00  1.00800000E+00
  1.60000000E+01  1.00800000E+00  1.00800000E+00  1.60000000E+01  1.00800000E+00
  1.00800000E+00  1.60000000E+01  1.00800000E+00  1.00800000E+00  1.60000000E+01
  1.00800000E+00  1.00800000E+00  1.60000000E+01  1.00800000E+00  1.00800000E+00
  1.60000000E+01  1.00800000E+00  1.00800000E+00  1.60000000E+01  1.00800000E+00
  1.00800000E+00  1.60000000E+01  1.00800000E+00  1.00800000E+00  1.60000000E+01
  1.00800000E+00  1.00800000E+00  1.60000000E+01  1.00800000E+00  1.00800000E+00
  1.60000000E+01  1.00800000E+00  1.00800000E+00  1.60000000E+01  1.00800000E+00
  1.00800000E+00  1.60000000E+01  1.00800000E+00  1.00800000E+00  1.60000000E+01
  1.00800000E+00  1.00800000E+00  1.60000000E+01  1.00800000E+00  1.00800000E+00
  1.60000000E+01  1.00800000E+00  1.00800000E+00  1.60000000E+01  1.00800000E+00
  1.00800000E+00  1.60000000E+01  1.00800000E+00  1.00800000E+00  1.60000000E+01
  1.00800000E+00  1.00800000E+00  1.60000000E+01  1.00800000E+00  1.00800000E+00
  1.60000000E+01  1.00800000E+00  1.00800000E+00  1.60000000E+01  1.00800000E+00
  1.00800000E+00  1.60000000E+01  1.00800000E+00  1.00800000E+00  1.60000000E+01
  1.00800000E+00  1.00800000E+00  1.60000000E+01  1.00800000E+00  1.00800000E+00
  1.60000000E+01  1.00800000E+00  1.00800000E+00  1.60000000E+01  1.00800000E+00
  1.00800000E+00  1.60000000E+01  1.00800000E+00  1.00800000E+00  1.60000000E+01
  1.00800000E+00  1.00800000E+00  1.60000000E+01  1.00800000E+00  1.00800000E+00
  1.60000000E+01  1.00800000E+00  1.00800000E+00  1.60000000E+01  1.00800000E+00
  1.00800000E+00  1.60000000E+01  1.00800000E+00  1.00800000E+00  1.60000000E+01
  1.00800000E+00  1.00800000E+00  1.60000000E+01  1.00800000E+00  1.00800000E+00
  1.60000000E+01  1.00800000E+00  1.00800000E+00  1.60000000E+01  1.00800000E+00
  1.00800000E+00  1.60000000E+01  1.00800000E+00  1.00800000E+00  1.60000000E+01
  1.00800000E+00  1.00800000E+00  1.60000000E+01  1.00800000E+00  1.00800000E+00
  1.60000000E+01  1.00800000E+00  1.00800000E+00  1.60000000E+01  1.00800000E+00
  1.00800000E+00  1.60000000E+01  1.00800000E+00  1.00800000E+00  1.60000000E+01
  1.00800000E+00  1.00800000E+00  1.60000000E+01  1.00800000E+00  1.00800000E+00
  1.60000000E+01  1.00800000E+00  1.00800000E+00  1.60000000E+01  1.00800000E+00
  1.00800000E+00  1.60000000E+01  1.00800000E+00  1.00800000E+00  1.60000000E+01
  1.00800000E+00  1.00800000E+00  1.60000000E+01  1.00800000E+00  1.00800000E+00
  1.60000000E+01  1.00800000E+00  1.00800000E+00  1.60000000E+01  1.00800000E+00
  1.00800000E+00  1.60000000E+01  1.00800000E+00  1.00800000E+00  1.60000000E+01
  1.00800000E+00  1.00800000E+00  1.60000000E+01  1.00800000E+00  1.00800000E+00
  1.60000000E+01  1.00800000E+00  1.00800000E+00  1.60000000E+01  1.00800000E+00
  1.00800000E+00  1.60000000E+01  1.00800000E+00  1.00800000E+00  1.60000000E+01
  1.00800000E+00  1.00800000E+00  1.60000000E+01  1.00800000E+00  1.00800000E+00
  1.60000000E+01  1.00800000E+00  1.00800000E+00  1.60000000E+01  1.00800000E+00
  1.00800000E+00  1.60000000E+01  1.00800000E+00  1.00800000E+00  1.60000000E+01
  1.00800000E+00  1.00800000E+00  1.60000000E+01  1.00800000E+00  1.00800000E+00
  1.60000000E+01  1.00800000E+00  1.00800000E+00  1.60000000E+01  1.00800000E+00
  1.00800000E+00  1.60000000E+01  1.00800000E+00  1.00800000E+00  1.60000000E+01
  1.00800000E+00  1.00800000E+00  1.60000000E+01  1.00800000E+00  1.00800000E+00
  1.60000000E+01  1.00800000E+00  1.00800000E+00  1.60000000E+01  1.00800000E+00
  1.00800000E+00  1.60000000E+01  1.00800000E+00  1.00800000E+00  1.60000000E+01
  1.00800000E+00  1.00800000E+00  1.60000000E+01  1.00800000E+00  1.00800000E+00
  1.60000000E+01  1.00800000E+00  1.00800000E+00  1.60000000E+01  1.00800000E+00
  1.00800000E+00  1.60000000E+01  1.00800000E+00  1.00800000E+00  1.60000000E+01
  1.00800000E+00  1.00800000E+00  1.60000000E+01  1.00800000E+00  1.00800000E+00
  1.60000000E+01  1.00800000E+00  1.00800000E+00  1.60000000E+01  1.00800000E+00
  1.00800000E+00  1.60000000E+01  1.00800000E+00  1.00800000E+00  1.60000000E+01
  1.00800000E+00  1.00800000E+00  1.60000000E+01  1.00800000E+00  1.00800000E+00
  1.60000000E+01  1.00800000E+00  1.00800000E+00  1.60000000E+01  1.00800000E+00
  1.00800000E+00  1.60000000E+01  1.00800000E+00  1.00800000E+00  1.60000000E+01
  1.00800000E+00  1.00800000E+00  1.60000000E+01  1.00800000E+00  1.00800000E+00
  1.60000000E+01  1.00800000E+00  1.00800000E+00  1.60000000E+01  1.00800000E+00
  1.00800000E+00  1.60000000E+01  1.00800000E+00  1.00800000E+00  1.60000000E+01
  1.00800000E+00  1.00800000E+00  1.60000000E+01  1.00800000E+00  1.00800000E+00
  1.60000000E+01  1.00800000E+00  1.00800000E+00  1.60000000E+01  1.00800000E+00
  1.00800000E+00  1.60000000E+01  1.00800000E+00  1.00800000E+00  1.60000000E+01
  1.00800000E+00  1.00800000E+00  1.60000000E+01  1.00800000E+00  1.00800000E+00
  1.60000000E+01  1.00800000E+00  1.00800000E+00  1.60000000E+01  1.00800000E+00
  1.00800000E+00  1.60000000E+01  1.00800000E+00  1.00800000E+00  1.60000000E+01
  1.00800000E+00  1.00800000E+00  1.60000000E+01  1.00800000E+00  1.00800000E+00
  1.60000000E+01  1.00800000E+00  1.00800000E+00  1.60000000E+01  1.00800000E+00
  1.00800000E+00  1.60000000E+01  1.00800000E+00  1.00800000E+00  1.60000000E+01
  1.00800000E+00  1.00800000E+00  1.60000000E+01  1.00800000E+00  1.00800000E+00
  1.60000000E+01  1.00800000E+00  1.00800000E+00  1.60000000E+01  1.00800000E+00
  1.00800000E+00  1.60000000E+01  1.00800000E+00  1.00800000E+00  1.60000000E+01
  1.00800000E+00  1.00800000E+00  1.60000000E+01  1.00800000E+00  1.00800000E+00
  1.60000000E+01  1.00800000E+00  1.00800000E+00  1.60000000E+01  1.00800000E+00
  1.00800000E+00  1.60000000E+01  1.00800000E+00  1.00800000E+00  1.60000000E+01
  1.00800000E+00  1.00800000E+00  1.60000000E+01  1.00800000E+00  1.00800000E+00
  1.60000000E+01  1.00800000E+00  1.00800000E+00  1.60000000E+01  1.00800000E+00
  1.00800000E+00  1.60000000E+01  1.00800000E+00  1.00800000E+00  1.60000000E+01
  1.00800000E+00  1.00800000E+00  1.60000000E+01  1.00800000E+00  1.00800000E+00
  1.60000000E+01  1.00800000E+00  1.00800000E+00  1.60000000E+01  1.00800000E+00
  1.00800000E+00  1.60000000E+01  1.00800000E+00  1.00800000E+00  1.60000000E+01
  1.00800000E+00  1.00800000E+00  1.60000000E+01  1.00800000E+00  1.00800000E+00
  1.60000000E+01  1.00800000E+00  1.00800000E+00  1.60000000E+01  1.00800000E+00
  1.00800000E+00  1.60000000E+01  1.00800000E+00  1.00800000E+00  1.60000000E+01
  1.00800000E+00  1.00800000E+00  1.60000000E+01  1.00800000E+00  1.00800000E+00
  1.60000000E+01  1.00800000E+00  1.00800000E+00  1.60000000E+01  1.00800000E+00
  1.00800000E+00  1.60000000E+01  1.00800000E+00  1.00800000E+00  1.60000000E+01
  1.00800000E+00  1.00800000E+00  1.60000000E+01  1.00800000E+00  1.00800000E+00
  1.60000000E+01  1.00800000E+00  1.00800000E+00  1.60000000E+01  1.00800000E+00
  1.00800000E+00  1.60000000E+01  1.00800000E+00  1.00800000E+00  1.60000000E+01
  1.00800000E+00  1.00800000E+00  1.60000000E+01  1.00800000E+00  1.00800000E+00
  1.60000000E+01  1.00800000E+00  1.00800000E+00  1.60000000E+01  1.00800000E+00
  1.00800000E+00  1.60000000E+01  1.00800000E+00  1.00800000E+00  1.60000000E+01
  1.00800000E+00  1.00800000E+00  1.60000000E+01  1.00800000E+00  1.00800000E+00
  1.60000000E+01  1.00800000E+00  1.00800000E+00  1.60000000E+01  1.00800000E+00
  1.00800000E+00  1.60000000E+01  1.00800000E+00  1.00800000E+00  1.60000000E+01
  1.00800000E+00  1.00800000E+00  1.60000000E+01  1.00800000E+00  1.00800000E+00
  1.60000000E+01  1.00800000E+00  1.00800000E+00  1.60000000E+01  1.00800000E+00
  1.00800000E+00  1.60000000E+01  1.00800000E+00  1.00800000E+00  1.60000000E+01
  1.00800000E+00  1.00800000E+00  1.60000000E+01  1.00800000E+00  1.00800000E+00
  1.60000000E+01  1.00800000E+00  1.00800000E+00  1.60000000E+01  1.00800000E+00
  1.00800000E+00  1.60000000E+01  1.00800000E+00  1.00800000E+00  1.60000000E+01
  1.00800000E+00  1.00800000E+00  1.60000000E+01  1.00800000E+00  1.00800000E+00
  1.60000000E+01  1.00800000E+00  1.00800000E+00  1.60000000E+01  1.00800000E+00
  1.00800000E+00  1.60000000E+01  1.00800000E+00  1.00800000E+00  1.60000000E+01
  1.00800000E+00  1.00800000E+00  1.60000000E+01  1.00800000E+00  1.00800000E+00
  1.60000000E+01  1.00800000E+00  1.00800000E+00  1.60000000E+01  1.00800000E+00
  1.00800000E+00  1.60000000E+01  1.00800000E+00  1.00800000E+00  1.60000000E+01
  1.00800000E+00  1.00800000E+00  1.60000000E+01  1.00800000E+00  1.00800000E+00
  1.60000000E+01  1.00800000E+00  1.00800000E+00  1.60000000E+01  1.00800000E+00
  1.00800000E+00  1.60000000E+01  1.00800000E+00  1.00800000E+00  1.60000000E+01
  1.00800000E+00  1.00800000E+00  1.60000000E+01  1.00800000E+00  1.00800000E+00
  1.60000000E+01  1.00800000E+00  1.00800000E+00  1.60000000E+01  1.00800000E+00
  1.00800000E+00  1.60000000E+01  1.00800000E+00  1.00800000E+00  1.60000000E+01
  1.00800000E+00  1.00800000E+00  1.60000000E+01  1.00800000E+00  1.00800000E+00
  1.60000000E+01  1.00800000E+00  1.00800000E+00  1.60000000E+01  1.00800000E+00
  1.00800000E+00  1.60000000E+01  1.00800000E+00  1.00800000E+00  1.60000000E+01
  1.00800000E+00  1.00800000E+00  1.60000000E+01  1.00800000E+00  1.00800000E+00
  1.60000000E+01  1.00800000E+00  1.00800000E+00  1.60000000E+01  1.00800000E+00
  1.00800000E+00  1.60000000E+01  1.00800000E+00  1.00800000E+00  1.60000000E+01
  1.00800000E+00  1.00800000E+00  1.60000000E+01  1.00800000E+00  1.00800000E+00
  1.60000000E+01  1.00800000E+00  1.00800000E+00  1.60000000E+01  1.00800000E+00
  1.00800000E+00  1.60000000E+01  1.00800000E+00  1.00800000E+00  1.60000000E+01
  1.00800000E+00  1.00800000E+00  1.60000000E+01  1.00800000E+00  1.00800000E+00
  1.60000000E+01  1.00800000E+00  1.00800000E+00  1.60000000E+01  1.00800000E+00
  1.00800000E+00  1.60000000E+01  1.00800000E+00  1.00800000E+00  1.60000000E+01
  1.00800000E+00  1.00800000E+00  1.60000000E+01  1.00800000E+00  1.00800000E+00
  1.60000000E+01  1.00800000E+00  1.00800000E+00  1.60000000E+01  1.00800000E+00
  1.00800000E+00  1.60000000E+01  1.00800000E+00  1.00800000E+00  1.60000000E+01
  1.00800000E+00  1.00800000E+00  1.60000000E+01  1.00800000E+00  1.00800000E+00
  1.60000000E+01  1.00800000E+00  1.00800000E+00  1.60000000E+01  1.00800000E+00
  1.00800000E+00  1.60000000E+01  1.00800000E+00  1.00800000E+00  1.60000000E+01
  1.00800000E+00  1.00800000E+00  1.60000000E+01  1.00800000E+00  1.00800000E+00
  1.60000000E+01  1.00800000E+00  1.00800000E+00  1.60000000E+01  1.00800000E+00
  1.00800000E+00  1.60000000E+01  1.00800000E+00  1.00800000E+00  1.60000000E+01
  1.00800000E+00  1.00800000E+00  1.60000000E+01  1.00800000E+00  1.00800000E+00
  1.60000000E+01  1.00800000E+00  1.00800000E+00  1.60000000E+01  1.00800000E+00
  1.00800000E+00  1.60000000E+01  1.00800000E+00  1.00800000E+00  1.60000000E+01
  1.00800000E+00  1.00800000E+00  1.60000000E+01  1.00800000E+00  1.00800000E+00
  1.60000000E+01  1.00800000E+00  1.00800000E+00  1.60000000E+01  1.00800000E+00
  1.00800000E+00  1.60000000E+01  1.00800000E+00  1.00800000E+00  1.60000000E+01
  1.00800000E+00  1.00800000E+00  1.60000000E+01  1.00800000E+00  1.00800000E+00
  1.60000000E+01  1.00800000E+00  1.00800000E+00  1.60000000E+01  1.00800000E+00
  1.00800000E+00  1.60000000E+01  1.00800000E+00  1.00800000E+00  1.60000000E+01
  1.00800000E+00  1.00800000E+00  1.60000000E+01  1.00800000E+00  1.00800000E+00
  1.60000000E+01  1.00800000E+00  1.00800000E+00  1.60000000E+01  1.00800000E+00
  1.00800000E+00  1.60000000E+01  1.00800000E+00  1.00800000E+00  1.60000000E+01
  1.00800000E+00  1.00800000E+00  1.60000000E+01  1.00800000E+00  1.00800000E+00
  1.60000000E+01  1.00800000E+00  1.00800000E+00  1.60000000E+01  1.00800000E+00
  1.00800000E+00  1.60000000E+01  1.00800000E+00  1.00800000E+00  1.60000000E+01
  1.00800000E+00  1.00800000E+00  1.60000000E+01  1.00800000E+00  1.00800000E+00
  1.60000000E+01  1.00800000E+00  1.00800000E+00  1.60000000E+01  1.00800000E+00
  1.00800000E+00  1.60000000E+01  1.00800000E+00  1.00800000E+00  1.60000000E+01
  1.00800000E+00  1.00800000E+00  1.60000000E+01  1.00800000E+00  1.00800000E+00
  1.60000000E+01  1.00800000E+00  1.00800000E+00  1.60000000E+01  1.00800000E+00
  1.00800000E+00  1.60000000E+01  1.00800000E+00  1.00800000E+00  1.60000000E+01
  1.00800000E+00  1.00800000E+00  1.60000000E+01  1.00800000E+00  1.00800000E+00
  1.60000000E+01  1.00800000E+00  1.00800000E+00  1.60000000E+01  1.00800000E+00
  1.00800000E+00  1.60000000E+01  1.00800000E+00  1.00800000E+00  1.60000000E+01
  1.00800000E+00  1.00800000E+00  1.60000000E+01  1.00800000E+00  1.00800000E+00
  1.60000000E+01  1.00800000E+00  1.00800000E+00  1.60000000E+01  1.00800000E+00
  1.00800000E+00  1.60000000E+01  1.00800000E+00  1.00800000E+00  1.60000000E+01
  1.00800000E+00  1.00800000E+00  1.60000000E+01  1.00800000E+00  1.00800000E+00
  1.60000000E+01  1.00800000E+00  1.00800000E+00  1.60000000E+01  1.00800000E+00
  1.00800000E+00  1.60000000E+01  1.00800000E+00  1.00800000E+00  1.60000000E+01
  1.00800000E+00  1.00800000E+00  1.60000000E+01  1.00800000E+00  1.00800000E+00
  1.60000000E+01  1.00800000E+00  1.00800000E+00  1.60000000E+01  1.00800000E+00
  1.00800000E+00  1.60000000E+01  1.00800000E+00  1.00800000E+00  1.60000000E+01
  1.00800000E+00  1.00800000E+00  1.60000000E+01  1.00800000E+00  1.00800000E+00
  1.60000000E+01  1.00800000E+00  1.00800000E+00  1.60000000E+01  1.00800000E+00
  1.00800000E+00  1.60000000E+01  1.00800000E+00  1.00800000E+00  1.60000000E+01
  1.00800000E+00  1.00800000E+00  1.60000000E+01  1.00800000E+00  1.00800000E+00
  1.60000000E+01  1.00800000E+00  1.00800000E+00  1.60000000E+01  1.00800000E+00
  1.00800000E+00  1.60000000E+01  1.00800000E+00  1.00800000E+00  1.60000000E+01
  1.00800000E+00  1.00800000E+00  1.60000000E+01  1.00800000E+00  1.00800000E+00
  1.60000000E+01  1.00800000E+00  1.00800000E+00  1.60000000E+01  1.00800000E+00
  1.00800000E+00  1.60000000E+01  1.00800000E+00  1.00800000E+00  1.60000000E+01
  1.00800000E+00  1.00800000E+00  1.60000000E+01  1.00800000E+00  1.00800000E+00
  1.60000000E+01  1.00800000E+00  1.00800000E+00  1.60000000E+01  1.00800000E+00
  1.00800000E+00  1.60000000E+01  1.00800000E+00  1.00800000E+00  1.60000000E+01
  1.00800000E+00  1.00800000E+00  1.60000000E+01  1.00800000E+00  1.00800000E+00
  1.60000000E+01  1.00800000E+00  1.00800000E+00  1.60000000E+01  1.00800000E+00
  1.00800000E+00  1.60000000E+01  1.00800000E+00  1.00800000E+00  1.60000000E+01
  1.00800000E+00  1.00800000E+00  1.60000000E+01  1.00800000E+00  1.00800000E+00
  1.60000000E+01  1.00800000E+00  1.00800000E+00  1.60000000E+01  1.00800000E+00
  1.00800000E+00  1.60000000E+01  1.00800000E+00  1.00800000E+00  1.60000000E+01
  1.00800000E+00  1.00800000E+00  1.60000000E+01  1.00800000E+00  1.00800000E+00
  1.60000000E+01  1.00800000E+00  1.00800000E+00  1.60000000E+01  1.00800000E+00
  1.00800000E+00  1.60000000E+01  1.00800000E+00  1.00800000E+00  1.60000000E+01
  1.00800000E+00  1.00800000E+00  1.60000000E+01  1.00800000E+00  1.00800000E+00
  1.60000000E+01  1.00800000E+00  1.00800000E+00  1.60000000E+01  1.00800000E+00
  1.00800000E+00  1.60000000E+01  1.00800000E+00  1.00800000E+00  1.60000000E+01
  1.00800000E+00  1.00800000E+00  1.60000000E+01  1.00800000E+00  1.00800000E+00
  1.60000000E+01  1.00800000E+00  1.00800000E+00  1.60000000E+01  1.00800000E+00
  1.00800000E+00  1.60000000E+01  1.00800000E+00  1.00800000E+00  1.60000000E+01
  1.00800000E+00  1.00800000E+00  1.60000000E+01  1.00800000E+00  1.00800000E+00
  1.60000000E+01  1.00800000E+00  1.00800000E+00  1.60000000E+01  1.00800000E+00
  1.00800000E+00  1.60000000E+01  1.00800000E+00  1.00800000E+00  1.60000000E+01
  1.00800000E+00  1.00800000E+00  1.60000000E+01  1.00800000E+00  1.00800000E+00
  1.60000000E+01  1.00800000E+00  1.00800000E+00  1.60000000E+01  1.00800000E+00
  1.00800000E+00  1.60000000E+01  1.00800000E+00  1.00800000E+00  1.60000000E+01
  1.00800000E+00  1.00800000E+00  1.60000000E+01  1.00800000E+00  1.00800000E+00
  1.60000000E+01  1.00800000E+00  1.00800000E+00  1.60000000E+01  1.00800000E+00
  1.00800000E+00  1.60000000E+01  1.00800000E+00  1.00800000E+00  1.60000000E+01
  1.00800000E+00  1.00800000E+00  1.60000000E+01  1.00800000E+00  1.00800000E+00
  1.60000000E+01  1.00800000E+00  1.00800000E+00  1.60000000E+01  1.00800000E+00
  1.00800000E+00  1.60000000E+01  1.00800000E+00  1.00800000E+00  1.60000000E+01
  1.00800000E+00  1.00800000E+00  1.60000000E+01  1.00800000E+00  1.00800000E+00
  1.60000000E+01  1.00800000E+00  1.00800000E+00  1.60000000E+01  1.00800000E+00
  1.00800000E+00  1.60000000E+01  1.00800000E+00  1.00800000E+00  1.60000000E+01
  1.00800000E+00  1.00800000E+00  1.60000000E+01  1.00800000E+00  1.00800000E+00
  1.60000000E+01  1.00800000E+00  1.00800000E+00  1.60000000E+01  1.00800000E+00
  1.00800000E+00  1.60000000E+01  1.00800000E+00  1.00800000E+00  1.60000000E+01
  1.00800000E+00  1.00800000E+00  1.60000000E+01  1.00800000E+00  1.00800000E+00
  1.60000000E+01  1.00800000E+00  1.00800000E+00  1.60000000E+01  1.00800000E+00
  1.00800000E+00  1.60000000E+01  1.00800000E+00  1.00800000E+00  1.60000000E+01
  1.00800000E+00  1.00800000E+00  1.60000000E+01  1.00800000E+00  1.00800000E+00
  1.60000000E+01  1.00800000E+00  1.00800000E+00  1.60000000E+01  1.00800000E+00
  1.00800000E+00  1.60000000E+01  1.00800000E+00  1.00800000E+00  1.60000000E+01
  1.00800000E+00  1.00800000E+00  1.60000000E+01  1.00800000E+00  1.00800000E+00
  1.60000000E+01  1.00800000E+00  1.00800000E+00  1.60000000E+01  1.00800000E+00
  1.00800000E+00  1.60000000E+01  1.00800000E+00  1.00800000E+00  1.60000000E+01
  1.00800000E+00  1.00800000E+00  1.60000000E+01  1.00800000E+00  1.00800000E+00
  1.60000000E+01  1.00800000E+00  1.00800000E+00  1.60000000E+01  1.00800000E+00
  1.00800000E+00  1.60000000E+01  1.00800000E+00  1.00800000E+00  1.60000000E+01
  1.00800000E+00  1.00800000E+00  1.60000000E+01  1.00800000E+00  1.00800000E+00
  1.60000000E+01  1.00800000E+00  1.00800000E+00  1.60000000E+01  1.00800000E+00
  1.00800000E+00  1.60000000E+01  1.00800000E+00  1.00800000E+00  1.60000000E+01
  1.00800000E+00  1.00800000E+00  1.60000000E+01  1.00800000E+00  1.00800000E+00
  1.60000000E+01  1.00800000E+00  1.00800000E+00  1.60000000E+01  1.00800000E+00
  1.00800000E+00  1.60000000E+01  1.00800000E+00  1.00800000E+00  1.60000000E+01
  1.00800000E+00  1.00800000E+00  1.60000000E+01  1.00800000E+00  1.00800000E+00
  1.60000000E+01  1.00800000E+00  1.00800000E+00  1.60000000E+01  1.00800000E+00
  1.00800000E+00  1.60000000E+01  1.00800000E+00  1.00800000E+00  1.60000000E+01
  1.00800000E+00  1.00800000E+00  1.60000000E+01  1.00800000E+00  1.00800000E+00
  1.60000000E+01  1.00800000E+00  1.00800000E+00  1.60000000E+01  1.00800000E+00
  1.00800000E+00  1.60000000E+01  1.00800000E+00  1.00800000E+00  1.60000000E+01
  1.00800000E+00  1.00800000E+00  1.60000000E+01  1.00800000E+00  1.00800000E+00
  1.60000000E+01  1.00800000E+00  1.00800000E+00  1.60000000E+01  1.00800000E+00
  1.00800000E+00  1.60000000E+01  1.00800000E+00  1.00800000E+00  1.60000000E+01
  1.00800000E+00  1.00800000E+00  1.60000000E+01  1.00800000E+00  1.00800000E+00
  1.60000000E+01  1.00800000E+00  1.00800000E+00  1.60000000E+01  1.00800000E+00
  1.00800000E+00  1.60000000E+01  1.00800000E+00  1.00800000E+00  1.60000000E+01
  1.00800000E+00  1.00800000E+00  1.60000000E+01  1.00800000E+00  1.00800000E+00
  1.60000000E+01  1.00800000E+00  1.00800000E+00  1.60000000E+01  1.00800000E+00
  1.00800000E+00  1.60000000E+01  1.00800000E+00  1.00800000E+00  1.60000000E+01
  1.00800000E+00  1.00800000E+00  1.60000000E+01  1.00800000E+00  1.00800000E+00
  1.60000000E+01  1.00800000E+00  1.00800000E+00  1.60000000E+01  1.00800000E+00
  1.00800000E+00  1.60000000E+01  1.00800000E+00  1.00800000E+00  1.60000000E+01
  1.00800000E+00  1.00800000E+00  1.60000000E+01  1.00800000E+00  1.00800000E+00
  1.60000000E+01  1.00800000E+00  1.00800000E+00  1.60000000E+01  1.00800000E+00
  1.00800000E+00  1.60000000E+01  1.00800000E+00  1.00800000E+00  1.60000000E+01
  1.00800000E+00  1.00800000E+00  1.60000000E+01  1.00800000E+00  1.00800000E+00
  1.60000000E+01  1.00800000E+00  1.00800000E+00  1.60000000E+01  1.00800000E+00
  1.00800000E+00  1.60000000E+01  1.00800000E+00  1.00800000E+00  1.60000000E+01
  1.00800000E+00  1.00800000E+00  1.60000000E+01  1.00800000E+00  1.00800000E+00
  1.60000000E+01  1.00800000E+00  1.00800000E+00  1.60000000E+01  1.00800000E+00
  1.00800000E+00  1.60000000E+01  1.00800000E+00  1.00800000E+00  1.60000000E+01
  1.00800000E+00  1.00800000E+00  1.60000000E+01  1.00800000E+00  1.00800000E+00
  1.60000000E+01  1.00800000E+00  1.00800000E+00  1.60000000E+01  1.00800000E+00
  1.00800000E+00  1.60000000E+01  1.00800000E+00  1.00800000E+00  1.60000000E+01
  1.00800000E+00  1.00800000E+00  1.60000000E+01  1.00800000E+00  1.00800000E+00
  1.60000000E+01  1.00800000E+00  1.00800000E+00  1.60000000E+01  1.00800000E+00
  1.00800000E+00  1.60000000E+01  1.00800000E+00  1.00800000E+00  1.60000000E+01
  1.00800000E+00  1.00800000E+00  1.60000000E+01  1.00800000E+00  1.00800000E+00
  1.60000000E+01  1.00800000E+00  1.00800000E+00  1.60000000E+01  1.00800000E+00
  1.00800000E+00  1.60000000E+01  1.00800000E+00  1.00800000E+00  1.60000000E+01
  1.00800000E+00  1.00800000E+00  1.60000000E+01  1.00800000E+00  1.00800000E+00
  1.60000000E+01  1.00800000E+00  1.00800000E+00  1.60000000E+01  1.00800000E+00
  1.00800000E+00  1.60000000E+01  1.00800000E+00  1.00800000E+00  1.60000000E+01
  1.00800000E+00  1.00800000E+00  1.60000000E+01  1.00800000E+00  1.00800000E+00
  1.60000000E+01  1.00800000E+00  1.00800000E+00  1.60000000E+01  1.00800000E+00
  1.00800000E+00  1.60000000E+01  1.00800000E+00  1.00800000E+00  1.60000000E+01
  1.00800000E+00  1.00800000E+00  1.60000000E+01  1.00800000E+00  1.00800000E+00
  1.60000000E+01  1.00800000E+00  1.00800000E+00  1.60000000E+01  1.00800000E+00
  1.00800000E+00  1.60000000E+01  1.00800000E+00  1.00800000E+00  1.60000000E+01
  1.00800000E+00  1.00800000E+00  1.60000000E+01  1.00800000E+00  1.00800000E+00
  1.60000000E+01  1.00800000E+00  1.00800000E+00  1.60000000E+01  1.00800000E+00
  1.00800000E+00  1.60000000E+01  1.00800000E+00  1.00800000E+00  1.60000000E+01
  1.00800000E+00  1.00800000E+00  1.60000000E+01  1.00800000E+00  1.00800000E+00
  1.60000000E+01  1.00800000E+00  1.00800000E+00  1.60000000E+01  1.00800000E+00
  1.00800000E+00  1.60000000E+01  1.00800000E+00  1.00800000E+00  1.60000000E+01
  1.00800000E+00  1.00800000E+00  1.60000000E+01  1.00800000E+00  1.00800000E+00
  1.60000000E+01  1.00800000E+00  1.00800000E+00  1.60000000E+01  1.00800000E+00
  1.00800000E+00  1.60000000E+01  1.00800000E+00  1.00800000E+00  1.60000000E+01
  1.00800000E+00  1.00800000E+00  1.60000000E+01  1.00800000E+00  1.00800000E+00
  1.60000000E+01  1.00800000E+00  1.00800000E+00  1.60000000E+01  1.00800000E+00
  1.00800000E+00  1.60000000E+01  1.00800000E+00  1.00800000E+00  1.60000000E+01
  1.00800000E+00  1.00800000E+00  1.60000000E+01  1.00800000E+00  1.00800000E+00
  1.60000000E+01  1.00800000E+00  1.00800000E+00  1.60000000E+01  1.00800000E+00
  1.00800000E+00  1.60000000E+01  1.00800000E+00  1.00800000E+00  1.60000000E+01
  1.00800000E+00  1.00800000E+00  1.60000000E+01  1.00800000E+00  1.00800000E+00
  1.60000000E+01  1.00800000E+00  1.00800000E+00  1.60000000E+01  1.00800000E+00
  1.00800000E+00  1.60000000E+01  1.00800000E+00  1.00800000E+00  1.60000000E+01
  1.00800000E+00  1.00800000E+00  1.60000000E+01  1.00800000E+00  1.00800000E+00
  1.60000000E+01  1.00800000E+00  1.00800000E+00  1.60000000E+01  1.00800000E+00
  1.00800000E+00  1.60000000E+01  1.00800000E+00  1.00800000E+00  1.60000000E+01
  1.00800000E+00  1.00800000E+00  1.60000000E+01  1.00800000E+00  1.00800000E+00
  1.60000000E+01  1.00800000E+00  1.00800000E+00  1.60000000E+01  1.00800000E+00
  1.00800000E+00  1.60000000E+01  1.00800000E+00  1.00800000E+00  1.60000000E+01
  1.00800000E+00  1.00800000E+00  1.60000000E+01  1.00800000E+00  1.00800000E+00
  1.60000000E+01  1.00800000E+00  1.00800000E+00  1.60000000E+01  1.00800000E+00
  1.00800000E+00  1.60000000E+01  1.00800000E+00  1.00800000E+00  1.60000000E+01
  1.00800000E+00  1.00800000E+00  1.60000000E+01  1.00800000E+00  1.00800000E+00
  1.60000000E+01  1.00800000E+00  1.00800000E+00  1.60000000E+01  1.00800000E+00
  1.00800000E+00  1.60000000E+01  1.00800000E+00  1.00800000E+00  1.60000000E+01
  1.00800000E+00  1.00800000E+00  1.60000000E+01  1.00800000E+00  1.00800000E+00
  1.60000000E+01  1.00800000E+00  1.00800000E+00  1.60000000E+01  1.00800000E+00
  1.00800000E+00  1.60000000E+01  1.00800000E+00  1.00800000E+00  1.60000000E+01
  1.00800000E+00  1.00800000E+00  1.60000000E+01  1.00800000E+00  1.00800000E+00
  1.60000000E+01  1.00800000E+00  1.00800000E+00  1.60000000E+01  1.00800000E+00
  1.00800000E+00  1.60000000E+01  1.00800000E+00  1.00800000E+00  1.60000000E+01
  1.00800000E+00  1.00800000E+00  1.60000000E+01  1.00800000E+00  1.00800000E+00
  1.60000000E+01  1.00800000E+00  1.00800000E+00  1.60000000E+01  1.00800000E+00
  1.00800000E+00  1.60000000E+01  1.00800000E+00  1.00800000E+00  1.60000000E+01
  1.00800000E+00  1.00800000E+00  1.60000000E+01  1.00800000E+00  1.00800000E+00
  1.60000000E+01  1.00800000E+00  1.00800000E+00  1.60000000E+01  1.00800000E+00
  1.00800000E+00  1.60000000E+01  1.00800000E+00  1.00800000E+00  1.60000000E+01
  1.00800000E+00  1.00800000E+00  1.60000000E+01  1.00800000E+00  1.00800000E+00
  1.60000000E+01  1.00800000E+00  1.00800000E+00  1.60000000E+01  1.00800000E+00
  1.00800000E+00  1.60000000E+01  1.00800000E+00  1.00800000E+00  1.60000000E+01
  1.00800000E+00  1.00800000E+00  1.60000000E+01  1.00800000E+00  1.00800000E+00
  1.60000000E+01  1.00800000E+00  1.00800000E+00  1.60000000E+01  1.00800000E+00
  1.00800000E+00  1.60000000E+01  1.00800000E+00  1.00800000E+00  1.60000000E+01
  1.00800000E+00  1.00800000E+00  1.60000000E+01  1.00800000E+00  1.00800000E+00
  1.60000000E+01  1.00800000E+00  1.00800000E+00  1.60000000E+01  1.00800000E+00
  1.00800000E+00  1.60000000E+01  1.00800000E+00  1.00800000E+00  1.60000000E+01
  1.00800000E+00  1.00800000E+00  1.60000000E+01  1.00800000E+00  1.00800000E+00
  1.60000000E+01  1.00800000E+00  1.00800000E+00  1.60000000E+01  1.00800000E+00
  1.00800000E+00  1.60000000E+01  1.00800000E+00  1.00800000E+00  1.60000000E+01
  1.00800000E+00  1.00800000E+00  1.60000000E+01  1.00800000E+00  1.00800000E+00
  1.60000000E+01  1.00800000E+00  1.00800000E+00  1.60000000E+01  1.00800000E+00
  1.00800000E+00  1.60000000E+01  1.00800000E+00  1.00800000E+00  1.60000000E+01
  1.00800000E+00  1.00800000E+00  1.60000000E+01  1.00800000E+00  1.00800000E+00
  1.60000000E+01  1.00800000E+00  1.00800000E+00  1.60000000E+01  1.00800000E+00
  1.00800000E+00  1.60000000E+01  1.00800000E+00  1.00800000E+00  1.60000000E+01
  1.00800000E+00  1.00800000E+00  1.60000000E+01  1.00800000E+00  1.00800000E+00
  1.60000000E+01  1.00800000E+00  1.00800000E+00  1.60000000E+01  1.00800000E+00
  1.00800000E+00  1.60000000E+01  1.00800000E+00  1.00800000E+00  1.60000000E+01
  1.00800000E+00  1.00800000E+00  1.60000000E+01  1.00800000E+00  1.00800000E+00
  1.60000000E+01  1.00800000E+00  1.00800000E+00  1.60000000E+01  1.00800000E+00
  1.00800000E+00  1.60000000E+01  1.00800000E+00  1.00800000E+00  1.60000000E+01
  1.00800000E+00  1.00800000E+00  1.60000000E+01  1.00800000E+00  1.00800000E+00
  1.60000000E+01  1.00800000E+00  1.00800000E+00  1.60000000E+01  1.00800000E+00
  1.00800000E+00  1.60000000E+01  1.00800000E+00  1.00800000E+00  1.60000000E+01
  1.00800000E+00  1.00800000E+00  1.60000000E+01  1.00800000E+00  1.00800000E+00
  1.60000000E+01  1.00800000E+00  1.00800000E+00  1.60000000E+01  1.00800000E+00
  1.00800000E+00  1.60000000E+01  1.00800000E+00  1.00800000E+00  1.60000000E+01
  1.00800000E+00  1.00800000E+00  1.60000000E+01  1.00800000E+00  1.00800000E+00
  1.60000000E+01  1.00800000E+00  1.00800000E+00  1.60000000E+01  1.00800000E+00
  1.00800000E+00  1.60000000E+01  1.00800000E+00  1.00800000E+00  1.60000000E+01
  1.00800000E+00  1.00800000E+00  1.60000000E+01  1.00800000E+00  1.00800000E+00
  1.60000000E+01  1.00800000E+00  1.00800000E+00  1.60000000E+01  1.00800000E+00
  1.00800000E+00  1.60000000E+01  1.00800000E+00  1.00800000E+00  1.60000000E+01
  1.00800000E+00  1.00800000E+00  1.60000000E+01  1.00800000E+00  1.00800000E+00
  1.60000000E+01  1.00800000E+00  1.00800000E+00  1.60000000E+01  1.00800000E+00
  1.00800000E+00  1.60000000E+01  1.00800000E+00  1.00800000E+00  1.60000000E+01
  1.00800000E+00  1.00800000E+00  1.60000000E+01  1.00800000E+00  1.00800000E+00
  1.60000000E+01  1.00800000E+00  1.00800000E+00  1.60000000E+01  1.00800000E+00
  1.00800000E+00  1.60000000E+01  1.00800000E+00  1.00800000E+00  1.60000000E+01
  1.00800000E+00  1.00800000E+00  1.60000000E+01  1.00800000E+00  1.00800000E+00
  1.60000000E+01  1.00800000E+00  1.00800000E+00  1.60000000E+01  1.00800000E+00
  1.00800000E+00  1.60000000E+01  1.00800000E+00  1.00800000E+00  1.60000000E+01
  1.00800000E+00  1.00800000E+00  1.60000000E+01  1.00800000E+00  1.00800000E+00
  1.60000000E+01  1.00800000E+00  1.00800000E+00  1.60000000E+01  1.00800000E+00
  1.00800000E+00  1.60000000E+01  1.00800000E+00  1.00800000E+00  1.60000000E+01
  1.00800000E+00  1.00800000E+00  1.60000000E+01  1.00800000E+00  1.00800000E+00
  1.60000000E+01  1.00800000E+00  1.00800000E+00  1.60000000E+01  1.00800000E+00
  1.00800000E+00  1.60000000E+01  1.00800000E+00  1.00800000E+00  1.60000000E+01
  1.00800000E+00  1.00800000E+00  1.60000000E+01  1.00800000E+00  1.00800000E+00
  1.60000000E+01  1.00800000E+00  1.00800000E+00  1.60000000E+01  1.00800000E+00
  1.00800000E+00  1.60000000E+01  1.00800000E+00  1.00800000E+00  1.60000000E+01
  1.00800000E+00  1.00800000E+00  1.60000000E+01  1.00800000E+00  1.00800000E+00
  1.60000000E+01  1.00800000E+00  1.00800000E+00  1.60000000E+01  1.00800000E+00
  1.00800000E+00  1.60000000E+01  1.00800000E+00  1.00800000E+00  1.60000000E+01
  1.00800000E+00  1.00800000E+00  1.60000000E+01  1.00800000E+00  1.00800000E+00
  1.60000000E+01  1.00800000E+00  1.00800000E+00  1.60000000E+01  1.00800000E+00
  1.00800000E+00  1.60000000E+01  1.00800000E+00  1.00800000E+00  1.60000000E+01
  1.00800000E+00  1.00800000E+00  1.60000000E+01  1.00800000E+00  1.00800000E+00
  1.60000000E+01  1.00800000E+00  1.00800000E+00  1.60000000E+01  1.00800000E+00
  1.00800000E+00  1.60000000E+01  1.00800000E+00  1.00800000E+00  1.60000000E+01
  1.00800000E+00  1.00800000E+00  1.60000000E+01  1.00800000E+00  1.00800000E+00
  1.60000000E+01  1.00800000E+00  1.00800000E+00  1.60000000E+01  1.00800000E+00
  1.00800000E+00  1.60000000E+01  1.00800000E+00  1.00800000E+00  1.60000000E+01
  1.00800000E+00  1.00800000E+00  1.60000000E+01  1.00800000E+00  1.00800000E+00
  1.60000000E+01  1.00800000E+00  1.00800000E+00  1.60000000E+01  1.00800000E+00
  1.00800000E+00  1.60000000E+01  1.00800000E+00  1.00800000E+00  1.60000000E+01
  1.00800000E+00  1.00800000E+00  1.60000000E+01  1.00800000E+00  1.00800000E+00
  1.60000000E+01  1.00800000E+00  1.00800000E+00  1.60000000E+01  1.00800000E+00
  1.00800000E+00  1.60000000E+01  1.00800000E+00  1.00800000E+00  1.60000000E+01
  1.00800000E+00  1.00800000E+00  1.60000000E+01  1.00800000E+00  1.00800000E+00
  1.60000000E+01  1.00800000E+00  1.00800000E+00  1.60000000E+01  1.00800000E+00
  1.00800000E+00  1.60000000E+01  1.00800000E+00  1.00800000E+00  1.60000000E+01
  1.00800000E+00  1.00800000E+00  1.60000000E+01  1.00800000E+00  1.00800000E+00
  1.60000000E+01  1.00800000E+00  1.00800000E+00  1.60000000E+01  1.00800000E+00
  1.00800000E+00  1.60000000E+01  1.00800000E+00  1.00800000E+00  1.60000000E+01
  1.00800000E+00  1.00800000E+00  1.60000000E+01  1.00800000E+00  1.00800000E+00
  1.60000000E+01  1.00800000E+00  1.00800000E+00  1.60000000E+01  1.00800000E+00
  1.00800000E+00  1.60000000E+01  1.00800000E+00  1.00800000E+00  1.60000000E+01
  1.00800000E+00  1.00800000E+00  1.60000000E+01  1.00800000E+00  1.00800000E+00
  1.60000000E+01  1.00800000E+00  1.00800000E+00  1.60000000E+01  1.00800000E+00
  1.00800000E+00  1.60000000E+01  1.00800000E+00  1.00800000E+00  1.60000000E+01
  1.00800000E+00  1.00800000E+00  1.60000000E+01  1.00800000E+00  1.00800000E+00
  1.60000000E+01  1.00800000E+00  1.00800000E+00  1.60000000E+01  1.00800000E+00
  1.00800000E+00  1.60000000E+01  1.00800000E+00  1.00800000E+00  1.60000000E+01
  1.00800000E+00  1.00800000E+00  1.60000000E+01  1.00800000E+00  1.00800000E+00
  1.60000000E+01  1.00800000E+00  1.00800000E+00  1.60000000E+01  1.00800000E+00
  1.00800000E+00  1.60000000E+01  1.00800000E+00  1.00800000E+00  1.60000000E+01
  1.00800000E+00  1.00800000E+00  1.60000000E+01  1.00800000E+00  1.00800000E+00
  1.60000000E+01  1.00800000E+00  1.00800000E+00  1.60000000E+01  1.00800000E+00
  1.00800000E+00  1.60000000E+01  1.00800000E+00  1.00800000E+00  1.60000000E+01
  1.00800000E+00  1.00800000E+00  1.60000000E+01  1.00800000E+00  1.00800000E+00
  1.60000000E+01  1.00800000E+00  1.00800000E+00  1.60000000E+01  1.00800000E+00
  1.00800000E+00  1.60000000E+01  1.00800000E+00  1.00800000E+00  1.60000000E+01
  1.00800000E+00  1.00800000E+00  1.60000000E+01  1.00800000E+00  1.00800000E+00
  1.60000000E+01  1.00800000E+00  1.00800000E+00  1.60000000E+01  1.00800000E+00
  1.00800000E+00  1.60000000E+01  1.00800000E+00  1.00800000E+00  1.60000000E+01
  1.00800000E+00  1.00800000E+00  1.60000000E+01  1.00800000E+00  1.00800000E+00
  1.60000000E+01  1.00800000E+00  1.00800000E+00  1.60000000E+01  1.00800000E+00
  1.00800000E+00  1.60000000E+01  1.00800000E+00  1.00800000E+00  1.60000000E+01
  1.00800000E+00  1.00800000E+00  1.60000000E+01  1.00800000E+00  1.00800000E+00
  1.60000000E+01  1.00800000E+00  1.00800000E+00  1.60000000E+01  1.00800000E+00
  1.00800000E+00  1.60000000E+01  1.00800000E+00  1.00800000E+00  1.60000000E+01
  1.00800000E+00  1.00800000E+00  1.60000000E+01  1.00800000E+00  1.00800000E+00
  1.60000000E+01  1.00800000E+00  1.00800000E+00  1.60000000E+01  1.00800000E+00
  1.00800000E+00  1.60000000E+01  1.00800000E+00  1.00800000E+00  1.60000000E+01
  1.00800000E+00  1.00800000E+00  1.60000000E+01  1.00800000E+00  1.00800000E+00
  1.60000000E+01  1.00800000E+00  1.00800000E+00  1.60000000E+01  1.00800000E+00
  1.00800000E+00  1.60000000E+01  1.00800000E+00  1.00800000E+00  1.60000000E+01
  1.00800000E+00  1.00800000E+00  1.60000000E+01  1.00800000E+00  1.00800000E+00
  1.60000000E+01  1.00800000E+00  1.00800000E+00  1.60000000E+01  1.00800000E+00
  1.00800000E+00  1.60000000E+01  1.00800000E+00  1.00800000E+00  1.60000000E+01
  1.00800000E+00  1.00800000E+00  1.60000000E+01  1.00800000E+00  1.00800000E+00
  1.60000000E+01  1.00800000E+00  1.00800000E+00  1.60000000E+01  1.00800000E+00
  1.00800000E+00  1.60000000E+01  1.00800000E+00  1.00800000E+00  1.60000000E+01
  1.00800000E+00  1.00800000E+00  1.60000000E+01  1.00800000E+00  1.00800000E+00
  1.60000000E+01  1.00800000E+00  1.00800000E+00  1.60000000E+01  1.00800000E+00
  1.00800000E+00  1.60000000E+01  1.00800000E+00  1.00800000E+00  1.60000000E+01
  1.00800000E+00  1.00800000E+00  1.60000000E+01  1.00800000E+00  1.00800000E+00
  1.60000000E+01  1.00800000E+00  1.00800000E+00  1.60000000E+01  1.00800000E+00
  1.00800000E+00  1.60000000E+01  1.00800000E+00  1.00800000E+00  1.60000000E+01
  1.00800000E+00  1.00800000E+00  1.60000000E+01  1.00800000E+00  1.00800000E+00
  1.60000000E+01  1.00800000E+00  1.00800000E+00  1.60000000E+01  1.00800000E+00
  1.00800000E+00  1.60000000E+01  1.00800000E+00  1.00800000E+00  1.60000000E+01
  1.00800000E+00  1.00800000E+00  1.60000000E+01  1.00800000E+00  1.00800000E+00
  1.60000000E+01  1.00800000E+00  1.00800000E+00  1.60000000E+01  1.00800000E+00
  1.00800000E+00  1.60000000E+01  1.00800000E+00  1.00800000E+00  1.60000000E+01
  1.00800000E+00  1.00800000E+00  1.60000000E+01  1.00800000E+00  1.00800000E+00
  1.60000000E+01  1.00800000E+00  1.00800000E+00  1.60000000E+01  1.00800000E+00
  1.00800000E+00  1.60000000E+01  1.00800000E+00  1.00800000E+00  1.60000000E+01
  1.00800000E+00  1.00800000E+00  1.60000000E+01  1.00800000E+00  1.00800000E+00
  1.60000000E+01  1.00800000E+00  1.00800000E+00  1.60000000E+01  1.00800000E+00
  1.00800000E+00  1.60000000E+01  1.00800000E+00  1.00800000E+00  1.60000000E+01
  1.00800000E+00  1.00800000E+00  1.60000000E+01  1.00800000E+00  1.00800000E+00
  1.60000000E+01  1.00800000E+00  1.00800000E+00  1.60000000E+01  1.00800000E+00
  1.00800000E+00  1.60000000E+01  1.00800000E+00  1.00800000E+00  1.60000000E+01
  1.00800000E+00  1.00800000E+00  1.60000000E+01  1.00800000E+00  1.00800000E+00
  1.60000000E+01  1.00800000E+00  1.00800000E+00  1.60000000E+01  1.00800000E+00
  1.00800000E+00  1.60000000E+01  1.00800000E+00  1.00800000E+00  1.60000000E+01
  1.00800000E+00  1.00800000E+00  1.60000000E+01  1.00800000E+00  1.00800000E+00
  1.60000000E+01  1.00800000E+00  1.00800000E+00  1.60000000E+01  1.00800000E+00
  1.00800000E+00  1.60000000E+01  1.00800000E+00  1.00800000E+00  1.60000000E+01
  1.00800000E+00  1.00800000E+00  1.60000000E+01  1.00800000E+00  1.00800000E+00
  1.60000000E+01  1.00800000E+00  1.00800000E+00  1.60000000E+01  1.00800000E+00
  1.00800000E+00  1.60000000E+01  1.00800000E+00  1.00800000E+00  1.60000000E+01
  1.00800000E+00  1.00800000E+00  1.60000000E+01  1.00800000E+00  1.00800000E+00
  1.60000000E+01  1.00800000E+00  1.00800000E+00  1.60000000E+01  1.00800000E+00
  1.00800000E+00  1.60000000E+01  1.00800000E+00  1.00800000E+00  1.60000000E+01
  1.00800000E+00  1.00800000E+00  1.60000000E+01  1.00800000E+00  1.00800000E+00
  1.60000000E+01  1.00800000E+00  1.00800000E+00  1.60000000E+01  1.00800000E+00
  1.00800000E+00  1.60000000E+01  1.00800000E+00  1.00800000E+00  1.60000000E+01
  1.00800000E+00  1.00800000E+00  1.60000000E+01  1.00800000E+00  1.00800000E+00
  1.60000000E+01  1.00800000E+00  1.00800000E+00  1.60000000E+01  1.00800000E+00
  1.00800000E+00  1.60000000E+01  1.00800000E+00  1.00800000E+00  1.60000000E+01
  1.00800000E+00  1.00800000E+00  1.60000000E+01  1.00800000E+00  1.00800000E+00
  1.60000000E+01  1.00800000E+00  1.00800000E+00  1.60000000E+01  1.00800000E+00
  1.00800000E+00  1.60000000E+01  1.00800000E+00  1.00800000E+00  1.60000000E+01
  1.00800000E+00  1.00800000E+00  1.60000000E+01  1.00800000E+00  1.00800000E+00
  1.60000000E+01  1.00800000E+00  1.00800000E+00  1.60000000E+01  1.00800000E+00
  1.00800000E+00  1.60000000E+01  1.00800000E+00  1.00800000E+00  1.60000000E+01
  1.00800000E+00  1.00800000E+00  1.60000000E+01  1.00800000E+00  1.00800000E+00
  1.60000000E+01  1.00800000E+00  1.00800000E+00  1.60000000E+01  1.00800000E+00
  1.00800000E+00  1.60000000E+01  1.00800000E+00  1.00800000E+00  1.60000000E+01
  1.00800000E+00  1.00800000E+00  1.60000000E+01  1.00800000E+00  1.00800000E+00
  1.60000000E+01  1.00800000E+00  1.00800000E+00  1.60000000E+01  1.00800000E+00
  1.00800000E+00  1.60000000E+01  1.00800000E+00  1.00800000E+00  1.60000000E+01
  1.00800000E+00  1.00800000E+00  1.60000000E+01  1.00800000E+00  1.00800000E+00
  1.60000000E+01  1.00800000E+00  1.00800000E+00  1.60000000E+01  1.00800000E+00
  1.00800000E+00  1.60000000E+01  1.00800000E+00  1.00800000E+00  1.60000000E+01
  1.00800000E+00  1.00800000E+00  1.60000000E+01  1.00800000E+00  1.00800000E+00
  1.60000000E+01  1.00800000E+00  1.00800000E+00  1.60000000E+01  1.00800000E+00
  1.00800000E+00  1.60000000E+01  1.00800000E+00  1.00800000E+00  1.60000000E+01
  1.00800000E+00  1.00800000E+00  1.60000000E+01  1.00800000E+00  1.00800000E+00
  1.60000000E+01  1.00800000E+00  1.00800000E+00  1.60000000E+01  1.00800000E+00
  1.00800000E+00  1.60000000E+01  1.00800000E+00  1.00800000E+00  1.60000000E+01
  1.00800000E+00  1.00800000E+00  1.60000000E+01  1.00800000E+00  1.00800000E+00
  1.60000000E+01  1.00800000E+00  1.00800000E+00  1.60000000E+01  1.00800000E+00
  1.00800000E+00  1.60000000E+01  1.00800000E+00  1.00800000E+00  1.60000000E+01
  1.00800000E+00  1.00800000E+00  1.60000000E+01  1.00800000E+00  1.00800000E+00
  1.60000000E+01  1.00800000E+00  1.00800000E+00  1.60000000E+01  1.00800000E+00
  1.00800000E+00  1.60000000E+01  1.00800000E+00  1.00800000E+00  1.60000000E+01
  1.00800000E+00  1.00800000E+00  1.60000000E+01  1.00800000E+00  1.00800000E+00
  1.60000000E+01  1.00800000E+00  1.00800000E+00  1.60000000E+01  1.00800000E+00
  1.00800000E+00  1.60000000E+01  1.00800000E+00  1.00800000E+00  1.60000000E+01
  1.00800000E+00  1.00800000E+00  1.60000000E+01  1.00800000E+00  1.00800000E+00
  1.60000000E+01  1.00800000E+00  1.00800000E+00  1.60000000E+01  1.00800000E+00
  1.00800000E+00  1.60000000E+01  1.00800000E+00  1.00800000E+00  1.60000000E+01
  1.00800000E+00  1.00800000E+00  1.60000000E+01  1.00800000E+00  1.00800000E+00
  1.60000000E+01  1.00800000E+00  1.00800000E+00  1.60000000E+01  1.00800000E+00
  1.00800000E+00  1.60000000E+01  1.00800000E+00  1.00800000E+00  1.60000000E+01
  1.00800000E+00  1.00800000E+00  1.60000000E+01  1.00800000E+00  1.00800000E+00
  1.60000000E+01  1.00800000E+00  1.00800000E+00  1.60000000E+01  1.00800000E+00
  1.00800000E+00  1.60000000E+01  1.00800000E+00  1.00800000E+00  1.60000000E+01
  1.00800000E+00  1.00800000E+00  1.60000000E+01  1.00800000E+00  1.00800000E+00
  1.60000000E+01  1.00800000E+00  1.00800000E+00  1.60000000E+01  1.00800000E+00
  1.00800000E+00  1.60000000E+01  1.00800000E+00  1.00800000E+00  1.60000000E+01
  1.00800000E+00  1.00800000E+00  1.60000000E+01  1.00800000E+00  1.00800000E+00
  1.60000000E+01  1.00800000E+00  1.00800000E+00  1.60000000E+01  1.00800000E+00
  1.00800000E+00  1.60000000E+01  1.00800000E+00  1.00800000E+00  1.60000000E+01
  1.00800000E+00  1.00800000E+00  1.60000000E+01  1.00800000E+00  1.00800000E+00
  1.60000000E+01  1.00800000E+00  1.00800000E+00  1.60000000E+01  1.00800000E+00
  1.00800000E+00  1.60000000E+01  1.00800000E+00  1.00800000E+00  1.60000000E+01
  1.00800000E+00  1.00800000E+00  1.60000000E+01  1.00800000E+00  1.00800000E+00
  1.60000000E+01  1.00800000E+00  1.00800000E+00  1.60000000E+01  1.00800000E+00
  1.00800000E+00  1.60000000E+01  1.00800000E+00  1.00800000E+00  1.60000000E+01
  1.00800000E+00  1.00800000E+00  1.60000000E+01  1.00800000E+00  1.00800000E+00
  1.60000000E+01  1.00800000E+00  1.00800000E+00  1.60000000E+01  1.00800000E+00
  1.00800000E+00  1.60000000E+01  1.00800000E+00  1.00800000E+00  1.60000000E+01
  1.00800000E+00  1.00800000E+00  1.60000000E+01  1.00800000E+00  1.00800000E+00
  1.60000000E+01  1.00800000E+00  1.00800000E+00  1.60000000E+01  1.00800000E+00
  1.00800000E+00  1.60000000E+01  1.00800000E+00  1.00800000E+00  1.60000000E+01
  1.00800000E+00  1.00800000E+00  1.60000000E+01  1.00800000E+00  1.00800000E+00
  1.60000000E+01  1.00800000E+00  1.00800000E+00  1.60000000E+01  1.00800000E+00
  1.00800000E+00  1.60000000E+01  1.00800000E+00  1.00800000E+00  1.60000000E+01
  1.00800000E+00  1.00800000E+00  1.60000000E+01  1.00800000E+00  1.00800000E+00
  1.60000000E+01  1.00800000E+00  1.00800000E+00  1.60000000E+01  1.00800000E+00
  1.00800000E+00  1.60000000E+01  1.00800000E+00  1.00800000E+00  1.60000000E+01
  1.00800000E+00  1.00800000E+00  1.60000000E+01  1.00800000E+00  1.00800000E+00
  1.60000000E+01  1.00800000E+00  1.00800000E+00  1.60000000E+01  1.00800000E+00
  1.00800000E+00  1.60000000E+01  1.00800000E+00  1.00800000E+00  1.60000000E+01
  1.00800000E+00  1.00800000E+00  1.60000000E+01  1.00800000E+00  1.00800000E+00
  1.60000000E+01  1.00800000E+00  1.00800000E+00  1.60000000E+01  1.00800000E+00
  1.00800000E+00  1.60000000E+01  1.00800000E+00  1.00800000E+00  1.60000000E+01
  1.00800000E+00  1.00800000E+00  1.60000000E+01  1.00800000E+00  1.00800000E+00
  1.60000000E+01  1.00800000E+00  1.00800000E+00  1.60000000E+01  1.00800000E+00
  1.00800000E+00  1.60000000E+01  1.00800000E+00  1.00800000E+00  1.60000000E+01
  1.00800000E+00  1.00800000E+00  1.60000000E+01  1.00800000E+00  1.00800000E+00
  1.60000000E+01  1.00800000E+00  1.00800000E+00  1.60000000E+01  1.00800000E+00
  1.00800000E+00  1.60000000E+01  1.00800000E+00  1.00800000E+00  1.60000000E+01
  1.00800000E+00  1.00800000E+00  1.60000000E+01  1.00800000E+00  1.00800000E+00
  1.60000000E+01  1.00800000E+00  1.00800000E+00  1.60000000E+01  1.00800000E+00
  1.00800000E+00  1.60000000E+01  1.00800000E+00  1.00800000E+00  1.60000000E+01
  1.00800000E+00  1.00800000E+00  1.60000000E+01  1.00800000E+00  1.00800000E+00
  1.60000000E+01  1.00800000E+00  1.00800000E+00  1.60000000E+01  1.00800000E+00
  1.00800000E+00  1.60000000E+01  1.00800000E+00  1.00800000E+00  1.60000000E+01
  1.00800000E+00  1.00800000E+00  1.60000000E+01  1.00800000E+00  1.00800000E+00
  1.60000000E+01  1.00800000E+00  1.00800000E+00  1.60000000E+01  1.00800000E+00
  1.00800000E+00  1.60000000E+01  1.00800000E+00  1.00800000E+00  1.60000000E+01
  1.00800000E+00  1.00800000E+00  1.60000000E+01  1.00800000E+00  1.00800000E+00
  1.60000000E+01  1.00800000E+00  1.00800000E+00  1.60000000E+01  1.00800000E+00
  1.00800000E+00  1.60000000E+01  1.00800000E+00  1.00800000E+00  1.60000000E+01
  1.00800000E+00  1.00800000E+00  1.60000000E+01  1.00800000E+00  1.00800000E+00
  1.60000000E+01  1.00800000E+00  1.00800000E+00  1.60000000E+01  1.00800000E+00
  1.00800000E+00  1.60000000E+01  1.00800000E+00  1.00800000E+00  1.60000000E+01
  1.00800000E+00  1.00800000E+00  1.60000000E+01  1.00800000E+00  1.00800000E+00
  1.60000000E+01  1.00800000E+00  1.00800000E+00  1.60000000E+01  1.00800000E+00
  1.00800000E+00  1.60000000E+01  1.00800000E+00  1.00800000E+00  1.60000000E+01
  1.00800000E+00  1.00800000E+00  1.60000000E+01  1.00800000E+00  1.00800000E+00
  1.60000000E+01  1.00800000E+00  1.00800000E+00  1.60000000E+01  1.00800000E+00
  1.00800000E+00  1.60000000E+01  1.00800000E+00  1.00800000E+00  1.60000000E+01
  1.00800000E+00  1.00800000E+00  1.60000000E+01  1.00800000E+00  1.00800000E+00
  1.60000000E+01  1.00800000E+00  1.00800000E+00  1.60000000E+01  1.00800000E+00
  1.00800000E+00  1.60000000E+01  1.00800000E+00  1.00800000E+00  1.60000000E+01
  1.00800000E+00  1.00800000E+00  1.60000000E+01  1.00800000E+00  1.00800000E+00
  1.60000000E+01  1.00800000E+00  1.00800000E+00  1.60000000E+01  1.00800000E+00
  1.00800000E+00  1.60000000E+01  1.00800000E+00  1.00800000E+00  1.60000000E+01
  1.00800000E+00  1.00800000E+00  1.60000000E+01  1.00800000E+00  1.00800000E+00
  1.60000000E+01  1.00800000E+00  1.00800000E+00  1.60000000E+01  1.00800000E+00
  1.00800000E+00  1.60000000E+01  1.00800000E+00  1.00800000E+00  1.60000000E+01
  1.00800000E+00  1.00800000E+00  1.60000000E+01  1.00800000E+00  1.00800000E+00
  1.60000000E+01  1.00800000E+00  1.00800000E+00  1.60000000E+01  1.00800000E+00
  1.00800000E+00  1.60000000E+01  1.00800000E+00  1.00800000E+00  1.60000000E+01
  1.00800000E+00  1.00800000E+00  1.60000000E+01  1.00800000E+00  1.00800000E+00
  1.60000000E+01  1.00800000E+00  1.00800000E+00  1.60000000E+01  1.00800000E+00
  1.00800000E+00  1.60000000E+01  1.00800000E+00  1.00800000E+00  1.60000000E+01
  1.00800000E+00  1.00800000E+00  1.60000000E+01  1.00800000E+00  1.00800000E+00
  1.60000000E+01  1.00800000E+00  1.00800000E+00  1.60000000E+01  1.00800000E+00
  1.00800000E+00  1.60000000E+01  1.00800000E+00  1.00800000E+00  1.60000000E+01
  1.00800000E+00  1.00800000E+00  1.60000000E+01  1.00800000E+00  1.00800000E+00
  1.60000000E+01  1.00800000E+00  1.00800000E+00  1.60000000E+01  1.00800000E+00
  1.00800000E+00  1.60000000E+01  1.00800000E+00  1.00800000E+00  1.60000000E+01
  1.00800000E+00  1.00800000E+00  1.60000000E+01  1.00800000E+00  1.00800000E+00
  1.60000000E+01  1.00800000E+00  1.00800000E+00  1.60000000E+01  1.00800000E+00
  1.00800000E+00  1.60000000E+01  1.00800000E+00  1.00800000E+00  1.60000000E+01
  1.00800000E+00  1.00800000E+00  1.60000000E+01  1.00800000E+00  1.00800000E+00
  1.60000000E+01  1.00800000E+00  1.00800000E+00  1.60000000E+01  1.00800000E+00
  1.00800000E+00  1.60000000E+01  1.00800000E+00  1.00800000E+00  1.60000000E+01
  1.00800000E+00  1.00800000E+00  1.60000000E+01  1.00800000E+00  1.00800000E+00
  1.60000000E+01  1.00800000E+00  1.00800000E+00  1.60000000E+01  1.00800000E+00
  1.00800000E+00  1.60000000E+01  1.00800000E+00  1.00800000E+00  1.60000000E+01
  1.00800000E+00  1.00800000E+00  1.60000000E+01  1.00800000E+00  1.00800000E+00
  1.60000000E+01  1.00800000E+00  1.00800000E+00  1.60000000E+01  1.00800000E+00
  1.00800000E+00  1.60000000E+01  1.00800000E+00  1.00800000E+00  1.60000000E+01
  1.00800000E+00  1.00800000E+00  1.60000000E+01  1.00800000E+00  1.00800000E+00
  1.60000000E+01  1.00800000E+00  1.00800000E+00  1.60000000E+01  1.00800000E+00
  1.00800000E+00  1.60000000E+01  1.00800000E+00  1.00800000E+00  1.60000000E+01
  1.00800000E+00  1.00800000E+00  1.60000000E+01  1.00800000E+00  1.00800000E+00
  1.60000000E+01  1.00800000E+00  1.00800000E+00  1.60000000E+01  1.00800000E+00
  1.00800000E+00  1.60000000E+01  1.00800000E+00  1.00800000E+00  1.60000000E+01
  1.00800000E+00  1.00800000E+00  1.60000000E+01  1.00800000E+00  1.00800000E+00
  1.60000000E+01  1.00800000E+00  1.00800000E+00  1.60000000E+01  1.00800000E+00
  1.00800000E+00  1.60000000E+01  1.00800000E+00  1.00800000E+00  1.60000000E+01
  1.00800000E+00  1.00800000E+00  1.60000000E+01  1.00800000E+00  1.00800000E+00
  1.60000000E+01  1.00800000E+00  1.00800000E+00  1.60000000E+01  1.00800000E+00
  1.00800000E+00  1.60000000E+01  1.00800000E+00  1.00800000E+00  1.60000000E+01
  1.00800000E+00  1.00800000E+00  1.60000000E+01  1.00800000E+00  1.00800000E+00
  1.60000000E+01  1.00800000E+00  1.00800000E+00  1.60000000E+01  1.00800000E+00
  1.00800000E+00  1.60000000E+01  1.00800000E+00  1.00800000E+00  1.60000000E+01
  1.00800000E+00  1.00800000E+00  1.60000000E+01  1.00800000E+00  1.00800000E+00
  1.60000000E+01  1.00800000E+00  1.00800000E+00  1.60000000E+01  1.00800000E+00
  1.00800000E+00  1.60000000E+01  1.00800000E+00  1.00800000E+00  1.60000000E+01
  1.00800000E+00  1.00800000E+00  1.60000000E+01  1.00800000E+00  1.00800000E+00
  1.60000000E+01  1.00800000E+00  1.00800000E+00  1.60000000E+01  1.00800000E+00
  1.00800000E+00  1.60000000E+01  1.00800000E+00  1.00800000E+00  1.60000000E+01
  1.00800000E+00  1.00800000E+00  1.60000000E+01  1.00800000E+00  1.00800000E+00
  1.60000000E+01  1.00800000E+00  1.00800000E+00  1.60000000E+01  1.00800000E+00
  1.00800000E+00  1.60000000E+01  1.00800000E+00  1.00800000E+00  1.60000000E+01
  1.00800000E+00  1.00800000E+00  1.60000000E+01  1.00800000E+00  1.00800000E+00
  1.60000000E+01  1.00800000E+00  1.00800000E+00  1.60000000E+01  1.00800000E+00
  1.00800000E+00  1.60000000E+01  1.00800000E+00  1.00800000E+00  1.60000000E+01
  1.00800000E+00  1.00800000E+00  1.60000000E+01  1.00800000E+00  1.00800000E+00
  1.60000000E+01  1.00800000E+00  1.00800000E+00  1.60000000E+01  1.00800000E+00
  1.00800000E+00  1.60000000E+01  1.00800000E+00  1.00800000E+00  1.60000000E+01
  1.00800000E+00  1.00800000E+00  1.60000000E+01  1.00800000E+00  1.00800000E+00
  1.60000000E+01  1.00800000E+00  1.00800000E+00  1.60000000E+01  1.00800000E+00
  1.00800000E+00  1.60000000E+01  1.00800000E+00  1.00800000E+00  1.60000000E+01
  1.00800000E+00  1.00800000E+00  1.60000000E+01  1.00800000E+00  1.00800000E+00
  1.60000000E+01  1.00800000E+00  1.00800000E+00  1.60000000E+01  1.00800000E+00
  1.00800000E+00  1.60000000E+01  1.00800000E+00  1.00800000E+00  1.60000000E+01
  1.00800000E+00  1.00800000E+00  1.60000000E+01  1.00800000E+00  1.00800000E+00
  1.60000000E+01  1.00800000E+00  1.00800000E+00  1.60000000E+01  1.00800000E+00
  1.00800000E+00  1.60000000E+01  1.00800000E+00  1.00800000E+00  1.60000000E+01
  1.00800000E+00  1.00800000E+00  1.60000000E+01  1.00800000E+00  1.00800000E+00
  1.60000000E+01  1.00800000E+00  1.00800000E+00  1.60000000E+01  1.00800000E+00
  1.00800000E+00  1.60000000E+01  1.00800000E+00  1.00800000E+00  1.60000000E+01
  1.00800000E+00  1.00800000E+00  1.60000000E+01  1.00800000E+00  1.00800000E+00
  1.60000000E+01  1.00800000E+00  1.00800000E+00  1.60000000E+01  1.00800000E+00
  1.00800000E+00  1.60000000E+01  1.00800000E+00  1.00800000E+00  1.60000000E+01
  1.00800000E+00  1.00800000E+00  1.60000000E+01  1.00800000E+00  1.00800000E+00
  1.60000000E+01  1.00800000E+00  1.00800000E+00  1.60000000E+01  1.00800000E+00
  1.00800000E+00  1.60000000E+01  1.00800000E+00  1.00800000E+00  1.60000000E+01
  1.00800000E+00  1.00800000E+00  1.60000000E+01  1.00800000E+00  1.00800000E+00
  1.60000000E+01  1.00800000E+00  1.00800000E+00  1.60000000E+01  1.00800000E+00
  1.00800000E+00  1.60000000E+01  1.00800000E+00  1.00800000E+00  1.60000000E+01
  1.00800000E+00  1.00800000E+00  1.60000000E+01  1.00800000E+00  1.00800000E+00
  1.60000000E+01  1.00800000E+00  1.00800000E+00  1.60000000E+01  1.00800000E+00
  1.00800000E+00  1.60000000E+01  1.00800000E+00  1.00800000E+00  1.60000000E+01
  1.00800000E+00  1.00800000E+00  1.60000000E+01  1.00800000E+00  1.00800000E+00
  1.60000000E+01  1.00800000E+00  1.00800000E+00  1.60000000E+01  1.00800000E+00
  1.00800000E+00  1.60000000E+01  1.00800000E+00  1.00800000E+00  1.60000000E+01
  1.00800000E+00  1.00800000E+00  1.60000000E+01  1.00800000E+00  1.00800000E+00
  1.60000000E+01  1.00800000E+00  1.00800000E+00  1.60000000E+01  1.00800000E+00
  1.00800000E+00  1.60000000E+01  1.00800000E+00  1.00800000E+00  1.60000000E+01
  1.00800000E+00  1.00800000E+00  1.60000000E+01  1.00800000E+00  1.00800000E+00
  1.60000000E+01  1.00800000E+00  1.00800000E+00  1.60000000E+01  1.00800000E+00
  1.00800000E+00  1.60000000E+01  1.00800000E+00  1.00800000E+00  1.60000000E+01
  1.00800000E+00  1.00800000E+00  1.60000000E+01  1.00800000E+00  1.00800000E+00
  1.60000000E+01  1.00800000E+00  1.00800000E+00  1.60000000E+01  1.00800000E+00
  1.00800000E+00  1.60000000E+01  1.00800000E+00  1.00800000E+00  1.60000000E+01
  1.00800000E+00  1.00800000E+00  1.60000000E+01  1.00800000E+00  1.00800000E+00
  1.60000000E+01  1.00800000E+00  1.00800000E+00  1.60000000E+01  1.00800000E+00
  1.00800000E+00  1.60000000E+01  1.00800000E+00  1.00800000E+00  1.60000000E+01
  1.00800000E+00  1.00800000E+00  1.60000000E+01  1.00800000E+00  1.00800000E+00
  1.60000000E+01  1.00800000E+00  1.00800000E+00  1.60000000E+01  1.00800000E+00
  1.00800000E+00  1.60000000E+01  1.00800000E+00  1.00800000E+00  1.60000000E+01
  1.00800000E+00  1.00800000E+00  1.60000000E+01  1.00800000E+00  1.00800000E+00
  1.60000000E+01  1.00800000E+00  1.00800000E+00  1.60000000E+01  1.00800000E+00
  1.00800000E+00  1.60000000E+01  1.00800000E+00  1.00800000E+00  1.60000000E+01
  1.00800000E+00  1.00800000E+00  1.60000000E+01  1.00800000E+00  1.00800000E+00
  1.60000000E+01  1.00800000E+00  1.00800000E+00  1.60000000E+01  1.00800000E+00
  1.00800000E+00  1.60000000E+01  1.00800000E+00  1.00800000E+00  1.60000000E+01
  1.00800000E+00  1.00800000E+00  1.60000000E+01  1.00800000E+00  1.00800000E+00
  1.60000000E+01  1.00800000E+00  1.00800000E+00  1.60000000E+01  1.00800000E+00
  1.00800000E+00  1.60000000E+01  1.00800000E+00  1.00800000E+00  1.60000000E+01
  1.00800000E+00  1.00800000E+00  1.60000000E+01  1.00800000E+00  1.00800000E+00
  1.60000000E+01  1.00800000E+00  1.00800000E+00  1.60000000E+01  1.00800000E+00
  1.00800000E+00  1.60000000E+01  1.00800000E+00  1.00800000E+00  1.60000000E+01
  1.00800000E+00  1.00800000E+00  1.60000000E+01  1.00800000E+00  1.00800000E+00
  1.60000000E+01  1.00800000E+00  1.00800000E+00  1.60000000E+01  1.00800000E+00
  1.00800000E+00  1.60000000E+01  1.00800000E+00  1.00800000E+00  1.60000000E+01
  1.00800000E+00  1.00800000E+00  1.60000000E+01  1.00800000E+00  1.00800000E+00
  1.60000000E+01  1.00800000E+00  1.00800000E+00  1.60000000E+01  1.00800000E+00
  1.00800000E+00  1.60000000E+01  1.00800000E+00  1.00800000E+00  1.60000000E+01
  1.00800000E+00  1.00800000E+00  1.60000000E+01  1.00800000E+00  1.00800000E+00
  1.60000000E+01  1.00800000E+00  1.00800000E+00  1.60000000E+01  1.00800000E+00
  1.00800000E+00  1.60000000E+01  1.00800000E+00  1.00800000E+00  1.60000000E+01
  1.00800000E+00  1.00800000E+00  1.60000000E+01  1.00800000E+00  1.00800000E+00
  1.60000000E+01  1.00800000E+00  1.00800000E+00  1.60000000E+01  1.00800000E+00
  1.00800000E+00  1.60000000E+01  1.00800000E+00  1.00800000E+00  1.60000000E+01
  1.00800000E+00  1.00800000E+00  1.60000000E+01  1.00800000E+00  1.00800000E+00
  1.60000000E+01  1.00800000E+00  1.00800000E+00  1.60000000E+01  1.00800000E+00
  1.00800000E+00  1.60000000E+01  1.00800000E+00  1.00800000E+00  1.60000000E+01
  1.00800000E+00  1.00800000E+00  1.60000000E+01  1.00800000E+00  1.00800000E+00
  1.60000000E+01  1.00800000E+00  1.00800000E+00  1.60000000E+01  1.00800000E+00
  1.00800000E+00  1.60000000E+01  1.00800000E+00  1.00800000E+00  1.60000000E+01
  1.00800000E+00  1.00800000E+00  1.60000000E+01  1.00800000E+00  1.00800000E+00
  1.60000000E+01  1.00800000E+00  1.00800000E+00  1.60000000E+01  1.00800000E+00
  1.00800000E+00  1.60000000E+01  1.00800000E+00  1.00800000E+00  1.60000000E+01
  1.00800000E+00  1.00800000E+00  1.60000000E+01  1.00800000E+00  1.00800000E+00
  1.60000000E+01  1.00800000E+00  1.00800000E+00  1.60000000E+01  1.00800000E+00
  1.00800000E+00  1.60000000E+01  1.00800000E+00  1.00800000E+00  1.60000000E+01
  1.00800000E+00  1.00800000E+00  1.60000000E+01  1.00800000E+00  1.00800000E+00
  1.60000000E+01  1.00800000E+00  1.00800000E+00  1.60000000E+01  1.00800000E+00
  1.00800000E+00  1.60000000E+01  1.00800000E+00  1.00800000E+00  1.60000000E+01
  1.00800000E+00  1.00800000E+00  1.60000000E+01  1.00800000E+00  1.00800000E+00
  1.60000000E+01  1.00800000E+00  1.00800000E+00  1.60000000E+01  1.00800000E+00
  1.00800000E+00  1.60000000E+01  1.00800000E+00  1.00800000E+00  1.60000000E+01
  1.00800000E+00  1.00800000E+00  1.60000000E+01  1.00800000E+00  1.00800000E+00
  1.60000000E+01  1.00800000E+00  1.00800000E+00  1.60000000E+01  1.00800000E+00
  1.00800000E+00  1.60000000E+01  1.00800000E+00  1.00800000E+00  1.60000000E+01
  1.00800000E+00  1.00800000E+00  1.60000000E+01  1.00800000E+00  1.00800000E+00
  1.60000000E+01  1.00800000E+00  1.00800000E+00  1.60000000E+01  1.00800000E+00
  1.00800000E+00  1.60000000E+01  1.00800000E+00  1.00800000E+00  1.60000000E+01
  1.00800000E+00  1.00800000E+00  1.60000000E+01  1.00800000E+00  1.00800000E+00
  1.60000000E+01  1.00800000E+00  1.00800000E+00  1.60000000E+01  1.00800000E+00
  1.00800000E+00  1.60000000E+01  1.00800000E+00  1.00800000E+00  1.60000000E+01
  1.00800000E+00  1.00800000E+00  1.60000000E+01  1.00800000E+00  1.00800000E+00
  1.60000000E+01  1.00800000E+00  1.00800000E+00  1.60000000E+01  1.00800000E+00
  1.00800000E+00  1.60000000E+01  1.00800000E+00  1.00800000E+00  1.60000000E+01
  1.00800000E+00  1.00800000E+00  1.60000000E+01  1.00800000E+00  1.00800000E+00
  1.60000000E+01  1.00800000E+00  1.00800000E+00  1.60000000E+01  1.00800000E+00
  1.00800000E+00  1.60000000E+01  1.00800000E+00  1.00800000E+00  1.60000000E+01
  1.00800000E+00  1.00800000E+00  1.60000000E+01  1.00800000E+00  1.00800000E+00
  1.60000000E+01  1.00800000E+00  1.00800000E+00  1.60000000E+01  1.00800000E+00
  1.00800000E+00  1.60000000E+01  1.00800000E+00  1.00800000E+00  1.60000000E+01
  1.00800000E+00  1.00800000E+00  1.60000000E+01  1.00800000E+00  1.00800000E+00
  1.60000000E+01  1.00800000E+00  1.00800000E+00  1.60000000E+01  1.00800000E+00
  1.00800000E+00  1.60000000E+01  1.00800000E+00  1.00800000E+00  1.60000000E+01
  1.00800000E+00  1.00800000E+00  1.60000000E+01  1.00800000E+00  1.00800000E+00
  1.60000000E+01  1.00800000E+00  1.00800000E+00  1.60000000E+01  1.00800000E+00
  1.00800000E+00  1.60000000E+01  1.00800000E+00  1.00800000E+00  1.60000000E+01
  1.00800000E+00  1.00800000E+00  1.60000000E+01  1.00800000E+00  1.00800000E+00
  1.60000000E+01  1.00800000E+00  1.00800000E+00  1.60000000E+01  1.00800000E+00
  1.00800000E+00  1.60000000E+01  1.00800000E+00  1.00800000E+00  1.60000000E+01
  1.00800000E+00  1.00800000E+00  1.60000000E+01  1.00800000E+00  1.00800000E+00
  1.60000000E+01  1.00800000E+00  1.00800000E+00  1.60000000E+01  1.00800000E+00
  1.00800000E+00  1.60000000E+01  1.00800000E+00  1.00800000E+00  1.60000000E+01
  1.00800000E+00  1.00800000E+00  1.60000000E+01  1.00800000E+00  1.00800000E+00
  1.60000000E+01  1.00800000E+00  1.00800000E+00  1.60000000E+01  1.00800000E+00
  1.00800000E+00  1.60000000E+01  1.00800000E+00  1.00800000E+00  1.60000000E+01
  1.00800000E+00  1.00800000E+00  1.60000000E+01  1.00800000E+00  1.00800000E+00
  1.60000000E+01  1.00800000E+00  1.00800000E+00  1.60000000E+01  1.00800000E+00
  1.00800000E+00  1.60000000E+01  1.00800000E+00  1.00800000E+00  1.60000000E+01
  1.00800000E+00  1.00800000E+00  1.60000000E+01  1.00800000E+00  1.00800000E+00
  1.60000000E+01  1.00800000E+00  1.00800000E+00  1.60000000E+01  1.00800000E+00
  1.00800000E+00  1.60000000E+01  1.00800000E+00  1.00800000E+00  1.60000000E+01
  1.00800000E+00  1.00800000E+00  1.60000000E+01  1.00800000E+00  1.00800000E+00
  1.60000000E+01  1.00800000E+00  1.00800000E+00  1.60000000E+01  1.00800000E+00
  1.00800000E+00  1.60000000E+01  1.00800000E+00  1.00800000E+00  1.60000000E+01
  1.00800000E+00  1.00800000E+00  1.60000000E+01  1.00800000E+00  1.00800000E+00
  1.60000000E+01  1.00800000E+00  1.00800000E+00  1.60000000E+01  1.00800000E+00
  1.00800000E+00  1.60000000E+01  1.00800000E+00  1.00800000E+00  1.60000000E+01
  1.00800000E+00  1.00800000E+00  1.60000000E+01  1.00800000E+00  1.00800000E+00
  1.60000000E+01  1.00800000E+00  1.00800000E+00  1.60000000E+01  1.00800000E+00
  1.00800000E+00  1.60000000E+01  1.00800000E+00  1.00800000E+00  1.60000000E+01
  1.00800000E+00  1.00800000E+00  1.60000000E+01  1.00800000E+00  1.00800000E+00
  1.60000000E+01  1.00800000E+00  1.00800000E+00  1.60000000E+01  1.00800000E+00
  1.00800000E+00  1.60000000E+01  1.00800000E+00  1.00800000E+00  1.60000000E+01
  1.00800000E+00  1.00800000E+00  1.60000000E+01  1.00800000E+00  1.00800000E+00
  1.60000000E+01  1.00800000E+00  1.00800000E+00  1.60000000E+01  1.00800000E+00
  1.00800000E+00  1.60000000E+01  1.00800000E+00  1.00800000E+00  1.60000000E+01
  1.00800000E+00  1.00800000E+00  1.60000000E+01  1.00800000E+00  1.00800000E+00
  1.60000000E+01  1.00800000E+00  1.00800000E+00  1.60000000E+01  1.00800000E+00
  1.00800000E+00  1.60000000E+01  1.00800000E+00  1.00800000E+00  1.60000000E+01
  1.00800000E+00  1.00800000E+00  1.60000000E+01  1.00800000E+00  1.00800000E+00
  1.60000000E+01  1.00800000E+00  1.00800000E+00  1.60000000E+01  1.00800000E+00
  1.00800000E+00  1.60000000E+01  1.00800000E+00  1.00800000E+00  1.60000000E+01
  1.00800000E+00  1.00800000E+00  1.60000000E+01  1.00800000E+00  1.00800000E+00
  1.60000000E+01  1.00800000E+00  1.00800000E+00  1.60000000E+01  1.00800000E+00
  1.00800000E+00  1.60000000E+01  1.00800000E+00  1.00800000E+00  1.60000000E+01
  1.00800000E+00  1.00800000E+00  1.60000000E+01  1.00800000E+00  1.00800000E+00
  1.60000000E+01  1.00800000E+00  1.00800000E+00  1.60000000E+01  1.00800000E+00
  1.00800000E+00  1.60000000E+01  1.00800000E+00  1.00800000E+00  1.60000000E+01
  1.00800000E+00  1.00800000E+00  1.60000000E+01  1.00800000E+00  1.00800000E+00
  1.60000000E+01  1.00800000E+00  1.00800000E+00  1.60000000E+01  1.00800000E+00
  1.00800000E+00  1.60000000E+01  1.00800000E+00  1.00800000E+00  1.60000000E+01
  1.00800000E+00  1.00800000E+00  1.60000000E+01  1.00800000E+00  1.00800000E+00
  1.60000000E+01  1.00800000E+00  1.00800000E+00  1.60000000E+01  1.00800000E+00
  1.00800000E+00  1.60000000E+01  1.00800000E+00  1.00800000E+00  1.60000000E+01
  1.00800000E+00  1.00800000E+00  1.60000000E+01  1.00800000E+00  1.00800000E+00
  1.60000000E+01  1.00800000E+00  1.00800000E+00  1.60000000E+01  1.00800000E+00
  1.00800000E+00  1.60000000E+01  1.00800000E+00  1.00800000E+00  1.60000000E+01
  1.00800000E+00  1.00800000E+00  1.60000000E+01  1.00800000E+00  1.00800000E+00
  1.60000000E+01  1.00800000E+00  1.00800000E+00  1.60000000E+01  1.00800000E+00
  1.00800000E+00  1.60000000E+01  1.00800000E+00  1.00800000E+00  1.60000000E+01
  1.00800000E+00  1.00800000E+00  1.60000000E+01  1.00800000E+00  1.00800000E+00
  1.60000000E+01  1.00800000E+00  1.00800000E+00  1.60000000E+01  1.00800000E+00
  1.00800000E+00  1.60000000E+01  1.00800000E+00  1.00800000E+00  1.60000000E+01
  1.00800000E+00  1.00800000E+00  1.60000000E+01  1.00800000E+00  1.00800000E+00
  1.60000000E+01  1.00800000E+00  1.00800000E+00  1.60000000E+01  1.00800000E+00
  1.00800000E+00  1.60000000E+01  1.00800000E+00  1.00800000E+00  1.60000000E+01
  1.00800000E+00  1.00800000E+00  1.60000000E+01  1.00800000E+00  1.00800000E+00
  1.60000000E+01  1.00800000E+00  1.00800000E+00  1.60000000E+01  1.00800000E+00
  1.00800000E+00  1.60000000E+01  1.00800000E+00  1.00800000E+00  1.60000000E+01
  1.00800000E+00  1.00800000E+00  1.60000000E+01  1.00800000E+00  1.00800000E+00
  1.60000000E+01  1.00800000E+00  1.00800000E+00  1.60000000E+01  1.00800000E+00
  1.00800000E+00  1.60000000E+01  1.00800000E+00  1.00800000E+00  1.60000000E+01
  1.00800000E+00  1.00800000E+00  1.60000000E+01  1.00800000E+00  1.00800000E+00
  1.60000000E+01  1.00800000E+00  1.00800000E+00  1.60000000E+01  1.00800000E+00
  1.00800000E+00  1.60000000E+01  1.00800000E+00  1.00800000E+00  1.60000000E+01
  1.00800000E+00  1.00800000E+00  1.60000000E+01  1.00800000E+00  1.00800000E+00
  1.60000000E+01  1.00800000E+00  1.00800000E+00  1.60000000E+01  1.00800000E+00
  1.00800000E+00  1.60000000E+01  1.00800000E+00  1.00800000E+00  1.60000000E+01
  1.00800000E+00  1.00800000E+00  1.60000000E+01  1.00800000E+00  1.00800000E+00
  1.60000000E+01  1.00800000E+00  1.00800000E+00  1.60000000E+01  1.00800000E+00
  1.00800000E+00  1.60000000E+01  1.00800000E+00  1.00800000E+00  1.60000000E+01
  1.00800000E+00  1.00800000E+00  1.60000000E+01  1.00800000E+00  1.00800000E+00
  1.60000000E+01  1.00800000E+00  1.00800000E+00  1.60000000E+01  1.00800000E+00
  1.00800000E+00  1.60000000E+01  1.00800000E+00  1.00800000E+00  1.60000000E+01
  1.00800000E+00  1.00800000E+00  1.60000000E+01  1.00800000E+00  1.00800000E+00
  1.60000000E+01  1.00800000E+00  1.00800000E+00  1.60000000E+01  1.00800000E+00
  1.00800000E+00  1.60000000E+01  1.00800000E+00  1.00800000E+00  1.60000000E+01
  1.00800000E+00  1.00800000E+00  1.60000000E+01  1.00800000E+00  1.00800000E+00
  1.60000000E+01  1.00800000E+00  1.00800000E+00  1.60000000E+01  1.00800000E+00
  1.00800000E+00  1.60000000E+01  1.00800000E+00  1.00800000E+00  1.60000000E+01
  1.00800000E+00  1.00800000E+00  1.60000000E+01  1.00800000E+00  1.00800000E+00
  1.60000000E+01  1.00800000E+00  1.00800000E+00  1.60000000E+01  1.00800000E+00
  1.00800000E+00  1.60000000E+01  1.00800000E+00  1.00800000E+00  1.60000000E+01
  1.00800000E+00  1.00800000E+00  1.60000000E+01  1.00800000E+00  1.00800000E+00
  1.60000000E+01  1.00800000E+00  1.00800000E+00  1.60000000E+01  1.00800000E+00
  1.00800000E+00  1.60000000E+01  1.00800000E+00  1.00800000E+00  1.60000000E+01
  1.00800000E+00  1.00800000E+00  1.60000000E+01  1.00800000E+00  1.00800000E+00
  1.60000000E+01  1.00800000E+00  1.00800000E+00  1.60000000E+01  1.00800000E+00
  1.00800000E+00  1.60000000E+01  1.00800000E+00  1.00800000E+00  1.60000000E+01
  1.00800000E+00  1.00800000E+00  1.60000000E+01  1.00800000E+00  1.00800000E+00
  1.60000000E+01  1.00800000E+00  1.00800000E+00  1.60000000E+01  1.00800000E+00
  1.00800000E+00  1.60000000E+01  1.00800000E+00  1.00800000E+00  1.60000000E+01
  1.00800000E+00  1.00800000E+00  1.60000000E+01  1.00800000E+00  1.00800000E+00
  1.60000000E+01  1.00800000E+00  1.00800000E+00  1.60000000E+01  1.00800000E+00
  1.00800000E+00  1.60000000E+01  1.00800000E+00  1.00800000E+00  1.60000000E+01
  1.00800000E+00  1.00800000E+00  1.60000000E+01  1.00800000E+00  1.00800000E+00
  1.60000000E+01  1.00800000E+00  1.00800000E+00  1.60000000E+01  1.00800000E+00
  1.00800000E+00  1.60000000E+01  1.00800000E+00  1.00800000E+00  1.60000000E+01
  1.00800000E+00  1.00800000E+00  1.60000000E+01  1.00800000E+00  1.00800000E+00
  1.60000000E+01  1.00800000E+00  1.00800000E+00  1.60000000E+01  1.00800000E+00
  1.00800000E+00  1.60000000E+01  1.00800000E+00  1.00800000E+00  1.60000000E+01
  1.00800000E+00  1.00800000E+00  1.60000000E+01  1.00800000E+00  1.00800000E+00
  1.60000000E+01  1.00800000E+00  1.00800000E+00  1.60000000E+01  1.00800000E+00
  1.00800000E+00  1.60000000E+01  1.00800000E+00  1.00800000E+00  1.60000000E+01
  1.00800000E+00  1.00800000E+00  1.60000000E+01  1.00800000E+00  1.00800000E+00
  1.60000000E+01  1.00800000E+00  1.00800000E+00  1.60000000E+01  1.00800000E+00
  1.00800000E+00  1.60000000E+01  1.00800000E+00  1.00800000E+00  1.60000000E+01
  1.00800000E+00  1.00800000E+00  1.60000000E+01  1.00800000E+00  1.00800000E+00
  1.60000000E+01  1.00800000E+00  1.00800000E+00  1.60000000E+01  1.00800000E+00
  1.00800000E+00  1.60000000E+01  1.00800000E+00  1.00800000E+00  1.60000000E+01
  1.00800000E+00  1.00800000E+00  1.60000000E+01  1.00800000E+00  1.00800000E+00
  1.60000000E+01  1.00800000E+00  1.00800000E+00  1.60000000E+01  1.00800000E+00
  1.00800000E+00  1.60000000E+01  1.00800000E+00  1.00800000E+00  1.60000000E+01
  1.00800000E+00  1.00800000E+00  1.60000000E+01  1.00800000E+00  1.00800000E+00
  1.60000000E+01  1.00800000E+00  1.00800000E+00  1.60000000E+01  1.00800000E+00
  1.00800000E+00  1.60000000E+01  1.00800000E+00  1.00800000E+00  1.60000000E+01
  1.00800000E+00  1.00800000E+00  1.60000000E+01  1.00800000E+00  1.00800000E+00
  1.60000000E+01  1.00800000E+00  1.00800000E+00  1.60000000E+01  1.00800000E+00
  1.00800000E+00  1.60000000E+01  1.00800000E+00  1.00800000E+00  1.60000000E+01
  1.00800000E+00  1.00800000E+00  1.60000000E+01  1.00800000E+00  1.00800000E+00
  1.60000000E+01  1.00800000E+00  1.00800000E+00  1.60000000E+01  1.00800000E+00
  1.00800000E+00  1.60000000E+01  1.00800000E+00  1.00800000E+00  1.60000000E+01
  1.00800000E+00  1.00800000E+00  1.60000000E+01  1.00800000E+00  1.00800000E+00
  1.60000000E+01  1.00800000E+00  1.00800000E+00  1.60000000E+01  1.00800000E+00
  1.00800000E+00  1.60000000E+01  1.00800000E+00  1.00800000E+00  1.60000000E+01
  1.00800000E+00  1.00800000E+00  1.60000000E+01  1.00800000E+00  1.00800000E+00
  1.60000000E+01  1.00800000E+00  1.00800000E+00  1.60000000E+01  1.00800000E+00
  1.00800000E+00  1.60000000E+01  1.00800000E+00  1.00800000E+00  1.60000000E+01
  1.00800000E+00  1.00800000E+00  1.60000000E+01  1.00800000E+00  1.00800000E+00
  1.60000000E+01  1.00800000E+00  1.00800000E+00  1.60000000E+01  1.00800000E+00
  1.00800000E+00  1.60000000E+01  1.00800000E+00  1.00800000E+00  1.60000000E+01
  1.00800000E+00  1.00800000E+00  1.60000000E+01  1.00800000E+00  1.00800000E+00
  1.60000000E+01  1.00800000E+00  1.00800000E+00  1.60000000E+01  1.00800000E+00
  1.00800000E+00  1.60000000E+01  1.00800000E+00  1.00800000E+00  1.60000000E+01
  1.00800000E+00  1.00800000E+00  1.60000000E+01  1.00800000E+00  1.00800000E+00
  1.60000000E+01  1.00800000E+00  1.00800000E+00  1.60000000E+01  1.00800000E+00
  1.00800000E+00  1.60000000E+01  1.00800000E+00  1.00800000E+00  1.60000000E+01
  1.00800000E+00  1.00800000E+00  1.60000000E+01  1.00800000E+00  1.00800000E+00
  1.60000000E+01  1.00800000E+00  1.00800000E+00  1.60000000E+01  1.00800000E+00
  1.00800000E+00  1.60000000E+01  1.00800000E+00  1.00800000E+00  1.60000000E+01
  1.00800000E+00  1.00800000E+00  1.60000000E+01  1.00800000E+00  1.00800000E+00
  1.60000000E+01  1.00800000E+00  1.00800000E+00  1.60000000E+01  1.00800000E+00
  1.00800000E+00  1.60000000E+01  1.00800000E+00  1.00800000E+00  1.60000000E+01
  1.00800000E+00  1.00800000E+00  1.60000000E+01  1.00800000E+00  1.00800000E+00
  1.60000000E+01  1.00800000E+00  1.00800000E+00  1.60000000E+01  1.00800000E+00
  1.00800000E+00  1.60000000E+01  1.00800000E+00  1.00800000E+00  1.60000000E+01
  1.00800000E+00  1.00800000E+00  1.60000000E+01  1.00800000E+00  1.00800000E+00
  1.60000000E+01  1.00800000E+00  1.00800000E+00  1.60000000E+01  1.00800000E+00
  1.00800000E+00  1.60000000E+01  1.00800000E+00  1.00800000E+00  1.60000000E+01
  1.00800000E+00  1.00800000E+00  1.60000000E+01  1.00800000E+00  1.00800000E+00
  1.60000000E+01  1.00800000E+00  1.00800000E+00  1.60000000E+01  1.00800000E+00
  1.00800000E+00  1.60000000E+01  1.00800000E+00  1.00800000E+00  1.60000000E+01
  1.00800000E+00  1.00800000E+00  1.60000000E+01  1.00800000E+00  1.00800000E+00
  1.60000000E+01  1.00800000E+00  1.00800000E+00  1.60000000E+01  1.00800000E+00
  1.00800000E+00  1.60000000E+01  1.00800000E+00  1.00800000E+00  1.60000000E+01
  1.00800000E+00  1.00800000E+00  1.60000000E+01  1.00800000E+00  1.00800000E+00
  1.60000000E+01  1.00800000E+00  1.00800000E+00  1.60000000E+01  1.00800000E+00
  1.00800000E+00  1.60000000E+01  1.00800000E+00  1.00800000E+00  1.60000000E+01
  1.00800000E+00  1.00800000E+00  1.60000000E+01  1.00800000E+00  1.00800000E+00
  1.60000000E+01  1.00800000E+00  1.00800000E+00  1.60000000E+01  1.00800000E+00
  1.00800000E+00  1.60000000E+01  1.00800000E+00  1.00800000E+00  1.60000000E+01
  1.00800000E+00  1.00800000E+00  1.60000000E+01  1.00800000E+00  1.00800000E+00
  1.60000000E+01  1.00800000E+00  1.00800000E+00  1.60000000E+01  1.00800000E+00
  1.00800000E+00  1.60000000E+01  1.00800000E+00  1.00800000E+00  1.60000000E+01
  1.00800000E+00  1.00800000E+00  1.60000000E+01  1.00800000E+00  1.00800000E+00
  1.60000000E+01  1.00800000E+00  1.00800000E+00  1.60000000E+01  1.00800000E+00
  1.00800000E+00  1.60000000E+01  1.00800000E+00  1.00800000E+00  1.60000000E+01
  1.00800000E+00  1.00800000E+00  1.60000000E+01  1.00800000E+00  1.00800000E+00
  1.60000000E+01  1.00800000E+00  1.00800000E+00  1.60000000E+01  1.00800000E+00
  1.00800000E+00  1.60000000E+01  1.00800000E+00  1.00800000E+00  1.60000000E+01
  1.00800000E+00  1.00800000E+00  1.60000000E+01  1.00800000E+00  1.00800000E+00
  1.60000000E+01  1.00800000E+00  1.00800000E+00  1.60000000E+01  1.00800000E+00
  1.00800000E+00  1.60000000E+01  1.00800000E+00  1.00800000E+00  1.60000000E+01
  1.00800000E+00  1.00800000E+00  1.60000000E+01  1.00800000E+00  1.00800000E+00
  1.60000000E+01  1.00800000E+00  1.00800000E+00  1.60000000E+01  1.00800000E+00
  1.00800000E+00  1.60000000E+01  1.00800000E+00  1.00800000E+00  1.60000000E+01
  1.00800000E+00  1.00800000E+00  1.60000000E+01  1.00800000E+00  1.00800000E+00
  1.60000000E+01  1.00800000E+00  1.00800000E+00  1.60000000E+01  1.00800000E+00
  1.00800000E+00  1.60000000E+01  1.00800000E+00  1.00800000E+00  1.60000000E+01
  1.00800000E+00  1.00800000E+00  1.60000000E+01  1.00800000E+00  1.00800000E+00
  1.60000000E+01  1.00800000E+00  1.00800000E+00  1.60000000E+01  1.00800000E+00
  1.00800000E+00  1.60000000E+01  1.00800000E+00  1.00800000E+00  1.60000000E+01
  1.00800000E+00  1.00800000E+00  1.60000000E+01  1.00800000E+00  1.00800000E+00
  1.60000000E+01  1.00800000E+00  1.00800000E+00  1.60000000E+01  1.00800000E+00
  1.00800000E+00  1.60000000E+01  1.00800000E+00  1.00800000E+00  1.60000000E+01
  1.00800000E+00  1.00800000E+00  1.60000000E+01  1.00800000E+00  1.00800000E+00
  1.60000000E+01  1.00800000E+00  1.00800000E+00  1.60000000E+01  1.00800000E+00
  1.00800000E+00  1.60000000E+01  1.00800000E+00  1.00800000E+00  1.60000000E+01
  1.00800000E+00  1.00800000E+00  1.60000000E+01  1.00800000E+00  1.00800000E+00
  1.60000000E+01  1.00800000E+00  1.00800000E+00  1.60000000E+01  1.00800000E+00
  1.00800000E+00  1.60000000E+01  1.00800000E+00  1.00800000E+00  1.60000000E+01
  1.00800000E+00  1.00800000E+00  1.60000000E+01  1.00800000E+00  1.00800000E+00
  1.60000000E+01  1.00800000E+00  1.00800000E+00  1.60000000E+01  1.00800000E+00
  1.00800000E+00  1.60000000E+01  1.00800000E+00  1.00800000E+00  1.60000000E+01
  1.00800000E+00  1.00800000E+00  1.60000000E+01  1.00800000E+00  1.00800000E+00
  1.60000000E+01  1.00800000E+00  1.00800000E+00  1.60000000E+01  1.00800000E+00
  1.00800000E+00  1.60000000E+01  1.00800000E+00  1.00800000E+00  1.60000000E+01
  1.00800000E+00  1.00800000E+00  1.60000000E+01  1.00800000E+00  1.00800000E+00
  1.60000000E+01  1.00800000E+00  1.00800000E+00  1.60000000E+01  1.00800000E+00
  1.00800000E+00  1.60000000E+01  1.00800000E+00  1.00800000E+00  1.60000000E+01
  1.00800000E+00  1.00800000E+00  1.60000000E+01  1.00800000E+00  1.00800000E+00
  1.60000000E+01  1.00800000E+00  1.00800000E+00  1.60000000E+01  1.00800000E+00
  1.00800000E+00  1.60000000E+01  1.00800000E+00  1.00800000E+00  1.60000000E+01
  1.00800000E+00  1.00800000E+00  1.60000000E+01  1.00800000E+00  1.00800000E+00
  1.60000000E+01  1.00800000E+00  1.00800000E+00  1.60000000E+01  1.00800000E+00
  1.00800000E+00  1.60000000E+01  1.00800000E+00  1.00800000E+00  1.60000000E+01
  1.00800000E+00  1.00800000E+00  1.60000000E+01  1.00800000E+00  1.00800000E+00
  1.60000000E+01  1.00800000E+00  1.00800000E+00  1.60000000E+01  1.00800000E+00
  1.00800000E+00  1.60000000E+01  1.00800000E+00  1.00800000E+00  1.60000000E+01
  1.00800000E+00  1.00800000E+00  1.60000000E+01  1.00800000E+00  1.00800000E+00
  1.60000000E+01  1.00800000E+00  1.00800000E+00  1.60000000E+01  1.00800000E+00
  1.00800000E+00  1.60000000E+01  1.00800000E+00  1.00800000E+00  1.60000000E+01
  1.00800000E+00  1.00800000E+00  1.60000000E+01  1.00800000E+00  1.00800000E+00
  1.60000000E+01  1.00800000E+00  1.00800000E+00  1.60000000E+01  1.00800000E+00
  1.00800000E+00  1.60000000E+01  1.00800000E+00  1.00800000E+00  1.60000000E+01
  1.00800000E+00  1.00800000E+00  1.60000000E+01  1.00800000E+00  1.00800000E+00
  1.60000000E+01  1.00800000E+00  1.00800000E+00  1.60000000E+01  1.00800000E+00
  1.00800000E+00  1.60000000E+01  1.00800000E+00  1.00800000E+00  1.60000000E+01
  1.00800000E+00  1.00800000E+00  1.60000000E+01  1.00800000E+00  1.00800000E+00
  1.60000000E+01  1.00800000E+00  1.00800000E+00  1.60000000E+01  1.00800000E+00
  1.00800000E+00  1.60000000E+01  1.00800000E+00  1.00800000E+00  1.60000000E+01
  1.00800000E+00  1.00800000E+00  1.60000000E+01  1.00800000E+00  1.00800000E+00
  1.60000000E+01  1.00800000E+00  1.00800000E+00  1.60000000E+01  1.00800000E+00
  1.00800000E+00  1.60000000E+01  1.00800000E+00  1.00800000E+00  1.60000000E+01
  1.00800000E+00  1.00800000E+00  1.60000000E+01  1.00800000E+00  1.00800000E+00
  1.60000000E+01  1.00800000E+00  1.00800000E+00  1.60000000E+01  1.00800000E+00
  1.00800000E+00  1.60000000E+01  1.00800000E+00  1.00800000E+00  1.60000000E+01
  1.00800000E+00  1.00800000E+00  1.60000000E+01  1.00800000E+00  1.00800000E+00
  1.60000000E+01  1.00800000E+00  1.00800000E+00  1.60000000E+01  1.00800000E+00
  1.00800000E+00  1.60000000E+01  1.00800000E+00  1.00800000E+00  1.60000000E+01
  1.00800000E+00  1.00800000E+00  1.60000000E+01  1.00800000E+00  1.00800000E+00
  1.60000000E+01  1.00800000E+00  1.00800000E+00  1.60000000E+01  1.00800000E+00
  1.00800000E+00  1.60000000E+01  1.00800000E+00  1.00800000E+00  1.60000000E+01
  1.00800000E+00  1.00800000E+00  1.60000000E+01  1.00800000E+00  1.00800000E+00
  1.60000000E+01  1.00800000E+00  1.00800000E+00  1.60000000E+01  1.00800000E+00
  1.00800000E+00  1.60000000E+01  1.00800000E+00  1.00800000E+00  1.60000000E+01
  1.00800000E+00  1.00800000E+00  1.60000000E+01  1.00800000E+00  1.00800000E+00
  1.60000000E+01  1.00800000E+00  1.00800000E+00  1.60000000E+01  1.00800000E+00
  1.00800000E+00  1.60000000E+01  1.00800000E+00  1.00800000E+00  1.60000000E+01
  1.00800000E+00  1.00800000E+00  1.60000000E+01  1.00800000E+00  1.00800000E+00
  1.60000000E+01  1.00800000E+00  1.00800000E+00  1.60000000E+01  1.00800000E+00
  1.00800000E+00  1.60000000E+01  1.00800000E+00  1.00800000E+00  1.60000000E+01
  1.00800000E+00  1.00800000E+00  1.60000000E+01  1.00800000E+00  1.00800000E+00
  1.60000000E+01  1.00800000E+00  1.00800000E+00  1.60000000E+01  1.00800000E+00
  1.00800000E+00  1.60000000E+01  1.00800000E+00  1.00800000E+00  1.60000000E+01
  1.00800000E+00  1.00800000E+00  1.60000000E+01  1.00800000E+00  1.00800000E+00
  1.60000000E+01  1.00800000E+00  1.00800000E+00  1.60000000E+01  1.00800000E+00
  1.00800000E+00  1.60000000E+01  1.00800000E+00  1.00800000E+00  1.60000000E+01
  1.00800000E+00  1.00800000E+00  1.60000000E+01  1.00800000E+00  1.00800000E+00
  1.60000000E+01  1.00800000E+00  1.00800000E+00  1.60000000E+01  1.00800000E+00
  1.00800000E+00  1.60000000E+01  1.00800000E+00  1.00800000E+00  1.60000000E+01
  1.00800000E+00  1.00800000E+00  1.60000000E+01  1.00800000E+00  1.00800000E+00
  1.60000000E+01  1.00800000E+00  1.00800000E+00  1.60000000E+01  1.00800000E+00
  1.00800000E+00  1.60000000E+01  1.00800000E+00  1.00800000E+00  1.60000000E+01
  1.00800000E+00  1.00800000E+00  1.60000000E+01  1.00800000E+00  1.00800000E+00
  1.60000000E+01  1.00800000E+00  1.00800000E+00  1.60000000E+01  1.00800000E+00
  1.00800000E+00  1.60000000E+01  1.00800000E+00  1.00800000E+00  1.60000000E+01
  1.00800000E+00  1.00800000E+00  1.60000000E+01  1.00800000E+00  1.00800000E+00
  1.60000000E+01  1.00800000E+00  1.00800000E+00  1.60000000E+01  1.00800000E+00
  1.00800000E+00  1.60000000E+01  1.00800000E+00  1.00800000E+00  1.60000000E+01
  1.00800000E+00  1.00800000E+00  1.60000000E+01  1.00800000E+00  1.00800000E+00
  1.60000000E+01  1.00800000E+00  1.00800000E+00  1.60000000E+01  1.00800000E+00
  1.00800000E+00  1.60000000E+01  1.00800000E+00  1.00800000E+00  1.60000000E+01
  1.00800000E+00  1.00800000E+00  1.60000000E+01  1.00800000E+00  1.00800000E+00
  1.60000000E+01  1.00800000E+00  1.00800000E+00  1.60000000E+01  1.00800000E+00
  1.00800000E+00  1.60000000E+01  1.00800000E+00  1.00800000E+00  1.60000000E+01
  1.00800000E+00  1.00800000E+00  1.60000000E+01  1.00800000E+00  1.00800000E+00
  1.60000000E+01  1.00800000E+00  1.00800000E+00  1.60000000E+01  1.00800000E+00
  1.00800000E+00  1.60000000E+01  1.00800000E+00  1.00800000E+00  1.60000000E+01
  1.00800000E+00  1.00800000E+00  1.60000000E+01  1.00800000E+00  1.00800000E+00
  1.60000000E+01  1.00800000E+00  1.00800000E+00  1.60000000E+01  1.00800000E+00
  1.00800000E+00  1.60000000E+01  1.00800000E+00  1.00800000E+00  1.60000000E+01
  1.00800000E+00  1.00800000E+00  1.60000000E+01  1.00800000E+00  1.00800000E+00
  1.60000000E+01  1.00800000E+00  1.00800000E+00  1.60000000E+01  1.00800000E+00
  1.00800000E+00  1.60000000E+01  1.00800000E+00  1.00800000E+00  1.60000000E+01
  1.00800000E+00  1.00800000E+00  1.60000000E+01  1.00800000E+00  1.00800000E+00
  1.60000000E+01  1.00800000E+00  1.00800000E+00  1.60000000E+01  1.00800000E+00
  1.00800000E+00  1.60000000E+01  1.00800000E+00  1.00800000E+00  1.60000000E+01
  1.00800000E+00  1.00800000E+00  1.60000000E+01  1.00800000E+00  1.00800000E+00
  1.60000000E+01  1.00800000E+00  1.00800000E+00  1.60000000E+01  1.00800000E+00
  1.00800000E+00  1.60000000E+01  1.00800000E+00  1.00800000E+00  1.60000000E+01
  1.00800000E+00  1.00800000E+00  1.60000000E+01  1.00800000E+00  1.00800000E+00
  1.60000000E+01  1.00800000E+00  1.00800000E+00  1.60000000E+01  1.00800000E+00
  1.00800000E+00  1.60000000E+01  1.00800000E+00  1.00800000E+00  1.60000000E+01
  1.00800000E+00  1.00800000E+00  1.60000000E+01  1.00800000E+00  1.00800000E+00
  1.60000000E+01  1.00800000E+00  1.00800000E+00  1.60000000E+01  1.00800000E+00
  1.00800000E+00  1.60000000E+01  1.00800000E+00  1.00800000E+00  1.60000000E+01
  1.00800000E+00  1.00800000E+00  1.60000000E+01  1.00800000E+00  1.00800000E+00
  1.60000000E+01  1.00800000E+00  1.00800000E+00  1.60000000E+01  1.00800000E+00
  1.00800000E+00  1.60000000E+01  1.00800000E+00  1.00800000E+00  1.60000000E+01
  1.00800000E+00  1.00800000E+00  1.60000000E+01  1.00800000E+00  1.00800000E+00
  1.60000000E+01  1.00800000E+00  1.00800000E+00  1.60000000E+01  1.00800000E+00
  1.00800000E+00  1.60000000E+01  1.00800000E+00  1.00800000E+00  1.60000000E+01
  1.00800000E+00  1.00800000E+00  1.60000000E+01  1.00800000E+00  1.00800000E+00
  1.60000000E+01  1.00800000E+00  1.00800000E+00  1.60000000E+01  1.00800000E+00
  1.00800000E+00  1.60000000E+01  1.00800000E+00  1.00800000E+00  1.60000000E+01
  1.00800000E+00  1.00800000E+00  1.60000000E+01  1.00800000E+00  1.00800000E+00
  1.60000000E+01  1.00800000E+00  1.00800000E+00  1.60000000E+01  1.00800000E+00
  1.00800000E+00  1.60000000E+01  1.00800000E+00  1.00800000E+00  1.60000000E+01
  1.00800000E+00  1.00800000E+00  1.60000000E+01  1.00800000E+00  1.00800000E+00
  1.60000000E+01  1.00800000E+00  1.00800000E+00  1.60000000E+01  1.00800000E+00
  1.00800000E+00  1.60000000E+01  1.00800000E+00  1.00800000E+00  1.60000000E+01
  1.00800000E+00  1.00800000E+00  1.60000000E+01  1.00800000E+00  1.00800000E+00
  1.60000000E+01  1.00800000E+00  1.00800000E+00  1.60000000E+01  1.00800000E+00
  1.00800000E+00  1.60000000E+01  1.00800000E+00  1.00800000E+00  1.60000000E+01
  1.00800000E+00  1.00800000E+00  1.60000000E+01  1.00800000E+00  1.00800000E+00
  1.60000000E+01  1.00800000E+00  1.00800000E+00  1.60000000E+01  1.00800000E+00
  1.00800000E+00  1.60000000E+01  1.00800000E+00  1.00800000E+00  1.60000000E+01
  1.00800000E+00  1.00800000E+00  1.60000000E+01  1.00800000E+00  1.00800000E+00
  1.60000000E+01  1.00800000E+00  1.00800000E+00  1.60000000E+01  1.00800000E+00
  1.00800000E+00  1.60000000E+01  1.00800000E+00  1.00800000E+00  1.60000000E+01
  1.00800000E+00  1.00800000E+00  1.60000000E+01  1.00800000E+00  1.00800000E+00
  1.60000000E+01  1.00800000E+00  1.00800000E+00  1.60000000E+01  1.00800000E+00
  1.00800000E+00  1.60000000E+01  1.00800000E+00  1.00800000E+00  1.60000000E+01
  1.00800000E+00  1.00800000E+00  1.60000000E+01  1.00800000E+00  1.00800000E+00
  1.60000000E+01  1.00800000E+00  1.00800000E+00  1.60000000E+01  1.00800000E+00
  1.00800000E+00  1.60000000E+01  1.00800000E+00  1.00800000E+00  1.60000000E+01
  1.00800000E+00  1.00800000E+00  1.60000000E+01  1.00800000E+00  1.00800000E+00
  1.60000000E+01  1.00800000E+00  1.00800000E+00  1.60000000E+01  1.00800000E+00
  1.00800000E+00  1.60000000E+01  1.00800000E+00  1.00800000E+00  1.60000000E+01
  1.00800000E+00  1.00800000E+00  1.60000000E+01  1.00800000E+00  1.00800000E+00
  1.60000000E+01  1.00800000E+00  1.00800000E+00  1.60000000E+01  1.00800000E+00
  1.00800000E+00  1.60000000E+01  1.00800000E+00  1.00800000E+00  1.60000000E+01
  1.00800000E+00  1.00800000E+00  1.60000000E+01  1.00800000E+00  1.00800000E+00
  1.60000000E+01  1.00800000E+00  1.00800000E+00  1.60000000E+01  1.00800000E+00
  1.00800000E+00  1.60000000E+01  1.00800000E+00  1.00800000E+00  1.60000000E+01
  1.00800000E+00  1.00800000E+00  1.60000000E+01  1.00800000E+00  1.00800000E+00
  1.60000000E+01  1.00800000E+00  1.00800000E+00  1.60000000E+01  1.00800000E+00
  1.00800000E+00  1.60000000E+01  1.00800000E+00  1.00800000E+00  1.60000000E+01
  1.00800000E+00  1.00800000E+00  1.60000000E+01  1.00800000E+00  1.00800000E+00
  1.60000000E+01  1.00800000E+00  1.00800000E+00  1.60000000E+01  1.00800000E+00
  1.00800000E+00  1.60000000E+01  1.00800000E+00  1.00800000E+00  1.60000000E+01
  1.00800000E+00  1.00800000E+00  1.60000000E+01  1.00800000E+00  1.00800000E+00
  1.60000000E+01  1.00800000E+00  1.00800000E+00  1.60000000E+01  1.00800000E+00
  1.00800000E+00  1.60000000E+01  1.00800000E+00  1.00800000E+00  1.60000000E+01
  1.00800000E+00  1.00800000E+00  1.60000000E+01  1.00800000E+00  1.00800000E+00
  1.60000000E+01  1.00800000E+00  1.00800000E+00  1.60000000E+01  1.00800000E+00
  1.00800000E+00  1.60000000E+01  1.00800000E+00  1.00800000E+00  1.60000000E+01
  1.00800000E+00  1.00800000E+00  1.60000000E+01  1.00800000E+00  1.00800000E+00
  1.60000000E+01  1.00800000E+00  1.00800000E+00  1.60000000E+01  1.00800000E+00
  1.00800000E+00  1.60000000E+01  1.00800000E+00  1.00800000E+00  1.60000000E+01
  1.00800000E+00  1.00800000E+00  1.60000000E+01  1.00800000E+00  1.00800000E+00
  1.60000000E+01  1.00800000E+00  1.00800000E+00  1.60000000E+01  1.00800000E+00
  1.00800000E+00  1.60000000E+01  1.00800000E+00  1.00800000E+00  1.60000000E+01
  1.00800000E+00  1.00800000E+00  1.60000000E+01  1.00800000E+00  1.00800000E+00
  1.60000000E+01  1.00800000E+00  1.00800000E+00  1.60000000E+01  1.00800000E+00
  1.00800000E+00  1.60000000E+01  1.00800000E+00  1.00800000E+00  1.60000000E+01
  1.00800000E+00  1.00800000E+00  1.60000000E+01  1.00800000E+00  1.00800000E+00
  1.60000000E+01  1.00800000E+00  1.00800000E+00  1.60000000E+01  1.00800000E+00
  1.00800000E+00  1.60000000E+01  1.00800000E+00  1.00800000E+00  1.60000000E+01
  1.00800000E+00  1.00800000E+00  1.60000000E+01  1.00800000E+00  1.00800000E+00
  1.60000000E+01  1.00800000E+00  1.00800000E+00  1.60000000E+01  1.00800000E+00
  1.00800000E+00  1.60000000E+01  1.00800000E+00  1.00800000E+00  1.60000000E+01
  1.00800000E+00  1.00800000E+00  1.60000000E+01  1.00800000E+00  1.00800000E+00
  1.60000000E+01  1.00800000E+00  1.00800000E+00  1.60000000E+01  1.00800000E+00
  1.00800000E+00  1.60000000E+01  1.00800000E+00  1.00800000E+00  1.60000000E+01
  1.00800000E+00  1.00800000E+00  1.60000000E+01  1.00800000E+00  1.00800000E+00
  1.60000000E+01  1.00800000E+00  1.00800000E+00  1.60000000E+01  1.00800000E+00
  1.00800000E+00  1.60000000E+01  1.00800000E+00  1.00800000E+00  1.60000000E+01
  1.00800000E+00  1.00800000E+00  1.60000000E+01  1.00800000E+00  1.00800000E+00
  1.60000000E+01  1.00800000E+00  1.00800000E+00  1.60000000E+01  1.00800000E+00
  1.00800000E+00  1.60000000E+01  1.00800000E+00  1.00800000E+00  1.60000000E+01
  1.00800000E+00  1.00800000E+00  1.60000000E+01  1.00800000E+00  1.00800000E+00
  1.60000000E+01  1.00800000E+00  1.00800000E+00  1.60000000E+01  1.00800000E+00
  1.00800000E+00  1.60000000E+01  1.00800000E+00  1.00800000E+00  1.60000000E+01
  1.00800000E+00  1.00800000E+00  1.60000000E+01  1.00800000E+00  1.00800000E+00
  1.60000000E+01  1.00800000E+00  1.00800000E+00  1.60000000E+01  1.00800000E+00
  1.00800000E+00  1.60000000E+01  1.00800000E+00  1.00800000E+00  1.60000000E+01
  1.00800000E+00  1.00800000E+00  1.60000000E+01  1.00800000E+00  1.00800000E+00
  1.60000000E+01  1.00800000E+00  1.00800000E+00  1.60000000E+01  1.00800000E+00
  1.00800000E+00  1.60000000E+01  1.00800000E+00  1.00800000E+00  1.60000000E+01
  1.00800000E+00  1.00800000E+00  1.60000000E+01  1.00800000E+00  1.00800000E+00
  1.60000000E+01  1.00800000E+00  1.00800000E+00  1.60000000E+01  1.00800000E+00
  1.00800000E+00  1.60000000E+01  1.00800000E+00  1.00800000E+00  1.60000000E+01
  1.00800000E+00  1.00800000E+00  1.60000000E+01  1.00800000E+00  1.00800000E+00
  1.60000000E+01  1.00800000E+00  1.00800000E+00  1.60000000E+01  1.00800000E+00
  1.00800000E+00  1.60000000E+01  1.00800000E+00  1.00800000E+00  1.60000000E+01
  1.00800000E+00  1.00800000E+00  1.60000000E+01  1.00800000E+00  1.00800000E+00
  1.60000000E+01  1.00800000E+00  1.00800000E+00  1.60000000E+01  1.00800000E+00
  1.00800000E+00  1.60000000E+01  1.00800000E+00  1.00800000E+00  1.60000000E+01
  1.00800000E+00  1.00800000E+00  1.60000000E+01  1.00800000E+00  1.00800000E+00
  1.60000000E+01  1.00800000E+00  1.00800000E+00  1.60000000E+01  1.00800000E+00
  1.00800000E+00  1.60000000E+01  1.00800000E+00  1.00800000E+00  1.60000000E+01
  1.00800000E+00  1.00800000E+00  1.60000000E+01  1.00800000E+00  1.00800000E+00
  1.60000000E+01  1.00800000E+00  1.00800000E+00  1.60000000E+01  1.00800000E+00
  1.00800000E+00  1.60000000E+01  1.00800000E+00  1.00800000E+00  1.60000000E+01
  1.00800000E+00  1.00800000E+00  1.60000000E+01  1.00800000E+00  1.00800000E+00
  1.60000000E+01  1.00800000E+00  1.00800000E+00  1.60000000E+01  1.00800000E+00
  1.00800000E+00  1.60000000E+01  1.00800000E+00  1.00800000E+00  1.60000000E+01
  1.00800000E+00  1.00800000E+00  1.60000000E+01  1.00800000E+00  1.00800000E+00
  1.60000000E+01  1.00800000E+00  1.00800000E+00  1.60000000E+01  1.00800000E+00
  1.00800000E+00  1.60000000E+01  1.00800000E+00  1.00800000E+00  1.60000000E+01
  1.00800000E+00  1.00800000E+00  1.60000000E+01  1.00800000E+00  1.00800000E+00
  1.60000000E+01  1.00800000E+00  1.00800000E+00  1.60000000E+01  1.00800000E+00
  1.00800000E+00  1.60000000E+01  1.00800000E+00  1.00800000E+00  1.60000000E+01
  1.00800000E+00  1.00800000E+00  1.60000000E+01  1.00800000E+00  1.00800000E+00
  1.60000000E+01  1.00800000E+00  1.00800000E+00  1.60000000E+01  1.00800000E+00
  1.00800000E+00  1.60000000E+01  1.00800000E+00  1.00800000E+00  1.60000000E+01
  1.00800000E+00  1.00800000E+00  1.60000000E+01  1.00800000E+00  1.00800000E+00
  1.60000000E+01  1.00800000E+00  1.00800000E+00  1.60000000E+01  1.00800000E+00
  1.00800000E+00  1.60000000E+01  1.00800000E+00  1.00800000E+00  1.60000000E+01
  1.00800000E+00  1.00800000E+00  1.60000000E+01  1.00800000E+00  1.00800000E+00
  1.60000000E+01  1.00800000E+00  1.00800000E+00  1.60000000E+01  1.00800000E+00
  1.00800000E+00  1.60000000E+01  1.00800000E+00  1.00800000E+00  1.60000000E+01
  1.00800000E+00  1.00800000E+00  1.60000000E+01  1.00800000E+00  1.00800000E+00
  1.60000000E+01  1.00800000E+00  1.00800000E+00  1.60000000E+01  1.00800000E+00
  1.00800000E+00  1.60000000E+01  1.00800000E+00  1.00800000E+00  1.60000000E+01
  1.00800000E+00  1.00800000E+00  1.60000000E+01  1.00800000E+00  1.00800000E+00
  1.60000000E+01  1.00800000E+00  1.00800000E+00  1.60000000E+01  1.00800000E+00
  1.00800000E+00  1.60000000E+01  1.00800000E+00  1.00800000E+00  1.60000000E+01
  1.00800000E+00  1.00800000E+00  1.60000000E+01  1.00800000E+00  1.00800000E+00
  1.60000000E+01  1.00800000E+00  1.00800000E+00  1.60000000E+01  1.00800000E+00
  1.00800000E+00  1.60000000E+01  1.00800000E+00  1.00800000E+00  1.60000000E+01
  1.00800000E+00  1.00800000E+00  1.60000000E+01  1.00800000E+00  1.00800000E+00
  1.60000000E+01  1.00800000E+00  1.00800000E+00  1.60000000E+01  1.00800000E+00
  1.00800000E+00  1.60000000E+01  1.00800000E+00  1.00800000E+00  1.60000000E+01
  1.00800000E+00  1.00800000E+00  1.60000000E+01  1.00800000E+00  1.00800000E+00
  1.60000000E+01  1.00800000E+00  1.00800000E+00  1.60000000E+01  1.00800000E+00
  1.00800000E+00  1.60000000E+01  1.00800000E+00  1.00800000E+00  1.60000000E+01
  1.00800000E+00  1.00800000E+00  1.60000000E+01  1.00800000E+00  1.00800000E+00
  1.60000000E+01  1.00800000E+00  1.00800000E+00  1.60000000E+01  1.00800000E+00
  1.00800000E+00  1.60000000E+01  1.00800000E+00  1.00800000E+00  1.60000000E+01
  1.00800000E+00  1.00800000E+00  1.60000000E+01  1.00800000E+00  1.00800000E+00
  1.60000000E+01  1.00800000E+00  1.00800000E+00  1.60000000E+01  1.00800000E+00
  1.00800000E+00  1.60000000E+01  1.00800000E+00  1.00800000E+00  1.60000000E+01
  1.00800000E+00  1.00800000E+00  1.60000000E+01  1.00800000E+00  1.00800000E+00
  1.60000000E+01  1.00800000E+00  1.00800000E+00  1.60000000E+01  1.00800000E+00
  1.00800000E+00  1.60000000E+01  1.00800000E+00  1.00800000E+00  1.60000000E+01
  1.00800000E+00  1.00800000E+00  1.60000000E+01  1.00800000E+00  1.00800000E+00
  1.60000000E+01  1.00800000E+00  1.00800000E+00  1.60000000E+01  1.00800000E+00
  1.00800000E+00  1.60000000E+01  1.00800000E+00  1.00800000E+00  1.60000000E+01
  1.00800000E+00  1.00800000E+00  1.60000000E+01  1.00800000E+00  1.00800000E+00
  1.60000000E+01  1.00800000E+00  1.00800000E+00  1.60000000E+01  1.00800000E+00
  1.00800000E+00  1.60000000E+01  1.00800000E+00  1.00800000E+00  1.60000000E+01
  1.00800000E+00  1.00800000E+00  1.60000000E+01  1.00800000E+00  1.00800000E+00
  1.60000000E+01  1.00800000E+00  1.00800000E+00  1.60000000E+01  1.00800000E+00
  1.00800000E+00  1.60000000E+01  1.00800000E+00  1.00800000E+00  1.60000000E+01
  1.00800000E+00  1.00800000E+00  1.60000000E+01  1.00800000E+00  1.00800000E+00
  1.60000000E+01  1.00800000E+00  1.00800000E+00  1.60000000E+01  1.00800000E+00
  1.00800000E+00  1.60000000E+01  1.00800000E+00  1.00800000E+00  1.60000000E+01
  1.00800000E+00  1.00800000E+00  1.60000000E+01  1.00800000E+00  1.00800000E+00
  1.60000000E+01  1.00800000E+00  1.00800000E+00  1.60000000E+01  1.00800000E+00
  1.00800000E+00  1.60000000E+01  1.00800000E+00  1.00800000E+00  1.60000000E+01
  1.00800000E+00  1.00800000E+00  1.60000000E+01  1.00800000E+00  1.00800000E+00
  1.60000000E+01  1.00800000E+00  1.00800000E+00  1.60000000E+01  1.00800000E+00
  1.00800000E+00  1.60000000E+01  1.00800000E+00  1.00800000E+00  1.60000000E+01
  1.00800000E+00  1.00800000E+00  1.60000000E+01  1.00800000E+00  1.00800000E+00
  1.60000000E+01  1.00800000E+00  1.00800000E+00  1.60000000E+01  1.00800000E+00
  1.00800000E+00  1.60000000E+01  1.00800000E+00  1.00800000E+00  1.60000000E+01
  1.00800000E+00  1.00800000E+00  1.60000000E+01  1.00800000E+00  1.00800000E+00
  1.60000000E+01  1.00800000E+00  1.00800000E+00  1.60000000E+01  1.00800000E+00
  1.00800000E+00  1.60000000E+01  1.00800000E+00  1.00800000E+00  1.60000000E+01
  1.00800000E+00  1.00800000E+00  1.60000000E+01  1.00800000E+00  1.00800000E+00
  1.60000000E+01  1.00800000E+00  1.00800000E+00  1.60000000E+01  1.00800000E+00
  1.00800000E+00  1.60000000E+01  1.00800000E+00  1.00800000E+00  1.60000000E+01
  1.00800000E+00  1.00800000E+00  1.60000000E+01  1.00800000E+00  1.00800000E+00
  1.60000000E+01  1.00800000E+00  1.00800000E+00  1.60000000E+01  1.00800000E+00
  1.00800000E+00  1.60000000E+01  1.00800000E+00  1.00800000E+00  1.60000000E+01
  1.00800000E+00  1.00800000E+00  1.60000000E+01  1.00800000E+00  1.00800000E+00
  1.60000000E+01  1.00800000E+00  1.00800000E+00  1.60000000E+01  1.00800000E+00
  1.00800000E+00  1.60000000E+01  1.00800000E+00  1.00800000E+00  1.60000000E+01
  1.00800000E+00  1.00800000E+00  1.60000000E+01  1.00800000E+00  1.00800000E+00
  1.60000000E+01  1.00800000E+00  1.00800000E+00  1.60000000E+01  1.00800000E+00
  1.00800000E+00  1.60000000E+01  1.00800000E+00  1.00800000E+00  1.60000000E+01
  1.00800000E+00  1.00800000E+00  1.60000000E+01  1.00800000E+00  1.00800000E+00
  1.60000000E+01  1.00800000E+00  1.00800000E+00  1.60000000E+01  1.00800000E+00
  1.00800000E+00  1.60000000E+01  1.00800000E+00  1.00800000E+00  1.60000000E+01
  1.00800000E+00  1.00800000E+00  1.60000000E+01  1.00800000E+00  1.00800000E+00
  1.60000000E+01  1.00800000E+00  1.00800000E+00  1.60000000E+01  1.00800000E+00
  1.00800000E+00  1.60000000E+01  1.00800000E+00  1.00800000E+00  1.60000000E+01
  1.00800000E+00  1.00800000E+00  1.60000000E+01  1.00800000E+00  1.00800000E+00
  1.60000000E+01  1.00800000E+00  1.00800000E+00  1.60000000E+01  1.00800000E+00
  1.00800000E+00  1.60000000E+01  1.00800000E+00  1.00800000E+00  1.60000000E+01
  1.00800000E+00  1.00800000E+00  1.60000000E+01  1.00800000E+00  1.00800000E+00
  1.60000000E+01  1.00800000E+00  1.00800000E+00  1.60000000E+01  1.00800000E+00
  1.00800000E+00  1.60000000E+01  1.00800000E+00  1.00800000E+00  1.60000000E+01
  1.00800000E+00  1.00800000E+00  1.60000000E+01  1.00800000E+00  1.00800000E+00
  1.60000000E+01  1.00800000E+00  1.00800000E+00  1.60000000E+01  1.00800000E+00
  1.00800000E+00  1.60000000E+01  1.00800000E+00  1.00800000E+00  1.60000000E+01
  1.00800000E+00  1.00800000E+00  1.60000000E+01  1.00800000E+00  1.00800000E+00
  1.60000000E+01  1.00800000E+00  1.00800000E+00  1.60000000E+01  1.00800000E+00
  1.00800000E+00  1.60000000E+01  1.00800000E+00  1.00800000E+00  1.60000000E+01
  1.00800000E+00  1.00800000E+00  1.60000000E+01  1.00800000E+00  1.00800000E+00
  1.60000000E+01  1.00800000E+00  1.00800000E+00  1.60000000E+01  1.00800000E+00
  1.00800000E+00  1.60000000E+01  1.00800000E+00  1.00800000E+00  1.60000000E+01
  1.00800000E+00  1.00800000E+00  1.60000000E+01  1.00800000E+00  1.00800000E+00
  1.60000000E+01  1.00800000E+00  1.00800000E+00  1.60000000E+01  1.00800000E+00
  1.00800000E+00  1.60000000E+01  1.00800000E+00  1.00800000E+00  1.60000000E+01
  1.00800000E+00  1.00800000E+00  1.60000000E+01  1.00800000E+00  1.00800000E+00
  1.60000000E+01  1.00800000E+00  1.00800000E+00  1.60000000E+01  1.00800000E+00
  1.00800000E+00  1.60000000E+01  1.00800000E+00  1.00800000E+00  1.60000000E+01
  1.00800000E+00  1.00800000E+00  1.60000000E+01  1.00800000E+00  1.00800000E+00
  1.60000000E+01  1.00800000E+00  1.00800000E+00  1.60000000E+01  1.00800000E+00
  1.00800000E+00  1.60000000E+01  1.00800000E+00  1.00800000E+00  1.60000000E+01
  1.00800000E+00  1.00800000E+00  1.60000000E+01  1.00800000E+00  1.00800000E+00
  1.60000000E+01  1.00800000E+00  1.00800000E+00  1.60000000E+01  1.00800000E+00
  1.00800000E+00  1.60000000E+01  1.00800000E+00  1.00800000E+00  1.60000000E+01
  1.00800000E+00  1.00800000E+00  1.60000000E+01  1.00800000E+00  1.00800000E+00
  1.60000000E+01  1.00800000E+00  1.00800000E+00  1.60000000E+01  1.00800000E+00
  1.00800000E+00  1.60000000E+01  1.00800000E+00  1.00800000E+00  1.60000000E+01
  1.00800000E+00  1.00800000E+00  1.60000000E+01  1.00800000E+00  1.00800000E+00
  1.60000000E+01  1.00800000E+00  1.00800000E+00  1.60000000E+01  1.00800000E+00
  1.00800000E+00  1.60000000E+01  1.00800000E+00  1.00800000E+00  1.60000000E+01
  1.00800000E+00  1.00800000E+00  1.60000000E+01  1.00800000E+00  1.00800000E+00
  1.60000000E+01  1.00800000E+00  1.00800000E+00  1.60000000E+01  1.00800000E+00
  1.00800000E+00  1.60000000E+01  1.00800000E+00  1.00800000E+00  1.60000000E+01
  1.00800000E+00  1.00800000E+00  1.60000000E+01  1.00800000E+00  1.00800000E+00
  1.60000000E+01  1.00800000E+00  1.00800000E+00  1.60000000E+01  1.00800000E+00
  1.00800000E+00  1.60000000E+01  1.00800000E+00  1.00800000E+00  1.60000000E+01
  1.00800000E+00  1.00800000E+00  1.60000000E+01  1.00800000E+00  1.00800000E+00
  1.60000000E+01  1.00800000E+00  1.00800000E+00  1.60000000E+01  1.00800000E+00
  1.00800000E+00  1.60000000E+01  1.00800000E+00  1.00800000E+00  1.60000000E+01
  1.00800000E+00  1.00800000E+00  1.60000000E+01  1.00800000E+00  1.00800000E+00
  1.60000000E+01  1.00800000E+00  1.00800000E+00  1.60000000E+01  1.00800000E+00
  1.00800000E+00  1.60000000E+01  1.00800000E+00  1.00800000E+00  1.60000000E+01
  1.00800000E+00  1.00800000E+00  1.60000000E+01  1.00800000E+00  1.00800000E+00
  1.60000000E+01  1.00800000E+00  1.00800000E+00  1.60000000E+01  1.00800000E+00
  1.00800000E+00  1.60000000E+01  1.00800000E+00  1.00800000E+00  1.60000000E+01
  1.00800000E+00  1.00800000E+00  1.60000000E+01  1.00800000E+00  1.00800000E+00
  1.60000000E+01  1.00800000E+00  1.00800000E+00  1.60000000E+01  1.00800000E+00
  1.00800000E+00  1.60000000E+01  1.00800000E+00  1.00800000E+00  1.60000000E+01
  1.00800000E+00  1.00800000E+00  1.60000000E+01  1.00800000E+00  1.00800000E+00
  1.60000000E+01  1.00800000E+00  1.00800000E+00  1.60000000E+01  1.00800000E+00
  1.00800000E+00  1.60000000E+01  1.00800000E+00  1.00800000E+00  1.60000000E+01
  1.00800000E+00  1.00800000E+00  1.60000000E+01  1.00800000E+00  1.00800000E+00
  1.60000000E+01  1.00800000E+00  1.00800000E+00  1.60000000E+01  1.00800000E+00
  1.00800000E+00  1.60000000E+01  1.00800000E+00  1.00800000E+00  1.60000000E+01
  1.00800000E+00  1.00800000E+00  1.60000000E+01  1.00800000E+00  1.00800000E+00
  1.60000000E+01  1.00800000E+00  1.00800000E+00  1.60000000E+01  1.00800000E+00
  1.00800000E+00  1.60000000E+01  1.00800000E+00  1.00800000E+00  1.60000000E+01
  1.00800000E+00  1.00800000E+00  1.60000000E+01  1.00800000E+00  1.00800000E+00
  1.60000000E+01  1.00800000E+00  1.00800000E+00  1.60000000E+01  1.00800000E+00
  1.00800000E+00  1.60000000E+01  1.00800000E+00  1.00800000E+00  1.60000000E+01
  1.00800000E+00  1.00800000E+00  1.60000000E+01  1.00800000E+00  1.00800000E+00
  1.60000000E+01  1.00800000E+00  1.00800000E+00  1.60000000E+01  1.00800000E+00
  1.00800000E+00  1.60000000E+01  1.00800000E+00  1.00800000E+00  1.60000000E+01
  1.00800000E+00  1.00800000E+00  1.60000000E+01  1.00800000E+00  1.00800000E+00
  1.60000000E+01  1.00800000E+00  1.00800000E+00  1.60000000E+01  1.00800000E+00
  1.00800000E+00  1.60000000E+01  1.00800000E+00  1.00800000E+00  1.60000000E+01
  1.00800000E+00  1.00800000E+00  1.60000000E+01  1.00800000E+00  1.00800000E+00
  1.60000000E+01  1.00800000E+00  1.00800000E+00  1.60000000E+01  1.00800000E+00
  1.00800000E+00  1.60000000E+01  1.00800000E+00  1.00800000E+00  1.60000000E+01
  1.00800000E+00  1.00800000E+00  1.60000000E+01  1.00800000E+00  1.00800000E+00
  1.60000000E+01  1.00800000E+00  1.00800000E+00  1.60000000E+01  1.00800000E+00
  1.00800000E+00  1.60000000E+01  1.00800000E+00  1.00800000E+00  1.60000000E+01
  1.00800000E+00  1.00800000E+00  1.60000000E+01  1.00800000E+00  1.00800000E+00
  1.60000000E+01  1.00800000E+00  1.00800000E+00  1.60000000E+01  1.00800000E+00
  1.00800000E+00  1.60000000E+01  1.00800000E+00  1.00800000E+00  1.60000000E+01
  1.00800000E+00  1.00800000E+00  1.60000000E+01  1.00800000E+00  1.00800000E+00
  1.60000000E+01  1.00800000E+00  1.00800000E+00  1.60000000E+01  1.00800000E+00
  1.00800000E+00  1.60000000E+01  1.00800000E+00  1.00800000E+00  1.60000000E+01
  1.00800000E+00  1.00800000E+00  1.60000000E+01  1.00800000E+00  1.00800000E+00
  1.60000000E+01  1.00800000E+00  1.00800000E+00  1.60000000E+01  1.00800000E+00
  1.00800000E+00  1.60000000E+01  1.00800000E+00  1.00800000E+00  1.60000000E+01
  1.00800000E+00  1.00800000E+00  1.60000000E+01  1.00800000E+00  1.00800000E+00
  1.60000000E+01  1.00800000E+00  1.00800000E+00  1.60000000E+01  1.00800000E+00
  1.00800000E+00  1.60000000E+01  1.00800000E+00  1.00800000E+00  1.60000000E+01
  1.00800000E+00  1.00800000E+00  1.60000000E+01  1.00800000E+00  1.00800000E+00
  1.60000000E+01  1.00800000E+00  1.00800000E+00  1.60000000E+01  1.00800000E+00
  1.00800000E+00  1.60000000E+01  1.00800000E+00  1.00800000E+00  1.60000000E+01
  1.00800000E+00  1.00800000E+00  1.60000000E+01  1.00800000E+00  1.00800000E+00
  1.60000000E+01  1.00800000E+00  1.00800000E+00  1.60000000E+01  1.00800000E+00
  1.00800000E+00  1.60000000E+01  1.00800000E+00  1.00800000E+00  1.60000000E+01
  1.00800000E+00  1.00800000E+00  1.60000000E+01  1.00800000E+00  1.00800000E+00
  1.60000000E+01  1.00800000E+00  1.00800000E+00  1.60000000E+01  1.00800000E+00
  1.00800000E+00  1.60000000E+01  1.00800000E+00  1.00800000E+00  1.60000000E+01
  1.00800000E+00  1.00800000E+00  1.60000000E+01  1.00800000E+00  1.00800000E+00
  1.60000000E+01  1.00800000E+00  1.00800000E+00  1.60000000E+01  1.00800000E+00
  1.00800000E+00  1.60000000E+01  1.00800000E+00  1.00800000E+00  1.60000000E+01
  1.00800000E+00  1.00800000E+00  1.60000000E+01  1.00800000E+00  1.00800000E+00
  1.60000000E+01  1.00800000E+00  1.00800000E+00  1.60000000E+01  1.00800000E+00
  1.00800000E+00  1.60000000E+01  1.00800000E+00  1.00800000E+00  1.60000000E+01
  1.00800000E+00  1.00800000E+00  1.60000000E+01  1.00800000E+00  1.00800000E+00
  1.60000000E+01  1.00800000E+00  1.00800000E+00  1.60000000E+01  1.00800000E+00
  1.00800000E+00  1.60000000E+01  1.00800000E+00  1.00800000E+00  1.60000000E+01
  1.00800000E+00  1.00800000E+00  1.60000000E+01  1.00800000E+00  1.00800000E+00
  1.60000000E+01  1.00800000E+00  1.00800000E+00  1.60000000E+01  1.00800000E+00
  1.00800000E+00  1.60000000E+01  1.00800000E+00  1.00800000E+00  1.60000000E+01
  1.00800000E+00  1.00800000E+00  1.60000000E+01  1.00800000E+00  1.00800000E+00
  1.60000000E+01  1.00800000E+00  1.00800000E+00  1.60000000E+01  1.00800000E+00
  1.00800000E+00  1.60000000E+01  1.00800000E+00  1.00800000E+00  1.60000000E+01
  1.00800000E+00  1.00800000E+00  1.60000000E+01  1.00800000E+00  1.00800000E+00
  1.60000000E+01  1.00800000E+00  1.00800000E+00  1.60000000E+01  1.00800000E+00
  1.00800000E+00  1.60000000E+01  1.00800000E+00  1.00800000E+00  1.60000000E+01
  1.00800000E+00  1.00800000E+00  1.60000000E+01  1.00800000E+00  1.00800000E+00
  1.60000000E+01  1.00800000E+00  1.00800000E+00  1.60000000E+01  1.00800000E+00
  1.00800000E+00  1.60000000E+01  1.00800000E+00  1.00800000E+00  1.60000000E+01
  1.00800000E+00  1.00800000E+00  1.60000000E+01  1.00800000E+00  1.00800000E+00
  1.60000000E+01  1.00800000E+00  1.00800000E+00  1.60000000E+01  1.00800000E+00
  1.00800000E+00  1.60000000E+01  1.00800000E+00  1.00800000E+00  1.60000000E+01
  1.00800000E+00  1.00800000E+00  1.60000000E+01  1.00800000E+00  1.00800000E+00
  1.60000000E+01  1.00800000E+00  1.00800000E+00  1.60000000E+01  1.00800000E+00
  1.00800000E+00  1.60000000E+01  1.00800000E+00  1.00800000E+00  1.60000000E+01
  1.00800000E+00  1.00800000E+00  1.60000000E+01  1.00800000E+00  1.00800000E+00
  1.60000000E+01  1.00800000E+00  1.00800000E+00  1.60000000E+01  1.00800000E+00
  1.00800000E+00  1.60000000E+01  1.00800000E+00  1.00800000E+00  1.60000000E+01
  1.00800000E+00  1.00800000E+00  1.60000000E+01  1.00800000E+00  1.00800000E+00
  1.60000000E+01  1.00800000E+00  1.00800000E+00  1.60000000E+01  1.00800000E+00
  1.00800000E+00  1.60000000E+01  1.00800000E+00  1.00800000E+00  1.60000000E+01
  1.00800000E+00  1.00800000E+00  1.60000000E+01  1.00800000E+00  1.00800000E+00
  1.60000000E+01  1.00800000E+00  1.00800000E+00  1.60000000E+01  1.00800000E+00
  1.00800000E+00  1.60000000E+01  1.00800000E+00  1.00800000E+00  1.60000000E+01
  1.00800000E+00  1.00800000E+00  1.60000000E+01  1.00800000E+00  1.00800000E+00
  1.60000000E+01  1.00800000E+00  1.00800000E+00  1.60000000E+01  1.00800000E+00
  1.00800000E+00  1.60000000E+01  1.00800000E+00  1.00800000E+00  1.60000000E+01
  1.00800000E+00  1.00800000E+00  1.60000000E+01  1.00800000E+00  1.00800000E+00
  1.60000000E+01  1.00800000E+00  1.00800000E+00  1.60000000E+01  1.00800000E+00
  1.00800000E+00  1.60000000E+01  1.00800000E+00  1.00800000E+00  1.60000000E+01
  1.00800000E+00  1.00800000E+00  1.60000000E+01  1.00800000E+00  1.00800000E+00
  1.60000000E+01  1.00800000E+00  1.00800000E+00  1.60000000E+01  1.00800000E+00
  1.00800000E+00  1.60000000E+01  1.00800000E+00  1.00800000E+00  1.60000000E+01
  1.00800000E+00  1.00800000E+00  1.60000000E+01  1.00800000E+00  1.00800000E+00
  1.60000000E+01  1.00800000E+00  1.00800000E+00  1.60000000E+01  1.00800000E+00
  1.00800000E+00  1.60000000E+01  1.00800000E+00  1.00800000E+00  1.60000000E+01
  1.00800000E+00  1.00800000E+00  1.60000000E+01  1.00800000E+00  1.00800000E+00
  1.60000000E+01  1.00800000E+00  1.00800000E+00  1.60000000E+01  1.00800000E+00
  1.00800000E+00  1.60000000E+01  1.00800000E+00  1.00800000E+00  1.60000000E+01
  1.00800000E+00  1.00800000E+00  1.60000000E+01  1.00800000E+00  1.00800000E+00
  1.60000000E+01  1.00800000E+00  1.00800000E+00  1.60000000E+01  1.00800000E+00
  1.00800000E+00  1.60000000E+01  1.00800000E+00  1.00800000E+00  1.60000000E+01
  1.00800000E+00  1.00800000E+00  1.60000000E+01  1.00800000E+00  1.00800000E+00
  1.60000000E+01  1.00800000E+00  1.00800000E+00  1.60000000E+01  1.00800000E+00
  1.00800000E+00  1.60000000E+01  1.00800000E+00  1.00800000E+00  1.60000000E+01
  1.00800000E+00  1.00800000E+00  1.60000000E+01  1.00800000E+00  1.00800000E+00
  1.60000000E+01  1.00800000E+00  1.00800000E+00  1.60000000E+01  1.00800000E+00
  1.00800000E+00  1.60000000E+01  1.00800000E+00  1.00800000E+00  1.60000000E+01
  1.00800000E+00  1.00800000E+00  1.60000000E+01  1.00800000E+00  1.00800000E+00
  1.60000000E+01  1.00800000E+00  1.00800000E+00  1.60000000E+01  1.00800000E+00
  1.00800000E+00  1.60000000E+01  1.00800000E+00  1.00800000E+00  1.60000000E+01
  1.00800000E+00  1.00800000E+00  1.60000000E+01  1.00800000E+00  1.00800000E+00
  1.60000000E+01  1.00800000E+00  1.00800000E+00  1.60000000E+01  1.00800000E+00
  1.00800000E+00  1.60000000E+01  1.00800000E+00  1.00800000E+00  1.60000000E+01
  1.00800000E+00  1.00800000E+00  1.60000000E+01  1.00800000E+00  1.00800000E+00
  1.60000000E+01  1.00800000E+00  1.00800000E+00  1.60000000E+01  1.00800000E+00
  1.00800000E+00  1.60000000E+01  1.00800000E+00  1.00800000E+00  1.60000000E+01
  1.00800000E+00  1.00800000E+00  1.60000000E+01  1.00800000E+00  1.00800000E+00
  1.60000000E+01  1.00800000E+00  1.00800000E+00  1.60000000E+01  1.00800000E+00
  1.00800000E+00  1.60000000E+01  1.00800000E+00  1.00800000E+00  1.60000000E+01
  1.00800000E+00  1.00800000E+00  1.60000000E+01  1.00800000E+00  1.00800000E+00
  1.60000000E+01  1.00800000E+00  1.00800000E+00  1.60000000E+01  1.00800000E+00
  1.00800000E+00  1.60000000E+01  1.00800000E+00  1.00800000E+00  1.60000000E+01
  1.00800000E+00  1.00800000E+00  1.60000000E+01  1.00800000E+00  1.00800000E+00
  1.60000000E+01  1.00800000E+00  1.00800000E+00  1.60000000E+01  1.00800000E+00
  1.00800000E+00  1.60000000E+01  1.00800000E+00  1.00800000E+00  1.60000000E+01
  1.00800000E+00  1.00800000E+00  1.60000000E+01  1.00800000E+00  1.00800000E+00
  1.60000000E+01  1.00800000E+00  1.00800000E+00  1.60000000E+01  1.00800000E+00
  1.00800000E+00  1.60000000E+01  1.00800000E+00  1.00800000E+00  1.60000000E+01
  1.00800000E+00  1.00800000E+00  1.60000000E+01  1.00800000E+00  1.00800000E+00
  1.60000000E+01  1.00800000E+00  1.00800000E+00  1.60000000E+01  1.00800000E+00
  1.00800000E+00  1.60000000E+01  1.00800000E+00  1.00800000E+00  1.60000000E+01
  1.00800000E+00  1.00800000E+00  1.60000000E+01  1.00800000E+00  1.00800000E+00
  1.60000000E+01  1.00800000E+00  1.00800000E+00  1.60000000E+01  1.00800000E+00
  1.00800000E+00  1.60000000E+01  1.00800000E+00  1.00800000E+00  1.60000000E+01
  1.00800000E+00  1.00800000E+00  1.60000000E+01  1.00800000E+00  1.00800000E+00
  1.60000000E+01  1.00800000E+00  1.00800000E+00  1.60000000E+01  1.00800000E+00
  1.00800000E+00  1.60000000E+01  1.00800000E+00  1.00800000E+00  1.60000000E+01
  1.00800000E+00  1.00800000E+00  1.60000000E+01  1.00800000E+00  1.00800000E+00
  1.60000000E+01  1.00800000E+00  1.00800000E+00  1.60000000E+01  1.00800000E+00
  1.00800000E+00  1.60000000E+01  1.00800000E+00  1.00800000E+00  1.60000000E+01
  1.00800000E+00  1.00800000E+00  1.60000000E+01  1.00800000E+00  1.00800000E+00
  1.60000000E+01  1.00800000E+00  1.00800000E+00  1.60000000E+01  1.00800000E+00
  1.00800000E+00  1.60000000E+01  1.00800000E+00  1.00800000E+00  1.60000000E+01
  1.00800000E+00  1.00800000E+00  1.60000000E+01  1.00800000E+00  1.00800000E+00
  1.60000000E+01  1.00800000E+00  1.00800000E+00  1.60000000E+01  1.00800000E+00
  1.00800000E+00  1.60000000E+01  1.00800000E+00  1.00800000E+00  1.60000000E+01
  1.00800000E+00  1.00800000E+00  1.60000000E+01  1.00800000E+00  1.00800000E+00
  1.60000000E+01  1.00800000E+00  1.00800000E+00  1.60000000E+01  1.00800000E+00
  1.00800000E+00  1.60000000E+01  1.00800000E+00  1.00800000E+00  1.60000000E+01
  1.00800000E+00  1.00800000E+00  1.60000000E+01  1.00800000E+00  1.00800000E+00
  1.60000000E+01  1.00800000E+00  1.00800000E+00  1.60000000E+01  1.00800000E+00
  1.00800000E+00  1.60000000E+01  1.00800000E+00  1.00800000E+00  1.60000000E+01
  1.00800000E+00  1.00800000E+00  1.60000000E+01  1.00800000E+00  1.00800000E+00
  1.60000000E+01  1.00800000E+00  1.00800000E+00  1.60000000E+01  1.00800000E+00
  1.00800000E+00  1.60000000E+01  1.00800000E+00  1.00800000E+00  1.60000000E+01
  1.00800000E+00  1.00800000E+00  1.60000000E+01  1.00800000E+00  1.00800000E+00
  1.60000000E+01  1.00800000E+00  1.00800000E+00  1.60000000E+01  1.00800000E+00
  1.00800000E+00  1.60000000E+01  1.00800000E+00  1.00800000E+00  1.60000000E+01
  1.00800000E+00  1.00800000E+00  1.60000000E+01  1.00800000E+00  1.00800000E+00
  1.60000000E+01  1.00800000E+00  1.00800000E+00  1.60000000E+01  1.00800000E+00
  1.00800000E+00  1.60000000E+01  1.00800000E+00  1.00800000E+00  1.60000000E+01
  1.00800000E+00  1.00800000E+00  1.60000000E+01  1.00800000E+00  1.00800000E+00
  1.60000000E+01  1.00800000E+00  1.00800000E+00  1.60000000E+01  1.00800000E+00
  1.00800000E+00  1.60000000E+01  1.00800000E+00  1.00800000E+00  1.60000000E+01
  1.00800000E+00  1.00800000E+00  1.60000000E+01  1.00800000E+00  1.00800000E+00
  1.60000000E+01  1.00800000E+00  1.00800000E+00  1.60000000E+01  1.00800000E+00
  1.00800000E+00  1.60000000E+01  1.00800000E+00  1.00800000E+00  1.60000000E+01
  1.00800000E+00  1.00800000E+00  1.60000000E+01  1.00800000E+00  1.00800000E+00
  1.60000000E+01  1.00800000E+00  1.00800000E+00  1.60000000E+01  1.00800000E+00
  1.00800000E+00  1.60000000E+01  1.00800000E+00  1.00800000E+00  1.60000000E+01
  1.00800000E+00  1.00800000E+00  1.60000000E+01  1.00800000E+00  1.00800000E+00
  1.60000000E+01  1.00800000E+00  1.00800000E+00  1.60000000E+01  1.00800000E+00
  1.00800000E+00  1.60000000E+01  1.00800000E+00  1.00800000E+00  1.60000000E+01
  1.00800000E+00  1.00800000E+00  1.60000000E+01  1.00800000E+00  1.00800000E+00
  1.60000000E+01  1.00800000E+00  1.00800000E+00  1.60000000E+01  1.00800000E+00
  1.00800000E+00  1.60000000E+01  1.00800000E+00  1.00800000E+00  1.60000000E+01
  1.00800000E+00  1.00800000E+00  1.60000000E+01  1.00800000E+00  1.00800000E+00
  1.60000000E+01  1.00800000E+00  1.00800000E+00  1.60000000E+01  1.00800000E+00
  1.00800000E+00  1.60000000E+01  1.00800000E+00  1.00800000E+00  1.60000000E+01
  1.00800000E+00  1.00800000E+00  1.60000000E+01  1.00800000E+00  1.00800000E+00
  1.60000000E+01  1.00800000E+00  1.00800000E+00  1.60000000E+01  1.00800000E+00
  1.00800000E+00  1.60000000E+01  1.00800000E+00  1.00800000E+00  1.60000000E+01
  1.00800000E+00  1.00800000E+00  1.60000000E+01  1.00800000E+00  1.00800000E+00
  1.60000000E+01  1.00800000E+00  1.00800000E+00  1.60000000E+01  1.00800000E+00
  1.00800000E+00  1.60000000E+01  1.00800000E+00  1.00800000E+00  1.60000000E+01
  1.00800000E+00  1.00800000E+00  1.60000000E+01  1.00800000E+00  1.00800000E+00
  1.60000000E+01  1.00800000E+00  1.00800000E+00  1.60000000E+01  1.00800000E+00
  1.00800000E+00  1.60000000E+01  1.00800000E+00  1.00800000E+00  1.60000000E+01
  1.00800000E+00  1.00800000E+00  1.60000000E+01  1.00800000E+00  1.00800000E+00
  1.60000000E+01  1.00800000E+00  1.00800000E+00  1.60000000E+01  1.00800000E+00
  1.00800000E+00  1.60000000E+01  1.00800000E+00  1.00800000E+00  1.60000000E+01
  1.00800000E+00  1.00800000E+00  1.60000000E+01  1.00800000E+00  1.00800000E+00
  1.60000000E+01  1.00800000E+00  1.00800000E+00  1.60000000E+01  1.00800000E+00
  1.00800000E+00  1.60000000E+01  1.00800000E+00  1.00800000E+00  1.60000000E+01
  1.00800000E+00  1.00800000E+00  1.60000000E+01  1.00800000E+00  1.00800000E+00
  1.60000000E+01  1.00800000E+00  1.00800000E+00  1.60000000E+01  1.00800000E+00
  1.00800000E+00  1.60000000E+01  1.00800000E+00  1.00800000E+00  1.60000000E+01
  1.00800000E+00  1.00800000E+00  1.60000000E+01  1.00800000E+00  1.00800000E+00
  1.60000000E+01  1.00800000E+00  1.00800000E+00  1.60000000E+01  1.00800000E+00
  1.00800000E+00  1.60000000E+01  1.00800000E+00  1.00800000E+00  1.60000000E+01
  1.00800000E+00  1.00800000E+00  1.60000000E+01  1.00800000E+00  1.00800000E+00
  1.60000000E+01  1.00800000E+00  1.00800000E+00  1.60000000E+01  1.00800000E+00
  1.00800000E+00  1.60000000E+01  1.00800000E+00  1.00800000E+00  1.60000000E+01
  1.00800000E+00  1.00800000E+00  1.60000000E+01  1.00800000E+00  1.00800000E+00
  1.60000000E+01  1.00800000E+00  1.00800000E+00  1.60000000E+01  1.00800000E+00
  1.00800000E+00  1.60000000E+01  1.00800000E+00  1.00800000E+00  1.60000000E+01
  1.00800000E+00  1.00800000E+00  1.60000000E+01  1.00800000E+00  1.00800000E+00
  1.60000000E+01  1.00800000E+00  1.00800000E+00  1.60000000E+01  1.00800000E+00
  1.00800000E+00  1.60000000E+01  1.00800000E+00  1.00800000E+00  1.60000000E+01
  1.00800000E+00  1.00800000E+00  1.60000000E+01  1.00800000E+00  1.00800000E+00
  1.60000000E+01  1.00800000E+00  1.00800000E+00  1.60000000E+01  1.00800000E+00
  1.00800000E+00  1.60000000E+01  1.00800000E+00  1.00800000E+00  1.60000000E+01
  1.00800000E+00  1.00800000E+00  1.60000000E+01  1.00800000E+00  1.00800000E+00
  1.60000000E+01  1.00800000E+00  1.00800000E+00  1.60000000E+01  1.00800000E+00
  1.00800000E+00  1.60000000E+01  1.00800000E+00  1.00800000E+00  1.60000000E+01
  1.00800000E+00  1.00800000E+00  1.60000000E+01  1.00800000E+00  1.00800000E+00
  1.60000000E+01  1.00800000E+00  1.00800000E+00  1.60000000E+01  1.00800000E+00
  1.00800000E+00  1.60000000E+01  1.00800000E+00  1.00800000E+00  1.60000000E+01
  1.00800000E+00  1.00800000E+00  1.60000000E+01  1.00800000E+00  1.00800000E+00
  1.60000000E+01  1.00800000E+00  1.00800000E+00  1.60000000E+01  1.00800000E+00
  1.00800000E+00  1.60000000E+01  1.00800000E+00  1.00800000E+00  1.60000000E+01
  1.00800000E+00  1.00800000E+00  1.60000000E+01  1.00800000E+00  1.00800000E+00
  1.60000000E+01  1.00800000E+00  1.00800000E+00  1.60000000E+01  1.00800000E+00
  1.00800000E+00  1.60000000E+01  1.00800000E+00  1.00800000E+00  1.60000000E+01
  1.00800000E+00  1.00800000E+00  1.60000000E+01  1.00800000E+00  1.00800000E+00
  1.60000000E+01  1.00800000E+00  1.00800000E+00  1.60000000E+01  1.00800000E+00
  1.00800000E+00  1.60000000E+01  1.00800000E+00  1.00800000E+00  1.60000000E+01
  1.00800000E+00  1.00800000E+00  1.60000000E+01  1.00800000E+00  1.00800000E+00
  1.60000000E+01  1.00800000E+00  1.00800000E+00  1.60000000E+01  1.00800000E+00
  1.00800000E+00  1.60000000E+01  1.00800000E+00  1.00800000E+00  1.60000000E+01
  1.00800000E+00  1.00800000E+00  1.60000000E+01  1.00800000E+00  1.00800000E+00
  1.60000000E+01  1.00800000E+00  1.00800000E+00  1.60000000E+01  1.00800000E+00
  1.00800000E+00  1.60000000E+01  1.00800000E+00  1.00800000E+00  1.60000000E+01
  1.00800000E+00  1.00800000E+00  1.60000000E+01  1.00800000E+00  1.00800000E+00
  1.60000000E+01  1.00800000E+00  1.00800000E+00  1.60000000E+01  1.00800000E+00
  1.00800000E+00  1.60000000E+01  1.00800000E+00  1.00800000E+00  1.60000000E+01
  1.00800000E+00  1.00800000E+00  1.60000000E+01  1.00800000E+00  1.00800000E+00
  1.60000000E+01  1.00800000E+00  1.00800000E+00  1.60000000E+01  1.00800000E+00
  1.00800000E+00  1.60000000E+01  1.00800000E+00  1.00800000E+00  1.60000000E+01
  1.00800000E+00  1.00800000E+00  1.60000000E+01  1.00800000E+00  1.00800000E+00
  1.60000000E+01  1.00800000E+00  1.00800000E+00  1.60000000E+01  1.00800000E+00
  1.00800000E+00  1.60000000E+01  1.00800000E+00  1.00800000E+00  1.60000000E+01
  1.00800000E+00  1.00800000E+00  1.60000000E+01  1.00800000E+00  1.00800000E+00
  1.60000000E+01  1.00800000E+00  1.00800000E+00  1.60000000E+01  1.00800000E+00
  1.00800000E+00  1.60000000E+01  1.00800000E+00  1.00800000E+00  1.60000000E+01
  1.00800000E+00  1.00800000E+00  1.60000000E+01  1.00800000E+00  1.00800000E+00
  1.60000000E+01  1.00800000E+00  1.00800000E+00  1.60000000E+01  1.00800000E+00
  1.00800000E+00  1.60000000E+01  1.00800000E+00  1.00800000E+00  1.60000000E+01
  1.00800000E+00  1.00800000E+00  1.60000000E+01  1.00800000E+00  1.00800000E+00
  1.60000000E+01  1.00800000E+00  1.00800000E+00  1.60000000E+01  1.00800000E+00
  1.00800000E+00  1.60000000E+01  1.00800000E+00  1.00800000E+00  1.60000000E+01
  1.00800000E+00  1.00800000E+00  1.60000000E+01  1.00800000E+00  1.00800000E+00
  1.60000000E+01  1.00800000E+00  1.00800000E+00  1.60000000E+01  1.00800000E+00
  1.00800000E+00  1.60000000E+01  1.00800000E+00  1.00800000E+00  1.60000000E+01
  1.00800000E+00  1.00800000E+00  1.60000000E+01  1.00800000E+00  1.00800000E+00
  1.60000000E+01  1.00800000E+00  1.00800000E+00  1.60000000E+01  1.00800000E+00
  1.00800000E+00  1.60000000E+01  1.00800000E+00  1.00800000E+00  1.60000000E+01
  1.00800000E+00  1.00800000E+00  1.60000000E+01  1.00800000E+00  1.00800000E+00
  1.60000000E+01  1.00800000E+00  1.00800000E+00  1.60000000E+01  1.00800000E+00
  1.00800000E+00  1.60000000E+01  1.00800000E+00  1.00800000E+00  1.60000000E+01
  1.00800000E+00  1.00800000E+00  1.60000000E+01  1.00800000E+00  1.00800000E+00
  1.60000000E+01  1.00800000E+00  1.00800000E+00  1.60000000E+01  1.00800000E+00
  1.00800000E+00  1.60000000E+01  1.00800000E+00  1.00800000E+00  1.60000000E+01
  1.00800000E+00  1.00800000E+00  1.60000000E+01  1.00800000E+00  1.00800000E+00
  1.60000000E+01  1.00800000E+00  1.00800000E+00  1.60000000E+01  1.00800000E+00
  1.00800000E+00  1.60000000E+01  1.00800000E+00  1.00800000E+00  1.60000000E+01
  1.00800000E+00  1.00800000E+00  1.60000000E+01  1.00800000E+00  1.00800000E+00
  1.60000000E+01  1.00800000E+00  1.00800000E+00  1.60000000E+01  1.00800000E+00
  1.00800000E+00  1.60000000E+01  1.00800000E+00  1.00800000E+00  1.60000000E+01
  1.00800000E+00  1.00800000E+00  1.60000000E+01  1.00800000E+00  1.00800000E+00
  1.60000000E+01  1.00800000E+00  1.00800000E+00  1.60000000E+01  1.00800000E+00
  1.00800000E+00  1.60000000E+01  1.00800000E+00  1.00800000E+00  1.60000000E+01
  1.00800000E+00  1.00800000E+00  1.60000000E+01  1.00800000E+00  1.00800000E+00
  1.60000000E+01  1.00800000E+00  1.00800000E+00  1.60000000E+01  1.00800000E+00
  1.00800000E+00  1.60000000E+01  1.00800000E+00  1.00800000E+00  1.60000000E+01
  1.00800000E+00  1.00800000E+00  1.60000000E+01  1.00800000E+00  1.00800000E+00
  1.60000000E+01  1.00800000E+00  1.00800000E+00  1.60000000E+01  1.00800000E+00
  1.00800000E+00  1.60000000E+01  1.00800000E+00  1.00800000E+00  1.60000000E+01
  1.00800000E+00  1.00800000E+00  1.60000000E+01  1.00800000E+00  1.00800000E+00
  1.60000000E+01  1.00800000E+00  1.00800000E+00  1.60000000E+01  1.00800000E+00
  1.00800000E+00  1.60000000E+01  1.00800000E+00  1.00800000E+00  1.60000000E+01
  1.00800000E+00  1.00800000E+00  1.60000000E+01  1.00800000E+00  1.00800000E+00
  1.60000000E+01  1.00800000E+00  1.00800000E+00  1.60000000E+01  1.00800000E+00
  1.00800000E+00  1.60000000E+01  1.00800000E+00  1.00800000E+00  1.60000000E+01
  1.00800000E+00  1.00800000E+00  1.60000000E+01  1.00800000E+00  1.00800000E+00
  1.60000000E+01  1.00800000E+00  1.00800000E+00  1.60000000E+01  1.00800000E+00
  1.00800000E+00  1.60000000E+01  1.00800000E+00  1.00800000E+00  1.60000000E+01
  1.00800000E+00  1.00800000E+00  1.60000000E+01  1.00800000E+00  1.00800000E+00
  1.60000000E+01  1.00800000E+00  1.00800000E+00  1.60000000E+01  1.00800000E+00
  1.00800000E+00  1.60000000E+01  1.00800000E+00  1.00800000E+00  1.60000000E+01
  1.00800000E+00  1.00800000E+00  1.60000000E+01  1.00800000E+00  1.00800000E+00
  1.60000000E+01  1.00800000E+00  1.00800000E+00  1.60000000E+01  1.00800000E+00
  1.00800000E+00  1.60000000E+01  1.00800000E+00  1.00800000E+00  1.60000000E+01
  1.00800000E+00  1.00800000E+00  1.60000000E+01  1.00800000E+00  1.00800000E+00
  1.60000000E+01  1.00800000E+00  1.00800000E+00  1.60000000E+01  1.00800000E+00
  1.00800000E+00  1.60000000E+01  1.00800000E+00  1.00800000E+00  1.60000000E+01
  1.00800000E+00  1.00800000E+00  1.60000000E+01  1.00800000E+00  1.00800000E+00
  1.60000000E+01  1.00800000E+00  1.00800000E+00  1.60000000E+01  1.00800000E+00
  1.00800000E+00  1.60000000E+01  1.00800000E+00  1.00800000E+00  1.60000000E+01
  1.00800000E+00  1.00800000E+00  1.60000000E+01  1.00800000E+00  1.00800000E+00
  1.60000000E+01  1.00800000E+00  1.00800000E+00  1.60000000E+01  1.00800000E+00
  1.00800000E+00  1.60000000E+01  1.00800000E+00  1.00800000E+00  1.60000000E+01
  1.00800000E+00  1.00800000E+00  1.60000000E+01  1.00800000E+00  1.00800000E+00
  1.60000000E+01  1.00800000E+00  1.00800000E+00  1.60000000E+01  1.00800000E+00
  1.00800000E+00  1.60000000E+01  1.00800000E+00  1.00800000E+00  1.60000000E+01
  1.00800000E+00  1.00800000E+00  1.60000000E+01  1.00800000E+00  1.00800000E+00
  1.60000000E+01  1.00800000E+00  1.00800000E+00  1.60000000E+01  1.00800000E+00
  1.00800000E+00  1.60000000E+01  1.00800000E+00  1.00800000E+00  1.60000000E+01
  1.00800000E+00  1.00800000E+00  1.60000000E+01  1.00800000E+00  1.00800000E+00
  1.60000000E+01  1.00800000E+00  1.00800000E+00  1.60000000E+01  1.00800000E+00
  1.00800000E+00  1.60000000E+01  1.00800000E+00  1.00800000E+00  1.60000000E+01
  1.00800000E+00  1.00800000E+00  1.60000000E+01  1.00800000E+00  1.00800000E+00
  1.60000000E+01  1.00800000E+00  1.00800000E+00  1.60000000E+01  1.00800000E+00
  1.00800000E+00  1.60000000E+01  1.00800000E+00  1.00800000E+00  1.60000000E+01
  1.00800000E+00  1.00800000E+00  1.60000000E+01  1.00800000E+00  1.00800000E+00
  1.60000000E+01  1.00800000E+00  1.00800000E+00  1.60000000E+01  1.00800000E+00
  1.00800000E+00  1.60000000E+01  1.00800000E+00  1.00800000E+00  1.60000000E+01
  1.00800000E+00  1.00800000E+00  1.60000000E+01  1.00800000E+00  1.00800000E+00
  1.60000000E+01  1.00800000E+00  1.00800000E+00  1.60000000E+01  1.00800000E+00
  1.00800000E+00  1.60000000E+01  1.00800000E+00  1.00800000E+00  1.60000000E+01
  1.00800000E+00  1.00800000E+00  1.60000000E+01  1.00800000E+00  1.00800000E+00
  1.60000000E+01  1.00800000E+00  1.00800000E+00  1.60000000E+01  1.00800000E+00
  1.00800000E+00  1.60000000E+01  1.00800000E+00  1.00800000E+00  1.60000000E+01
  1.00800000E+00  1.00800000E+00  1.60000000E+01  1.00800000E+00  1.00800000E+00
  1.60000000E+01  1.00800000E+00  1.00800000E+00  1.60000000E+01  1.00800000E+00
  1.00800000E+00  1.60000000E+01  1.00800000E+00  1.00800000E+00  1.60000000E+01
  1.00800000E+00  1.00800000E+00  1.60000000E+01  1.00800000E+00  1.00800000E+00
  1.60000000E+01  1.00800000E+00  1.00800000E+00  1.60000000E+01  1.00800000E+00
  1.00800000E+00  1.60000000E+01  1.00800000E+00  1.00800000E+00  1.60000000E+01
  1.00800000E+00  1.00800000E+00  1.60000000E+01  1.00800000E+00  1.00800000E+00
  1.60000000E+01  1.00800000E+00  1.00800000E+00  1.60000000E+01  1.00800000E+00
  1.00800000E+00  1.60000000E+01  1.00800000E+00  1.00800000E+00  1.60000000E+01
  1.00800000E+00  1.00800000E+00  1.60000000E+01  1.00800000E+00  1.00800000E+00
  1.60000000E+01  1.00800000E+00  1.00800000E+00  1.60000000E+01  1.00800000E+00
  1.00800000E+00  1.60000000E+01  1.00800000E+00  1.00800000E+00  1.60000000E+01
  1.00800000E+00  1.00800000E+00  1.60000000E+01  1.00800000E+00  1.00800000E+00
  1.60000000E+01  1.00800000E+00  1.00800000E+00  1.60000000E+01  1.00800000E+00
  1.00800000E+00  1.60000000E+01  1.00800000E+00  1.00800000E+00  1.60000000E+01
  1.00800000E+00  1.00800000E+00  1.60000000E+01  1.00800000E+00  1.00800000E+00
  1.60000000E+01  1.00800000E+00  1.00800000E+00  1.60000000E+01  1.00800000E+00
  1.00800000E+00  1.60000000E+01  1.00800000E+00  1.00800000E+00  1.60000000E+01
  1.00800000E+00  1.00800000E+00  1.60000000E+01  1.00800000E+00  1.00800000E+00
  1.60000000E+01  1.00800000E+00  1.00800000E+00  1.60000000E+01  1.00800000E+00
  1.00800000E+00  1.60000000E+01  1.00800000E+00  1.00800000E+00  1.60000000E+01
  1.00800000E+00  1.00800000E+00  1.60000000E+01  1.00800000E+00  1.00800000E+00
  1.60000000E+01  1.00800000E+00  1.00800000E+00  1.60000000E+01  1.00800000E+00
  1.00800000E+00  1.60000000E+01  1.00800000E+00  1.00800000E+00  1.60000000E+01
  1.00800000E+00  1.00800000E+00  1.60000000E+01  1.00800000E+00  1.00800000E+00
  1.60000000E+01  1.00800000E+00  1.00800000E+00  1.60000000E+01  1.00800000E+00
  1.00800000E+00  1.60000000E+01  1.00800000E+00  1.00800000E+00  1.60000000E+01
  1.00800000E+00  1.00800000E+00  1.60000000E+01  1.00800000E+00  1.00800000E+00
  1.60000000E+01  1.00800000E+00  1.00800000E+00  1.60000000E+01  1.00800000E+00
  1.00800000E+00  1.60000000E+01  1.00800000E+00  1.00800000E+00  1.60000000E+01
  1.00800000E+00  1.00800000E+00  1.60000000E+01  1.00800000E+00  1.00800000E+00
  1.60000000E+01  1.00800000E+00  1.00800000E+00  1.60000000E+01  1.00800000E+00
  1.00800000E+00  1.60000000E+01  1.00800000E+00  1.00800000E+00  1.60000000E+01
  1.00800000E+00  1.00800000E+00  1.60000000E+01  1.00800000E+00  1.00800000E+00
  1.60000000E+01  1.00800000E+00  1.00800000E+00  1.60000000E+01  1.00800000E+00
  1.00800000E+00  1.60000000E+01  1.00800000E+00  1.00800000E+00  1.60000000E+01
  1.00800000E+00  1.00800000E+00  1.60000000E+01  1.00800000E+00  1.00800000E+00
  1.60000000E+01  1.00800000E+00  1.00800000E+00  1.60000000E+01  1.00800000E+00
  1.00800000E+00  1.60000000E+01  1.00800000E+00  1.00800000E+00  1.60000000E+01
  1.00800000E+00  1.00800000E+00  1.60000000E+01  1.00800000E+00  1.00800000E+00
  1.60000000E+01  1.00800000E+00  1.00800000E+00  1.60000000E+01  1.00800000E+00
  1.00800000E+00  1.60000000E+01  1.00800000E+00  1.00800000E+00  1.60000000E+01
  1.00800000E+00  1.00800000E+00  1.60000000E+01  1.00800000E+00  1.00800000E+00
  1.60000000E+01  1.00800000E+00  1.00800000E+00  1.60000000E+01  1.00800000E+00
  1.00800000E+00  1.60000000E+01  1.00800000E+00  1.00800000E+00  1.60000000E+01
  1.00800000E+00  1.00800000E+00  1.60000000E+01  1.00800000E+00  1.00800000E+00
  1.60000000E+01  1.00800000E+00  1.00800000E+00  1.60000000E+01  1.00800000E+00
  1.00800000E+00  1.60000000E+01  1.00800000E+00  1.00800000E+00  1.60000000E+01
  1.00800000E+00  1.00800000E+00  1.60000000E+01  1.00800000E+00  1.00800000E+00
  1.60000000E+01  1.00800000E+00  1.00800000E+00  1.60000000E+01  1.00800000E+00
  1.00800000E+00  1.60000000E+01  1.00800000E+00  1.00800000E+00  1.60000000E+01
  1.00800000E+00  1.00800000E+00  1.60000000E+01  1.00800000E+00  1.00800000E+00
  1.60000000E+01  1.00800000E+00  1.00800000E+00  1.60000000E+01  1.00800000E+00
  1.00800000E+00  1.60000000E+01  1.00800000E+00  1.00800000E+00  1.60000000E+01
  1.00800000E+00  1.00800000E+00  1.60000000E+01  1.00800000E+00  1.00800000E+00
  1.60000000E+01  1.00800000E+00  1.00800000E+00  1.60000000E+01  1.00800000E+00
  1.00800000E+00  1.60000000E+01  1.00800000E+00  1.00800000E+00  1.60000000E+01
  1.00800000E+00  1.00800000E+00  1.60000000E+01  1.00800000E+00  1.00800000E+00
  1.60000000E+01  1.00800000E+00  1.00800000E+00  1.60000000E+01  1.00800000E+00
  1.00800000E+00  1.60000000E+01  1.00800000E+00  1.00800000E+00  1.60000000E+01
  1.00800000E+00  1.00800000E+00  1.60000000E+01  1.00800000E+00  1.00800000E+00
  1.60000000E+01  1.00800000E+00  1.00800000E+00  1.60000000E+01  1.00800000E+00
  1.00800000E+00  1.60000000E+01  1.00800000E+00  1.00800000E+00  1.60000000E+01
  1.00800000E+00  1.00800000E+00  1.60000000E+01  1.00800000E+00  1.00800000E+00
  1.60000000E+01  1.00800000E+00  1.00800000E+00  1.60000000E+01  1.00800000E+00
  1.00800000E+00  1.60000000E+01  1.00800000E+00  1.00800000E+00  1.60000000E+01
  1.00800000E+00  1.00800000E+00  1.60000000E+01  1.00800000E+00  1.00800000E+00
  1.60000000E+01  1.00800000E+00  1.00800000E+00  1.60000000E+01  1.00800000E+00
  1.00800000E+00  1.60000000E+01  1.00800000E+00  1.00800000E+00  1.60000000E+01
  1.00800000E+00  1.00800000E+00  1.60000000E+01  1.00800000E+00  1.00800000E+00
  1.60000000E+01  1.00800000E+00  1.00800000E+00  1.60000000E+01  1.00800000E+00
  1.00800000E+00  1.60000000E+01  1.00800000E+00  1.00800000E+00  1.60000000E+01
  1.00800000E+00  1.00800000E+00  1.60000000E+01  1.00800000E+00  1.00800000E+00
  1.60000000E+01  1.00800000E+00  1.00800000E+00  1.60000000E+01  1.00800000E+00
  1.00800000E+00  1.60000000E+01  1.00800000E+00  1.00800000E+00  1.60000000E+01
  1.00800000E+00  1.00800000E+00  1.60000000E+01  1.00800000E+00  1.00800000E+00
  1.60000000E+01  1.00800000E+00  1.00800000E+00  1.60000000E+01  1.00800000E+00
  1.00800000E+00  1.60000000E+01  1.00800000E+00  1.00800000E+00  1.60000000E+01
  1.00800000E+00  1.00800000E+00  1.60000000E+01  1.00800000E+00  1.00800000E+00
  1.60000000E+01  1.00800000E+00  1.00800000E+00  1.60000000E+01  1.00800000E+00
  1.00800000E+00  1.60000000E+01  1.00800000E+00  1.00800000E+00  1.60000000E+01
  1.00800000E+00  1.00800000E+00  1.60000000E+01  1.00800000E+00  1.00800000E+00
  1.60000000E+01  1.00800000E+00  1.00800000E+00  1.60000000E+01  1.00800000E+00
  1.00800000E+00  1.60000000E+01  1.00800000E+00  1.00800000E+00  1.60000000E+01
  1.00800000E+00  1.00800000E+00  1.60000000E+01  1.00800000E+00  1.00800000E+00
  1.60000000E+01  1.00800000E+00  1.00800000E+00  1.60000000E+01  1.00800000E+00
  1.00800000E+00  1.60000000E+01  1.00800000E+00  1.00800000E+00  1.60000000E+01
  1.00800000E+00  1.00800000E+00  1.60000000E+01  1.00800000E+00  1.00800000E+00
  1.60000000E+01  1.00800000E+00  1.00800000E+00  1.60000000E+01  1.00800000E+00
  1.00800000E+00  1.60000000E+01  1.00800000E+00  1.00800000E+00  1.60000000E+01
  1.00800000E+00  1.00800000E+00  1.60000000E+01  1.00800000E+00  1.00800000E+00
  1.60000000E+01  1.00800000E+00  1.00800000E+00  1.60000000E+01  1.00800000E+00
  1.00800000E+00  1.60000000E+01  1.00800000E+00  1.00800000E+00  1.60000000E+01
  1.00800000E+00  1.00800000E+00  1.60000000E+01  1.00800000E+00  1.00800000E+00
  1.60000000E+01  1.00800000E+00  1.00800000E+00  1.60000000E+01  1.00800000E+00
  1.00800000E+00  1.60000000E+01  1.00800000E+00  1.00800000E+00  1.60000000E+01
  1.00800000E+00  1.00800000E+00  1.60000000E+01  1.00800000E+00  1.00800000E+00
  1.60000000E+01  1.00800000E+00  1.00800000E+00  1.60000000E+01  1.00800000E+00
  1.00800000E+00  1.60000000E+01  1.00800000E+00  1.00800000E+00  1.60000000E+01
  1.00800000E+00  1.00800000E+00  1.60000000E+01  1.00800000E+00  1.00800000E+00
  1.60000000E+01  1.00800000E+00  1.00800000E+00  1.60000000E+01  1.00800000E+00
  1.00800000E+00  1.60000000E+01  1.00800000E+00  1.00800000E+00  1.60000000E+01
  1.00800000E+00  1.00800000E+00  1.60000000E+01  1.00800000E+00  1.00800000E+00
  1.60000000E+01  1.00800000E+00  1.00800000E+00  1.60000000E+01  1.00800000E+00
  1.00800000E+00  1.60000000E+01  1.00800000E+00  1.00800000E+00  1.60000000E+01
  1.00800000E+00  1.00800000E+00  1.60000000E+01  1.00800000E+00  1.00800000E+00
  1.60000000E+01  1.00800000E+00  1.00800000E+00  1.60000000E+01  1.00800000E+00
  1.00800000E+00  1.60000000E+01  1.00800000E+00  1.00800000E+00  1.60000000E+01
  1.00800000E+00  1.00800000E+00  1.60000000E+01  1.00800000E+00  1.00800000E+00
  1.60000000E+01  1.00800000E+00  1.00800000E+00  1.60000000E+01  1.00800000E+00
  1.00800000E+00  1.60000000E+01  1.00800000E+00  1.00800000E+00  1.60000000E+01
  1.00800000E+00  1.00800000E+00  1.60000000E+01  1.00800000E+00  1.00800000E+00
  1.60000000E+01  1.00800000E+00  1.00800000E+00  1.60000000E+01  1.00800000E+00
  1.00800000E+00  1.60000000E+01  1.00800000E+00  1.00800000E+00  1.60000000E+01
  1.00800000E+00  1.00800000E+00  1.60000000E+01  1.00800000E+00  1.00800000E+00
  1.60000000E+01  1.00800000E+00  1.00800000E+00  1.60000000E+01  1.00800000E+00
  1.00800000E+00  1.60000000E+01  1.00800000E+00  1.00800000E+00  1.60000000E+01
  1.00800000E+00  1.00800000E+00  1.60000000E+01  1.00800000E+00  1.00800000E+00
  1.60000000E+01  1.00800000E+00  1.00800000E+00  1.60000000E+01  1.00800000E+00
  1.00800000E+00  1.60000000E+01  1.00800000E+00  1.00800000E+00  1.60000000E+01
  1.00800000E+00  1.00800000E+00  1.60000000E+01  1.00800000E+00  1.00800000E+00
  1.60000000E+01  1.00800000E+00  1.00800000E+00  1.60000000E+01  1.00800000E+00
  1.00800000E+00  1.60000000E+01  1.00800000E+00  1.00800000E+00  1.60000000E+01
  1.00800000E+00  1.00800000E+00  1.60000000E+01  1.00800000E+00  1.00800000E+00
  1.60000000E+01  1.00800000E+00  1.00800000E+00  1.60000000E+01  1.00800000E+00
  1.00800000E+00  1.60000000E+01  1.00800000E+00  1.00800000E+00  1.60000000E+01
  1.00800000E+00  1.00800000E+00  1.60000000E+01  1.00800000E+00  1.00800000E+00
  1.60000000E+01  1.00800000E+00  1.00800000E+00  1.60000000E+01  1.00800000E+00
  1.00800000E+00  1.60000000E+01  1.00800000E+00  1.00800000E+00  1.60000000E+01
  1.00800000E+00  1.00800000E+00  1.60000000E+01  1.00800000E+00  1.00800000E+00
  1.60000000E+01  1.00800000E+00  1.00800000E+00  1.60000000E+01  1.00800000E+00
  1.00800000E+00  1.60000000E+01  1.00800000E+00  1.00800000E+00  1.60000000E+01
  1.00800000E+00  1.00800000E+00  1.60000000E+01  1.00800000E+00  1.00800000E+00
  1.60000000E+01  1.00800000E+00  1.00800000E+00  1.60000000E+01  1.00800000E+00
  1.00800000E+00  1.60000000E+01  1.00800000E+00  1.00800000E+00  1.60000000E+01
  1.00800000E+00  1.00800000E+00  1.60000000E+01  1.00800000E+00  1.00800000E+00
  1.60000000E+01  1.00800000E+00  1.00800000E+00  1.60000000E+01  1.00800000E+00
  1.00800000E+00  1.60000000E+01  1.00800000E+00  1.00800000E+00  1.60000000E+01
  1.00800000E+00  1.00800000E+00  1.60000000E+01  1.00800000E+00  1.00800000E+00
  1.60000000E+01  1.00800000E+00  1.00800000E+00  1.60000000E+01  1.00800000E+00
  1.00800000E+00  1.60000000E+01  1.00800000E+00  1.00800000E+00  1.60000000E+01
  1.00800000E+00  1.00800000E+00  1.60000000E+01  1.00800000E+00  1.00800000E+00
  1.60000000E+01  1.00800000E+00  1.00800000E+00  1.60000000E+01  1.00800000E+00
  1.00800000E+00  1.60000000E+01  1.00800000E+00  1.00800000E+00  1.60000000E+01
  1.00800000E+00  1.00800000E+00  1.60000000E+01  1.00800000E+00  1.00800000E+00
  1.60000000E+01  1.00800000E+00  1.00800000E+00  1.60000000E+01  1.00800000E+00
  1.00800000E+00  1.60000000E+01  1.00800000E+00  1.00800000E+00  1.60000000E+01
  1.00800000E+00  1.00800000E+00  1.60000000E+01  1.00800000E+00  1.00800000E+00
  1.60000000E+01  1.00800000E+00  1.00800000E+00  1.60000000E+01  1.00800000E+00
  1.00800000E+00  1.60000000E+01  1.00800000E+00  1.00800000E+00  1.60000000E+01
  1.00800000E+00  1.00800000E+00  1.60000000E+01  1.00800000E+00  1.00800000E+00
  1.60000000E+01  1.00800000E+00  1.00800000E+00  1.60000000E+01  1.00800000E+00
  1.00800000E+00  1.60000000E+01  1.00800000E+00  1.00800000E+00  1.60000000E+01
  1.00800000E+00  1.00800000E+00  1.60000000E+01  1.00800000E+00  1.00800000E+00
  1.60000000E+01  1.00800000E+00  1.00800000E+00  1.60000000E+01  1.00800000E+00
  1.00800000E+00  1.60000000E+01  1.00800000E+00  1.00800000E+00  1.60000000E+01
  1.00800000E+00  1.00800000E+00  1.60000000E+01  1.00800000E+00  1.00800000E+00
  1.60000000E+01  1.00800000E+00  1.00800000E+00  1.60000000E+01  1.00800000E+00
  1.00800000E+00  1.60000000E+01  1.00800000E+00  1.00800000E+00  1.60000000E+01
  1.00800000E+00  1.00800000E+00  1.60000000E+01  1.00800000E+00  1.00800000E+00
  1.60000000E+01  1.00800000E+00  1.00800000E+00  1.60000000E+01  1.00800000E+00
  1.00800000E+00  1.60000000E+01  1.00800000E+00  1.00800000E+00  1.60000000E+01
  1.00800000E+00  1.00800000E+00  1.60000000E+01  1.00800000E+00  1.00800000E+00
  1.60000000E+01  1.00800000E+00  1.00800000E+00  1.60000000E+01  1.00800000E+00
  1.00800000E+00  1.60000000E+01  1.00800000E+00  1.00800000E+00  1.60000000E+01
  1.00800000E+00  1.00800000E+00  1.60000000E+01  1.00800000E+00  1.00800000E+00
  1.60000000E+01  1.00800000E+00  1.00800000E+00  1.60000000E+01  1.00800000E+00
  1.00800000E+00  1.60000000E+01  1.00800000E+00  1.00800000E+00  1.60000000E+01
  1.00800000E+00  1.00800000E+00  1.60000000E+01  1.00800000E+00  1.00800000E+00
  1.60000000E+01  1.00800000E+00  1.00800000E+00  1.60000000E+01  1.00800000E+00
  1.00800000E+00  1.60000000E+01  1.00800000E+00  1.00800000E+00  1.60000000E+01
  1.00800000E+00  1.00800000E+00  1.60000000E+01  1.00800000E+00  1.00800000E+00
  1.60000000E+01  1.00800000E+00  1.00800000E+00  1.60000000E+01  1.00800000E+00
  1.00800000E+00  1.60000000E+01  1.00800000E+00  1.00800000E+00  1.60000000E+01
  1.00800000E+00  1.00800000E+00  1.60000000E+01  1.00800000E+00  1.00800000E+00
  1.60000000E+01  1.00800000E+00  1.00800000E+00  1.60000000E+01  1.00800000E+00
  1.00800000E+00  1.60000000E+01  1.00800000E+00  1.00800000E+00  1.60000000E+01
  1.00800000E+00  1.00800000E+00  1.60000000E+01  1.00800000E+00  1.00800000E+00
  1.60000000E+01  1.00800000E+00  1.00800000E+00  1.60000000E+01  1.00800000E+00
  1.00800000E+00  1.60000000E+01  1.00800000E+00  1.00800000E+00  1.60000000E+01
  1.00800000E+00  1.00800000E+00  1.60000000E+01  1.00800000E+00  1.00800000E+00
  1.60000000E+01  1.00800000E+00  1.00800000E+00  1.60000000E+01  1.00800000E+00
  1.00800000E+00  1.60000000E+01  1.00800000E+00  1.00800000E+00  1.60000000E+01
  1.00800000E+00  1.00800000E+00  1.60000000E+01  1.00800000E+00  1.00800000E+00
  1.60000000E+01  1.00800000E+00  1.00800000E+00  1.60000000E+01  1.00800000E+00
  1.00800000E+00  1.60000000E+01  1.00800000E+00  1.00800000E+00  1.60000000E+01
  1.00800000E+00  1.00800000E+00  1.60000000E+01  1.00800000E+00  1.00800000E+00
  1.60000000E+01  1.00800000E+00  1.00800000E+00  1.60000000E+01  1.00800000E+00
  1.00800000E+00  1.60000000E+01  1.00800000E+00  1.00800000E+00  1.60000000E+01
  1.00800000E+00  1.00800000E+00  1.60000000E+01  1.00800000E+00  1.00800000E+00
  1.60000000E+01  1.00800000E+00  1.00800000E+00  1.60000000E+01  1.00800000E+00
  1.00800000E+00  1.60000000E+01  1.00800000E+00  1.00800000E+00  1.60000000E+01
  1.00800000E+00  1.00800000E+00  1.60000000E+01  1.00800000E+00  1.00800000E+00
  1.60000000E+01  1.00800000E+00  1.00800000E+00  1.60000000E+01  1.00800000E+00
  1.00800000E+00  1.60000000E+01  1.00800000E+00  1.00800000E+00  1.60000000E+01
  1.00800000E+00  1.00800000E+00  1.60000000E+01  1.00800000E+00  1.00800000E+00
  1.60000000E+01  1.00800000E+00  1.00800000E+00  1.60000000E+01  1.00800000E+00
  1.00800000E+00  1.60000000E+01  1.00800000E+00  1.00800000E+00  1.60000000E+01
  1.00800000E+00  1.00800000E+00  1.60000000E+01  1.00800000E+00  1.00800000E+00
  1.60000000E+01  1.00800000E+00  1.00800000E+00  1.60000000E+01  1.00800000E+00
  1.00800000E+00  1.60000000E+01  1.00800000E+00  1.00800000E+00  1.60000000E+01
  1.00800000E+00  1.00800000E+00  1.60000000E+01  1.00800000E+00  1.00800000E+00
  1.60000000E+01  1.00800000E+00  1.00800000E+00  1.60000000E+01  1.00800000E+00
  1.00800000E+00  1.60000000E+01  1.00800000E+00  1.00800000E+00  1.60000000E+01
  1.00800000E+00  1.00800000E+00  1.60000000E+01  1.00800000E+00  1.00800000E+00
  1.60000000E+01  1.00800000E+00  1.00800000E+00  1.60000000E+01  1.00800000E+00
  1.00800000E+00  1.60000000E+01  1.00800000E+00  1.00800000E+00  1.60000000E+01
  1.00800000E+00  1.00800000E+00  1.60000000E+01  1.00800000E+00  1.00800000E+00
  1.60000000E+01  1.00800000E+00  1.00800000E+00  1.60000000E+01  1.00800000E+00
  1.00800000E+00  1.60000000E+01  1.00800000E+00  1.00800000E+00  1.60000000E+01
  1.00800000E+00  1.00800000E+00  1.60000000E+01  1.00800000E+00  1.00800000E+00
  1.60000000E+01  1.00800000E+00  1.00800000E+00  1.60000000E+01  1.00800000E+00
  1.00800000E+00  1.60000000E+01  1.00800000E+00  1.00800000E+00  1.60000000E+01
  1.00800000E+00  1.00800000E+00  1.60000000E+01  1.00800000E+00  1.00800000E+00
  1.60000000E+01  1.00800000E+00  1.00800000E+00  1.60000000E+01  1.00800000E+00
  1.00800000E+00  1.60000000E+01  1.00800000E+00  1.00800000E+00  1.60000000E+01
  1.00800000E+00  1.00800000E+00  1.60000000E+01  1.00800000E+00  1.00800000E+00
  1.60000000E+01  1.00800000E+00  1.00800000E+00  1.60000000E+01  1.00800000E+00
  1.00800000E+00  1.60000000E+01  1.00800000E+00  1.00800000E+00  1.60000000E+01
  1.00800000E+00  1.00800000E+00  1.60000000E+01  1.00800000E+00  1.00800000E+00
  1.60000000E+01  1.00800000E+00  1.00800000E+00  1.60000000E+01  1.00800000E+00
  1.00800000E+00  1.60000000E+01  1.00800000E+00  1.00800000E+00  1.60000000E+01
  1.00800000E+00  1.00800000E+00  1.60000000E+01  1.00800000E+00  1.00800000E+00
  1.60000000E+01  1.00800000E+00  1.00800000E+00  1.60000000E+01  1.00800000E+00
  1.00800000E+00  1.60000000E+01  1.00800000E+00  1.00800000E+00  1.60000000E+01
  1.00800000E+00  1.00800000E+00  1.60000000E+01  1.00800000E+00  1.00800000E+00
  1.60000000E+01  1.00800000E+00  1.00800000E+00  1.60000000E+01  1.00800000E+00
  1.00800000E+00  1.60000000E+01  1.00800000E+00  1.00800000E+00  1.60000000E+01
  1.00800000E+00  1.00800000E+00  1.60000000E+01  1.00800000E+00  1.00800000E+00
  1.60000000E+01  1.00800000E+00  1.00800000E+00  1.60000000E+01  1.00800000E+00
  1.00800000E+00  1.60000000E+01  1.00800000E+00  1.00800000E+00  1.60000000E+01
  1.00800000E+00  1.00800000E+00  1.60000000E+01  1.00800000E+00  1.00800000E+00
  1.60000000E+01  1.00800000E+00  1.00800000E+00  1.60000000E+01  1.00800000E+00
  1.00800000E+00  1.60000000E+01  1.00800000E+00  1.00800000E+00  1.60000000E+01
  1.00800000E+00  1.00800000E+00  1.60000000E+01  1.00800000E+00  1.00800000E+00
  1.60000000E+01  1.00800000E+00  1.00800000E+00  1.60000000E+01  1.00800000E+00
  1.00800000E+00  1.60000000E+01  1.00800000E+00  1.00800000E+00  1.60000000E+01
  1.00800000E+00  1.00800000E+00  1.60000000E+01  1.00800000E+00  1.00800000E+00
  1.60000000E+01  1.00800000E+00  1.00800000E+00  1.60000000E+01  1.00800000E+00
  1.00800000E+00  1.60000000E+01  1.00800000E+00  1.00800000E+00  1.60000000E+01
  1.00800000E+00  1.00800000E+00  1.60000000E+01  1.00800000E+00  1.00800000E+00
  1.60000000E+01  1.00800000E+00  1.00800000E+00  1.60000000E+01  1.00800000E+00
  1.00800000E+00  1.60000000E+01  1.00800000E+00  1.00800000E+00  1.60000000E+01
  1.00800000E+00  1.00800000E+00  1.60000000E+01  1.00800000E+00  1.00800000E+00
  1.60000000E+01  1.00800000E+00  1.00800000E+00  1.60000000E+01  1.00800000E+00
  1.00800000E+00  1.60000000E+01  1.00800000E+00  1.00800000E+00  1.60000000E+01
  1.00800000E+00  1.00800000E+00  1.60000000E+01  1.00800000E+00  1.00800000E+00
  1.60000000E+01  1.00800000E+00  1.00800000E+00  1.60000000E+01  1.00800000E+00
  1.00800000E+00  1.60000000E+01  1.00800000E+00  1.00800000E+00  1.60000000E+01
  1.00800000E+00  1.00800000E+00  1.60000000E+01  1.00800000E+00  1.00800000E+00
  1.60000000E+01  1.00800000E+00  1.00800000E+00  1.60000000E+01  1.00800000E+00
  1.00800000E+00  1.60000000E+01  1.00800000E+00  1.00800000E+00  1.60000000E+01
  1.00800000E+00  1.00800000E+00  1.60000000E+01  1.00800000E+00  1.00800000E+00
  1.60000000E+01  1.00800000E+00  1.00800000E+00  1.60000000E+01  1.00800000E+00
  1.00800000E+00  1.60000000E+01  1.00800000E+00  1.00800000E+00  1.60000000E+01
  1.00800000E+00  1.00800000E+00  1.60000000E+01  1.00800000E+00  1.00800000E+00
  1.60000000E+01  1.00800000E+00  1.00800000E+00  1.60000000E+01  1.00800000E+00
  1.00800000E+00  1.60000000E+01  1.00800000E+00  1.00800000E+00  1.60000000E+01
  1.00800000E+00  1.00800000E+00  1.60000000E+01  1.00800000E+00  1.00800000E+00
  1.60000000E+01  1.00800000E+00  1.00800000E+00  1.60000000E+01  1.00800000E+00
  1.00800000E+00  1.60000000E+01  1.00800000E+00  1.00800000E+00  1.60000000E+01
  1.00800000E+00  1.00800000E+00  1.60000000E+01  1.00800000E+00  1.00800000E+00
  1.60000000E+01  1.00800000E+00  1.00800000E+00  1.60000000E+01  1.00800000E+00
  1.00800000E+00  1.60000000E+01  1.00800000E+00  1.00800000E+00  1.60000000E+01
  1.00800000E+00  1.00800000E+00  1.60000000E+01  1.00800000E+00  1.00800000E+00
  1.60000000E+01  1.00800000E+00  1.00800000E+00  1.60000000E+01  1.00800000E+00
  1.00800000E+00  1.60000000E+01  1.00800000E+00  1.00800000E+00  1.60000000E+01
  1.00800000E+00  1.00800000E+00  1.60000000E+01  1.00800000E+00  1.00800000E+00
  1.60000000E+01  1.00800000E+00  1.00800000E+00  1.60000000E+01  1.00800000E+00
  1.00800000E+00  1.60000000E+01  1.00800000E+00  1.00800000E+00  1.60000000E+01
  1.00800000E+00  1.00800000E+00  1.60000000E+01  1.00800000E+00  1.00800000E+00
  1.60000000E+01  1.00800000E+00  1.00800000E+00  1.60000000E+01  1.00800000E+00
  1.00800000E+00  1.60000000E+01  1.00800000E+00  1.00800000E+00  1.60000000E+01
  1.00800000E+00  1.00800000E+00  1.60000000E+01  1.00800000E+00  1.00800000E+00
  1.60000000E+01  1.00800000E+00  1.00800000E+00  1.60000000E+01  1.00800000E+00
  1.00800000E+00  1.60000000E+01  1.00800000E+00  1.00800000E+00  1.60000000E+01
  1.00800000E+00  1.00800000E+00  1.60000000E+01  1.00800000E+00  1.00800000E+00
  1.60000000E+01  1.00800000E+00  1.00800000E+00  1.60000000E+01  1.00800000E+00
  1.00800000E+00  1.60000000E+01  1.00800000E+00  1.00800000E+00  1.60000000E+01
  1.00800000E+00  1.00800000E+00  1.60000000E+01  1.00800000E+00  1.00800000E+00
  1.60000000E+01  1.00800000E+00  1.00800000E+00  1.60000000E+01  1.00800000E+00
  1.00800000E+00  1.60000000E+01  1.00800000E+00  1.00800000E+00  1.60000000E+01
  1.00800000E+00  1.00800000E+00  1.60000000E+01  1.00800000E+00  1.00800000E+00
  1.60000000E+01  1.00800000E+00  1.00800000E+00  1.60000000E+01  1.00800000E+00
  1.00800000E+00  1.60000000E+01  1.00800000E+00  1.00800000E+00  1.60000000E+01
  1.00800000E+00  1.00800000E+00  1.60000000E+01  1.00800000E+00  1.00800000E+00
  1.60000000E+01  1.00800000E+00  1.00800000E+00  1.60000000E+01  1.00800000E+00
  1.00800000E+00  1.60000000E+01  1.00800000E+00  1.00800000E+00  1.60000000E+01
  1.00800000E+00  1.00800000E+00  1.60000000E+01  1.00800000E+00  1.00800000E+00
  1.60000000E+01  1.00800000E+00  1.00800000E+00  1.60000000E+01  1.00800000E+00
  1.00800000E+00  1.60000000E+01  1.00800000E+00  1.00800000E+00  1.60000000E+01
  1.00800000E+00  1.00800000E+00  1.60000000E+01  1.00800000E+00  1.00800000E+00
  1.60000000E+01  1.00800000E+00  1.00800000E+00  1.60000000E+01  1.00800000E+00
  1.00800000E+00  1.60000000E+01  1.00800000E+00  1.00800000E+00  1.60000000E+01
  1.00800000E+00  1.00800000E+00  1.60000000E+01  1.00800000E+00  1.00800000E+00
  1.60000000E+01  1.00800000E+00  1.00800000E+00  1.60000000E+01  1.00800000E+00
  1.00800000E+00  1.60000000E+01  1.00800000E+00  1.00800000E+00  1.60000000E+01
  1.00800000E+00  1.00800000E+00  1.60000000E+01  1.00800000E+00  1.00800000E+00
  1.60000000E+01  1.00800000E+00  1.00800000E+00  1.60000000E+01  1.00800000E+00
  1.00800000E+00  1.60000000E+01  1.00800000E+00  1.00800000E+00  1.60000000E+01
  1.00800000E+00  1.00800000E+00  1.60000000E+01  1.00800000E+00  1.00800000E+00
  1.60000000E+01  1.00800000E+00  1.00800000E+00  1.60000000E+01  1.00800000E+00
  1.00800000E+00  1.60000000E+01  1.00800000E+00  1.00800000E+00  1.60000000E+01
  1.00800000E+00  1.00800000E+00  1.60000000E+01  1.00800000E+00  1.00800000E+00
  1.60000000E+01  1.00800000E+00  1.00800000E+00  1.60000000E+01  1.00800000E+00
  1.00800000E+00  1.60000000E+01  1.00800000E+00  1.00800000E+00  1.60000000E+01
  1.00800000E+00  1.00800000E+00  1.60000000E+01  1.00800000E+00  1.00800000E+00
  1.60000000E+01  1.00800000E+00  1.00800000E+00  1.60000000E+01  1.00800000E+00
  1.00800000E+00  1.60000000E+01  1.00800000E+00  1.00800000E+00  1.60000000E+01
  1.00800000E+00  1.00800000E+00  1.60000000E+01  1.00800000E+00  1.00800000E+00
  1.60000000E+01  1.00800000E+00  1.00800000E+00  1.60000000E+01  1.00800000E+00
  1.00800000E+00  1.60000000E+01  1.00800000E+00  1.00800000E+00  1.60000000E+01
  1.00800000E+00  1.00800000E+00  1.60000000E+01  1.00800000E+00  1.00800000E+00
  1.60000000E+01  1.00800000E+00  1.00800000E+00  1.60000000E+01  1.00800000E+00
  1.00800000E+00  1.60000000E+01  1.00800000E+00  1.00800000E+00  1.60000000E+01
  1.00800000E+00  1.00800000E+00  1.60000000E+01  1.00800000E+00  1.00800000E+00
  1.60000000E+01  1.00800000E+00  1.00800000E+00  1.60000000E+01  1.00800000E+00
  1.00800000E+00  1.60000000E+01  1.00800000E+00  1.00800000E+00  1.60000000E+01
  1.00800000E+00  1.00800000E+00  1.60000000E+01  1.00800000E+00  1.00800000E+00
  1.60000000E+01  1.00800000E+00  1.00800000E+00  1.60000000E+01  1.00800000E+00
  1.00800000E+00  1.60000000E+01  1.00800000E+00  1.00800000E+00  1.60000000E+01
  1.00800000E+00  1.00800000E+00  1.60000000E+01  1.00800000E+00  1.00800000E+00
  1.60000000E+01  1.00800000E+00  1.00800000E+00  1.60000000E+01  1.00800000E+00
  1.00800000E+00  1.60000000E+01  1.00800000E+00  1.00800000E+00  1.60000000E+01
  1.00800000E+00  1.00800000E+00  1.60000000E+01  1.00800000E+00  1.00800000E+00
  1.60000000E+01  1.00800000E+00  1.00800000E+00  1.60000000E+01  1.00800000E+00
  1.00800000E+00  1.60000000E+01  1.00800000E+00  1.00800000E+00  1.60000000E+01
  1.00800000E+00  1.00800000E+00  1.60000000E+01  1.00800000E+00  1.00800000E+00
  1.60000000E+01  1.00800000E+00  1.00800000E+00  1.60000000E+01  1.00800000E+00
  1.00800000E+00  1.60000000E+01  1.00800000E+00  1.00800000E+00  1.60000000E+01
  1.00800000E+00  1.00800000E+00  1.60000000E+01  1.00800000E+00  1.00800000E+00
  1.60000000E+01  1.00800000E+00  1.00800000E+00  1.60000000E+01  1.00800000E+00
  1.00800000E+00  1.60000000E+01  1.00800000E+00  1.00800000E+00  1.60000000E+01
  1.00800000E+00  1.00800000E+00  1.60000000E+01  1.00800000E+00  1.00800000E+00
  1.60000000E+01  1.00800000E+00  1.00800000E+00  1.60000000E+01  1.00800000E+00
  1.00800000E+00  1.60000000E+01  1.00800000E+00  1.00800000E+00  1.60000000E+01
  1.00800000E+00  1.00800000E+00  1.60000000E+01  1.00800000E+00  1.00800000E+00
  1.60000000E+01  1.00800000E+00  1.00800000E+00  1.60000000E+01  1.00800000E+00
  1.00800000E+00  1.60000000E+01  1.00800000E+00  1.00800000E+00  1.60000000E+01
  1.00800000E+00  1.00800000E+00  1.60000000E+01  1.00800000E+00  1.00800000E+00
  1.60000000E+01  1.00800000E+00  1.00800000E+00  1.60000000E+01  1.00800000E+00
  1.00800000E+00  1.60000000E+01  1.00800000E+00  1.00800000E+00  1.60000000E+01
  1.00800000E+00  1.00800000E+00  1.60000000E+01  1.00800000E+00  1.00800000E+00
  1.60000000E+01  1.00800000E+00  1.00800000E+00  1.60000000E+01  1.00800000E+00
  1.00800000E+00  1.60000000E+01  1.00800000E+00  1.00800000E+00  1.60000000E+01
  1.00800000E+00  1.00800000E+00  1.60000000E+01  1.00800000E+00  1.00800000E+00
  1.60000000E+01  1.00800000E+00  1.00800000E+00  1.60000000E+01  1.00800000E+00
  1.00800000E+00  1.60000000E+01  1.00800000E+00  1.00800000E+00  1.60000000E+01
  1.00800000E+00  1.00800000E+00  1.60000000E+01  1.00800000E+00  1.00800000E+00
  1.60000000E+01  1.00800000E+00  1.00800000E+00  1.60000000E+01  1.00800000E+00
  1.00800000E+00  1.60000000E+01  1.00800000E+00  1.00800000E+00  1.60000000E+01
  1.00800000E+00  1.00800000E+00  1.60000000E+01  1.00800000E+00  1.00800000E+00
  1.60000000E+01  1.00800000E+00  1.00800000E+00  1.60000000E+01  1.00800000E+00
  1.00800000E+00  1.60000000E+01  1.00800000E+00  1.00800000E+00  1.60000000E+01
  1.00800000E+00  1.00800000E+00  1.60000000E+01  1.00800000E+00  1.00800000E+00
  1.60000000E+01  1.00800000E+00  1.00800000E+00  1.60000000E+01  1.00800000E+00
  1.00800000E+00  1.60000000E+01  1.00800000E+00  1.00800000E+00  1.60000000E+01
  1.00800000E+00  1.00800000E+00  1.60000000E+01  1.00800000E+00  1.00800000E+00
  1.60000000E+01  1.00800000E+00  1.00800000E+00  1.60000000E+01  1.00800000E+00
  1.00800000E+00  1.60000000E+01  1.00800000E+00  1.00800000E+00  1.60000000E+01
  1.00800000E+00  1.00800000E+00  1.60000000E+01  1.00800000E+00  1.00800000E+00
  1.60000000E+01  1.00800000E+00  1.00800000E+00  1.60000000E+01  1.00800000E+00
  1.00800000E+00  1.60000000E+01  1.00800000E+00  1.00800000E+00  1.60000000E+01
  1.00800000E+00  1.00800000E+00  1.60000000E+01  1.00800000E+00  1.00800000E+00
  1.60000000E+01  1.00800000E+00  1.00800000E+00  1.60000000E+01  1.00800000E+00
  1.00800000E+00  1.60000000E+01  1.00800000E+00  1.00800000E+00  1.60000000E+01
  1.00800000E+00  1.00800000E+00  1.60000000E+01  1.00800000E+00  1.00800000E+00
  1.60000000E+01  1.00800000E+00  1.00800000E+00  1.60000000E+01  1.00800000E+00
  1.00800000E+00  1.60000000E+01  1.00800000E+00  1.00800000E+00  1.60000000E+01
  1.00800000E+00  1.00800000E+00  1.60000000E+01  1.00800000E+00  1.00800000E+00
  1.60000000E+01  1.00800000E+00  1.00800000E+00  1.60000000E+01  1.00800000E+00
  1.00800000E+00  1.60000000E+01  1.00800000E+00  1.00800000E+00  1.60000000E+01
  1.00800000E+00  1.00800000E+00  1.60000000E+01  1.00800000E+00  1.00800000E+00
  1.60000000E+01  1.00800000E+00  1.00800000E+00  1.60000000E+01  1.00800000E+00
  1.00800000E+00  1.60000000E+01  1.00800000E+00  1.00800000E+00  1.60000000E+01
  1.00800000E+00  1.00800000E+00  1.60000000E+01  1.00800000E+00  1.00800000E+00
  1.60000000E+01  1.00800000E+00  1.00800000E+00  1.60000000E+01  1.00800000E+00
  1.00800000E+00  1.60000000E+01  1.00800000E+00  1.00800000E+00  1.60000000E+01
  1.00800000E+00  1.00800000E+00  1.60000000E+01  1.00800000E+00  1.00800000E+00
  1.60000000E+01  1.00800000E+00  1.00800000E+00  1.60000000E+01  1.00800000E+00
  1.00800000E+00  1.60000000E+01  1.00800000E+00  1.00800000E+00  1.60000000E+01
  1.00800000E+00  1.00800000E+00  1.60000000E+01  1.00800000E+00  1.00800000E+00
  1.60000000E+01  1.00800000E+00  1.00800000E+00  1.60000000E+01  1.00800000E+00
  1.00800000E+00  1.60000000E+01  1.00800000E+00  1.00800000E+00  1.60000000E+01
  1.00800000E+00  1.00800000E+00  1.60000000E+01  1.00800000E+00  1.00800000E+00
  1.60000000E+01  1.00800000E+00  1.00800000E+00  1.60000000E+01  1.00800000E+00
  1.00800000E+00  1.60000000E+01  1.00800000E+00  1.00800000E+00  1.60000000E+01
  1.00800000E+00  1.00800000E+00  1.60000000E+01  1.00800000E+00  1.00800000E+00
  1.60000000E+01  1.00800000E+00  1.00800000E+00  1.60000000E+01  1.00800000E+00
  1.00800000E+00  1.60000000E+01  1.00800000E+00  1.00800000E+00  1.60000000E+01
  1.00800000E+00  1.00800000E+00  1.60000000E+01  1.00800000E+00  1.00800000E+00
  1.60000000E+01  1.00800000E+00  1.00800000E+00  1.60000000E+01  1.00800000E+00
  1.00800000E+00  1.60000000E+01  1.00800000E+00  1.00800000E+00  1.60000000E+01
  1.00800000E+00  1.00800000E+00  1.60000000E+01  1.00800000E+00  1.00800000E+00
  1.60000000E+01  1.00800000E+00  1.00800000E+00  1.60000000E+01  1.00800000E+00
  1.00800000E+00  1.60000000E+01  1.00800000E+00  1.00800000E+00  1.60000000E+01
  1.00800000E+00  1.00800000E+00  1.60000000E+01  1.00800000E+00  1.00800000E+00
  1.60000000E+01  1.00800000E+00  1.00800000E+00  1.60000000E+01  1.00800000E+00
  1.00800000E+00  1.60000000E+01  1.00800000E+00  1.00800000E+00  1.60000000E+01
  1.00800000E+00  1.00800000E+00  1.60000000E+01  1.00800000E+00  1.00800000E+00
  1.60000000E+01  1.00800000E+00  1.00800000E+00  1.60000000E+01  1.00800000E+00
  1.00800000E+00  1.60000000E+01  1.00800000E+00  1.00800000E+00  1.60000000E+01
  1.00800000E+00  1.00800000E+00  1.60000000E+01  1.00800000E+00  1.00800000E+00
  1.60000000E+01  1.00800000E+00  1.00800000E+00  1.60000000E+01  1.00800000E+00
  1.00800000E+00  1.60000000E+01  1.00800000E+00  1.00800000E+00  1.60000000E+01
  1.00800000E+00  1.00800000E+00  1.60000000E+01  1.00800000E+00  1.00800000E+00
  1.60000000E+01  1.00800000E+00  1.00800000E+00  1.60000000E+01  1.00800000E+00
  1.00800000E+00  1.60000000E+01  1.00800000E+00  1.00800000E+00  1.60000000E+01
  1.00800000E+00  1.00800000E+00  1.60000000E+01  1.00800000E+00  1.00800000E+00
  1.60000000E+01  1.00800000E+00  1.00800000E+00  1.60000000E+01  1.00800000E+00
  1.00800000E+00  1.60000000E+01  1.00800000E+00  1.00800000E+00  1.60000000E+01
  1.00800000E+00  1.00800000E+00  1.60000000E+01  1.00800000E+00  1.00800000E+00
  1.60000000E+01  1.00800000E+00  1.00800000E+00  1.60000000E+01  1.00800000E+00
  1.00800000E+00  1.60000000E+01  1.00800000E+00  1.00800000E+00  1.60000000E+01
  1.00800000E+00  1.00800000E+00  1.60000000E+01  1.00800000E+00  1.00800000E+00
  1.60000000E+01  1.00800000E+00  1.00800000E+00  1.60000000E+01  1.00800000E+00
  1.00800000E+00  1.60000000E+01  1.00800000E+00  1.00800000E+00  1.60000000E+01
  1.00800000E+00  1.00800000E+00  1.60000000E+01  1.00800000E+00  1.00800000E+00
  1.60000000E+01  1.00800000E+00  1.00800000E+00  1.60000000E+01  1.00800000E+00
  1.00800000E+00  1.60000000E+01  1.00800000E+00  1.00800000E+00  1.60000000E+01
  1.00800000E+00  1.00800000E+00  1.60000000E+01  1.00800000E+00  1.00800000E+00
  1.60000000E+01  1.00800000E+00  1.00800000E+00  1.60000000E+01  1.00800000E+00
  1.00800000E+00  1.60000000E+01  1.00800000E+00  1.00800000E+00  1.60000000E+01
  1.00800000E+00  1.00800000E+00  1.60000000E+01  1.00800000E+00  1.00800000E+00
  1.60000000E+01  1.00800000E+00  1.00800000E+00  1.60000000E+01  1.00800000E+00
  1.00800000E+00  1.60000000E+01  1.00800000E+00  1.00800000E+00  1.60000000E+01
  1.00800000E+00  1.00800000E+00  1.60000000E+01  1.00800000E+00  1.00800000E+00
  1.60000000E+01  1.00800000E+00  1.00800000E+00  1.60000000E+01  1.00800000E+00
  1.00800000E+00  1.60000000E+01  1.00800000E+00  1.00800000E+00  1.60000000E+01
  1.00800000E+00  1.00800000E+00  1.60000000E+01  1.00800000E+00  1.00800000E+00
  1.60000000E+01  1.00800000E+00  1.00800000E+00  1.60000000E+01  1.00800000E+00
  1.00800000E+00  1.60000000E+01  1.00800000E+00  1.00800000E+00  1.60000000E+01
  1.00800000E+00  1.00800000E+00  1.60000000E+01  1.00800000E+00  1.00800000E+00
  1.60000000E+01  1.00800000E+00  1.00800000E+00  1.60000000E+01  1.00800000E+00
  1.00800000E+00  1.60000000E+01  1.00800000E+00  1.00800000E+00  1.60000000E+01
  1.00800000E+00  1.00800000E+00  1.60000000E+01  1.00800000E+00  1.00800000E+00
  1.60000000E+01  1.00800000E+00  1.00800000E+00  1.60000000E+01  1.00800000E+00
  1.00800000E+00  1.60000000E+01  1.00800000E+00  1.00800000E+00  1.60000000E+01
  1.00800000E+00  1.00800000E+00  1.60000000E+01  1.00800000E+00  1.00800000E+00
  1.60000000E+01  1.00800000E+00  1.00800000E+00  1.60000000E+01  1.00800000E+00
  1.00800000E+00  1.60000000E+01  1.00800000E+00  1.00800000E+00  1.60000000E+01
  1.00800000E+00  1.00800000E+00  1.60000000E+01  1.00800000E+00  1.00800000E+00
  1.60000000E+01  1.00800000E+00  1.00800000E+00  1.60000000E+01  1.00800000E+00
  1.00800000E+00  1.60000000E+01  1.00800000E+00  1.00800000E+00  1.60000000E+01
  1.00800000E+00  1.00800000E+00  1.60000000E+01  1.00800000E+00  1.00800000E+00
  1.60000000E+01  1.00800000E+00  1.00800000E+00  1.60000000E+01  1.00800000E+00
  1.00800000E+00  1.60000000E+01  1.00800000E+00  1.00800000E+00  1.60000000E+01
  1.00800000E+00  1.00800000E+00  1.60000000E+01  1.00800000E+00  1.00800000E+00
  1.60000000E+01  1.00800000E+00  1.00800000E+00  1.60000000E+01  1.00800000E+00
  1.00800000E+00  1.60000000E+01  1.00800000E+00  1.00800000E+00  1.60000000E+01
  1.00800000E+00  1.00800000E+00  1.60000000E+01  1.00800000E+00  1.00800000E+00
  1.60000000E+01  1.00800000E+00  1.00800000E+00  1.60000000E+01  1.00800000E+00
  1.00800000E+00  1.60000000E+01  1.00800000E+00  1.00800000E+00  1.60000000E+01
  1.00800000E+00  1.00800000E+00  1.60000000E+01  1.00800000E+00  1.00800000E+00
  1.60000000E+01  1.00800000E+00  1.00800000E+00  1.60000000E+01  1.00800000E+00
  1.00800000E+00  1.60000000E+01  1.00800000E+00  1.00800000E+00  1.60000000E+01
  1.00800000E+00  1.00800000E+00  1.60000000E+01  1.00800000E+00  1.00800000E+00
  1.60000000E+01  1.00800000E+00  1.00800000E+00  1.60000000E+01  1.00800000E+00
  1.00800000E+00  1.60000000E+01  1.00800000E+00  1.00800000E+00  1.60000000E+01
  1.00800000E+00  1.00800000E+00  1.60000000E+01  1.00800000E+00  1.00800000E+00
  1.60000000E+01  1.00800000E+00  1.00800000E+00  1.60000000E+01  1.00800000E+00
  1.00800000E+00  1.60000000E+01  1.00800000E+00  1.00800000E+00  1.60000000E+01
  1.00800000E+00  1.00800000E+00  1.60000000E+01  1.00800000E+00  1.00800000E+00
  1.60000000E+01  1.00800000E+00  1.00800000E+00  1.60000000E+01  1.00800000E+00
  1.00800000E+00  1.60000000E+01  1.00800000E+00  1.00800000E+00  1.60000000E+01
  1.00800000E+00  1.00800000E+00  1.60000000E+01  1.00800000E+00  1.00800000E+00
  1.60000000E+01  1.00800000E+00  1.00800000E+00  1.60000000E+01  1.00800000E+00
  1.00800000E+00  1.60000000E+01  1.00800000E+00  1.00800000E+00  1.60000000E+01
  1.00800000E+00  1.00800000E+00  1.60000000E+01  1.00800000E+00  1.00800000E+00
  1.60000000E+01  1.00800000E+00  1.00800000E+00  1.60000000E+01  1.00800000E+00
  1.00800000E+00  1.60000000E+01  1.00800000E+00  1.00800000E+00  1.60000000E+01
  1.00800000E+00  1.00800000E+00  1.60000000E+01  1.00800000E+00  1.00800000E+00
  1.60000000E+01  1.00800000E+00  1.00800000E+00  1.60000000E+01  1.00800000E+00
  1.00800000E+00  1.60000000E+01  1.00800000E+00  1.00800000E+00  1.60000000E+01
  1.00800000E+00  1.00800000E+00  1.60000000E+01  1.00800000E+00  1.00800000E+00
  1.60000000E+01  1.00800000E+00  1.00800000E+00  1.60000000E+01  1.00800000E+00
  1.00800000E+00  1.60000000E+01  1.00800000E+00  1.00800000E+00  1.60000000E+01
  1.00800000E+00  1.00800000E+00  1.60000000E+01  1.00800000E+00  1.00800000E+00
  1.60000000E+01  1.00800000E+00  1.00800000E+00  1.60000000E+01  1.00800000E+00
  1.00800000E+00  1.60000000E+01  1.00800000E+00  1.00800000E+00  1.60000000E+01
  1.00800000E+00  1.00800000E+00  1.60000000E+01  1.00800000E+00  1.00800000E+00
  1.60000000E+01  1.00800000E+00  1.00800000E+00  1.60000000E+01  1.00800000E+00
  1.00800000E+00  1.60000000E+01  1.00800000E+00  1.00800000E+00  1.60000000E+01
  1.00800000E+00  1.00800000E+00  1.60000000E+01  1.00800000E+00  1.00800000E+00
  1.60000000E+01  1.00800000E+00  1.00800000E+00  1.60000000E+01  1.00800000E+00
  1.00800000E+00  1.60000000E+01  1.00800000E+00  1.00800000E+00  1.60000000E+01
  1.00800000E+00  1.00800000E+00  1.60000000E+01  1.00800000E+00  1.00800000E+00
  1.60000000E+01  1.00800000E+00  1.00800000E+00  1.60000000E+01  1.00800000E+00
  1.00800000E+00  1.60000000E+01  1.00800000E+00  1.00800000E+00  1.60000000E+01
  1.00800000E+00  1.00800000E+00  1.60000000E+01  1.00800000E+00  1.00800000E+00
  1.60000000E+01  1.00800000E+00  1.00800000E+00  1.60000000E+01  1.00800000E+00
  1.00800000E+00  1.60000000E+01  1.00800000E+00  1.00800000E+00  1.60000000E+01
  1.00800000E+00  1.00800000E+00  1.60000000E+01  1.00800000E+00  1.00800000E+00
  1.60000000E+01  1.00800000E+00  1.00800000E+00  1.60000000E+01  1.00800000E+00
  1.00800000E+00  1.60000000E+01  1.00800000E+00  1.00800000E+00  1.60000000E+01
  1.00800000E+00  1.00800000E+00  1.60000000E+01  1.00800000E+00  1.00800000E+00
  1.60000000E+01  1.00800000E+00  1.00800000E+00  1.60000000E+01  1.00800000E+00
  1.00800000E+00  1.60000000E+01  1.00800000E+00  1.00800000E+00  1.60000000E+01
  1.00800000E+00  1.00800000E+00  1.60000000E+01  1.00800000E+00  1.00800000E+00
  1.60000000E+01  1.00800000E+00  1.00800000E+00  1.60000000E+01  1.00800000E+00
  1.00800000E+00  1.60000000E+01  1.00800000E+00  1.00800000E+00  1.60000000E+01
  1.00800000E+00  1.00800000E+00  1.60000000E+01  1.00800000E+00  1.00800000E+00
  1.60000000E+01  1.00800000E+00  1.00800000E+00  1.60000000E+01  1.00800000E+00
  1.00800000E+00  1.60000000E+01  1.00800000E+00  1.00800000E+00  1.60000000E+01
  1.00800000E+00  1.00800000E+00  1.60000000E+01  1.00800000E+00  1.00800000E+00
  1.60000000E+01  1.00800000E+00  1.00800000E+00  1.60000000E+01  1.00800000E+00
  1.00800000E+00  1.60000000E+01  1.00800000E+00  1.00800000E+00  1.60000000E+01
  1.00800000E+00  1.00800000E+00  1.60000000E+01  1.00800000E+00  1.00800000E+00
  1.60000000E+01  1.00800000E+00  1.00800000E+00  1.60000000E+01  1.00800000E+00
  1.00800000E+00  1.60000000E+01  1.00800000E+00  1.00800000E+00  1.60000000E+01
  1.00800000E+00  1.00800000E+00  1.60000000E+01  1.00800000E+00  1.00800000E+00
  1.60000000E+01  1.00800000E+00  1.00800000E+00  1.60000000E+01  1.00800000E+00
  1.00800000E+00  1.60000000E+01  1.00800000E+00  1.00800000E+00  1.60000000E+01
  1.00800000E+00  1.00800000E+00  1.60000000E+01  1.00800000E+00  1.00800000E+00
  1.60000000E+01  1.00800000E+00  1.00800000E+00  1.60000000E+01  1.00800000E+00
  1.00800000E+00  1.60000000E+01  1.00800000E+00  1.00800000E+00  1.60000000E+01
  1.00800000E+00  1.00800000E+00  1.60000000E+01  1.00800000E+00  1.00800000E+00
  1.60000000E+01  1.00800000E+00  1.00800000E+00  1.60000000E+01  1.00800000E+00
  1.00800000E+00  1.60000000E+01  1.00800000E+00  1.00800000E+00  1.60000000E+01
  1.00800000E+00  1.00800000E+00  1.60000000E+01  1.00800000E+00  1.00800000E+00
  1.60000000E+01  1.00800000E+00  1.00800000E+00  1.60000000E+01  1.00800000E+00
  1.00800000E+00  1.60000000E+01  1.00800000E+00  1.00800000E+00  1.60000000E+01
  1.00800000E+00  1.00800000E+00  1.60000000E+01  1.00800000E+00  1.00800000E+00
  1.60000000E+01  1.00800000E+00  1.00800000E+00  1.60000000E+01  1.00800000E+00
  1.00800000E+00  1.60000000E+01  1.00800000E+00  1.00800000E+00  1.60000000E+01
  1.00800000E+00  1.00800000E+00  1.60000000E+01  1.00800000E+00  1.00800000E+00
  1.60000000E+01  1.00800000E+00  1.00800000E+00  1.60000000E+01  1.00800000E+00
  1.00800000E+00  1.60000000E+01  1.00800000E+00  1.00800000E+00  1.60000000E+01
  1.00800000E+00  1.00800000E+00  1.60000000E+01  1.00800000E+00  1.00800000E+00
  1.60000000E+01  1.00800000E+00  1.00800000E+00  1.60000000E+01  1.00800000E+00
  1.00800000E+00  1.60000000E+01  1.00800000E+00  1.00800000E+00  1.60000000E+01
  1.00800000E+00  1.00800000E+00  1.60000000E+01  1.00800000E+00  1.00800000E+00
  1.60000000E+01  1.00800000E+00  1.00800000E+00  1.60000000E+01  1.00800000E+00
  1.00800000E+00  1.60000000E+01  1.00800000E+00  1.00800000E+00  1.60000000E+01
  1.00800000E+00  1.00800000E+00  1.60000000E+01  1.00800000E+00  1.00800000E+00
  1.60000000E+01  1.00800000E+00  1.00800000E+00  1.60000000E+01  1.00800000E+00
  1.00800000E+00  1.60000000E+01  1.00800000E+00  1.00800000E+00  1.60000000E+01
  1.00800000E+00  1.00800000E+00  1.60000000E+01  1.00800000E+00  1.00800000E+00
  1.60000000E+01  1.00800000E+00  1.00800000E+00  1.60000000E+01  1.00800000E+00
  1.00800000E+00  1.60000000E+01  1.00800000E+00  1.00800000E+00  1.60000000E+01
  1.00800000E+00  1.00800000E+00  1.60000000E+01  1.00800000E+00  1.00800000E+00
  1.60000000E+01  1.00800000E+00  1.00800000E+00  1.60000000E+01  1.00800000E+00
  1.00800000E+00  1.60000000E+01  1.00800000E+00  1.00800000E+00  1.60000000E+01
  1.00800000E+00  1.00800000E+00  1.60000000E+01  1.00800000E+00  1.00800000E+00
  1.60000000E+01  1.00800000E+00  1.00800000E+00  1.60000000E+01  1.00800000E+00
  1.00800000E+00  1.60000000E+01  1.00800000E+00  1.00800000E+00  1.60000000E+01
  1.00800000E+00  1.00800000E+00  1.60000000E+01  1.00800000E+00  1.00800000E+00
  1.60000000E+01  1.00800000E+00  1.00800000E+00  1.60000000E+01  1.00800000E+00
  1.00800000E+00  1.60000000E+01  1.00800000E+00  1.00800000E+00  1.60000000E+01
  1.00800000E+00  1.00800000E+00  1.60000000E+01  1.00800000E+00  1.00800000E+00
  1.60000000E+01  1.00800000E+00  1.00800000E+00  1.60000000E+01  1.00800000E+00
  1.00800000E+00  1.60000000E+01  1.00800000E+00  1.00800000E+00  1.60000000E+01
  1.00800000E+00  1.00800000E+00  1.60000000E+01  1.00800000E+00  1.00800000E+00
  1.60000000E+01  1.00800000E+00  1.00800000E+00  1.60000000E+01  1.00800000E+00
  1.00800000E+00  1.60000000E+01  1.00800000E+00  1.00800000E+00  1.60000000E+01
  1.00800000E+00  1.00800000E+00  1.60000000E+01  1.00800000E+00  1.00800000E+00
  1.60000000E+01  1.00800000E+00  1.00800000E+00  1.60000000E+01  1.00800000E+00
  1.00800000E+00  1.60000000E+01  1.00800000E+00  1.00800000E+00  1.60000000E+01
  1.00800000E+00  1.00800000E+00  1.60000000E+01  1.00800000E+00  1.00800000E+00
  1.60000000E+01  1.00800000E+00  1.00800000E+00  1.60000000E+01  1.00800000E+00
  1.00800000E+00  1.60000000E+01  1.00800000E+00  1.00800000E+00  1.60000000E+01
  1.00800000E+00  1.00800000E+00  1.60000000E+01  1.00800000E+00  1.00800000E+00
  1.60000000E+01  1.00800000E+00  1.00800000E+00  1.60000000E+01  1.00800000E+00
  1.00800000E+00  1.60000000E+01  1.00800000E+00  1.00800000E+00  1.60000000E+01
  1.00800000E+00  1.00800000E+00  1.60000000E+01  1.00800000E+00  1.00800000E+00
  1.60000000E+01  1.00800000E+00  1.00800000E+00  1.60000000E+01  1.00800000E+00
  1.00800000E+00  1.60000000E+01  1.00800000E+00  1.00800000E+00  1.60000000E+01
  1.00800000E+00  1.00800000E+00  1.60000000E+01  1.00800000E+00  1.00800000E+00
  1.60000000E+01  1.00800000E+00  1.00800000E+00  1.60000000E+01  1.00800000E+00
  1.00800000E+00  1.60000000E+01  1.00800000E+00  1.00800000E+00  1.60000000E+01
  1.00800000E+00  1.00800000E+00  1.60000000E+01  1.00800000E+00  1.00800000E+00
  1.60000000E+01  1.00800000E+00  1.00800000E+00  1.60000000E+01  1.00800000E+00
  1.00800000E+00  1.60000000E+01  1.00800000E+00  1.00800000E+00  1.60000000E+01
  1.00800000E+00  1.00800000E+00  1.60000000E+01  1.00800000E+00  1.00800000E+00
  1.60000000E+01  1.00800000E+00  1.00800000E+00  1.60000000E+01  1.00800000E+00
  1.00800000E+00  1.60000000E+01  1.00800000E+00  1.00800000E+00  1.60000000E+01
  1.00800000E+00  1.00800000E+00  1.60000000E+01  1.00800000E+00  1.00800000E+00
  1.60000000E+01  1.00800000E+00  1.00800000E+00  1.60000000E+01  1.00800000E+00
  1.00800000E+00  1.60000000E+01  1.00800000E+00  1.00800000E+00  1.60000000E+01
  1.00800000E+00  1.00800000E+00  1.60000000E+01  1.00800000E+00  1.00800000E+00
  1.60000000E+01  1.00800000E+00  1.00800000E+00  1.60000000E+01  1.00800000E+00
  1.00800000E+00  1.60000000E+01  1.00800000E+00  1.00800000E+00  1.60000000E+01
  1.00800000E+00  1.00800000E+00  1.60000000E+01  1.00800000E+00  1.00800000E+00
  1.60000000E+01  1.00800000E+00  1.00800000E+00  1.60000000E+01  1.00800000E+00
  1.00800000E+00  1.60000000E+01  1.00800000E+00  1.00800000E+00  1.60000000E+01
  1.00800000E+00  1.00800000E+00  1.60000000E+01  1.00800000E+00  1.00800000E+00
  1.60000000E+01  1.00800000E+00  1.00800000E+00  1.60000000E+01  1.00800000E+00
  1.00800000E+00  1.60000000E+01  1.00800000E+00  1.00800000E+00  1.60000000E+01
  1.00800000E+00  1.00800000E+00  1.60000000E+01  1.00800000E+00  1.00800000E+00
  1.60000000E+01  1.00800000E+00  1.00800000E+00  1.60000000E+01  1.00800000E+00
  1.00800000E+00  1.60000000E+01  1.00800000E+00  1.00800000E+00  1.60000000E+01
  1.00800000E+00  1.00800000E+00  1.60000000E+01  1.00800000E+00  1.00800000E+00
  1.60000000E+01  1.00800000E+00  1.00800000E+00  1.60000000E+01  1.00800000E+00
  1.00800000E+00  1.60000000E+01  1.00800000E+00  1.00800000E+00  1.60000000E+01
  1.00800000E+00  1.00800000E+00  1.60000000E+01  1.00800000E+00  1.00800000E+00
  1.60000000E+01  1.00800000E+00  1.00800000E+00  1.60000000E+01  1.00800000E+00
  1.00800000E+00  1.60000000E+01  1.00800000E+00  1.00800000E+00  1.60000000E+01
  1.00800000E+00  1.00800000E+00  1.60000000E+01  1.00800000E+00  1.00800000E+00
  1.60000000E+01  1.00800000E+00  1.00800000E+00  1.60000000E+01  1.00800000E+00
  1.00800000E+00  1.60000000E+01  1.00800000E+00  1.00800000E+00  1.60000000E+01
  1.00800000E+00  1.00800000E+00  1.60000000E+01  1.00800000E+00  1.00800000E+00
  1.60000000E+01  1.00800000E+00  1.00800000E+00  1.60000000E+01  1.00800000E+00
  1.00800000E+00  1.60000000E+01  1.00800000E+00  1.00800000E+00  1.60000000E+01
  1.00800000E+00  1.00800000E+00  1.60000000E+01  1.00800000E+00  1.00800000E+00
  1.60000000E+01  1.00800000E+00  1.00800000E+00  1.60000000E+01  1.00800000E+00
  1.00800000E+00  1.60000000E+01  1.00800000E+00  1.00800000E+00  1.60000000E+01
  1.00800000E+00  1.00800000E+00  1.60000000E+01  1.00800000E+00  1.00800000E+00
  1.60000000E+01  1.00800000E+00  1.00800000E+00  1.60000000E+01  1.00800000E+00
  1.00800000E+00  1.60000000E+01  1.00800000E+00  1.00800000E+00  1.60000000E+01
  1.00800000E+00  1.00800000E+00  1.60000000E+01  1.00800000E+00  1.00800000E+00
  1.60000000E+01  1.00800000E+00  1.00800000E+00  1.60000000E+01  1.00800000E+00
  1.00800000E+00  1.60000000E+01  1.00800000E+00  1.00800000E+00  1.60000000E+01
  1.00800000E+00  1.00800000E+00  1.60000000E+01  1.00800000E+00  1.00800000E+00
  1.60000000E+01  1.00800000E+00  1.00800000E+00  1.60000000E+01  1.00800000E+00
  1.00800000E+00  1.60000000E+01  1.00800000E+00  1.00800000E+00  1.60000000E+01
  1.00800000E+00  1.00800000E+00  1.60000000E+01  1.00800000E+00  1.00800000E+00
  1.60000000E+01  1.00800000E+00  1.00800000E+00  1.60000000E+01  1.00800000E+00
  1.00800000E+00  1.60000000E+01  1.00800000E+00  1.00800000E+00  1.60000000E+01
  1.00800000E+00  1.00800000E+00  1.60000000E+01  1.00800000E+00  1.00800000E+00
  1.60000000E+01  1.00800000E+00  1.00800000E+00  1.60000000E+01  1.00800000E+00
  1.00800000E+00  1.60000000E+01  1.00800000E+00  1.00800000E+00  1.60000000E+01
  1.00800000E+00  1.00800000E+00  1.60000000E+01  1.00800000E+00  1.00800000E+00
  1.60000000E+01  1.00800000E+00  1.00800000E+00  1.60000000E+01  1.00800000E+00
  1.00800000E+00  1.60000000E+01  1.00800000E+00  1.00800000E+00  1.60000000E+01
  1.00800000E+00  1.00800000E+00  1.60000000E+01  1.00800000E+00  1.00800000E+00
  1.60000000E+01  1.00800000E+00  1.00800000E+00  1.60000000E+01  1.00800000E+00
  1.00800000E+00  1.60000000E+01  1.00800000E+00  1.00800000E+00  1.60000000E+01
  1.00800000E+00  1.00800000E+00  1.60000000E+01  1.00800000E+00  1.00800000E+00
  1.60000000E+01  1.00800000E+00  1.00800000E+00  1.60000000E+01  1.00800000E+00
  1.00800000E+00  1.60000000E+01  1.00800000E+00  1.00800000E+00  1.60000000E+01
  1.00800000E+00  1.00800000E+00  1.60000000E+01  1.00800000E+00  1.00800000E+00
  1.60000000E+01  1.00800000E+00  1.00800000E+00  1.60000000E+01  1.00800000E+00
  1.00800000E+00  1.60000000E+01  1.00800000E+00  1.00800000E+00  1.60000000E+01
  1.00800000E+00  1.00800000E+00  1.60000000E+01  1.00800000E+00  1.00800000E+00
  1.60000000E+01  1.00800000E+00  1.00800000E+00  1.60000000E+01  1.00800000E+00
  1.00800000E+00  1.60000000E+01  1.00800000E+00  1.00800000E+00  1.60000000E+01
  1.00800000E+00  1.00800000E+00  1.60000000E+01  1.00800000E+00  1.00800000E+00
  1.60000000E+01  1.00800000E+00  1.00800000E+00  1.60000000E+01  1.00800000E+00
  1.00800000E+00  1.60000000E+01  1.00800000E+00  1.00800000E+00  1.60000000E+01
  1.00800000E+00  1.00800000E+00  1.60000000E+01  1.00800000E+00  1.00800000E+00
  1.60000000E+01  1.00800000E+00  1.00800000E+00  1.60000000E+01  1.00800000E+00
  1.00800000E+00  1.60000000E+01  1.00800000E+00  1.00800000E+00  1.60000000E+01
  1.00800000E+00  1.00800000E+00  1.60000000E+01  1.00800000E+00  1.00800000E+00
  1.60000000E+01  1.00800000E+00  1.00800000E+00  1.60000000E+01  1.00800000E+00
  1.00800000E+00  1.60000000E+01  1.00800000E+00  1.00800000E+00  1.60000000E+01
  1.00800000E+00  1.00800000E+00  1.60000000E+01  1.00800000E+00  1.00800000E+00
  1.60000000E+01  1.00800000E+00  1.00800000E+00  1.60000000E+01  1.00800000E+00
  1.00800000E+00  1.60000000E+01  1.00800000E+00  1.00800000E+00  1.60000000E+01
  1.00800000E+00  1.00800000E+00  1.60000000E+01  1.00800000E+00  1.00800000E+00
  1.60000000E+01  1.00800000E+00  1.00800000E+00  1.60000000E+01  1.00800000E+00
  1.00800000E+00  1.60000000E+01  1.00800000E+00  1.00800000E+00  1.60000000E+01
  1.00800000E+00  1.00800000E+00  1.60000000E+01  1.00800000E+00  1.00800000E+00
  1.60000000E+01  1.00800000E+00  1.00800000E+00  1.60000000E+01  1.00800000E+00
  1.00800000E+00  1.60000000E+01  1.00800000E+00  1.00800000E+00  1.60000000E+01
  1.00800000E+00  1.00800000E+00  1.60000000E+01  1.00800000E+00  1.00800000E+00
  1.60000000E+01  1.00800000E+00  1.00800000E+00  1.60000000E+01  1.00800000E+00
  1.00800000E+00  1.60000000E+01  1.00800000E+00  1.00800000E+00  1.60000000E+01
  1.00800000E+00  1.00800000E+00  1.60000000E+01  1.00800000E+00  1.00800000E+00
  1.60000000E+01  1.00800000E+00  1.00800000E+00  1.60000000E+01  1.00800000E+00
  1.00800000E+00  1.60000000E+01  1.00800000E+00  1.00800000E+00  1.60000000E+01
  1.00800000E+00  1.00800000E+00  1.60000000E+01  1.00800000E+00  1.00800000E+00
  1.60000000E+01  1.00800000E+00  1.00800000E+00  1.60000000E+01  1.00800000E+00
  1.00800000E+00  1.60000000E+01  1.00800000E+00  1.00800000E+00  1.60000000E+01
  1.00800000E+00  1.00800000E+00  1.60000000E+01  1.00800000E+00  1.00800000E+00
  1.60000000E+01  1.00800000E+00  1.00800000E+00  1.60000000E+01  1.00800000E+00
  1.00800000E+00  1.60000000E+01  1.00800000E+00  1.00800000E+00  1.60000000E+01
  1.00800000E+00  1.00800000E+00  1.60000000E+01  1.00800000E+00  1.00800000E+00
  1.60000000E+01  1.00800000E+00  1.00800000E+00  1.60000000E+01  1.00800000E+00
  1.00800000E+00  1.60000000E+01  1.00800000E+00  1.00800000E+00  1.60000000E+01
  1.00800000E+00  1.00800000E+00  1.60000000E+01  1.00800000E+00  1.00800000E+00
  1.60000000E+01  1.00800000E+00  1.00800000E+00  1.60000000E+01  1.00800000E+00
  1.00800000E+00  1.60000000E+01  1.00800000E+00  1.00800000E+00  1.60000000E+01
  1.00800000E+00  1.00800000E+00  1.60000000E+01  1.00800000E+00  1.00800000E+00
  1.60000000E+01  1.00800000E+00  1.00800000E+00  1.60000000E+01  1.00800000E+00
  1.00800000E+00  1.60000000E+01  1.00800000E+00  1.00800000E+00  1.60000000E+01
  1.00800000E+00  1.00800000E+00  1.60000000E+01  1.00800000E+00  1.00800000E+00
  1.60000000E+01  1.00800000E+00  1.00800000E+00  1.60000000E+01  1.00800000E+00
  1.00800000E+00  1.60000000E+01  1.00800000E+00  1.00800000E+00  1.60000000E+01
  1.00800000E+00  1.00800000E+00  1.60000000E+01  1.00800000E+00  1.00800000E+00
  1.60000000E+01  1.00800000E+00  1.00800000E+00  1.60000000E+01  1.00800000E+00
  1.00800000E+00  1.60000000E+01  1.00800000E+00  1.00800000E+00  1.60000000E+01
  1.00800000E+00  1.00800000E+00  1.60000000E+01  1.00800000E+00  1.00800000E+00
  1.60000000E+01  1.00800000E+00  1.00800000E+00  1.60000000E+01  1.00800000E+00
  1.00800000E+00  1.60000000E+01  1.00800000E+00  1.00800000E+00  1.60000000E+01
  1.00800000E+00  1.00800000E+00  1.60000000E+01  1.00800000E+00  1.00800000E+00
  1.60000000E+01  1.00800000E+00  1.00800000E+00  1.60000000E+01  1.00800000E+00
  1.00800000E+00  1.60000000E+01  1.00800000E+00  1.00800000E+00  1.60000000E+01
  1.00800000E+00  1.00800000E+00  1.60000000E+01  1.00800000E+00  1.00800000E+00
  1.60000000E+01  1.00800000E+00  1.00800000E+00  1.60000000E+01  1.00800000E+00
  1.00800000E+00  1.60000000E+01  1.00800000E+00  1.00800000E+00  1.60000000E+01
  1.00800000E+00  1.00800000E+00  1.60000000E+01  1.00800000E+00  1.00800000E+00
  1.60000000E+01  1.00800000E+00  1.00800000E+00  1.60000000E+01  1.00800000E+00
  1.00800000E+00  1.60000000E+01  1.00800000E+00  1.00800000E+00  1.60000000E+01
  1.00800000E+00  1.00800000E+00  1.60000000E+01  1.00800000E+00  1.00800000E+00
  1.60000000E+01  1.00800000E+00  1.00800000E+00  1.60000000E+01  1.00800000E+00
  1.00800000E+00  1.60000000E+01  1.00800000E+00  1.00800000E+00  1.60000000E+01
  1.00800000E+00  1.00800000E+00  1.60000000E+01  1.00800000E+00  1.00800000E+00
  1.60000000E+01  1.00800000E+00  1.00800000E+00  1.60000000E+01  1.00800000E+00
  1.00800000E+00  1.60000000E+01  1.00800000E+00  1.00800000E+00  1.60000000E+01
  1.00800000E+00  1.00800000E+00  1.60000000E+01  1.00800000E+00  1.00800000E+00
  1.60000000E+01  1.00800000E+00  1.00800000E+00  1.60000000E+01  1.00800000E+00
  1.00800000E+00  1.60000000E+01  1.00800000E+00  1.00800000E+00  1.60000000E+01
  1.00800000E+00  1.00800000E+00  1.60000000E+01  1.00800000E+00  1.00800000E+00
  1.60000000E+01  1.00800000E+00  1.00800000E+00  1.60000000E+01  1.00800000E+00
  1.00800000E+00  1.60000000E+01  1.00800000E+00  1.00800000E+00  1.60000000E+01
  1.00800000E+00  1.00800000E+00  1.60000000E+01  1.00800000E+00  1.00800000E+00
  1.60000000E+01  1.00800000E+00  1.00800000E+00  1.60000000E+01  1.00800000E+00
  1.00800000E+00  1.60000000E+01  1.00800000E+00  1.00800000E+00  1.60000000E+01
  1.00800000E+00  1.00800000E+00  1.60000000E+01  1.00800000E+00  1.00800000E+00
  1.60000000E+01  1.00800000E+00  1.00800000E+00  1.60000000E+01  1.00800000E+00
  1.00800000E+00  1.60000000E+01  1.00800000E+00  1.00800000E+00  1.60000000E+01
  1.00800000E+00  1.00800000E+00  1.60000000E+01  1.00800000E+00  1.00800000E+00
  1.60000000E+01  1.00800000E+00  1.00800000E+00  1.60000000E+01  1.00800000E+00
  1.00800000E+00  1.60000000E+01  1.00800000E+00  1.00800000E+00  1.60000000E+01
  1.00800000E+00  1.00800000E+00  1.60000000E+01  1.00800000E+00  1.00800000E+00
  1.60000000E+01  1.00800000E+00  1.00800000E+00  1.60000000E+01  1.00800000E+00
  1.00800000E+00  1.60000000E+01  1.00800000E+00  1.00800000E+00  1.60000000E+01
  1.00800000E+00  1.00800000E+00  1.60000000E+01  1.00800000E+00  1.00800000E+00
  1.60000000E+01  1.00800000E+00  1.00800000E+00  1.60000000E+01  1.00800000E+00
  1.00800000E+00  1.60000000E+01  1.00800000E+00  1.00800000E+00  1.60000000E+01
  1.00800000E+00  1.00800000E+00  1.60000000E+01  1.00800000E+00  1.00800000E+00
  1.60000000E+01  1.00800000E+00  1.00800000E+00  1.60000000E+01  1.00800000E+00
  1.00800000E+00  1.60000000E+01  1.00800000E+00  1.00800000E+00  1.60000000E+01
  1.00800000E+00  1.00800000E+00  1.60000000E+01  1.00800000E+00  1.00800000E+00
  1.60000000E+01  1.00800000E+00  1.00800000E+00  1.60000000E+01  1.00800000E+00
  1.00800000E+00  1.60000000E+01  1.00800000E+00  1.00800000E+00  1.60000000E+01
  1.00800000E+00  1.00800000E+00  1.60000000E+01  1.00800000E+00  1.00800000E+00
  1.60000000E+01  1.00800000E+00  1.00800000E+00  1.60000000E+01  1.00800000E+00
  1.00800000E+00  1.60000000E+01  1.00800000E+00  1.00800000E+00  1.60000000E+01
  1.00800000E+00  1.00800000E+00  1.60000000E+01  1.00800000E+00  1.00800000E+00
  1.60000000E+01  1.00800000E+00  1.00800000E+00  1.60000000E+01  1.00800000E+00
  1.00800000E+00  1.60000000E+01  1.00800000E+00  1.00800000E+00  1.60000000E+01
  1.00800000E+00  1.00800000E+00  1.60000000E+01  1.00800000E+00  1.00800000E+00
  1.60000000E+01  1.00800000E+00  1.00800000E+00  1.60000000E+01  1.00800000E+00
  1.00800000E+00  1.60000000E+01  1.00800000E+00  1.00800000E+00  1.60000000E+01
  1.00800000E+00  1.00800000E+00  1.60000000E+01  1.00800000E+00  1.00800000E+00
  1.60000000E+01  1.00800000E+00  1.00800000E+00  1.60000000E+01  1.00800000E+00
  1.00800000E+00  1.60000000E+01  1.00800000E+00  1.00800000E+00  1.60000000E+01
  1.00800000E+00  1.00800000E+00  1.60000000E+01  1.00800000E+00  1.00800000E+00
  1.60000000E+01  1.00800000E+00  1.00800000E+00  1.60000000E+01  1.00800000E+00
  1.00800000E+00  1.60000000E+01  1.00800000E+00  1.00800000E+00  1.60000000E+01
  1.00800000E+00  1.00800000E+00  1.60000000E+01  1.00800000E+00  1.00800000E+00
  1.60000000E+01  1.00800000E+00  1.00800000E+00  1.60000000E+01  1.00800000E+00
  1.00800000E+00  1.60000000E+01  1.00800000E+00  1.00800000E+00  1.60000000E+01
  1.00800000E+00  1.00800000E+00  1.60000000E+01  1.00800000E+00  1.00800000E+00
  1.60000000E+01  1.00800000E+00  1.00800000E+00  1.60000000E+01  1.00800000E+00
  1.00800000E+00  1.60000000E+01  1.00800000E+00  1.00800000E+00  1.60000000E+01
  1.00800000E+00  1.00800000E+00  1.60000000E+01  1.00800000E+00  1.00800000E+00
  1.60000000E+01  1.00800000E+00  1.00800000E+00  1.60000000E+01  1.00800000E+00
  1.00800000E+00  1.60000000E+01  1.00800000E+00  1.00800000E+00  1.60000000E+01
  1.00800000E+00  1.00800000E+00  1.60000000E+01  1.00800000E+00  1.00800000E+00
  1.60000000E+01  1.00800000E+00  1.00800000E+00  1.60000000E+01  1.00800000E+00
  1.00800000E+00  1.60000000E+01  1.00800000E+00  1.00800000E+00  1.60000000E+01
  1.00800000E+00  1.00800000E+00  1.60000000E+01  1.00800000E+00  1.00800000E+00
  1.60000000E+01  1.00800000E+00  1.00800000E+00  1.60000000E+01  1.00800000E+00
  1.00800000E+00  1.60000000E+01  1.00800000E+00  1.00800000E+00  1.60000000E+01
  1.00800000E+00  1.00800000E+00  1.60000000E+01  1.00800000E+00  1.00800000E+00
  1.60000000E+01  1.00800000E+00  1.00800000E+00  1.60000000E+01  1.00800000E+00
  1.00800000E+00  1.60000000E+01  1.00800000E+00  1.00800000E+00  1.60000000E+01
  1.00800000E+00  1.00800000E+00  1.60000000E+01  1.00800000E+00  1.00800000E+00
  1.60000000E+01  1.00800000E+00  1.00800000E+00  1.60000000E+01  1.00800000E+00
  1.00800000E+00  1.60000000E+01  1.00800000E+00  1.00800000E+00  1.60000000E+01
  1.00800000E+00  1.00800000E+00  1.60000000E+01  1.00800000E+00  1.00800000E+00
  1.60000000E+01  1.00800000E+00  1.00800000E+00  1.60000000E+01  1.00800000E+00
  1.00800000E+00  1.60000000E+01  1.00800000E+00  1.00800000E+00  1.60000000E+01
  1.00800000E+00  1.00800000E+00  1.60000000E+01  1.00800000E+00  1.00800000E+00
  1.60000000E+01  1.00800000E+00  1.00800000E+00  1.60000000E+01  1.00800000E+00
  1.00800000E+00  1.60000000E+01  1.00800000E+00  1.00800000E+00  1.60000000E+01
  1.00800000E+00  1.00800000E+00  1.60000000E+01  1.00800000E+00  1.00800000E+00
  1.60000000E+01  1.00800000E+00  1.00800000E+00  1.60000000E+01  1.00800000E+00
  1.00800000E+00  1.60000000E+01  1.00800000E+00  1.00800000E+00  1.60000000E+01
  1.00800000E+00  1.00800000E+00  1.60000000E+01  1.00800000E+00  1.00800000E+00
  1.60000000E+01  1.00800000E+00  1.00800000E+00  1.60000000E+01  1.00800000E+00
  1.00800000E+00  1.60000000E+01  1.00800000E+00  1.00800000E+00  1.60000000E+01
  1.00800000E+00  1.00800000E+00  1.60000000E+01  1.00800000E+00  1.00800000E+00
  1.60000000E+01  1.00800000E+00  1.00800000E+00  1.60000000E+01  1.00800000E+00
  1.00800000E+00  1.60000000E+01  1.00800000E+00  1.00800000E+00  1.60000000E+01
  1.00800000E+00  1.00800000E+00  1.60000000E+01  1.00800000E+00  1.00800000E+00
  1.60000000E+01  1.00800000E+00  1.00800000E+00  1.60000000E+01  1.00800000E+00
  1.00800000E+00  1.60000000E+01  1.00800000E+00  1.00800000E+00  1.60000000E+01
  1.00800000E+00  1.00800000E+00  1.60000000E+01  1.00800000E+00  1.00800000E+00
  1.60000000E+01  1.00800000E+00  1.00800000E+00  1.60000000E+01  1.00800000E+00
  1.00800000E+00  1.60000000E+01  1.00800000E+00  1.00800000E+00  1.60000000E+01
  1.00800000E+00  1.00800000E+00  1.60000000E+01  1.00800000E+00  1.00800000E+00
  1.60000000E+01  1.00800000E+00  1.00800000E+00  1.60000000E+01  1.00800000E+00
  1.00800000E+00  1.60000000E+01  1.00800000E+00  1.00800000E+00  1.60000000E+01
  1.00800000E+00  1.00800000E+00  1.60000000E+01  1.00800000E+00  1.00800000E+00
  1.60000000E+01  1.00800000E+00  1.00800000E+00  1.60000000E+01  1.00800000E+00
  1.00800000E+00  1.60000000E+01  1.00800000E+00  1.00800000E+00  1.60000000E+01
  1.00800000E+00  1.00800000E+00  1.60000000E+01  1.00800000E+00  1.00800000E+00
  1.60000000E+01  1.00800000E+00  1.00800000E+00  1.60000000E+01  1.00800000E+00
  1.00800000E+00  1.60000000E+01  1.00800000E+00  1.00800000E+00  1.60000000E+01
  1.00800000E+00  1.00800000E+00  1.60000000E+01  1.00800000E+00  1.00800000E+00
  1.60000000E+01  1.00800000E+00  1.00800000E+00  1.60000000E+01  1.00800000E+00
  1.00800000E+00  1.60000000E+01  1.00800000E+00  1.00800000E+00  1.60000000E+01
  1.00800000E+00  1.00800000E+00  1.60000000E+01  1.00800000E+00  1.00800000E+00
  1.60000000E+01  1.00800000E+00  1.00800000E+00  1.60000000E+01  1.00800000E+00
  1.00800000E+00  1.60000000E+01  1.00800000E+00  1.00800000E+00  1.60000000E+01
  1.00800000E+00  1.00800000E+00  1.60000000E+01  1.00800000E+00  1.00800000E+00
  1.60000000E+01  1.00800000E+00  1.00800000E+00  1.60000000E+01  1.00800000E+00
  1.00800000E+00  1.60000000E+01  1.00800000E+00  1.00800000E+00  1.60000000E+01
  1.00800000E+00  1.00800000E+00  1.60000000E+01  1.00800000E+00  1.00800000E+00
  1.60000000E+01  1.00800000E+00  1.00800000E+00  1.60000000E+01  1.00800000E+00
  1.00800000E+00  1.60000000E+01  1.00800000E+00  1.00800000E+00  1.60000000E+01
  1.00800000E+00  1.00800000E+00  1.60000000E+01  1.00800000E+00  1.00800000E+00
  1.60000000E+01  1.00800000E+00  1.00800000E+00  1.60000000E+01  1.00800000E+00
  1.00800000E+00  1.60000000E+01  1.00800000E+00  1.00800000E+00  1.60000000E+01
  1.00800000E+00  1.00800000E+00  1.60000000E+01  1.00800000E+00  1.00800000E+00
  1.60000000E+01  1.00800000E+00  1.00800000E+00  1.60000000E+01  1.00800000E+00
  1.00800000E+00  1.60000000E+01  1.00800000E+00  1.00800000E+00  1.60000000E+01
  1.00800000E+00  1.00800000E+00  1.60000000E+01  1.00800000E+00  1.00800000E+00
  1.60000000E+01  1.00800000E+00  1.00800000E+00  1.60000000E+01  1.00800000E+00
  1.00800000E+00  1.60000000E+01  1.00800000E+00  1.00800000E+00  1.60000000E+01
  1.00800000E+00  1.00800000E+00  1.60000000E+01  1.00800000E+00  1.00800000E+00
  1.60000000E+01  1.00800000E+00  1.00800000E+00  1.60000000E+01  1.00800000E+00
  1.00800000E+00  1.60000000E+01  1.00800000E+00  1.00800000E+00  1.60000000E+01
  1.00800000E+00  1.00800000E+00  1.60000000E+01  1.00800000E+00  1.00800000E+00
  1.60000000E+01  1.00800000E+00  1.00800000E+00  1.60000000E+01  1.00800000E+00
  1.00800000E+00  1.60000000E+01  1.00800000E+00  1.00800000E+00  1.60000000E+01
  1.00800000E+00  1.00800000E+00  1.60000000E+01  1.00800000E+00  1.00800000E+00
  1.60000000E+01  1.00800000E+00  1.00800000E+00  1.60000000E+01  1.00800000E+00
  1.00800000E+00  1.60000000E+01  1.00800000E+00  1.00800000E+00  1.60000000E+01
  1.00800000E+00  1.00800000E+00  1.60000000E+01  1.00800000E+00  1.00800000E+00
  1.60000000E+01  1.00800000E+00  1.00800000E+00  1.60000000E+01  1.00800000E+00
  1.00800000E+00  1.60000000E+01  1.00800000E+00  1.00800000E+00  1.60000000E+01
  1.00800000E+00  1.00800000E+00  1.60000000E+01  1.00800000E+00  1.00800000E+00
  1.60000000E+01  1.00800000E+00  1.00800000E+00  1.60000000E+01  1.00800000E+00
  1.00800000E+00  1.60000000E+01  1.00800000E+00  1.00800000E+00  1.60000000E+01
  1.00800000E+00  1.00800000E+00  1.60000000E+01  1.00800000E+00  1.00800000E+00
  1.60000000E+01  1.00800000E+00  1.00800000E+00  1.60000000E+01  1.00800000E+00
  1.00800000E+00  1.60000000E+01  1.00800000E+00  1.00800000E+00  1.60000000E+01
  1.00800000E+00  1.00800000E+00  1.60000000E+01  1.00800000E+00  1.00800000E+00
  1.60000000E+01  1.00800000E+00  1.00800000E+00  1.60000000E+01  1.00800000E+00
  1.00800000E+00  1.60000000E+01  1.00800000E+00  1.00800000E+00  1.60000000E+01
  1.00800000E+00  1.00800000E+00  1.60000000E+01  1.00800000E+00  1.00800000E+00
  1.60000000E+01  1.00800000E+00  1.00800000E+00  1.60000000E+01  1.00800000E+00
  1.00800000E+00  1.60000000E+01  1.00800000E+00  1.00800000E+00  1.60000000E+01
  1.00800000E+00  1.00800000E+00  1.60000000E+01  1.00800000E+00  1.00800000E+00
  1.60000000E+01  1.00800000E+00  1.00800000E+00  1.60000000E+01  1.00800000E+00
  1.00800000E+00  1.60000000E+01  1.00800000E+00  1.00800000E+00  1.60000000E+01
  1.00800000E+00  1.00800000E+00  1.60000000E+01  1.00800000E+00  1.00800000E+00
  1.60000000E+01  1.00800000E+00  1.00800000E+00  1.60000000E+01  1.00800000E+00
  1.00800000E+00  1.60000000E+01  1.00800000E+00  1.00800000E+00  1.60000000E+01
  1.00800000E+00  1.00800000E+00  1.60000000E+01  1.00800000E+00  1.00800000E+00
  1.60000000E+01  1.00800000E+00  1.00800000E+00  1.60000000E+01  1.00800000E+00
  1.00800000E+00  1.60000000E+01  1.00800000E+00  1.00800000E+00  1.60000000E+01
  1.00800000E+00  1.00800000E+00  1.60000000E+01  1.00800000E+00  1.00800000E+00
  1.60000000E+01  1.00800000E+00  1.00800000E+00  1.60000000E+01  1.00800000E+00
  1.00800000E+00  1.60000000E+01  1.00800000E+00  1.00800000E+00  1.60000000E+01
  1.00800000E+00  1.00800000E+00  1.60000000E+01  1.00800000E+00  1.00800000E+00
  1.60000000E+01  1.00800000E+00  1.00800000E+00  1.60000000E+01  1.00800000E+00
  1.00800000E+00  1.60000000E+01  1.00800000E+00  1.00800000E+00  1.60000000E+01
  1.00800000E+00  1.00800000E+00  1.60000000E+01  1.00800000E+00  1.00800000E+00
  1.60000000E+01  1.00800000E+00  1.00800000E+00  1.60000000E+01  1.00800000E+00
  1.00800000E+00  1.60000000E+01  1.00800000E+00  1.00800000E+00  1.60000000E+01
  1.00800000E+00  1.00800000E+00  1.60000000E+01  1.00800000E+00  1.00800000E+00
  1.60000000E+01  1.00800000E+00  1.00800000E+00  1.60000000E+01  1.00800000E+00
  1.00800000E+00  1.60000000E+01  1.00800000E+00  1.00800000E+00  1.60000000E+01
  1.00800000E+00  1.00800000E+00  1.60000000E+01  1.00800000E+00  1.00800000E+00
  1.60000000E+01  1.00800000E+00  1.00800000E+00  1.60000000E+01  1.00800000E+00
  1.00800000E+00  1.60000000E+01  1.00800000E+00  1.00800000E+00  1.60000000E+01
  1.00800000E+00  1.00800000E+00  1.60000000E+01  1.00800000E+00  1.00800000E+00
  1.60000000E+01  1.00800000E+00  1.00800000E+00  1.60000000E+01  1.00800000E+00
  1.00800000E+00  1.60000000E+01  1.00800000E+00  1.00800000E+00  1.60000000E+01
  1.00800000E+00  1.00800000E+00  1.60000000E+01  1.00800000E+00  1.00800000E+00
  1.60000000E+01  1.00800000E+00  1.00800000E+00  1.60000000E+01  1.00800000E+00
  1.00800000E+00  1.60000000E+01  1.00800000E+00  1.00800000E+00  1.60000000E+01
  1.00800000E+00  1.00800000E+00  1.60000000E+01  1.00800000E+00  1.00800000E+00
  1.60000000E+01  1.00800000E+00  1.00800000E+00  1.60000000E+01  1.00800000E+00
  1.00800000E+00  1.60000000E+01  1.00800000E+00  1.00800000E+00  1.60000000E+01
  1.00800000E+00  1.00800000E+00  1.60000000E+01  1.00800000E+00  1.00800000E+00
  1.60000000E+01  1.00800000E+00  1.00800000E+00  1.60000000E+01  1.00800000E+00
  1.00800000E+00  1.60000000E+01  1.00800000E+00  1.00800000E+00  1.60000000E+01
  1.00800000E+00  1.00800000E+00  1.60000000E+01  1.00800000E+00  1.00800000E+00
  1.60000000E+01  1.00800000E+00  1.00800000E+00  1.60000000E+01  1.00800000E+00
  1.00800000E+00  1.60000000E+01  1.00800000E+00  1.00800000E+00  1.60000000E+01
  1.00800000E+00  1.00800000E+00  1.60000000E+01  1.00800000E+00  1.00800000E+00
  1.60000000E+01  1.00800000E+00  1.00800000E+00  1.60000000E+01  1.00800000E+00
  1.00800000E+00  1.60000000E+01  1.00800000E+00  1.00800000E+00  1.60000000E+01
  1.00800000E+00  1.00800000E+00  1.60000000E+01  1.00800000E+00  1.00800000E+00
  1.60000000E+01  1.00800000E+00  1.00800000E+00  1.60000000E+01  1.00800000E+00
  1.00800000E+00  1.60000000E+01  1.00800000E+00  1.00800000E+00  1.60000000E+01
  1.00800000E+00  1.00800000E+00  1.60000000E+01  1.00800000E+00  1.00800000E+00
  1.60000000E+01  1.00800000E+00  1.00800000E+00  1.60000000E+01  1.00800000E+00
  1.00800000E+00  1.60000000E+01  1.00800000E+00  1.00800000E+00  1.60000000E+01
  1.00800000E+00  1.00800000E+00  1.60000000E+01  1.00800000E+00  1.00800000E+00
  1.60000000E+01  1.00800000E+00  1.00800000E+00  1.60000000E+01  1.00800000E+00
  1.00800000E+00  1.60000000E+01  1.00800000E+00  1.00800000E+00  1.60000000E+01
  1.00800000E+00  1.00800000E+00  1.60000000E+01  1.00800000E+00  1.00800000E+00
  1.60000000E+01  1.00800000E+00  1.00800000E+00  1.60000000E+01  1.00800000E+00
  1.00800000E+00  1.60000000E+01  1.00800000E+00  1.00800000E+00  1.60000000E+01
  1.00800000E+00  1.00800000E+00  1.60000000E+01  1.00800000E+00  1.00800000E+00
  1.60000000E+01  1.00800000E+00  1.00800000E+00  1.60000000E+01  1.00800000E+00
  1.00800000E+00  1.60000000E+01  1.00800000E+00  1.00800000E+00  1.60000000E+01
  1.00800000E+00  1.00800000E+00  1.60000000E+01  1.00800000E+00  1.00800000E+00
  1.60000000E+01  1.00800000E+00  1.00800000E+00  1.60000000E+01  1.00800000E+00
  1.00800000E+00  1.60000000E+01  1.00800000E+00  1.00800000E+00  1.60000000E+01
  1.00800000E+00  1.00800000E+00  1.60000000E+01  1.00800000E+00  1.00800000E+00
  1.60000000E+01  1.00800000E+00  1.00800000E+00  1.60000000E+01  1.00800000E+00
  1.00800000E+00  1.60000000E+01  1.00800000E+00  1.00800000E+00  1.60000000E+01
  1.00800000E+00  1.00800000E+00  1.60000000E+01  1.00800000E+00  1.00800000E+00
  1.60000000E+01  1.00800000E+00  1.00800000E+00  1.60000000E+01  1.00800000E+00
  1.00800000E+00  1.60000000E+01  1.00800000E+00  1.00800000E+00  1.60000000E+01
  1.00800000E+00  1.00800000E+00  1.60000000E+01  1.00800000E+00  1.00800000E+00
  1.60000000E+01  1.00800000E+00  1.00800000E+00  1.60000000E+01  1.00800000E+00
  1.00800000E+00  1.60000000E+01  1.00800000E+00  1.00800000E+00  1.60000000E+01
  1.00800000E+00  1.00800000E+00  1.60000000E+01  1.00800000E+00  1.00800000E+00
  1.60000000E+01  1.00800000E+00  1.00800000E+00  1.60000000E+01  1.00800000E+00
  1.00800000E+00  1.60000000E+01  1.00800000E+00  1.00800000E+00  1.60000000E+01
  1.00800000E+00  1.00800000E+00  1.60000000E+01  1.00800000E+00  1.00800000E+00
  1.60000000E+01  1.00800000E+00  1.00800000E+00  1.60000000E+01  1.00800000E+00
  1.00800000E+00  1.60000000E+01  1.00800000E+00  1.00800000E+00  1.60000000E+01
  1.00800000E+00  1.00800000E+00  1.60000000E+01  1.00800000E+00  1.00800000E+00
  1.60000000E+01  1.00800000E+00  1.00800000E+00  1.60000000E+01  1.00800000E+00
  1.00800000E+00  1.60000000E+01  1.00800000E+00  1.00800000E+00  1.60000000E+01
  1.00800000E+00  1.00800000E+00  1.60000000E+01  1.00800000E+00  1.00800000E+00
  1.60000000E+01  1.00800000E+00  1.00800000E+00  1.60000000E+01  1.00800000E+00
  1.00800000E+00  1.60000000E+01  1.00800000E+00  1.00800000E+00  1.60000000E+01
  1.00800000E+00  1.00800000E+00  1.60000000E+01  1.00800000E+00  1.00800000E+00
  1.60000000E+01  1.00800000E+00  1.00800000E+00  1.60000000E+01  1.00800000E+00
  1.00800000E+00  1.60000000E+01  1.00800000E+00  1.00800000E+00  1.60000000E+01
  1.00800000E+00  1.00800000E+00  1.60000000E+01  1.00800000E+00  1.00800000E+00
  1.60000000E+01  1.00800000E+00  1.00800000E+00  1.60000000E+01  1.00800000E+00
  1.00800000E+00  1.60000000E+01  1.00800000E+00  1.00800000E+00  1.60000000E+01
  1.00800000E+00  1.00800000E+00  1.60000000E+01  1.00800000E+00  1.00800000E+00
  1.60000000E+01  1.00800000E+00  1.00800000E+00  1.60000000E+01  1.00800000E+00
  1.00800000E+00  1.60000000E+01  1.00800000E+00  1.00800000E+00  1.60000000E+01
  1.00800000E+00  1.00800000E+00  1.60000000E+01  1.00800000E+00  1.00800000E+00
  1.60000000E+01  1.00800000E+00  1.00800000E+00  1.60000000E+01  1.00800000E+00
  1.00800000E+00  1.60000000E+01  1.00800000E+00  1.00800000E+00  1.60000000E+01
  1.00800000E+00  1.00800000E+00  1.60000000E+01  1.00800000E+00  1.00800000E+00
  1.60000000E+01  1.00800000E+00  1.00800000E+00  1.60000000E+01  1.00800000E+00
  1.00800000E+00  1.60000000E+01  1.00800000E+00  1.00800000E+00  1.60000000E+01
  1.00800000E+00  1.00800000E+00  1.60000000E+01  1.00800000E+00  1.00800000E+00
  1.60000000E+01  1.00800000E+00  1.00800000E+00  1.60000000E+01  1.00800000E+00
  1.00800000E+00  1.60000000E+01  1.00800000E+00  1.00800000E+00  1.60000000E+01
  1.00800000E+00  1.00800000E+00  1.60000000E+01  1.00800000E+00  1.00800000E+00
  1.60000000E+01  1.00800000E+00  1.00800000E+00  1.60000000E+01  1.00800000E+00
  1.00800000E+00  1.60000000E+01  1.00800000E+00  1.00800000E+00  1.60000000E+01
  1.00800000E+00  1.00800000E+00  1.60000000E+01  1.00800000E+00  1.00800000E+00
  1.60000000E+01  1.00800000E+00  1.00800000E+00  1.60000000E+01  1.00800000E+00
  1.00800000E+00  1.60000000E+01  1.00800000E+00  1.00800000E+00  1.60000000E+01
  1.00800000E+00  1.00800000E+00  1.60000000E+01  1.00800000E+00  1.00800000E+00
  1.60000000E+01  1.00800000E+00  1.00800000E+00  1.60000000E+01  1.00800000E+00
  1.00800000E+00  1.60000000E+01  1.00800000E+00  1.00800000E+00  1.60000000E+01
  1.00800000E+00  1.00800000E+00  1.60000000E+01  1.00800000E+00  1.00800000E+00
  1.60000000E+01  1.00800000E+00  1.00800000E+00  1.60000000E+01  1.00800000E+00
  1.00800000E+00  1.60000000E+01  1.00800000E+00  1.00800000E+00  1.60000000E+01
  1.00800000E+00  1.00800000E+00  1.60000000E+01  1.00800000E+00  1.00800000E+00
  1.60000000E+01  1.00800000E+00  1.00800000E+00  1.60000000E+01  1.00800000E+00
  1.00800000E+00  1.60000000E+01  1.00800000E+00  1.00800000E+00  1.60000000E+01
  1.00800000E+00  1.00800000E+00  1.60000000E+01  1.00800000E+00  1.00800000E+00
  1.60000000E+01  1.00800000E+00  1.00800000E+00  1.60000000E+01  1.00800000E+00
  1.00800000E+00  1.60000000E+01  1.00800000E+00  1.00800000E+00  1.60000000E+01
  1.00800000E+00  1.00800000E+00  1.60000000E+01  1.00800000E+00  1.00800000E+00
  1.60000000E+01  1.00800000E+00  1.00800000E+00  1.60000000E+01  1.00800000E+00
  1.00800000E+00  1.60000000E+01  1.00800000E+00  1.00800000E+00  1.60000000E+01
  1.00800000E+00  1.00800000E+00  1.60000000E+01  1.00800000E+00  1.00800000E+00
  1.60000000E+01  1.00800000E+00  1.00800000E+00  1.60000000E+01  1.00800000E+00
  1.00800000E+00  1.60000000E+01  1.00800000E+00  1.00800000E+00  1.60000000E+01
  1.00800000E+00  1.00800000E+00  1.60000000E+01  1.00800000E+00  1.00800000E+00
  1.60000000E+01  1.00800000E+00  1.00800000E+00  1.60000000E+01  1.00800000E+00
  1.00800000E+00  1.60000000E+01  1.00800000E+00  1.00800000E+00  1.60000000E+01
  1.00800000E+00  1.00800000E+00  1.60000000E+01  1.00800000E+00  1.00800000E+00
  1.60000000E+01  1.00800000E+00  1.00800000E+00  1.60000000E+01  1.00800000E+00
  1.00800000E+00  1.60000000E+01  1.00800000E+00  1.00800000E+00  1.60000000E+01
  1.00800000E+00  1.00800000E+00  1.60000000E+01  1.00800000E+00  1.00800000E+00
  1.60000000E+01  1.00800000E+00  1.00800000E+00  1.60000000E+01  1.00800000E+00
  1.00800000E+00  1.60000000E+01  1.00800000E+00  1.00800000E+00  1.60000000E+01
  1.00800000E+00  1.00800000E+00  1.60000000E+01  1.00800000E+00  1.00800000E+00
  1.60000000E+01  1.00800000E+00  1.00800000E+00  1.60000000E+01  1.00800000E+00
  1.00800000E+00  1.60000000E+01  1.00800000E+00  1.00800000E+00  1.60000000E+01
  1.00800000E+00  1.00800000E+00  1.60000000E+01  1.00800000E+00  1.00800000E+00
  1.60000000E+01  1.00800000E+00  1.00800000E+00  1.60000000E+01  1.00800000E+00
  1.00800000E+00  1.60000000E+01  1.00800000E+00  1.00800000E+00  1.60000000E+01
  1.00800000E+00  1.00800000E+00  1.60000000E+01  1.00800000E+00  1.00800000E+00
  1.60000000E+01  1.00800000E+00  1.00800000E+00  1.60000000E+01  1.00800000E+00
  1.00800000E+00  1.60000000E+01  1.00800000E+00  1.00800000E+00  1.60000000E+01
  1.00800000E+00  1.00800000E+00  1.60000000E+01  1.00800000E+00  1.00800000E+00
  1.60000000E+01  1.00800000E+00  1.00800000E+00  1.60000000E+01  1.00800000E+00
  1.00800000E+00  1.60000000E+01  1.00800000E+00  1.00800000E+00  1.60000000E+01
  1.00800000E+00  1.00800000E+00  1.60000000E+01  1.00800000E+00  1.00800000E+00
  1.60000000E+01  1.00800000E+00  1.00800000E+00  1.60000000E+01  1.00800000E+00
  1.00800000E+00  1.60000000E+01  1.00800000E+00  1.00800000E+00  1.60000000E+01
  1.00800000E+00  1.00800000E+00  1.60000000E+01  1.00800000E+00  1.00800000E+00
  1.60000000E+01  1.00800000E+00  1.00800000E+00  1.60000000E+01  1.00800000E+00
  1.00800000E+00  1.60000000E+01  1.00800000E+00  1.00800000E+00  1.60000000E+01
  1.00800000E+00  1.00800000E+00  1.60000000E+01  1.00800000E+00  1.00800000E+00
  1.60000000E+01  1.00800000E+00  1.00800000E+00  1.60000000E+01  1.00800000E+00
  1.00800000E+00  1.60000000E+01  1.00800000E+00  1.00800000E+00  1.60000000E+01
  1.00800000E+00  1.00800000E+00  1.60000000E+01  1.00800000E+00  1.00800000E+00
  1.60000000E+01  1.00800000E+00  1.00800000E+00  1.60000000E+01  1.00800000E+00
  1.00800000E+00  1.60000000E+01  1.00800000E+00  1.00800000E+00  1.60000000E+01
  1.00800000E+00  1.00800000E+00  1.60000000E+01  1.00800000E+00  1.00800000E+00
  1.60000000E+01  1.00800000E+00  1.00800000E+00  1.60000000E+01  1.00800000E+00
  1.00800000E+00  1.60000000E+01  1.00800000E+00  1.00800000E+00  1.60000000E+01
  1.00800000E+00  1.00800000E+00  1.60000000E+01  1.00800000E+00  1.00800000E+00
  1.60000000E+01  1.00800000E+00  1.00800000E+00  1.60000000E+01  1.00800000E+00
  1.00800000E+00  1.60000000E+01  1.00800000E+00  1.00800000E+00  1.60000000E+01
  1.00800000E+00  1.00800000E+00  1.60000000E+01  1.00800000E+00  1.00800000E+00
  1.60000000E+01  1.00800000E+00  1.00800000E+00  1.60000000E+01  1.00800000E+00
  1.00800000E+00  1.60000000E+01  1.00800000E+00  1.00800000E+00  1.60000000E+01
  1.00800000E+00  1.00800000E+00  1.60000000E+01  1.00800000E+00  1.00800000E+00
  1.60000000E+01  1.00800000E+00  1.00800000E+00  1.60000000E+01  1.00800000E+00
  1.00800000E+00  1.60000000E+01  1.00800000E+00  1.00800000E+00  1.60000000E+01
  1.00800000E+00  1.00800000E+00  1.60000000E+01  1.00800000E+00  1.00800000E+00
  1.60000000E+01  1.00800000E+00  1.00800000E+00  1.60000000E+01  1.00800000E+00
  1.00800000E+00  1.60000000E+01  1.00800000E+00  1.00800000E+00  1.60000000E+01
  1.00800000E+00  1.00800000E+00  1.60000000E+01  1.00800000E+00  1.00800000E+00
  1.60000000E+01  1.00800000E+00  1.00800000E+00  1.60000000E+01  1.00800000E+00
  1.00800000E+00  1.60000000E+01  1.00800000E+00  1.00800000E+00  1.60000000E+01
  1.00800000E+00  1.00800000E+00  1.60000000E+01  1.00800000E+00  1.00800000E+00
  1.60000000E+01  1.00800000E+00  1.00800000E+00  1.60000000E+01  1.00800000E+00
  1.00800000E+00  1.60000000E+01  1.00800000E+00  1.00800000E+00  1.60000000E+01
  1.00800000E+00  1.00800000E+00  1.60000000E+01  1.00800000E+00  1.00800000E+00
  1.60000000E+01  1.00800000E+00  1.00800000E+00  1.60000000E+01  1.00800000E+00
  1.00800000E+00  1.60000000E+01  1.00800000E+00  1.00800000E+00  1.60000000E+01
  1.00800000E+00  1.00800000E+00  1.60000000E+01  1.00800000E+00  1.00800000E+00
  1.60000000E+01  1.00800000E+00  1.00800000E+00  1.60000000E+01  1.00800000E+00
  1.00800000E+00  1.60000000E+01  1.00800000E+00  1.00800000E+00  1.60000000E+01
  1.00800000E+00  1.00800000E+00  1.60000000E+01  1.00800000E+00  1.00800000E+00
  1.60000000E+01  1.00800000E+00  1.00800000E+00  1.60000000E+01  1.00800000E+00
  1.00800000E+00  1.60000000E+01  1.00800000E+00  1.00800000E+00  1.60000000E+01
  1.00800000E+00  1.00800000E+00  1.60000000E+01  1.00800000E+00  1.00800000E+00
  1.60000000E+01  1.00800000E+00  1.00800000E+00  1.60000000E+01  1.00800000E+00
  1.00800000E+00  1.60000000E+01  1.00800000E+00  1.00800000E+00  1.60000000E+01
  1.00800000E+00  1.00800000E+00  1.60000000E+01  1.00800000E+00  1.00800000E+00
  1.60000000E+01  1.00800000E+00  1.00800000E+00  1.60000000E+01  1.00800000E+00
  1.00800000E+00  1.60000000E+01  1.00800000E+00  1.00800000E+00  1.60000000E+01
  1.00800000E+00  1.00800000E+00  1.60000000E+01  1.00800000E+00  1.00800000E+00
  1.60000000E+01  1.00800000E+00  1.00800000E+00  1.60000000E+01  1.00800000E+00
  1.00800000E+00  1.60000000E+01  1.00800000E+00  1.00800000E+00  1.60000000E+01
  1.00800000E+00  1.00800000E+00  1.60000000E+01  1.00800000E+00  1.00800000E+00
  1.60000000E+01  1.00800000E+00  1.00800000E+00  1.60000000E+01  1.00800000E+00
  1.00800000E+00  1.60000000E+01  1.00800000E+00  1.00800000E+00  1.60000000E+01
  1.00800000E+00  1.00800000E+00  1.60000000E+01  1.00800000E+00  1.00800000E+00
  1.60000000E+01  1.00800000E+00  1.00800000E+00  1.60000000E+01  1.00800000E+00
  1.00800000E+00  1.60000000E+01  1.00800000E+00  1.00800000E+00  1.60000000E+01
  1.00800000E+00  1.00800000E+00  1.60000000E+01  1.00800000E+00  1.00800000E+00
  1.60000000E+01  1.00800000E+00  1.00800000E+00  1.60000000E+01  1.00800000E+00
  1.00800000E+00  1.60000000E+01  1.00800000E+00  1.00800000E+00  1.60000000E+01
  1.00800000E+00  1.00800000E+00  1.60000000E+01  1.00800000E+00  1.00800000E+00
  1.60000000E+01  1.00800000E+00  1.00800000E+00  1.60000000E+01  1.00800000E+00
  1.00800000E+00  1.60000000E+01  1.00800000E+00  1.00800000E+00  1.60000000E+01
  1.00800000E+00  1.00800000E+00  1.60000000E+01  1.00800000E+00  1.00800000E+00
  1.60000000E+01  1.00800000E+00  1.00800000E+00  1.60000000E+01  1.00800000E+00
  1.00800000E+00  1.60000000E+01  1.00800000E+00  1.00800000E+00  1.60000000E+01
  1.00800000E+00  1.00800000E+00  1.60000000E+01  1.00800000E+00  1.00800000E+00
  1.60000000E+01  1.00800000E+00  1.00800000E+00  1.60000000E+01  1.00800000E+00
  1.00800000E+00  1.60000000E+01  1.00800000E+00  1.00800000E+00  1.60000000E+01
  1.00800000E+00  1.00800000E+00  1.60000000E+01  1.00800000E+00  1.00800000E+00
  1.60000000E+01  1.00800000E+00  1.00800000E+00  1.60000000E+01  1.00800000E+00
  1.00800000E+00  1.60000000E+01  1.00800000E+00  1.00800000E+00  1.60000000E+01
  1.00800000E+00  1.00800000E+00  1.60000000E+01  1.00800000E+00  1.00800000E+00
  1.60000000E+01  1.00800000E+00  1.00800000E+00  1.60000000E+01  1.00800000E+00
  1.00800000E+00  1.60000000E+01  1.00800000E+00  1.00800000E+00  1.60000000E+01
  1.00800000E+00  1.00800000E+00  1.60000000E+01  1.00800000E+00  1.00800000E+00
  1.60000000E+01  1.00800000E+00  1.00800000E+00  1.60000000E+01  1.00800000E+00
  1.00800000E+00  1.60000000E+01  1.00800000E+00  1.00800000E+00  1.60000000E+01
  1.00800000E+00  1.00800000E+00  1.60000000E+01  1.00800000E+00  1.00800000E+00
  1.60000000E+01  1.00800000E+00  1.00800000E+00  1.60000000E+01  1.00800000E+00
  1.00800000E+00  1.60000000E+01  1.00800000E+00  1.00800000E+00  1.60000000E+01
  1.00800000E+00  1.00800000E+00  1.60000000E+01  1.00800000E+00  1.00800000E+00
  1.60000000E+01  1.00800000E+00  1.00800000E+00  1.60000000E+01  1.00800000E+00
  1.00800000E+00  1.60000000E+01  1.00800000E+00  1.00800000E+00  1.60000000E+01
  1.00800000E+00  1.00800000E+00  1.60000000E+01  1.00800000E+00  1.00800000E+00
  1.60000000E+01  1.00800000E+00  1.00800000E+00  1.60000000E+01  1.00800000E+00
  1.00800000E+00  1.60000000E+01  1.00800000E+00  1.00800000E+00  1.60000000E+01
  1.00800000E+00  1.00800000E+00  1.60000000E+01  1.00800000E+00  1.00800000E+00
  1.60000000E+01  1.00800000E+00  1.00800000E+00  1.60000000E+01  1.00800000E+00
  1.00800000E+00  1.60000000E+01  1.00800000E+00  1.00800000E+00  1.60000000E+01
  1.00800000E+00  1.00800000E+00  1.60000000E+01  1.00800000E+00  1.00800000E+00
  1.60000000E+01  1.00800000E+00  1.00800000E+00  1.60000000E+01  1.00800000E+00
  1.00800000E+00  1.60000000E+01  1.00800000E+00  1.00800000E+00  1.60000000E+01
  1.00800000E+00  1.00800000E+00  1.60000000E+01  1.00800000E+00  1.00800000E+00
  1.60000000E+01  1.00800000E+00  1.00800000E+00  1.60000000E+01  1.00800000E+00
  1.00800000E+00  1.60000000E+01  1.00800000E+00  1.00800000E+00  1.60000000E+01
  1.00800000E+00  1.00800000E+00  1.60000000E+01  1.00800000E+00  1.00800000E+00
  1.60000000E+01  1.00800000E+00  1.00800000E+00  1.60000000E+01  1.00800000E+00
  1.00800000E+00  1.60000000E+01  1.00800000E+00  1.00800000E+00  1.60000000E+01
  1.00800000E+00  1.00800000E+00  1.60000000E+01  1.00800000E+00  1.00800000E+00
  1.60000000E+01  1.00800000E+00  1.00800000E+00  1.60000000E+01  1.00800000E+00
  1.00800000E+00  1.60000000E+01  1.00800000E+00  1.00800000E+00  1.60000000E+01
  1.00800000E+00  1.00800000E+00  1.60000000E+01  1.00800000E+00  1.00800000E+00
  1.60000000E+01  1.00800000E+00  1.00800000E+00  1.60000000E+01  1.00800000E+00
  1.00800000E+00  1.60000000E+01  1.00800000E+00  1.00800000E+00  1.60000000E+01
  1.00800000E+00  1.00800000E+00  1.60000000E+01  1.00800000E+00  1.00800000E+00
  1.60000000E+01  1.00800000E+00  1.00800000E+00  1.60000000E+01  1.00800000E+00
  1.00800000E+00  1.60000000E+01  1.00800000E+00  1.00800000E+00  1.60000000E+01
  1.00800000E+00  1.00800000E+00  1.60000000E+01  1.00800000E+00  1.00800000E+00
  1.60000000E+01  1.00800000E+00  1.00800000E+00  1.60000000E+01  1.00800000E+00
  1.00800000E+00  1.60000000E+01  1.00800000E+00  1.00800000E+00  1.60000000E+01
  1.00800000E+00  1.00800000E+00  1.60000000E+01  1.00800000E+00  1.00800000E+00
  1.60000000E+01  1.00800000E+00  1.00800000E+00  1.60000000E+01  1.00800000E+00
  1.00800000E+00  1.60000000E+01  1.00800000E+00  1.00800000E+00  1.60000000E+01
  1.00800000E+00  1.00800000E+00  1.60000000E+01  1.00800000E+00  1.00800000E+00
  1.60000000E+01  1.00800000E+00  1.00800000E+00  1.60000000E+01  1.00800000E+00
  1.00800000E+00  1.60000000E+01  1.00800000E+00  1.00800000E+00  1.60000000E+01
  1.00800000E+00  1.00800000E+00  1.60000000E+01  1.00800000E+00  1.00800000E+00
  1.60000000E+01  1.00800000E+00  1.00800000E+00  1.60000000E+01  1.00800000E+00
  1.00800000E+00  1.60000000E+01  1.00800000E+00  1.00800000E+00  1.60000000E+01
  1.00800000E+00  1.00800000E+00  1.60000000E+01  1.00800000E+00  1.00800000E+00
  1.60000000E+01  1.00800000E+00  1.00800000E+00  1.60000000E+01  1.00800000E+00
  1.00800000E+00  1.60000000E+01  1.00800000E+00  1.00800000E+00  1.60000000E+01
  1.00800000E+00  1.00800000E+00  1.60000000E+01  1.00800000E+00  1.00800000E+00
  1.60000000E+01  1.00800000E+00  1.00800000E+00  1.60000000E+01  1.00800000E+00
  1.00800000E+00  1.60000000E+01  1.00800000E+00  1.00800000E+00  1.60000000E+01
  1.00800000E+00  1.00800000E+00  1.60000000E+01  1.00800000E+00  1.00800000E+00
  1.60000000E+01  1.00800000E+00  1.00800000E+00  1.60000000E+01  1.00800000E+00
  1.00800000E+00  1.60000000E+01  1.00800000E+00  1.00800000E+00  1.60000000E+01
  1.00800000E+00  1.00800000E+00  1.60000000E+01  1.00800000E+00  1.00800000E+00
  1.60000000E+01  1.00800000E+00  1.00800000E+00  1.60000000E+01  1.00800000E+00
  1.00800000E+00  1.60000000E+01  1.00800000E+00  1.00800000E+00  1.60000000E+01
  1.00800000E+00  1.00800000E+00  1.60000000E+01  1.00800000E+00  1.00800000E+00
  1.60000000E+01  1.00800000E+00  1.00800000E+00  1.60000000E+01  1.00800000E+00
  1.00800000E+00  1.60000000E+01  1.00800000E+00  1.00800000E+00  1.60000000E+01
  1.00800000E+00  1.00800000E+00  1.60000000E+01  1.00800000E+00  1.00800000E+00
  1.60000000E+01  1.00800000E+00  1.00800000E+00  1.60000000E+01  1.00800000E+00
  1.00800000E+00  1.60000000E+01  1.00800000E+00  1.00800000E+00  1.60000000E+01
  1.00800000E+00  1.00800000E+00  1.60000000E+01  1.00800000E+00  1.00800000E+00
  1.60000000E+01  1.00800000E+00  1.00800000E+00  1.60000000E+01  1.00800000E+00
  1.00800000E+00  1.60000000E+01  1.00800000E+00  1.00800000E+00  1.60000000E+01
  1.00800000E+00  1.00800000E+00  1.60000000E+01  1.00800000E+00  1.00800000E+00
  1.60000000E+01  1.00800000E+00  1.00800000E+00  1.60000000E+01  1.00800000E+00
  1.00800000E+00  1.60000000E+01  1.00800000E+00  1.00800000E+00  1.60000000E+01
  1.00800000E+00  1.00800000E+00  1.60000000E+01  1.00800000E+00  1.00800000E+00
  1.60000000E+01  1.00800000E+00  1.00800000E+00  1.60000000E+01  1.00800000E+00
  1.00800000E+00  1.60000000E+01  1.00800000E+00  1.00800000E+00  1.60000000E+01
  1.00800000E+00  1.00800000E+00  1.60000000E+01  1.00800000E+00  1.00800000E+00
  1.60000000E+01  1.00800000E+00  1.00800000E+00  1.60000000E+01  1.00800000E+00
  1.00800000E+00  1.60000000E+01  1.00800000E+00  1.00800000E+00  1.60000000E+01
  1.00800000E+00  1.00800000E+00  1.60000000E+01  1.00800000E+00  1.00800000E+00
  1.60000000E+01  1.00800000E+00  1.00800000E+00  1.60000000E+01  1.00800000E+00
  1.00800000E+00  1.60000000E+01  1.00800000E+00  1.00800000E+00  1.60000000E+01
  1.00800000E+00  1.00800000E+00  1.60000000E+01  1.00800000E+00  1.00800000E+00
  1.60000000E+01  1.00800000E+00  1.00800000E+00  1.60000000E+01  1.00800000E+00
  1.00800000E+00  1.60000000E+01  1.00800000E+00  1.00800000E+00  1.60000000E+01
  1.00800000E+00  1.00800000E+00  1.60000000E+01  1.00800000E+00  1.00800000E+00
  1.60000000E+01  1.00800000E+00  1.00800000E+00  1.60000000E+01  1.00800000E+00
  1.00800000E+00  1.60000000E+01  1.00800000E+00  1.00800000E+00  1.60000000E+01
  1.00800000E+00  1.00800000E+00  1.60000000E+01  1.00800000E+00  1.00800000E+00
  1.60000000E+01  1.00800000E+00  1.00800000E+00  1.60000000E+01  1.00800000E+00
  1.00800000E+00  1.60000000E+01  1.00800000E+00  1.00800000E+00  1.60000000E+01
  1.00800000E+00  1.00800000E+00  1.60000000E+01  1.00800000E+00  1.00800000E+00
  1.60000000E+01  1.00800000E+00  1.00800000E+00  1.60000000E+01  1.00800000E+00
  1.00800000E+00  1.60000000E+01  1.00800000E+00  1.00800000E+00  1.60000000E+01
  1.00800000E+00  1.00800000E+00  1.60000000E+01  1.00800000E+00  1.00800000E+00
  1.60000000E+01  1.00800000E+00  1.00800000E+00  1.60000000E+01  1.00800000E+00
  1.00800000E+00  1.60000000E+01  1.00800000E+00  1.00800000E+00  1.60000000E+01
  1.00800000E+00  1.00800000E+00  1.60000000E+01  1.00800000E+00  1.00800000E+00
  1.60000000E+01  1.00800000E+00  1.00800000E+00  1.60000000E+01  1.00800000E+00
  1.00800000E+00  1.60000000E+01  1.00800000E+00  1.00800000E+00  1.60000000E+01
  1.00800000E+00  1.00800000E+00  1.60000000E+01  1.00800000E+00  1.00800000E+00
  1.60000000E+01  1.00800000E+00  1.00800000E+00  1.60000000E+01  1.00800000E+00
  1.00800000E+00  1.60000000E+01  1.00800000E+00  1.00800000E+00  1.60000000E+01
  1.00800000E+00  1.00800000E+00  1.60000000E+01  1.00800000E+00  1.00800000E+00
  1.60000000E+01  1.00800000E+00  1.00800000E+00  1.60000000E+01  1.00800000E+00
  1.00800000E+00  1.60000000E+01  1.00800000E+00  1.00800000E+00  1.60000000E+01
  1.00800000E+00  1.00800000E+00  1.60000000E+01  1.00800000E+00  1.00800000E+00
  1.60000000E+01  1.00800000E+00  1.00800000E+00  1.60000000E+01  1.00800000E+00
  1.00800000E+00  1.60000000E+01  1.00800000E+00  1.00800000E+00  1.60000000E+01
  1.00800000E+00  1.00800000E+00  1.60000000E+01  1.00800000E+00  1.00800000E+00
  1.60000000E+01  1.00800000E+00  1.00800000E+00  1.60000000E+01  1.00800000E+00
  1.00800000E+00  1.60000000E+01  1.00800000E+00  1.00800000E+00  1.60000000E+01
  1.00800000E+00  1.00800000E+00  1.60000000E+01  1.00800000E+00  1.00800000E+00
  1.60000000E+01  1.00800000E+00  1.00800000E+00  1.60000000E+01  1.00800000E+00
  1.00800000E+00  1.60000000E+01  1.00800000E+00  1.00800000E+00  1.60000000E+01
  1.00800000E+00  1.00800000E+00  1.60000000E+01  1.00800000E+00  1.00800000E+00
  1.60000000E+01  1.00800000E+00  1.00800000E+00  1.60000000E+01  1.00800000E+00
  1.00800000E+00  1.60000000E+01  1.00800000E+00  1.00800000E+00  1.60000000E+01
  1.00800000E+00  1.00800000E+00  1.60000000E+01  1.00800000E+00  1.00800000E+00
  1.60000000E+01  1.00800000E+00  1.00800000E+00  1.60000000E+01  1.00800000E+00
  1.00800000E+00  1.60000000E+01  1.00800000E+00  1.00800000E+00  1.60000000E+01
  1.00800000E+00  1.00800000E+00  1.60000000E+01  1.00800000E+00  1.00800000E+00
  1.60000000E+01  1.00800000E+00  1.00800000E+00  1.60000000E+01  1.00800000E+00
  1.00800000E+00  1.60000000E+01  1.00800000E+00  1.00800000E+00  1.60000000E+01
  1.00800000E+00  1.00800000E+00  1.60000000E+01  1.00800000E+00  1.00800000E+00
  1.60000000E+01  1.00800000E+00  1.00800000E+00  1.60000000E+01  1.00800000E+00
  1.00800000E+00  1.60000000E+01  1.00800000E+00  1.00800000E+00  1.60000000E+01
  1.00800000E+00  1.00800000E+00  1.60000000E+01  1.00800000E+00  1.00800000E+00
  1.60000000E+01  1.00800000E+00  1.00800000E+00  1.60000000E+01  1.00800000E+00
  1.00800000E+00  1.60000000E+01  1.00800000E+00  1.00800000E+00  1.60000000E+01
  1.00800000E+00  1.00800000E+00  1.60000000E+01  1.00800000E+00  1.00800000E+00
  1.60000000E+01  1.00800000E+00  1.00800000E+00  1.60000000E+01  1.00800000E+00
  1.00800000E+00  1.60000000E+01  1.00800000E+00  1.00800000E+00  1.60000000E+01
  1.00800000E+00  1.00800000E+00  1.60000000E+01  1.00800000E+00  1.00800000E+00
  1.60000000E+01  1.00800000E+00  1.00800000E+00  1.60000000E+01  1.00800000E+00
  1.00800000E+00  1.60000000E+01  1.00800000E+00  1.00800000E+00  1.60000000E+01
  1.00800000E+00  1.00800000E+00  1.60000000E+01  1.00800000E+00  1.00800000E+00
  1.60000000E+01  1.00800000E+00  1.00800000E+00  1.60000000E+01  1.00800000E+00
  1.00800000E+00  1.60000000E+01  1.00800000E+00  1.00800000E+00  1.60000000E+01
  1.00800000E+00  1.00800000E+00  1.60000000E+01  1.00800000E+00  1.00800000E+00
  1.60000000E+01  1.00800000E+00  1.00800000E+00  1.60000000E+01  1.00800000E+00
  1.00800000E+00  1.60000000E+01  1.00800000E+00  1.00800000E+00  1.60000000E+01
  1.00800000E+00  1.00800000E+00  1.60000000E+01  1.00800000E+00  1.00800000E+00
  1.60000000E+01  1.00800000E+00  1.00800000E+00  1.60000000E+01  1.00800000E+00
  1.00800000E+00  1.60000000E+01  1.00800000E+00  1.00800000E+00  1.60000000E+01
  1.00800000E+00  1.00800000E+00  1.60000000E+01  1.00800000E+00  1.00800000E+00
  1.60000000E+01  1.00800000E+00  1.00800000E+00  1.60000000E+01  1.00800000E+00
  1.00800000E+00  1.60000000E+01  1.00800000E+00  1.00800000E+00  1.60000000E+01
  1.00800000E+00  1.00800000E+00  1.60000000E+01  1.00800000E+00  1.00800000E+00
  1.60000000E+01  1.00800000E+00  1.00800000E+00  1.60000000E+01  1.00800000E+00
  1.00800000E+00  1.60000000E+01  1.00800000E+00  1.00800000E+00  1.60000000E+01
  1.00800000E+00  1.00800000E+00  1.60000000E+01  1.00800000E+00  1.00800000E+00
  1.60000000E+01  1.00800000E+00  1.00800000E+00  1.60000000E+01  1.00800000E+00
  1.00800000E+00  1.60000000E+01  1.00800000E+00  1.00800000E+00  1.60000000E+01
  1.00800000E+00  1.00800000E+00  1.60000000E+01  1.00800000E+00  1.00800000E+00
  1.60000000E+01  1.00800000E+00  1.00800000E+00  1.60000000E+01  1.00800000E+00
  1.00800000E+00  1.60000000E+01  1.00800000E+00  1.00800000E+00  1.60000000E+01
  1.00800000E+00  1.00800000E+00  1.60000000E+01  1.00800000E+00  1.00800000E+00
  1.60000000E+01  1.00800000E+00  1.00800000E+00  1.60000000E+01  1.00800000E+00
  1.00800000E+00  1.60000000E+01  1.00800000E+00  1.00800000E+00  1.60000000E+01
  1.00800000E+00  1.00800000E+00  1.60000000E+01  1.00800000E+00  1.00800000E+00
  1.60000000E+01  1.00800000E+00  1.00800000E+00  1.60000000E+01  1.00800000E+00
  1.00800000E+00  1.60000000E+01  1.00800000E+00  1.00800000E+00  1.60000000E+01
  1.00800000E+00  1.00800000E+00  1.60000000E+01  1.00800000E+00  1.00800000E+00
  1.60000000E+01  1.00800000E+00  1.00800000E+00  1.60000000E+01  1.00800000E+00
  1.00800000E+00  1.60000000E+01  1.00800000E+00  1.00800000E+00  1.60000000E+01
  1.00800000E+00  1.00800000E+00  1.60000000E+01  1.00800000E+00  1.00800000E+00
  1.60000000E+01  1.00800000E+00  1.00800000E+00  1.60000000E+01  1.00800000E+00
  1.00800000E+00  1.60000000E+01  1.00800000E+00  1.00800000E+00  1.60000000E+01
  1.00800000E+00  1.00800000E+00  1.60000000E+01  1.00800000E+00  1.00800000E+00
  1.60000000E+01  1.00800000E+00  1.00800000E+00  1.60000000E+01  1.00800000E+00
  1.00800000E+00  1.60000000E+01  1.00800000E+00  1.00800000E+00  1.60000000E+01
  1.00800000E+00  1.00800000E+00  1.60000000E+01  1.00800000E+00  1.00800000E+00
  1.60000000E+01  1.00800000E+00  1.00800000E+00  1.60000000E+01  1.00800000E+00
  1.00800000E+00  1.60000000E+01  1.00800000E+00  1.00800000E+00  1.60000000E+01
  1.00800000E+00  1.00800000E+00  1.60000000E+01  1.00800000E+00  1.00800000E+00
  1.60000000E+01  1.00800000E+00  1.00800000E+00  1.60000000E+01  1.00800000E+00
  1.00800000E+00  1.60000000E+01  1.00800000E+00  1.00800000E+00  1.60000000E+01
  1.00800000E+00  1.00800000E+00  1.60000000E+01  1.00800000E+00  1.00800000E+00
  1.60000000E+01  1.00800000E+00  1.00800000E+00  1.60000000E+01  1.00800000E+00
  1.00800000E+00  1.60000000E+01  1.00800000E+00  1.00800000E+00  1.60000000E+01
  1.00800000E+00  1.00800000E+00  1.60000000E+01  1.00800000E+00  1.00800000E+00
  1.60000000E+01  1.00800000E+00  1.00800000E+00  1.60000000E+01  1.00800000E+00
  1.00800000E+00  1.60000000E+01  1.00800000E+00  1.00800000E+00  1.60000000E+01
  1.00800000E+00  1.00800000E+00  1.60000000E+01  1.00800000E+00  1.00800000E+00
  1.60000000E+01  1.00800000E+00  1.00800000E+00  1.60000000E+01  1.00800000E+00
  1.00800000E+00  1.60000000E+01  1.00800000E+00  1.00800000E+00  1.60000000E+01
  1.00800000E+00  1.00800000E+00  1.60000000E+01  1.00800000E+00  1.00800000E+00
  1.60000000E+01  1.00800000E+00  1.00800000E+00  1.60000000E+01  1.00800000E+00
  1.00800000E+00  1.60000000E+01  1.00800000E+00  1.00800000E+00  1.60000000E+01
  1.00800000E+00  1.00800000E+00  1.60000000E+01  1.00800000E+00  1.00800000E+00
  1.60000000E+01  1.00800000E+00  1.00800000E+00  1.60000000E+01  1.00800000E+00
  1.00800000E+00  1.60000000E+01  1.00800000E+00  1.00800000E+00  1.60000000E+01
  1.00800000E+00  1.00800000E+00  1.60000000E+01  1.00800000E+00  1.00800000E+00
  1.60000000E+01  1.00800000E+00  1.00800000E+00  1.60000000E+01  1.00800000E+00
  1.00800000E+00  1.60000000E+01  1.00800000E+00  1.00800000E+00  1.60000000E+01
  1.00800000E+00  1.00800000E+00  1.60000000E+01  1.00800000E+00  1.00800000E+00
  1.60000000E+01  1.00800000E+00  1.00800000E+00  1.60000000E+01  1.00800000E+00
  1.00800000E+00  1.60000000E+01  1.00800000E+00  1.00800000E+00  1.60000000E+01
  1.00800000E+00  1.00800000E+00  1.60000000E+01  1.00800000E+00  1.00800000E+00
  1.60000000E+01  1.00800000E+00  1.00800000E+00  1.60000000E+01  1.00800000E+00
  1.00800000E+00  1.60000000E+01  1.00800000E+00  1.00800000E+00  1.60000000E+01
  1.00800000E+00  1.00800000E+00  1.60000000E+01  1.00800000E+00  1.00800000E+00
  1.60000000E+01  1.00800000E+00  1.00800000E+00  1.60000000E+01  1.00800000E+00
  1.00800000E+00  1.60000000E+01  1.00800000E+00  1.00800000E+00  1.60000000E+01
  1.00800000E+00  1.00800000E+00  1.60000000E+01  1.00800000E+00  1.00800000E+00
  1.60000000E+01  1.00800000E+00  1.00800000E+00  1.60000000E+01  1.00800000E+00
  1.00800000E+00  1.60000000E+01  1.00800000E+00  1.00800000E+00  1.60000000E+01
  1.00800000E+00  1.00800000E+00  1.60000000E+01  1.00800000E+00  1.00800000E+00
  1.60000000E+01  1.00800000E+00  1.00800000E+00  1.60000000E+01  1.00800000E+00
  1.00800000E+00  1.60000000E+01  1.00800000E+00  1.00800000E+00  1.60000000E+01
  1.00800000E+00  1.00800000E+00  1.60000000E+01  1.00800000E+00  1.00800000E+00
  1.60000000E+01  1.00800000E+00  1.00800000E+00  1.60000000E+01  1.00800000E+00
  1.00800000E+00  1.60000000E+01  1.00800000E+00  1.00800000E+00  1.60000000E+01
  1.00800000E+00  1.00800000E+00  1.60000000E+01  1.00800000E+00  1.00800000E+00
  1.60000000E+01  1.00800000E+00  1.00800000E+00  1.60000000E+01  1.00800000E+00
  1.00800000E+00  1.60000000E+01  1.00800000E+00  1.00800000E+00  1.60000000E+01
  1.00800000E+00  1.00800000E+00  1.60000000E+01  1.00800000E+00  1.00800000E+00
  1.60000000E+01  1.00800000E+00  1.00800000E+00  1.60000000E+01  1.00800000E+00
  1.00800000E+00  1.60000000E+01  1.00800000E+00  1.00800000E+00  1.60000000E+01
  1.00800000E+00  1.00800000E+00  1.60000000E+01  1.00800000E+00  1.00800000E+00
  1.60000000E+01  1.00800000E+00  1.00800000E+00  1.60000000E+01  1.00800000E+00
  1.00800000E+00  1.60000000E+01  1.00800000E+00  1.00800000E+00  1.60000000E+01
  1.00800000E+00  1.00800000E+00  1.60000000E+01  1.00800000E+00  1.00800000E+00
  1.60000000E+01  1.00800000E+00  1.00800000E+00  1.60000000E+01  1.00800000E+00
  1.00800000E+00  1.60000000E+01  1.00800000E+00  1.00800000E+00  1.60000000E+01
  1.00800000E+00  1.00800000E+00  1.60000000E+01  1.00800000E+00  1.00800000E+00
  1.60000000E+01  1.00800000E+00  1.00800000E+00  1.60000000E+01  1.00800000E+00
  1.00800000E+00  1.60000000E+01  1.00800000E+00  1.00800000E+00  1.60000000E+01
  1.00800000E+00  1.00800000E+00  1.60000000E+01  1.00800000E+00  1.00800000E+00
  1.60000000E+01  1.00800000E+00  1.00800000E+00  1.60000000E+01  1.00800000E+00
  1.00800000E+00  1.60000000E+01  1.00800000E+00  1.00800000E+00  1.60000000E+01
  1.00800000E+00  1.00800000E+00  1.60000000E+01  1.00800000E+00  1.00800000E+00
  1.60000000E+01  1.00800000E+00  1.00800000E+00  1.60000000E+01  1.00800000E+00
  1.00800000E+00  1.60000000E+01  1.00800000E+00  1.00800000E+00  1.60000000E+01
  1.00800000E+00  1.00800000E+00  1.60000000E+01  1.00800000E+00  1.00800000E+00
  1.60000000E+01  1.00800000E+00  1.00800000E+00  1.60000000E+01  1.00800000E+00
  1.00800000E+00  1.60000000E+01  1.00800000E+00  1.00800000E+00  1.60000000E+01
  1.00800000E+00  1.00800000E+00  1.60000000E+01  1.00800000E+00  1.00800000E+00
  1.60000000E+01  1.00800000E+00  1.00800000E+00  1.60000000E+01  1.00800000E+00
  1.00800000E+00  1.60000000E+01  1.00800000E+00  1.00800000E+00  1.60000000E+01
  1.00800000E+00  1.00800000E+00  1.60000000E+01  1.00800000E+00  1.00800000E+00
  1.60000000E+01  1.00800000E+00  1.00800000E+00  1.60000000E+01  1.00800000E+00
  1.00800000E+00  1.60000000E+01  1.00800000E+00  1.00800000E+00  1.60000000E+01
  1.00800000E+00  1.00800000E+00  1.60000000E+01  1.00800000E+00  1.00800000E+00
  1.60000000E+01  1.00800000E+00  1.00800000E+00  1.60000000E+01  1.00800000E+00
  1.00800000E+00  1.60000000E+01  1.00800000E+00  1.00800000E+00  1.60000000E+01
  1.00800000E+00  1.00800000E+00  1.60000000E+01  1.00800000E+00  1.00800000E+00
  1.60000000E+01  1.00800000E+00  1.00800000E+00  1.60000000E+01  1.00800000E+00
  1.00800000E+00  1.60000000E+01  1.00800000E+00  1.00800000E+00  1.60000000E+01
  1.00800000E+00  1.00800000E+00  1.60000000E+01  1.00800000E+00  1.00800000E+00
  1.60000000E+01  1.00800000E+00  1.00800000E+00  1.60000000E+01  1.00800000E+00
  1.00800000E+00  1.60000000E+01  1.00800000E+00  1.00800000E+00  1.60000000E+01
  1.00800000E+00  1.00800000E+00  1.60000000E+01  1.00800000E+00  1.00800000E+00
  1.60000000E+01  1.00800000E+00  1.00800000E+00  1.60000000E+01  1.00800000E+00
  1.00800000E+00  1.60000000E+01  1.00800000E+00  1.00800000E+00  1.60000000E+01
  1.00800000E+00  1.00800000E+00  1.60000000E+01  1.00800000E+00  1.00800000E+00
  1.60000000E+01  1.00800000E+00  1.00800000E+00  1.60000000E+01  1.00800000E+00
  1.00800000E+00  1.60000000E+01  1.00800000E+00  1.00800000E+00  1.60000000E+01
  1.00800000E+00  1.00800000E+00  1.60000000E+01  1.00800000E+00  1.00800000E+00
  1.60000000E+01  1.00800000E+00  1.00800000E+00  1.60000000E+01  1.00800000E+00
  1.00800000E+00  1.60000000E+01  1.00800000E+00  1.00800000E+00  1.60000000E+01
  1.00800000E+00  1.00800000E+00  1.60000000E+01  1.00800000E+00  1.00800000E+00
  1.60000000E+01  1.00800000E+00  1.00800000E+00  1.60000000E+01  1.00800000E+00
  1.00800000E+00  1.60000000E+01  1.00800000E+00  1.00800000E+00  1.60000000E+01
  1.00800000E+00  1.00800000E+00  1.60000000E+01  1.00800000E+00  1.00800000E+00
  1.60000000E+01  1.00800000E+00  1.00800000E+00  1.60000000E+01  1.00800000E+00
  1.00800000E+00  1.60000000E+01  1.00800000E+00  1.00800000E+00  1.60000000E+01
  1.00800000E+00  1.00800000E+00  1.60000000E+01  1.00800000E+00  1.00800000E+00
  1.60000000E+01  1.00800000E+00  1.00800000E+00  1.60000000E+01  1.00800000E+00
  1.00800000E+00  1.60000000E+01  1.00800000E+00  1.00800000E+00  1.60000000E+01
  1.00800000E+00  1.00800000E+00  1.60000000E+01  1.00800000E+00  1.00800000E+00
  1.60000000E+01  1.00800000E+00  1.00800000E+00  1.60000000E+01  1.00800000E+00
  1.00800000E+00  1.60000000E+01  1.00800000E+00  1.00800000E+00  1.60000000E+01
  1.00800000E+00  1.00800000E+00  1.60000000E+01  1.00800000E+00  1.00800000E+00
  1.60000000E+01  1.00800000E+00  1.00800000E+00  1.60000000E+01  1.00800000E+00
  1.00800000E+00  1.60000000E+01  1.00800000E+00  1.00800000E+00  1.60000000E+01
  1.00800000E+00  1.00800000E+00  1.60000000E+01  1.00800000E+00  1.00800000E+00
  1.60000000E+01  1.00800000E+00  1.00800000E+00  1.60000000E+01  1.00800000E+00
  1.00800000E+00  1.60000000E+01  1.00800000E+00  1.00800000E+00  1.60000000E+01
  1.00800000E+00  1.00800000E+00  1.60000000E+01  1.00800000E+00  1.00800000E+00
  1.60000000E+01  1.00800000E+00  1.00800000E+00  1.60000000E+01  1.00800000E+00
  1.00800000E+00  1.60000000E+01  1.00800000E+00  1.00800000E+00  1.60000000E+01
  1.00800000E+00  1.00800000E+00  1.60000000E+01  1.00800000E+00  1.00800000E+00
  1.60000000E+01  1.00800000E+00  1.00800000E+00  1.60000000E+01  1.00800000E+00
  1.00800000E+00  1.60000000E+01  1.00800000E+00  1.00800000E+00  1.60000000E+01
  1.00800000E+00  1.00800000E+00  1.60000000E+01  1.00800000E+00  1.00800000E+00
  1.60000000E+01  1.00800000E+00  1.00800000E+00  1.60000000E+01  1.00800000E+00
  1.00800000E+00  1.60000000E+01  1.00800000E+00  1.00800000E+00  1.60000000E+01
  1.00800000E+00  1.00800000E+00  1.60000000E+01  1.00800000E+00  1.00800000E+00
  1.60000000E+01  1.00800000E+00  1.00800000E+00  1.60000000E+01  1.00800000E+00
  1.00800000E+00  1.60000000E+01  1.00800000E+00  1.00800000E+00  1.60000000E+01
  1.00800000E+00  1.00800000E+00  1.60000000E+01  1.00800000E+00  1.00800000E+00
  1.60000000E+01  1.00800000E+00  1.00800000E+00  1.60000000E+01  1.00800000E+00
  1.00800000E+00  1.60000000E+01  1.00800000E+00  1.00800000E+00  1.60000000E+01
  1.00800000E+00  1.00800000E+00  1.60000000E+01  1.00800000E+00  1.00800000E+00
  1.60000000E+01  1.00800000E+00  1.00800000E+00  1.60000000E+01  1.00800000E+00
  1.00800000E+00  1.60000000E+01  1.00800000E+00  1.00800000E+00  1.60000000E+01
  1.00800000E+00  1.00800000E+00  1.60000000E+01  1.00800000E+00  1.00800000E+00
  1.60000000E+01  1.00800000E+00  1.00800000E+00  1.60000000E+01  1.00800000E+00
  1.00800000E+00  1.60000000E+01  1.00800000E+00  1.00800000E+00  1.60000000E+01
  1.00800000E+00  1.00800000E+00  1.60000000E+01  1.00800000E+00  1.00800000E+00
  1.60000000E+01  1.00800000E+00  1.00800000E+00  1.60000000E+01  1.00800000E+00
  1.00800000E+00  1.60000000E+01  1.00800000E+00  1.00800000E+00  1.60000000E+01
  1.00800000E+00  1.00800000E+00  1.60000000E+01  1.00800000E+00  1.00800000E+00
  1.60000000E+01  1.00800000E+00  1.00800000E+00  1.60000000E+01  1.00800000E+00
  1.00800000E+00  1.60000000E+01  1.00800000E+00  1.00800000E+00  1.60000000E+01
  1.00800000E+00  1.00800000E+00  1.60000000E+01  1.00800000E+00  1.00800000E+00
  1.60000000E+01  1.00800000E+00  1.00800000E+00  1.60000000E+01  1.00800000E+00
  1.00800000E+00  1.60000000E+01  1.00800000E+00  1.00800000E+00  1.60000000E+01
  1.00800000E+00  1.00800000E+00  1.60000000E+01  1.00800000E+00  1.00800000E+00
  1.60000000E+01  1.00800000E+00  1.00800000E+00  1.60000000E+01  1.00800000E+00
  1.00800000E+00  1.60000000E+01  1.00800000E+00  1.00800000E+00  1.60000000E+01
  1.00800000E+00  1.00800000E+00  1.60000000E+01  1.00800000E+00  1.00800000E+00
  1.60000000E+01  1.00800000E+00  1.00800000E+00  1.60000000E+01  1.00800000E+00
  1.00800000E+00  1.60000000E+01  1.00800000E+00  1.00800000E+00  1.60000000E+01
  1.00800000E+00  1.00800000E+00  1.60000000E+01  1.00800000E+00  1.00800000E+00
  1.60000000E+01  1.00800000E+00  1.00800000E+00  1.60000000E+01  1.00800000E+00
  1.00800000E+00  1.60000000E+01  1.00800000E+00  1.00800000E+00  1.60000000E+01
  1.00800000E+00  1.00800000E+00  1.60000000E+01  1.00800000E+00  1.00800000E+00
  1.60000000E+01  1.00800000E+00  1.00800000E+00  1.60000000E+01  1.00800000E+00
  1.00800000E+00  1.60000000E+01  1.00800000E+00  1.00800000E+00  1.60000000E+01
  1.00800000E+00  1.00800000E+00  1.60000000E+01  1.00800000E+00  1.00800000E+00
  1.60000000E+01  1.00800000E+00  1.00800000E+00  1.60000000E+01  1.00800000E+00
  1.00800000E+00  1.60000000E+01  1.00800000E+00  1.00800000E+00  1.60000000E+01
  1.00800000E+00  1.00800000E+00  1.60000000E+01  1.00800000E+00  1.00800000E+00
  1.60000000E+01  1.00800000E+00  1.00800000E+00  1.60000000E+01  1.00800000E+00
  1.00800000E+00  1.60000000E+01  1.00800000E+00  1.00800000E+00  1.60000000E+01
  1.00800000E+00  1.00800000E+00  1.60000000E+01  1.00800000E+00  1.00800000E+00
  1.60000000E+01  1.00800000E+00  1.00800000E+00  1.60000000E+01  1.00800000E+00
  1.00800000E+00  1.60000000E+01  1.00800000E+00  1.00800000E+00  1.60000000E+01
  1.00800000E+00  1.00800000E+00  1.60000000E+01  1.00800000E+00  1.00800000E+00
  1.60000000E+01  1.00800000E+00  1.00800000E+00  1.60000000E+01  1.00800000E+00
  1.00800000E+00  1.60000000E+01  1.00800000E+00  1.00800000E+00  1.60000000E+01
  1.00800000E+00  1.00800000E+00  1.60000000E+01  1.00800000E+00  1.00800000E+00
  1.60000000E+01  1.00800000E+00  1.00800000E+00  1.60000000E+01  1.00800000E+00
  1.00800000E+00  1.60000000E+01  1.00800000E+00  1.00800000E+00  1.60000000E+01
  1.00800000E+00  1.00800000E+00  1.60000000E+01  1.00800000E+00  1.00800000E+00
  1.60000000E+01  1.00800000E+00  1.00800000E+00  1.60000000E+01  1.00800000E+00
  1.00800000E+00  1.60000000E+01  1.00800000E+00  1.00800000E+00  1.60000000E+01
  1.00800000E+00  1.00800000E+00  1.60000000E+01  1.00800000E+00  1.00800000E+00
  1.60000000E+01  1.00800000E+00  1.00800000E+00  1.60000000E+01  1.00800000E+00
  1.00800000E+00  1.60000000E+01  1.00800000E+00  1.00800000E+00  1.60000000E+01
  1.00800000E+00  1.00800000E+00  1.60000000E+01  1.00800000E+00  1.00800000E+00
  1.60000000E+01  1.00800000E+00  1.00800000E+00  1.60000000E+01  1.00800000E+00
  1.00800000E+00  1.60000000E+01  1.00800000E+00  1.00800000E+00  1.60000000E+01
  1.00800000E+00  1.00800000E+00  1.60000000E+01  1.00800000E+00  1.00800000E+00
  1.60000000E+01  1.00800000E+00  1.00800000E+00  1.60000000E+01  1.00800000E+00
  1.00800000E+00  1.60000000E+01  1.00800000E+00  1.00800000E+00  1.60000000E+01
  1.00800000E+00  1.00800000E+00  1.60000000E+01  1.00800000E+00  1.00800000E+00
  1.60000000E+01  1.00800000E+00  1.00800000E+00  1.60000000E+01  1.00800000E+00
  1.00800000E+00  1.60000000E+01  1.00800000E+00  1.00800000E+00  1.60000000E+01
  1.00800000E+00  1.00800000E+00  1.60000000E+01  1.00800000E+00  1.00800000E+00
  1.60000000E+01  1.00800000E+00  1.00800000E+00  1.60000000E+01  1.00800000E+00
  1.00800000E+00  1.60000000E+01  1.00800000E+00  1.00800000E+00  1.60000000E+01
  1.00800000E+00  1.00800000E+00  1.60000000E+01  1.00800000E+00  1.00800000E+00
  1.60000000E+01  1.00800000E+00  1.00800000E+00  1.60000000E+01  1.00800000E+00
  1.00800000E+00  1.60000000E+01  1.00800000E+00  1.00800000E+00  1.60000000E+01
  1.00800000E+00  1.00800000E+00  1.60000000E+01  1.00800000E+00  1.00800000E+00
  1.60000000E+01  1.00800000E+00  1.00800000E+00  1.60000000E+01  1.00800000E+00
  1.00800000E+00  1.60000000E+01  1.00800000E+00  1.00800000E+00  1.60000000E+01
  1.00800000E+00  1.00800000E+00  1.60000000E+01  1.00800000E+00  1.00800000E+00
  1.60000000E+01  1.00800000E+00  1.00800000E+00  1.60000000E+01  1.00800000E+00
  1.00800000E+00  1.60000000E+01  1.00800000E+00  1.00800000E+00  1.60000000E+01
  1.00800000E+00  1.00800000E+00  1.60000000E+01  1.00800000E+00  1.00800000E+00
  1.60000000E+01  1.00800000E+00  1.00800000E+00  1.60000000E+01  1.00800000E+00
  1.00800000E+00  1.60000000E+01  1.00800000E+00  1.00800000E+00  1.60000000E+01
  1.00800000E+00  1.00800000E+00  1.60000000E+01  1.00800000E+00  1.00800000E+00
  1.60000000E+01  1.00800000E+00  1.00800000E+00  1.60000000E+01  1.00800000E+00
  1.00800000E+00  1.60000000E+01  1.00800000E+00  1.00800000E+00  1.60000000E+01
  1.00800000E+00  1.00800000E+00  1.60000000E+01  1.00800000E+00  1.00800000E+00
  1.60000000E+01  1.00800000E+00  1.00800000E+00  1.60000000E+01  1.00800000E+00
  1.00800000E+00  1.60000000E+01  1.00800000E+00  1.00800000E+00  1.60000000E+01
  1.00800000E+00  1.00800000E+00  1.60000000E+01  1.00800000E+00  1.00800000E+00
  1.60000000E+01  1.00800000E+00  1.00800000E+00  1.60000000E+01  1.00800000E+00
  1.00800000E+00  1.60000000E+01  1.00800000E+00  1.00800000E+00  1.60000000E+01
  1.00800000E+00  1.00800000E+00  1.60000000E+01  1.00800000E+00  1.00800000E+00
  1.60000000E+01  1.00800000E+00  1.00800000E+00  1.60000000E+01  1.00800000E+00
  1.00800000E+00  1.60000000E+01  1.00800000E+00  1.00800000E+00  1.60000000E+01
  1.00800000E+00  1.00800000E+00  1.60000000E+01  1.00800000E+00  1.00800000E+00
  1.60000000E+01  1.00800000E+00  1.00800000E+00  1.60000000E+01  1.00800000E+00
  1.00800000E+00  1.60000000E+01  1.00800000E+00  1.00800000E+00  1.60000000E+01
  1.00800000E+00  1.00800000E+00  1.60000000E+01  1.00800000E+00  1.00800000E+00
  1.60000000E+01  1.00800000E+00  1.00800000E+00  1.60000000E+01  1.00800000E+00
  1.00800000E+00  1.60000000E+01  1.00800000E+00  1.00800000E+00  1.60000000E+01
  1.00800000E+00  1.00800000E+00  1.60000000E+01  1.00800000E+00  1.00800000E+00
  1.60000000E+01  1.00800000E+00  1.00800000E+00  1.60000000E+01  1.00800000E+00
  1.00800000E+00  1.60000000E+01  1.00800000E+00  1.00800000E+00  1.60000000E+01
  1.00800000E+00  1.00800000E+00  1.60000000E+01  1.00800000E+00  1.00800000E+00
  1.60000000E+01  1.00800000E+00  1.00800000E+00  1.60000000E+01  1.00800000E+00
  1.00800000E+00  1.60000000E+01  1.00800000E+00  1.00800000E+00  1.60000000E+01
  1.00800000E+00  1.00800000E+00  1.60000000E+01  1.00800000E+00  1.00800000E+00
  1.60000000E+01  1.00800000E+00  1.00800000E+00  1.60000000E+01  1.00800000E+00
  1.00800000E+00  1.60000000E+01  1.00800000E+00  1.00800000E+00  1.60000000E+01
  1.00800000E+00  1.00800000E+00  1.60000000E+01  1.00800000E+00  1.00800000E+00
  1.60000000E+01  1.00800000E+00  1.00800000E+00  1.60000000E+01  1.00800000E+00
  1.00800000E+00  1.60000000E+01  1.00800000E+00  1.00800000E+00  1.60000000E+01
  1.00800000E+00  1.00800000E+00  1.60000000E+01  1.00800000E+00  1.00800000E+00
  1.60000000E+01  1.00800000E+00  1.00800000E+00  1.60000000E+01  1.00800000E+00
  1.00800000E+00  1.60000000E+01  1.00800000E+00  1.00800000E+00  1.60000000E+01
  1.00800000E+00  1.00800000E+00  1.60000000E+01  1.00800000E+00  1.00800000E+00
  1.60000000E+01  1.00800000E+00  1.00800000E+00  1.60000000E+01  1.00800000E+00
  1.00800000E+00  1.60000000E+01  1.00800000E+00  1.00800000E+00  1.60000000E+01
  1.00800000E+00  1.00800000E+00  1.60000000E+01  1.00800000E+00  1.00800000E+00
  1.60000000E+01  1.00800000E+00  1.00800000E+00  1.60000000E+01  1.00800000E+00
  1.00800000E+00  1.60000000E+01  1.00800000E+00  1.00800000E+00  1.60000000E+01
  1.00800000E+00  1.00800000E+00  1.60000000E+01  1.00800000E+00  1.00800000E+00
  1.60000000E+01  1.00800000E+00  1.00800000E+00  1.60000000E+01  1.00800000E+00
  1.00800000E+00  1.60000000E+01  1.00800000E+00  1.00800000E+00  1.60000000E+01
  1.00800000E+00  1.00800000E+00  1.60000000E+01  1.00800000E+00  1.00800000E+00
  1.60000000E+01  1.00800000E+00  1.00800000E+00  1.60000000E+01  1.00800000E+00
  1.00800000E+00  1.60000000E+01  1.00800000E+00  1.00800000E+00  1.60000000E+01
  1.00800000E+00  1.00800000E+00  1.60000000E+01  1.00800000E+00  1.00800000E+00
  1.60000000E+01  1.00800000E+00  1.00800000E+00  1.60000000E+01  1.00800000E+00
  1.00800000E+00  1.60000000E+01  1.00800000E+00  1.00800000E+00  1.60000000E+01
  1.00800000E+00  1.00800000E+00  1.60000000E+01  1.00800000E+00  1.00800000E+00
  1.60000000E+01  1.00800000E+00  1.00800000E+00  1.60000000E+01  1.00800000E+00
  1.00800000E+00  1.60000000E+01  1.00800000E+00  1.00800000E+00  1.60000000E+01
  1.00800000E+00  1.00800000E+00  1.60000000E+01  1.00800000E+00  1.00800000E+00
  1.60000000E+01  1.00800000E+00  1.00800000E+00  1.60000000E+01  1.00800000E+00
  1.00800000E+00  1.60000000E+01  1.00800000E+00  1.00800000E+00  1.60000000E+01
  1.00800000E+00  1.00800000E+00  1.60000000E+01  1.00800000E+00  1.00800000E+00
  1.60000000E+01  1.00800000E+00  1.00800000E+00  1.60000000E+01  1.00800000E+00
  1.00800000E+00  1.60000000E+01  1.00800000E+00  1.00800000E+00  1.60000000E+01
  1.00800000E+00  1.00800000E+00  1.60000000E+01  1.00800000E+00  1.00800000E+00
  1.60000000E+01  1.00800000E+00  1.00800000E+00  1.60000000E+01  1.00800000E+00
  1.00800000E+00  1.60000000E+01  1.00800000E+00  1.00800000E+00  1.60000000E+01
  1.00800000E+00  1.00800000E+00  1.60000000E+01  1.00800000E+00  1.00800000E+00
  1.60000000E+01  1.00800000E+00  1.00800000E+00  1.60000000E+01  1.00800000E+00
  1.00800000E+00  1.60000000E+01  1.00800000E+00  1.00800000E+00  1.60000000E+01
  1.00800000E+00  1.00800000E+00  1.60000000E+01  1.00800000E+00  1.00800000E+00
  1.60000000E+01  1.00800000E+00  1.00800000E+00  1.60000000E+01  1.00800000E+00
  1.00800000E+00  1.60000000E+01  1.00800000E+00  1.00800000E+00  1.60000000E+01
  1.00800000E+00  1.00800000E+00  1.60000000E+01  1.00800000E+00  1.00800000E+00
  1.60000000E+01  1.00800000E+00  1.00800000E+00  1.60000000E+01  1.00800000E+00
  1.00800000E+00  1.60000000E+01  1.00800000E+00  1.00800000E+00  1.60000000E+01
  1.00800000E+00  1.00800000E+00  1.60000000E+01  1.00800000E+00  1.00800000E+00
  1.60000000E+01  1.00800000E+00  1.00800000E+00  1.60000000E+01  1.00800000E+00
  1.00800000E+00  1.60000000E+01  1.00800000E+00  1.00800000E+00  1.60000000E+01
  1.00800000E+00  1.00800000E+00  1.60000000E+01  1.00800000E+00  1.00800000E+00
  1.60000000E+01  1.00800000E+00  1.00800000E+00  1.60000000E+01  1.00800000E+00
  1.00800000E+00  1.60000000E+01  1.00800000E+00  1.00800000E+00  1.60000000E+01
  1.00800000E+00  1.00800000E+00  1.60000000E+01  1.00800000E+00  1.00800000E+00
  1.60000000E+01  1.00800000E+00  1.00800000E+00  1.60000000E+01  1.00800000E+00
  1.00800000E+00  1.60000000E+01  1.00800000E+00  1.00800000E+00  1.60000000E+01
  1.00800000E+00  1.00800000E+00  1.60000000E+01  1.00800000E+00  1.00800000E+00
  1.60000000E+01  1.00800000E+00  1.00800000E+00  1.60000000E+01  1.00800000E+00
  1.00800000E+00  1.60000000E+01  1.00800000E+00  1.00800000E+00  1.60000000E+01
  1.00800000E+00  1.00800000E+00  1.60000000E+01  1.00800000E+00  1.00800000E+00
  1.60000000E+01  1.00800000E+00  1.00800000E+00  1.60000000E+01  1.00800000E+00
  1.00800000E+00  1.60000000E+01  1.00800000E+00  1.00800000E+00  1.60000000E+01
  1.00800000E+00  1.00800000E+00  1.60000000E+01  1.00800000E+00  1.00800000E+00
  1.60000000E+01  1.00800000E+00  1.00800000E+00  1.60000000E+01  1.00800000E+00
  1.00800000E+00  1.60000000E+01  1.00800000E+00  1.00800000E+00  1.60000000E+01
  1.00800000E+00  1.00800000E+00  1.60000000E+01  1.00800000E+00  1.00800000E+00
  1.60000000E+01  1.00800000E+00  1.00800000E+00  1.60000000E+01  1.00800000E+00
  1.00800000E+00  1.60000000E+01  1.00800000E+00  1.00800000E+00  1.60000000E+01
  1.00800000E+00  1.00800000E+00  1.60000000E+01  1.00800000E+00  1.00800000E+00
  1.60000000E+01  1.00800000E+00  1.00800000E+00  1.60000000E+01  1.00800000E+00
  1.00800000E+00  1.60000000E+01  1.00800000E+00  1.00800000E+00  1.60000000E+01
  1.00800000E+00  1.00800000E+00  1.60000000E+01  1.00800000E+00  1.00800000E+00
  1.60000000E+01  1.00800000E+00  1.00800000E+00  1.60000000E+01  1.00800000E+00
  1.00800000E+00  1.60000000E+01  1.00800000E+00  1.00800000E+00  1.60000000E+01
  1.00800000E+00  1.00800000E+00  1.60000000E+01  1.00800000E+00  1.00800000E+00
  1.60000000E+01  1.00800000E+00  1.00800000E+00  1.60000000E+01  1.00800000E+00
  1.00800000E+00  1.60000000E+01  1.00800000E+00  1.00800000E+00  1.60000000E+01
  1.00800000E+00  1.00800000E+00  1.60000000E+01  1.00800000E+00  1.00800000E+00
  1.60000000E+01  1.00800000E+00  1.00800000E+00  1.60000000E+01  1.00800000E+00
  1.00800000E+00  1.60000000E+01  1.00800000E+00  1.00800000E+00  1.60000000E+01
  1.00800000E+00  1.00800000E+00  1.60000000E+01  1.00800000E+00  1.00800000E+00
  1.60000000E+01  1.00800000E+00  1.00800000E+00  1.60000000E+01  1.00800000E+00
  1.00800000E+00  1.60000000E+01  1.00800000E+00  1.00800000E+00  1.60000000E+01
  1.00800000E+00  1.00800000E+00  1.60000000E+01  1.00800000E+00  1.00800000E+00
  1.60000000E+01  1.00800000E+00  1.00800000E+00  1.60000000E+01  1.00800000E+00
  1.00800000E+00  1.60000000E+01  1.00800000E+00  1.00800000E+00  1.60000000E+01
  1.00800000E+00  1.00800000E+00  1.60000000E+01  1.00800000E+00  1.00800000E+00
  1.60000000E+01  1.00800000E+00  1.00800000E+00  1.60000000E+01  1.00800000E+00
  1.00800000E+00  1.60000000E+01  1.00800000E+00  1.00800000E+00  1.60000000E+01
  1.00800000E+00  1.00800000E+00  1.60000000E+01  1.00800000E+00  1.00800000E+00
  1.60000000E+01  1.00800000E+00  1.00800000E+00  1.60000000E+01  1.00800000E+00
  1.00800000E+00  1.60000000E+01  1.00800000E+00  1.00800000E+00  1.60000000E+01
  1.00800000E+00  1.00800000E+00  1.60000000E+01  1.00800000E+00  1.00800000E+00
  1.60000000E+01  1.00800000E+00  1.00800000E+00  1.60000000E+01  1.00800000E+00
  1.00800000E+00  1.60000000E+01  1.00800000E+00  1.00800000E+00  1.60000000E+01
  1.00800000E+00  1.00800000E+00  1.60000000E+01  1.00800000E+00  1.00800000E+00
  1.60000000E+01  1.00800000E+00  1.00800000E+00  1.60000000E+01  1.00800000E+00
  1.00800000E+00  1.60000000E+01  1.00800000E+00  1.00800000E+00  1.60000000E+01
  1.00800000E+00  1.00800000E+00  1.60000000E+01  1.00800000E+00  1.00800000E+00
  1.60000000E+01  1.00800000E+00  1.00800000E+00  1.60000000E+01  1.00800000E+00
  1.00800000E+00  1.60000000E+01  1.00800000E+00  1.00800000E+00  1.60000000E+01
  1.00800000E+00  1.00800000E+00  1.60000000E+01  1.00800000E+00  1.00800000E+00
  1.60000000E+01  1.00800000E+00  1.00800000E+00  1.60000000E+01  1.00800000E+00
  1.00800000E+00  1.60000000E+01  1.00800000E+00  1.00800000E+00  1.60000000E+01
  1.00800000E+00  1.00800000E+00  1.60000000E+01  1.00800000E+00  1.00800000E+00
  1.60000000E+01  1.00800000E+00  1.00800000E+00  1.60000000E+01  1.00800000E+00
  1.00800000E+00  1.60000000E+01  1.00800000E+00  1.00800000E+00  1.60000000E+01
  1.00800000E+00  1.00800000E+00  1.60000000E+01  1.00800000E+00  1.00800000E+00
  1.60000000E+01  1.00800000E+00  1.00800000E+00  1.60000000E+01  1.00800000E+00
  1.00800000E+00  1.60000000E+01  1.00800000E+00  1.00800000E+00  1.60000000E+01
  1.00800000E+00  1.00800000E+00  1.60000000E+01  1.00800000E+00  1.00800000E+00
  1.60000000E+01  1.00800000E+00  1.00800000E+00  1.60000000E+01  1.00800000E+00
  1.00800000E+00  1.60000000E+01  1.00800000E+00  1.00800000E+00  1.60000000E+01
  1.00800000E+00  1.00800000E+00  1.60000000E+01  1.00800000E+00  1.00800000E+00
  1.60000000E+01  1.00800000E+00  1.00800000E+00  1.60000000E+01  1.00800000E+00
  1.00800000E+00  1.60000000E+01  1.00800000E+00  1.00800000E+00  1.60000000E+01
  1.00800000E+00  1.00800000E+00  1.60000000E+01  1.00800000E+00  1.00800000E+00
  1.60000000E+01  1.00800000E+00  1.00800000E+00  1.60000000E+01  1.00800000E+00
  1.00800000E+00  1.60000000E+01  1.00800000E+00  1.00800000E+00  1.60000000E+01
  1.00800000E+00  1.00800000E+00  1.60000000E+01  1.00800000E+00  1.00800000E+00
  1.60000000E+01  1.00800000E+00  1.00800000E+00  1.60000000E+01  1.00800000E+00
  1.00800000E+00  1.60000000E+01  1.00800000E+00  1.00800000E+00  1.60000000E+01
  1.00800000E+00  1.00800000E+00  1.60000000E+01  1.00800000E+00  1.00800000E+00
  1.60000000E+01  1.00800000E+00  1.00800000E+00  1.60000000E+01  1.00800000E+00
  1.00800000E+00  1.60000000E+01  1.00800000E+00  1.00800000E+00  1.60000000E+01
  1.00800000E+00  1.00800000E+00  1.60000000E+01  1.00800000E+00  1.00800000E+00
  1.60000000E+01  1.00800000E+00  1.00800000E+00  1.60000000E+01  1.00800000E+00
  1.00800000E+00  1.60000000E+01  1.00800000E+00  1.00800000E+00  1.60000000E+01
  1.00800000E+00  1.00800000E+00  1.60000000E+01  1.00800000E+00  1.00800000E+00
  1.60000000E+01  1.00800000E+00  1.00800000E+00  1.60000000E+01  1.00800000E+00
  1.00800000E+00  1.60000000E+01  1.00800000E+00  1.00800000E+00  1.60000000E+01
  1.00800000E+00  1.00800000E+00  1.60000000E+01  1.00800000E+00  1.00800000E+00
  1.60000000E+01  1.00800000E+00  1.00800000E+00  1.60000000E+01  1.00800000E+00
  1.00800000E+00  1.60000000E+01  1.00800000E+00  1.00800000E+00  1.60000000E+01
  1.00800000E+00  1.00800000E+00  1.60000000E+01  1.00800000E+00  1.00800000E+00
  1.60000000E+01  1.00800000E+00  1.00800000E+00  1.60000000E+01  1.00800000E+00
  1.00800000E+00  1.60000000E+01  1.00800000E+00  1.00800000E+00  1.60000000E+01
  1.00800000E+00  1.00800000E+00  1.60000000E+01  1.00800000E+00  1.00800000E+00
  1.60000000E+01  1.00800000E+00  1.00800000E+00  1.60000000E+01  1.00800000E+00
  1.00800000E+00  1.60000000E+01  1.00800000E+00  1.00800000E+00  1.60000000E+01
  1.00800000E+00  1.00800000E+00  1.60000000E+01  1.00800000E+00  1.00800000E+00
  1.60000000E+01  1.00800000E+00  1.00800000E+00  1.60000000E+01  1.00800000E+00
  1.00800000E+00  1.60000000E+01  1.00800000E+00  1.00800000E+00  1.60000000E+01
  1.00800000E+00  1.00800000E+00  1.60000000E+01  1.00800000E+00  1.00800000E+00
  1.60000000E+01  1.00800000E+00  1.00800000E+00  1.60000000E+01  1.00800000E+00
  1.00800000E+00  1.60000000E+01  1.00800000E+00  1.00800000E+00  1.60000000E+01
  1.00800000E+00  1.00800000E+00  1.60000000E+01  1.00800000E+00  1.00800000E+00
  1.60000000E+01  1.00800000E+00  1.00800000E+00  1.60000000E+01  1.00800000E+00
  1.00800000E+00  1.60000000E+01  1.00800000E+00  1.00800000E+00  1.60000000E+01
  1.00800000E+00  1.00800000E+00  1.60000000E+01  1.00800000E+00  1.00800000E+00
  1.60000000E+01  1.00800000E+00  1.00800000E+00  1.60000000E+01  1.00800000E+00
  1.00800000E+00  1.60000000E+01  1.00800000E+00  1.00800000E+00  1.60000000E+01
  1.00800000E+00  1.00800000E+00  1.60000000E+01  1.00800000E+00  1.00800000E+00
  1.60000000E+01  1.00800000E+00  1.00800000E+00  1.60000000E+01  1.00800000E+00
  1.00800000E+00  1.60000000E+01  1.00800000E+00  1.00800000E+00  1.60000000E+01
  1.00800000E+00  1.00800000E+00  1.60000000E+01  1.00800000E+00  1.00800000E+00
  1.60000000E+01  1.00800000E+00  1.00800000E+00  1.60000000E+01  1.00800000E+00
  1.00800000E+00  1.60000000E+01  1.00800000E+00  1.00800000E+00  1.60000000E+01
  1.00800000E+00  1.00800000E+00  1.60000000E+01  1.00800000E+00  1.00800000E+00
  1.60000000E+01  1.00800000E+00  1.00800000E+00  1.60000000E+01  1.00800000E+00
  1.00800000E+00  1.60000000E+01  1.00800000E+00  1.00800000E+00  1.60000000E+01
  1.00800000E+00  1.00800000E+00  1.60000000E+01  1.00800000E+00  1.00800000E+00
  1.60000000E+01  1.00800000E+00  1.00800000E+00  1.60000000E+01  1.00800000E+00
  1.00800000E+00  1.60000000E+01  1.00800000E+00  1.00800000E+00  1.60000000E+01
  1.00800000E+00  1.00800000E+00  1.60000000E+01  1.00800000E+00  1.00800000E+00
  1.60000000E+01  1.00800000E+00  1.00800000E+00  1.60000000E+01  1.00800000E+00
  1.00800000E+00  1.60000000E+01  1.00800000E+00  1.00800000E+00  1.60000000E+01
  1.00800000E+00  1.00800000E+00  1.60000000E+01  1.00800000E+00  1.00800000E+00
  1.60000000E+01  1.00800000E+00  1.00800000E+00  1.60000000E+01  1.00800000E+00
  1.00800000E+00  1.60000000E+01  1.00800000E+00  1.00800000E+00  1.60000000E+01
  1.00800000E+00  1.00800000E+00  1.60000000E+01  1.00800000E+00  1.00800000E+00
  1.60000000E+01  1.00800000E+00  1.00800000E+00  1.60000000E+01  1.00800000E+00
  1.00800000E+00  1.60000000E+01  1.00800000E+00  1.00800000E+00  1.60000000E+01
  1.00800000E+00  1.00800000E+00  1.60000000E+01  1.00800000E+00  1.00800000E+00
  1.60000000E+01  1.00800000E+00  1.00800000E+00  1.60000000E+01  1.00800000E+00
  1.00800000E+00  1.60000000E+01  1.00800000E+00  1.00800000E+00  1.60000000E+01
  1.00800000E+00  1.00800000E+00  1.60000000E+01  1.00800000E+00  1.00800000E+00
  1.60000000E+01  1.00800000E+00  1.00800000E+00  1.60000000E+01  1.00800000E+00
  1.00800000E+00  1.60000000E+01  1.00800000E+00  1.00800000E+00  1.60000000E+01
  1.00800000E+00  1.00800000E+00  1.60000000E+01  1.00800000E+00  1.00800000E+00
  1.60000000E+01  1.00800000E+00  1.00800000E+00  1.60000000E+01  1.00800000E+00
  1.00800000E+00  1.60000000E+01  1.00800000E+00  1.00800000E+00  1.60000000E+01
  1.00800000E+00  1.00800000E+00  1.60000000E+01  1.00800000E+00  1.00800000E+00
  1.60000000E+01  1.00800000E+00  1.00800000E+00  1.60000000E+01  1.00800000E+00
  1.00800000E+00  1.60000000E+01  1.00800000E+00  1.00800000E+00  1.60000000E+01
  1.00800000E+00  1.00800000E+00  1.60000000E+01  1.00800000E+00  1.00800000E+00
  1.60000000E+01  1.00800000E+00  1.00800000E+00  1.60000000E+01  1.00800000E+00
  1.00800000E+00  1.60000000E+01  1.00800000E+00  1.00800000E+00  1.60000000E+01
  1.00800000E+00  1.00800000E+00  1.60000000E+01  1.00800000E+00  1.00800000E+00
  1.60000000E+01  1.00800000E+00  1.00800000E+00  1.60000000E+01  1.00800000E+00
  1.00800000E+00  1.60000000E+01  1.00800000E+00  1.00800000E+00  1.60000000E+01
  1.00800000E+00  1.00800000E+00  1.60000000E+01  1.00800000E+00  1.00800000E+00
  1.60000000E+01  1.00800000E+00  1.00800000E+00  1.60000000E+01  1.00800000E+00
  1.00800000E+00  1.60000000E+01  1.00800000E+00  1.00800000E+00  1.60000000E+01
  1.00800000E+00  1.00800000E+00  1.60000000E+01  1.00800000E+00  1.00800000E+00
  1.60000000E+01  1.00800000E+00  1.00800000E+00  1.60000000E+01  1.00800000E+00
  1.00800000E+00  1.60000000E+01  1.00800000E+00  1.00800000E+00  1.60000000E+01
  1.00800000E+00  1.00800000E+00  1.60000000E+01  1.00800000E+00  1.00800000E+00
  1.60000000E+01  1.00800000E+00  1.00800000E+00  1.60000000E+01  1.00800000E+00
  1.00800000E+00  1.60000000E+01  1.00800000E+00  1.00800000E+00  1.60000000E+01
  1.00800000E+00  1.00800000E+00  1.60000000E+01  1.00800000E+00  1.00800000E+00
  1.60000000E+01  1.00800000E+00  1.00800000E+00  1.60000000E+01  1.00800000E+00
  1.00800000E+00  1.60000000E+01  1.00800000E+00  1.00800000E+00  1.60000000E+01
  1.00800000E+00  1.00800000E+00  1.60000000E+01  1.00800000E+00  1.00800000E+00
  1.60000000E+01  1.00800000E+00  1.00800000E+00  1.60000000E+01  1.00800000E+00
  1.00800000E+00  1.60000000E+01  1.00800000E+00  1.00800000E+00  1.60000000E+01
  1.00800000E+00  1.00800000E+00  1.60000000E+01  1.00800000E+00  1.00800000E+00
  1.60000000E+01  1.00800000E+00  1.00800000E+00  1.60000000E+01  1.00800000E+00
  1.00800000E+00  1.60000000E+01  1.00800000E+00  1.00800000E+00  1.60000000E+01
  1.00800000E+00  1.00800000E+00  1.60000000E+01  1.00800000E+00  1.00800000E+00
  1.60000000E+01  1.00800000E+00  1.00800000E+00  1.60000000E+01  1.00800000E+00
  1.00800000E+00  1.60000000E+01  1.00800000E+00  1.00800000E+00  1.60000000E+01
  1.00800000E+00  1.00800000E+00  1.60000000E+01  1.00800000E+00  1.00800000E+00
  1.60000000E+01  1.00800000E+00  1.00800000E+00  1.60000000E+01  1.00800000E+00
  1.00800000E+00  1.60000000E+01  1.00800000E+00  1.00800000E+00  1.60000000E+01
  1.00800000E+00  1.00800000E+00  1.60000000E+01  1.00800000E+00  1.00800000E+00
  1.60000000E+01  1.00800000E+00  1.00800000E+00  1.60000000E+01  1.00800000E+00
  1.00800000E+00  1.60000000E+01  1.00800000E+00  1.00800000E+00  1.60000000E+01
  1.00800000E+00  1.00800000E+00  1.60000000E+01  1.00800000E+00  1.00800000E+00
  1.60000000E+01  1.00800000E+00  1.00800000E+00  1.60000000E+01  1.00800000E+00
  1.00800000E+00  1.60000000E+01  1.00800000E+00  1.00800000E+00  1.60000000E+01
  1.00800000E+00  1.00800000E+00  1.60000000E+01  1.00800000E+00  1.00800000E+00
  1.60000000E+01  1.00800000E+00  1.00800000E+00  1.60000000E+01  1.00800000E+00
  1.00800000E+00  1.60000000E+01  1.00800000E+00  1.00800000E+00  1.60000000E+01
  1.00800000E+00  1.00800000E+00  1.60000000E+01  1.00800000E+00  1.00800000E+00
  1.60000000E+01  1.00800000E+00  1.00800000E+00  1.60000000E+01  1.00800000E+00
  1.00800000E+00  1.60000000E+01  1.00800000E+00  1.00800000E+00  1.60000000E+01
  1.00800000E+00  1.00800000E+00  1.60000000E+01  1.00800000E+00  1.00800000E+00
  1.60000000E+01  1.00800000E+00  1.00800000E+00  1.60000000E+01  1.00800000E+00
  1.00800000E+00  1.60000000E+01  1.00800000E+00  1.00800000E+00  1.60000000E+01
  1.00800000E+00  1.00800000E+00  1.60000000E+01  1.00800000E+00  1.00800000E+00
  1.60000000E+01  1.00800000E+00  1.00800000E+00  1.60000000E+01  1.00800000E+00
  1.00800000E+00  1.60000000E+01  1.00800000E+00  1.00800000E+00  1.60000000E+01
  1.00800000E+00  1.00800000E+00  1.60000000E+01  1.00800000E+00  1.00800000E+00
  1.60000000E+01  1.00800000E+00  1.00800000E+00  1.60000000E+01  1.00800000E+00
  1.00800000E+00  1.60000000E+01  1.00800000E+00  1.00800000E+00  1.60000000E+01
  1.00800000E+00  1.00800000E+00  1.60000000E+01  1.00800000E+00  1.00800000E+00
  1.60000000E+01  1.00800000E+00  1.00800000E+00  1.60000000E+01  1.00800000E+00
  1.00800000E+00  1.60000000E+01  1.00800000E+00  1.00800000E+00  1.60000000E+01
  1.00800000E+00  1.00800000E+00  1.60000000E+01  1.00800000E+00  1.00800000E+00
  1.60000000E+01  1.00800000E+00  1.00800000E+00  1.60000000E+01  1.00800000E+00
  1.00800000E+00  1.60000000E+01  1.00800000E+00  1.00800000E+00  1.60000000E+01
  1.00800000E+00  1.00800000E+00  1.60000000E+01  1.00800000E+00  1.00800000E+00
  1.60000000E+01  1.00800000E+00  1.00800000E+00  1.60000000E+01  1.00800000E+00
  1.00800000E+00  1.60000000E+01  1.00800000E+00  1.00800000E+00  1.60000000E+01
  1.00800000E+00  1.00800000E+00  1.60000000E+01  1.00800000E+00  1.00800000E+00
  1.60000000E+01  1.00800000E+00  1.00800000E+00  1.60000000E+01  1.00800000E+00
  1.00800000E+00  1.60000000E+01  1.00800000E+00  1.00800000E+00  1.60000000E+01
  1.00800000E+00  1.00800000E+00  1.60000000E+01  1.00800000E+00  1.00800000E+00
  1.60000000E+01  1.00800000E+00  1.00800000E+00  1.60000000E+01  1.00800000E+00
  1.00800000E+00  1.60000000E+01  1.00800000E+00  1.00800000E+00  1.60000000E+01
  1.00800000E+00  1.00800000E+00  1.60000000E+01  1.00800000E+00  1.00800000E+00
  1.60000000E+01  1.00800000E+00  1.00800000E+00  1.60000000E+01  1.00800000E+00
  1.00800000E+00  1.60000000E+01  1.00800000E+00  1.00800000E+00  1.60000000E+01
  1.00800000E+00  1.00800000E+00  1.60000000E+01  1.00800000E+00  1.00800000E+00
  1.60000000E+01  1.00800000E+00  1.00800000E+00  1.60000000E+01  1.00800000E+00
  1.00800000E+00  1.60000000E+01  1.00800000E+00  1.00800000E+00  1.60000000E+01
  1.00800000E+00  1.00800000E+00  1.60000000E+01  1.00800000E+00  1.00800000E+00
  1.60000000E+01  1.00800000E+00  1.00800000E+00  1.60000000E+01  1.00800000E+00
  1.00800000E+00  1.60000000E+01  1.00800000E+00  1.00800000E+00  1.60000000E+01
  1.00800000E+00  1.00800000E+00  1.60000000E+01  1.00800000E+00  1.00800000E+00
  1.60000000E+01  1.00800000E+00  1.00800000E+00  1.60000000E+01  1.00800000E+00
  1.00800000E+00  1.60000000E+01  1.00800000E+00  1.00800000E+00  1.60000000E+01
  1.00800000E+00  1.00800000E+00  1.60000000E+01  1.00800000E+00  1.00800000E+00
  1.60000000E+01  1.00800000E+00  1.00800000E+00  1.60000000E+01  1.00800000E+00
  1.00800000E+00  1.60000000E+01  1.00800000E+00  1.00800000E+00  1.60000000E+01
  1.00800000E+00  1.00800000E+00  1.60000000E+01  1.00800000E+00  1.00800000E+00
  1.60000000E+01  1.00800000E+00  1.00800000E+00  1.60000000E+01  1.00800000E+00
  1.00800000E+00  1.60000000E+01  1.00800000E+00  1.00800000E+00  1.60000000E+01
  1.00800000E+00  1.00800000E+00  1.60000000E+01  1.00800000E+00  1.00800000E+00
  1.60000000E+01  1.00800000E+00  1.00800000E+00  1.60000000E+01  1.00800000E+00
  1.00800000E+00  1.60000000E+01  1.00800000E+00  1.00800000E+00  1.60000000E+01
  1.00800000E+00  1.00800000E+00  1.60000000E+01  1.00800000E+00  1.00800000E+00
  1.60000000E+01  1.00800000E+00  1.00800000E+00  1.60000000E+01  1.00800000E+00
  1.00800000E+00  1.60000000E+01  1.00800000E+00  1.00800000E+00  1.60000000E+01
  1.00800000E+00  1.00800000E+00  1.60000000E+01  1.00800000E+00  1.00800000E+00
  1.60000000E+01  1.00800000E+00  1.00800000E+00  1.60000000E+01  1.00800000E+00
  1.00800000E+00  1.60000000E+01  1.00800000E+00  1.00800000E+00  1.60000000E+01
  1.00800000E+00  1.00800000E+00  1.60000000E+01  1.00800000E+00  1.00800000E+00
  1.60000000E+01  1.00800000E+00  1.00800000E+00  1.60000000E+01  1.00800000E+00
  1.00800000E+00  1.60000000E+01  1.00800000E+00  1.00800000E+00  1.60000000E+01
  1.00800000E+00  1.00800000E+00  1.60000000E+01  1.00800000E+00  1.00800000E+00
  1.60000000E+01  1.00800000E+00  1.00800000E+00  1.60000000E+01  1.00800000E+00
  1.00800000E+00  1.60000000E+01  1.00800000E+00  1.00800000E+00  1.60000000E+01
  1.00800000E+00  1.00800000E+00  1.60000000E+01  1.00800000E+00  1.00800000E+00
  1.60000000E+01  1.00800000E+00  1.00800000E+00  1.60000000E+01  1.00800000E+00
  1.00800000E+00  1.60000000E+01  1.00800000E+00  1.00800000E+00  1.60000000E+01
  1.00800000E+00  1.00800000E+00  1.60000000E+01  1.00800000E+00  1.00800000E+00
  1.60000000E+01  1.00800000E+00  1.00800000E+00  1.60000000E+01  1.00800000E+00
  1.00800000E+00  1.60000000E+01  1.00800000E+00  1.00800000E+00  1.60000000E+01
  1.00800000E+00  1.00800000E+00  1.60000000E+01  1.00800000E+00  1.00800000E+00
  1.60000000E+01  1.00800000E+00  1.00800000E+00  1.60000000E+01  1.00800000E+00
  1.00800000E+00  1.60000000E+01  1.00800000E+00  1.00800000E+00  1.60000000E+01
  1.00800000E+00  1.00800000E+00  1.60000000E+01  1.00800000E+00  1.00800000E+00
  1.60000000E+01  1.00800000E+00  1.00800000E+00  1.60000000E+01  1.00800000E+00
  1.00800000E+00  1.60000000E+01  1.00800000E+00  1.00800000E+00  1.60000000E+01
  1.00800000E+00  1.00800000E+00  1.60000000E+01  1.00800000E+00  1.00800000E+00
  1.60000000E+01  1.00800000E+00  1.00800000E+00  1.60000000E+01  1.00800000E+00
  1.00800000E+00  1.60000000E+01  1.00800000E+00  1.00800000E+00  1.60000000E+01
  1.00800000E+00  1.00800000E+00  1.60000000E+01  1.00800000E+00  1.00800000E+00
  1.60000000E+01  1.00800000E+00  1.00800000E+00  1.60000000E+01  1.00800000E+00
  1.00800000E+00  1.60000000E+01  1.00800000E+00  1.00800000E+00  1.60000000E+01
  1.00800000E+00  1.00800000E+00  1.60000000E+01  1.00800000E+00  1.00800000E+00
  1.60000000E+01  1.00800000E+00  1.00800000E+00  1.60000000E+01  1.00800000E+00
  1.00800000E+00  1.60000000E+01  1.00800000E+00  1.00800000E+00  1.60000000E+01
  1.00800000E+00  1.00800000E+00  1.60000000E+01  1.00800000E+00  1.00800000E+00
  1.60000000E+01  1.00800000E+00  1.00800000E+00  1.60000000E+01  1.00800000E+00
  1.00800000E+00  1.60000000E+01  1.00800000E+00  1.00800000E+00  1.60000000E+01
  1.00800000E+00  1.00800000E+00  1.60000000E+01  1.00800000E+00  1.00800000E+00
  1.60000000E+01  1.00800000E+00  1.00800000E+00  1.60000000E+01  1.00800000E+00
  1.00800000E+00  1.60000000E+01  1.00800000E+00  1.00800000E+00  1.60000000E+01
  1.00800000E+00  1.00800000E+00  1.60000000E+01  1.00800000E+00  1.00800000E+00
  1.60000000E+01  1.00800000E+00  1.00800000E+00  1.60000000E+01  1.00800000E+00
  1.00800000E+00  1.60000000E+01  1.00800000E+00  1.00800000E+00  1.60000000E+01
  1.00800000E+00  1.00800000E+00  1.60000000E+01  1.00800000E+00  1.00800000E+00
  1.60000000E+01  1.00800000E+00  1.00800000E+00  1.60000000E+01  1.00800000E+00
  1.00800000E+00  1.60000000E+01  1.00800000E+00  1.00800000E+00  1.60000000E+01
  1.00800000E+00  1.00800000E+00  1.60000000E+01  1.00800000E+00  1.00800000E+00
  1.60000000E+01  1.00800000E+00  1.00800000E+00  1.60000000E+01  1.00800000E+00
  1.00800000E+00  1.60000000E+01  1.00800000E+00  1.00800000E+00  1.60000000E+01
  1.00800000E+00  1.00800000E+00  1.60000000E+01  1.00800000E+00  1.00800000E+00
  1.60000000E+01  1.00800000E+00  1.00800000E+00  1.60000000E+01  1.00800000E+00
  1.00800000E+00  1.60000000E+01  1.00800000E+00  1.00800000E+00  1.60000000E+01
  1.00800000E+00  1.00800000E+00  1.60000000E+01  1.00800000E+00  1.00800000E+00
  1.60000000E+01  1.00800000E+00  1.00800000E+00  1.60000000E+01  1.00800000E+00
  1.00800000E+00  1.60000000E+01  1.00800000E+00  1.00800000E+00  1.60000000E+01
  1.00800000E+00  1.00800000E+00  1.60000000E+01  1.00800000E+00  1.00800000E+00
  1.60000000E+01  1.00800000E+00  1.00800000E+00  1.60000000E+01  1.00800000E+00
  1.00800000E+00  1.60000000E+01  1.00800000E+00  1.00800000E+00  1.60000000E+01
  1.00800000E+00  1.00800000E+00  1.60000000E+01  1.00800000E+00  1.00800000E+00
  1.60000000E+01  1.00800000E+00  1.00800000E+00  1.60000000E+01  1.00800000E+00
  1.00800000E+00  1.60000000E+01  1.00800000E+00  1.00800000E+00  1.60000000E+01
  1.00800000E+00  1.00800000E+00  1.60000000E+01  1.00800000E+00  1.00800000E+00
  1.60000000E+01  1.00800000E+00  1.00800000E+00  1.60000000E+01  1.00800000E+00
  1.00800000E+00  1.60000000E+01  1.00800000E+00  1.00800000E+00  1.60000000E+01
  1.00800000E+00  1.00800000E+00  1.60000000E+01  1.00800000E+00  1.00800000E+00
  1.60000000E+01  1.00800000E+00  1.00800000E+00  1.60000000E+01  1.00800000E+00
  1.00800000E+00  1.60000000E+01  1.00800000E+00  1.00800000E+00  1.60000000E+01
  1.00800000E+00  1.00800000E+00  1.60000000E+01  1.00800000E+00  1.00800000E+00
  1.60000000E+01  1.00800000E+00  1.00800000E+00  1.60000000E+01  1.00800000E+00
  1.00800000E+00  1.60000000E+01  1.00800000E+00  1.00800000E+00  1.60000000E+01
  1.00800000E+00  1.00800000E+00  1.60000000E+01  1.00800000E+00  1.00800000E+00
  1.60000000E+01  1.00800000E+00  1.00800000E+00  1.60000000E+01  1.00800000E+00
  1.00800000E+00  1.60000000E+01  1.00800000E+00  1.00800000E+00  1.60000000E+01
  1.00800000E+00  1.00800000E+00  1.60000000E+01  1.00800000E+00  1.00800000E+00
  1.60000000E+01  1.00800000E+00  1.00800000E+00  1.60000000E+01  1.00800000E+00
  1.00800000E+00  1.60000000E+01  1.00800000E+00  1.00800000E+00  1.60000000E+01
  1.00800000E+00  1.00800000E+00  1.60000000E+01  1.00800000E+00  1.00800000E+00
  1.60000000E+01  1.00800000E+00  1.00800000E+00  1.60000000E+01  1.00800000E+00
  1.00800000E+00  1.60000000E+01  1.00800000E+00  1.00800000E+00  1.60000000E+01
  1.00800000E+00  1.00800000E+00  1.60000000E+01  1.00800000E+00  1.00800000E+00
  1.60000000E+01  1.00800000E+00  1.00800000E+00  1.60000000E+01  1.00800000E+00
  1.00800000E+00  1.60000000E+01  1.00800000E+00  1.00800000E+00  1.60000000E+01
  1.00800000E+00  1.00800000E+00  1.60000000E+01  1.00800000E+00  1.00800000E+00
  1.60000000E+01  1.00800000E+00  1.00800000E+00  1.60000000E+01  1.00800000E+00
  1.00800000E+00  1.60000000E+01  1.00800000E+00  1.00800000E+00  1.60000000E+01
  1.00800000E+00  1.00800000E+00  1.60000000E+01  1.00800000E+00  1.00800000E+00
  1.60000000E+01  1.00800000E+00  1.00800000E+00  1.60000000E+01  1.00800000E+00
  1.00800000E+00  1.60000000E+01  1.00800000E+00  1.00800000E+00  1.60000000E+01
  1.00800000E+00  1.00800000E+00  1.60000000E+01  1.00800000E+00  1.00800000E+00
  1.60000000E+01  1.00800000E+00  1.00800000E+00  1.60000000E+01  1.00800000E+00
  1.00800000E+00  1.60000000E+01  1.00800000E+00  1.00800000E+00  1.60000000E+01
  1.00800000E+00  1.00800000E+00  1.60000000E+01  1.00800000E+00  1.00800000E+00
  1.60000000E+01  1.00800000E+00  1.00800000E+00  1.60000000E+01  1.00800000E+00
  1.00800000E+00  1.60000000E+01  1.00800000E+00  1.00800000E+00  1.60000000E+01
  1.00800000E+00  1.00800000E+00  1.60000000E+01  1.00800000E+00  1.00800000E+00
  1.60000000E+01  1.00800000E+00  1.00800000E+00  1.60000000E+01  1.00800000E+00
  1.00800000E+00  1.60000000E+01  1.00800000E+00  1.00800000E+00  1.60000000E+01
  1.00800000E+00  1.00800000E+00  1.60000000E+01  1.00800000E+00  1.00800000E+00
  1.60000000E+01  1.00800000E+00  1.00800000E+00  1.60000000E+01  1.00800000E+00
  1.00800000E+00  1.60000000E+01  1.00800000E+00  1.00800000E+00  1.60000000E+01
  1.00800000E+00  1.00800000E+00  1.60000000E+01  1.00800000E+00  1.00800000E+00
  1.60000000E+01  1.00800000E+00  1.00800000E+00  1.60000000E+01  1.00800000E+00
  1.00800000E+00  1.60000000E+01  1.00800000E+00  1.00800000E+00  1.60000000E+01
  1.00800000E+00  1.00800000E+00  1.60000000E+01  1.00800000E+00  1.00800000E+00
  1.60000000E+01  1.00800000E+00  1.00800000E+00  1.60000000E+01  1.00800000E+00
  1.00800000E+00  1.60000000E+01  1.00800000E+00  1.00800000E+00  1.60000000E+01
  1.00800000E+00  1.00800000E+00  1.60000000E+01  1.00800000E+00  1.00800000E+00
  1.60000000E+01  1.00800000E+00  1.00800000E+00  1.60000000E+01  1.00800000E+00
  1.00800000E+00  1.60000000E+01  1.00800000E+00  1.00800000E+00  1.60000000E+01
  1.00800000E+00  1.00800000E+00  1.60000000E+01  1.00800000E+00  1.00800000E+00
  1.60000000E+01  1.00800000E+00  1.00800000E+00  1.60000000E+01  1.00800000E+00
  1.00800000E+00  1.60000000E+01  1.00800000E+00  1.00800000E+00  1.60000000E+01
  1.00800000E+00  1.00800000E+00  1.60000000E+01  1.00800000E+00  1.00800000E+00
  1.60000000E+01  1.00800000E+00  1.00800000E+00  1.60000000E+01  1.00800000E+00
  1.00800000E+00  1.60000000E+01  1.00800000E+00  1.00800000E+00  1.60000000E+01
  1.00800000E+00  1.00800000E+00  1.60000000E+01  1.00800000E+00  1.00800000E+00
  1.60000000E+01  1.00800000E+00  1.00800000E+00  1.60000000E+01  1.00800000E+00
  1.00800000E+00  1.60000000E+01  1.00800000E+00  1.00800000E+00  1.60000000E+01
  1.00800000E+00  1.00800000E+00  1.60000000E+01  1.00800000E+00  1.00800000E+00
  1.60000000E+01  1.00800000E+00  1.00800000E+00  1.60000000E+01  1.00800000E+00
  1.00800000E+00  1.60000000E+01  1.00800000E+00  1.00800000E+00  1.60000000E+01
  1.00800000E+00  1.00800000E+00  1.60000000E+01  1.00800000E+00  1.00800000E+00
  1.60000000E+01  1.00800000E+00  1.00800000E+00  1.60000000E+01  1.00800000E+00
  1.00800000E+00  1.60000000E+01  1.00800000E+00  1.00800000E+00  1.60000000E+01
  1.00800000E+00  1.00800000E+00  1.60000000E+01  1.00800000E+00  1.00800000E+00
  1.60000000E+01  1.00800000E+00  1.00800000E+00  1.60000000E+01  1.00800000E+00
  1.00800000E+00  1.60000000E+01  1.00800000E+00  1.00800000E+00  1.60000000E+01
  1.00800000E+00  1.00800000E+00  1.60000000E+01  1.00800000E+00  1.00800000E+00
  1.60000000E+01  1.00800000E+00  1.00800000E+00  1.60000000E+01  1.00800000E+00
  1.00800000E+00  1.60000000E+01  1.00800000E+00  1.00800000E+00  1.60000000E+01
  1.00800000E+00  1.00800000E+00  1.60000000E+01  1.00800000E+00  1.00800000E+00
  1.60000000E+01  1.00800000E+00  1.00800000E+00  1.60000000E+01  1.00800000E+00
  1.00800000E+00  1.60000000E+01  1.00800000E+00  1.00800000E+00  1.60000000E+01
  1.00800000E+00  1.00800000E+00  1.60000000E+01  1.00800000E+00  1.00800000E+00
  1.60000000E+01  1.00800000E+00  1.00800000E+00  1.60000000E+01  1.00800000E+00
  1.00800000E+00  1.60000000E+01  1.00800000E+00  1.00800000E+00  1.60000000E+01
  1.00800000E+00  1.00800000E+00  1.60000000E+01  1.00800000E+00  1.00800000E+00
  1.60000000E+01  1.00800000E+00  1.00800000E+00  1.60000000E+01  1.00800000E+00
  1.00800000E+00  1.60000000E+01  1.00800000E+00  1.00800000E+00  1.60000000E+01
  1.00800000E+00  1.00800000E+00  1.60000000E+01  1.00800000E+00  1.00800000E+00
  1.60000000E+01  1.00800000E+00  1.00800000E+00  1.60000000E+01  1.00800000E+00
  1.00800000E+00  1.60000000E+01  1.00800000E+00  1.00800000E+00  1.60000000E+01
  1.00800000E+00  1.00800000E+00  1.60000000E+01  1.00800000E+00  1.00800000E+00
  1.60000000E+01  1.00800000E+00  1.00800000E+00  1.60000000E+01  1.00800000E+00
  1.00800000E+00  1.60000000E+01  1.00800000E+00  1.00800000E+00  1.60000000E+01
  1.00800000E+00  1.00800000E+00  1.60000000E+01  1.00800000E+00  1.00800000E+00
  1.60000000E+01  1.00800000E+00  1.00800000E+00  1.60000000E+01  1.00800000E+00
  1.00800000E+00  1.60000000E+01  1.00800000E+00  1.00800000E+00  1.60000000E+01
  1.00800000E+00  1.00800000E+00  1.60000000E+01  1.00800000E+00  1.00800000E+00
  1.60000000E+01  1.00800000E+00  1.00800000E+00  1.60000000E+01  1.00800000E+00
  1.00800000E+00  1.60000000E+01  1.00800000E+00  1.00800000E+00  1.60000000E+01
  1.00800000E+00  1.00800000E+00  1.60000000E+01  1.00800000E+00  1.00800000E+00
  1.60000000E+01  1.00800000E+00  1.00800000E+00  1.60000000E+01  1.00800000E+00
  1.00800000E+00  1.60000000E+01  1.00800000E+00  1.00800000E+00  1.60000000E+01
  1.00800000E+00  1.00800000E+00  1.60000000E+01  1.00800000E+00  1.00800000E+00
  1.60000000E+01  1.00800000E+00  1.00800000E+00  1.60000000E+01  1.00800000E+00
  1.00800000E+00  1.60000000E+01  1.00800000E+00  1.00800000E+00  1.60000000E+01
  1.00800000E+00  1.00800000E+00  1.60000000E+01  1.00800000E+00  1.00800000E+00
  1.60000000E+01  1.00800000E+00  1.00800000E+00  1.60000000E+01  1.00800000E+00
  1.00800000E+00  1.60000000E+01  1.00800000E+00  1.00800000E+00  1.60000000E+01
  1.00800000E+00  1.00800000E+00  1.60000000E+01  1.00800000E+00  1.00800000E+00
  1.60000000E+01  1.00800000E+00  1.00800000E+00  1.60000000E+01  1.00800000E+00
  1.00800000E+00  1.60000000E+01  1.00800000E+00  1.00800000E+00  1.60000000E+01
  1.00800000E+00  1.00800000E+00  1.60000000E+01  1.00800000E+00  1.00800000E+00
  1.60000000E+01  1.00800000E+00  1.00800000E+00  1.60000000E+01  1.00800000E+00
  1.00800000E+00  1.60000000E+01  1.00800000E+00  1.00800000E+00  1.60000000E+01
  1.00800000E+00  1.00800000E+00  1.60000000E+01  1.00800000E+00  1.00800000E+00
  1.60000000E+01  1.00800000E+00  1.00800000E+00  1.60000000E+01  1.00800000E+00
  1.00800000E+00  1.60000000E+01  1.00800000E+00  1.00800000E+00  1.60000000E+01
  1.00800000E+00  1.00800000E+00  1.60000000E+01  1.00800000E+00  1.00800000E+00
  1.60000000E+01  1.00800000E+00  1.00800000E+00  1.60000000E+01  1.00800000E+00
  1.00800000E+00  1.60000000E+01  1.00800000E+00  1.00800000E+00  1.60000000E+01
  1.00800000E+00  1.00800000E+00  1.60000000E+01  1.00800000E+00  1.00800000E+00
  1.60000000E+01  1.00800000E+00  1.00800000E+00  1.60000000E+01  1.00800000E+00
  1.00800000E+00  1.60000000E+01  1.00800000E+00  1.00800000E+00  1.60000000E+01
  1.00800000E+00  1.00800000E+00  1.60000000E+01  1.00800000E+00  1.00800000E+00
  1.60000000E+01  1.00800000E+00  1.00800000E+00  1.60000000E+01  1.00800000E+00
  1.00800000E+00  1.60000000E+01  1.00800000E+00  1.00800000E+00  1.60000000E+01
  1.00800000E+00  1.00800000E+00  1.60000000E+01  1.00800000E+00  1.00800000E+00
  1.60000000E+01  1.00800000E+00  1.00800000E+00  1.60000000E+01  1.00800000E+00
  1.00800000E+00  1.60000000E+01  1.00800000E+00  1.00800000E+00  1.60000000E+01
  1.00800000E+00  1.00800000E+00  1.60000000E+01  1.00800000E+00  1.00800000E+00
  1.60000000E+01  1.00800000E+00  1.00800000E+00  1.60000000E+01  1.00800000E+00
  1.00800000E+00  1.60000000E+01  1.00800000E+00  1.00800000E+00  1.60000000E+01
  1.00800000E+00  1.00800000E+00  1.60000000E+01  1.00800000E+00  1.00800000E+00
  1.60000000E+01  1.00800000E+00  1.00800000E+00  1.60000000E+01  1.00800000E+00
  1.00800000E+00  1.60000000E+01  1.00800000E+00  1.00800000E+00  1.60000000E+01
  1.00800000E+00  1.00800000E+00  1.60000000E+01  1.00800000E+00  1.00800000E+00
  1.60000000E+01  1.00800000E+00  1.00800000E+00  1.60000000E+01  1.00800000E+00
  1.00800000E+00  1.60000000E+01  1.00800000E+00  1.00800000E+00  1.60000000E+01
  1.00800000E+00  1.00800000E+00  1.60000000E+01  1.00800000E+00  1.00800000E+00
  1.60000000E+01  1.00800000E+00  1.00800000E+00  1.60000000E+01  1.00800000E+00
  1.00800000E+00  1.60000000E+01  1.00800000E+00  1.00800000E+00  1.60000000E+01
  1.00800000E+00  1.00800000E+00  1.60000000E+01  1.00800000E+00  1.00800000E+00
  1.60000000E+01  1.00800000E+00  1.00800000E+00  1.60000000E+01  1.00800000E+00
  1.00800000E+00  1.60000000E+01  1.00800000E+00  1.00800000E+00  1.60000000E+01
  1.00800000E+00  1.00800000E+00  1.60000000E+01  1.00800000E+00  1.00800000E+00
  1.60000000E+01  1.00800000E+00  1.00800000E+00  1.60000000E+01  1.00800000E+00
  1.00800000E+00  1.60000000E+01  1.00800000E+00  1.00800000E+00  1.60000000E+01
  1.00800000E+00  1.00800000E+00  1.60000000E+01  1.00800000E+00  1.00800000E+00
  1.60000000E+01  1.00800000E+00  1.00800000E+00  1.60000000E+01  1.00800000E+00
  1.00800000E+00  1.60000000E+01  1.00800000E+00  1.00800000E+00  1.60000000E+01
  1.00800000E+00  1.00800000E+00  1.60000000E+01  1.00800000E+00  1.00800000E+00
  1.60000000E+01  1.00800000E+00  1.00800000E+00  1.60000000E+01  1.00800000E+00
  1.00800000E+00  1.60000000E+01  1.00800000E+00  1.00800000E+00  1.60000000E+01
  1.00800000E+00  1.00800000E+00  1.60000000E+01  1.00800000E+00  1.00800000E+00
  1.60000000E+01  1.00800000E+00  1.00800000E+00  1.60000000E+01  1.00800000E+00
  1.00800000E+00  1.60000000E+01  1.00800000E+00  1.00800000E+00  1.60000000E+01
  1.00800000E+00  1.00800000E+00  1.60000000E+01  1.00800000E+00  1.00800000E+00
  1.60000000E+01  1.00800000E+00  1.00800000E+00  1.60000000E+01  1.00800000E+00
  1.00800000E+00  1.60000000E+01  1.00800000E+00  1.00800000E+00  1.60000000E+01
  1.00800000E+00  1.00800000E+00  1.60000000E+01  1.00800000E+00  1.00800000E+00
  1.60000000E+01  1.00800000E+00  1.00800000E+00  1.60000000E+01  1.00800000E+00
  1.00800000E+00  1.60000000E+01  1.00800000E+00  1.00800000E+00  1.60000000E+01
  1.00800000E+00  1.00800000E+00  1.60000000E+01  1.00800000E+00  1.00800000E+00
  1.60000000E+01  1.00800000E+00  1.00800000E+00  1.60000000E+01  1.00800000E+00
  1.00800000E+00  1.60000000E+01  1.00800000E+00  1.00800000E+00  1.60000000E+01
  1.00800000E+00  1.00800000E+00  1.60000000E+01  1.00800000E+00  1.00800000E+00
  1.60000000E+01  1.00800000E+00  1.00800000E+00  1.60000000E+01  1.00800000E+00
  1.00800000E+00  1.60000000E+01  1.00800000E+00  1.00800000E+00  1.60000000E+01
  1.00800000E+00  1.00800000E+00  1.60000000E+01  1.00800000E+00  1.00800000E+00
  1.60000000E+01  1.00800000E+00  1.00800000E+00  1.60000000E+01  1.00800000E+00
  1.00800000E+00  1.60000000E+01  1.00800000E+00  1.00800000E+00  1.60000000E+01
  1.00800000E+00  1.00800000E+00  1.60000000E+01  1.00800000E+00  1.00800000E+00
  1.60000000E+01  1.00800000E+00  1.00800000E+00  1.60000000E+01  1.00800000E+00
  1.00800000E+00  1.60000000E+01  1.00800000E+00  1.00800000E+00  1.60000000E+01
  1.00800000E+00  1.00800000E+00  1.60000000E+01  1.00800000E+00  1.00800000E+00
  1.60000000E+01  1.00800000E+00  1.00800000E+00  1.60000000E+01  1.00800000E+00
  1.00800000E+00  1.60000000E+01  1.00800000E+00  1.00800000E+00  1.60000000E+01
  1.00800000E+00  1.00800000E+00  1.60000000E+01  1.00800000E+00  1.00800000E+00
  1.60000000E+01  1.00800000E+00  1.00800000E+00  1.60000000E+01  1.00800000E+00
  1.00800000E+00  1.60000000E+01  1.00800000E+00  1.00800000E+00  1.60000000E+01
  1.00800000E+00  1.00800000E+00  1.60000000E+01  1.00800000E+00  1.00800000E+00
  1.60000000E+01  1.00800000E+00  1.00800000E+00  1.60000000E+01  1.00800000E+00
  1.00800000E+00  1.60000000E+01  1.00800000E+00  1.00800000E+00  1.60000000E+01
  1.00800000E+00  1.00800000E+00  1.60000000E+01  1.00800000E+00  1.00800000E+00
  1.60000000E+01  1.00800000E+00  1.00800000E+00  1.60000000E+01  1.00800000E+00
  1.00800000E+00  1.60000000E+01  1.00800000E+00  1.00800000E+00  1.60000000E+01
  1.00800000E+00  1.00800000E+00  1.60000000E+01  1.00800000E+00  1.00800000E+00
  1.60000000E+01  1.00800000E+00  1.00800000E+00  1.60000000E+01  1.00800000E+00
  1.00800000E+00  1.60000000E+01  1.00800000E+00  1.00800000E+00  1.60000000E+01
  1.00800000E+00  1.00800000E+00  1.60000000E+01  1.00800000E+00  1.00800000E+00
  1.60000000E+01  1.00800000E+00  1.00800000E+00  1.60000000E+01  1.00800000E+00
  1.00800000E+00  1.60000000E+01  1.00800000E+00  1.00800000E+00  1.60000000E+01
  1.00800000E+00  1.00800000E+00  1.60000000E+01  1.00800000E+00  1.00800000E+00
  1.60000000E+01  1.00800000E+00  1.00800000E+00  1.60000000E+01  1.00800000E+00
  1.00800000E+00  1.60000000E+01  1.00800000E+00  1.00800000E+00  1.60000000E+01
  1.00800000E+00  1.00800000E+00  1.60000000E+01  1.00800000E+00  1.00800000E+00
  1.60000000E+01  1.00800000E+00  1.00800000E+00  1.60000000E+01  1.00800000E+00
  1.00800000E+00  1.60000000E+01  1.00800000E+00  1.00800000E+00  1.60000000E+01
  1.00800000E+00  1.00800000E+00  1.60000000E+01  1.00800000E+00  1.00800000E+00
  1.60000000E+01  1.00800000E+00  1.00800000E+00  1.60000000E+01  1.00800000E+00
  1.00800000E+00  1.60000000E+01  1.00800000E+00  1.00800000E+00  1.60000000E+01
  1.00800000E+00  1.00800000E+00  1.60000000E+01  1.00800000E+00  1.00800000E+00
  1.60000000E+01  1.00800000E+00  1.00800000E+00  1.60000000E+01  1.00800000E+00
  1.00800000E+00  1.60000000E+01  1.00800000E+00  1.00800000E+00  1.60000000E+01
  1.00800000E+00  1.00800000E+00  1.60000000E+01  1.00800000E+00  1.00800000E+00
  1.60000000E+01  1.00800000E+00  1.00800000E+00  1.60000000E+01  1.00800000E+00
  1.00800000E+00  1.60000000E+01  1.00800000E+00  1.00800000E+00  1.60000000E+01
  1.00800000E+00  1.00800000E+00  1.60000000E+01  1.00800000E+00  1.00800000E+00
  1.60000000E+01  1.00800000E+00  1.00800000E+00  1.60000000E+01  1.00800000E+00
  1.00800000E+00  1.60000000E+01  1.00800000E+00  1.00800000E+00  1.60000000E+01
  1.00800000E+00  1.00800000E+00  1.60000000E+01  1.00800000E+00  1.00800000E+00
  1.60000000E+01  1.00800000E+00  1.00800000E+00  1.60000000E+01  1.00800000E+00
  1.00800000E+00  1.60000000E+01  1.00800000E+00  1.00800000E+00  1.60000000E+01
  1.00800000E+00  1.00800000E+00  1.60000000E+01  1.00800000E+00  1.00800000E+00
  1.60000000E+01  1.00800000E+00  1.00800000E+00  1.60000000E+01  1.00800000E+00
  1.00800000E+00  1.60000000E+01  1.00800000E+00  1.00800000E+00  1.60000000E+01
  1.00800000E+00  1.00800000E+00  1.60000000E+01  1.00800000E+00  1.00800000E+00
  1.60000000E+01  1.00800000E+00  1.00800000E+00  1.60000000E+01  1.00800000E+00
  1.00800000E+00  1.60000000E+01  1.00800000E+00  1.00800000E+00  1.60000000E+01
  1.00800000E+00  1.00800000E+00  1.60000000E+01  1.00800000E+00  1.00800000E+00
  1.60000000E+01  1.00800000E+00  1.00800000E+00  1.60000000E+01  1.00800000E+00
  1.00800000E+00  1.60000000E+01  1.00800000E+00  1.00800000E+00  1.60000000E+01
  1.00800000E+00  1.00800000E+00  1.60000000E+01  1.00800000E+00  1.00800000E+00
  1.60000000E+01  1.00800000E+00  1.00800000E+00  1.60000000E+01  1.00800000E+00
  1.00800000E+00  1.60000000E+01  1.00800000E+00  1.00800000E+00  1.60000000E+01
  1.00800000E+00  1.00800000E+00  1.60000000E+01  1.00800000E+00  1.00800000E+00
  1.60000000E+01  1.00800000E+00  1.00800000E+00  1.60000000E+01  1.00800000E+00
  1.00800000E+00  1.60000000E+01  1.00800000E+00  1.00800000E+00  1.60000000E+01
  1.00800000E+00  1.00800000E+00  1.60000000E+01  1.00800000E+00  1.00800000E+00
  1.60000000E+01  1.00800000E+00  1.00800000E+00  1.60000000E+01  1.00800000E+00
  1.00800000E+00  1.60000000E+01  1.00800000E+00  1.00800000E+00  1.60000000E+01
  1.00800000E+00  1.00800000E+00  1.60000000E+01  1.00800000E+00  1.00800000E+00
  1.60000000E+01  1.00800000E+00  1.00800000E+00  1.60000000E+01  1.00800000E+00
  1.00800000E+00  1.60000000E+01  1.00800000E+00  1.00800000E+00  1.60000000E+01
  1.00800000E+00  1.00800000E+00  1.60000000E+01  1.00800000E+00  1.00800000E+00
  1.60000000E+01  1.00800000E+00  1.00800000E+00  1.60000000E+01  1.00800000E+00
  1.00800000E+00  1.60000000E+01  1.00800000E+00  1.00800000E+00  1.60000000E+01
  1.00800000E+00  1.00800000E+00  1.60000000E+01  1.00800000E+00  1.00800000E+00
  1.60000000E+01  1.00800000E+00  1.00800000E+00  1.60000000E+01  1.00800000E+00
  1.00800000E+00  1.60000000E+01  1.00800000E+00  1.00800000E+00  1.60000000E+01
  1.00800000E+00  1.00800000E+00  1.60000000E+01  1.00800000E+00  1.00800000E+00
  1.60000000E+01  1.00800000E+00  1.00800000E+00  1.60000000E+01  1.00800000E+00
  1.00800000E+00  1.60000000E+01  1.00800000E+00  1.00800000E+00  1.60000000E+01
  1.00800000E+00  1.00800000E+00  1.60000000E+01  1.00800000E+00  1.00800000E+00
  1.60000000E+01  1.00800000E+00  1.00800000E+00  1.60000000E+01  1.00800000E+00
  1.00800000E+00  1.60000000E+01  1.00800000E+00  1.00800000E+00  1.60000000E+01
  1.00800000E+00  1.00800000E+00  1.60000000E+01  1.00800000E+00  1.00800000E+00
  1.60000000E+01  1.00800000E+00  1.00800000E+00  1.60000000E+01  1.00800000E+00
  1.00800000E+00  1.60000000E+01  1.00800000E+00  1.00800000E+00  1.60000000E+01
  1.00800000E+00  1.00800000E+00  1.60000000E+01  1.00800000E+00  1.00800000E+00
  1.60000000E+01  1.00800000E+00  1.00800000E+00  1.60000000E+01  1.00800000E+00
  1.00800000E+00  1.60000000E+01  1.00800000E+00  1.00800000E+00  1.60000000E+01
  1.00800000E+00  1.00800000E+00  1.60000000E+01  1.00800000E+00  1.00800000E+00
  1.60000000E+01  1.00800000E+00  1.00800000E+00  1.60000000E+01  1.00800000E+00
  1.00800000E+00  1.60000000E+01  1.00800000E+00  1.00800000E+00  1.60000000E+01
  1.00800000E+00  1.00800000E+00  1.60000000E+01  1.00800000E+00  1.00800000E+00
  1.60000000E+01  1.00800000E+00  1.00800000E+00  1.60000000E+01  1.00800000E+00
  1.00800000E+00  1.60000000E+01  1.00800000E+00  1.00800000E+00  1.60000000E+01
  1.00800000E+00  1.00800000E+00  1.60000000E+01  1.00800000E+00  1.00800000E+00
  1.60000000E+01  1.00800000E+00  1.00800000E+00  1.60000000E+01  1.00800000E+00
  1.00800000E+00  1.60000000E+01  1.00800000E+00  1.00800000E+00  1.60000000E+01
  1.00800000E+00  1.00800000E+00  1.60000000E+01  1.00800000E+00  1.00800000E+00
  1.60000000E+01  1.00800000E+00  1.00800000E+00  1.60000000E+01  1.00800000E+00
  1.00800000E+00  1.60000000E+01  1.00800000E+00  1.00800000E+00  1.60000000E+01
  1.00800000E+00  1.00800000E+00  1.60000000E+01  1.00800000E+00  1.00800000E+00
  1.60000000E+01  1.00800000E+00  1.00800000E+00  1.60000000E+01  1.00800000E+00
  1.00800000E+00  1.60000000E+01  1.00800000E+00  1.00800000E+00  1.60000000E+01
  1.00800000E+00  1.00800000E+00  1.60000000E+01  1.00800000E+00  1.00800000E+00
  1.60000000E+01  1.00800000E+00  1.00800000E+00  1.60000000E+01  1.00800000E+00
  1.00800000E+00  1.60000000E+01  1.00800000E+00  1.00800000E+00  1.60000000E+01
  1.00800000E+00  1.00800000E+00  1.60000000E+01  1.00800000E+00  1.00800000E+00
  1.60000000E+01  1.00800000E+00  1.00800000E+00  1.60000000E+01  1.00800000E+00
  1.00800000E+00  1.60000000E+01  1.00800000E+00  1.00800000E+00  1.60000000E+01
  1.00800000E+00  1.00800000E+00  1.60000000E+01  1.00800000E+00  1.00800000E+00
  1.60000000E+01  1.00800000E+00  1.00800000E+00  1.60000000E+01  1.00800000E+00
  1.00800000E+00  1.60000000E+01  1.00800000E+00  1.00800000E+00  1.60000000E+01
  1.00800000E+00  1.00800000E+00  1.60000000E+01  1.00800000E+00  1.00800000E+00
  1.60000000E+01  1.00800000E+00  1.00800000E+00  1.60000000E+01  1.00800000E+00
  1.00800000E+00  1.60000000E+01  1.00800000E+00  1.00800000E+00  1.60000000E+01
  1.00800000E+00  1.00800000E+00  1.60000000E+01  1.00800000E+00  1.00800000E+00
  1.60000000E+01  1.00800000E+00  1.00800000E+00  1.60000000E+01  1.00800000E+00
  1.00800000E+00  1.60000000E+01  1.00800000E+00  1.00800000E+00  1.60000000E+01
  1.00800000E+00  1.00800000E+00  1.60000000E+01  1.00800000E+00  1.00800000E+00
  1.60000000E+01  1.00800000E+00  1.00800000E+00  1.60000000E+01  1.00800000E+00
  1.00800000E+00  1.60000000E+01  1.00800000E+00  1.00800000E+00  1.60000000E+01
  1.00800000E+00  1.00800000E+00  1.60000000E+01  1.00800000E+00  1.00800000E+00
  1.60000000E+01  1.00800000E+00  1.00800000E+00  1.60000000E+01  1.00800000E+00
  1.00800000E+00  1.60000000E+01  1.00800000E+00  1.00800000E+00  1.60000000E+01
  1.00800000E+00  1.00800000E+00  1.60000000E+01  1.00800000E+00  1.00800000E+00
  1.60000000E+01  1.00800000E+00  1.00800000E+00  1.60000000E+01  1.00800000E+00
  1.00800000E+00  1.60000000E+01  1.00800000E+00  1.00800000E+00  1.60000000E+01
  1.00800000E+00  1.00800000E+00  1.60000000E+01  1.00800000E+00  1.00800000E+00
  1.60000000E+01  1.00800000E+00  1.00800000E+00  1.60000000E+01  1.00800000E+00
  1.00800000E+00  1.60000000E+01  1.00800000E+00  1.00800000E+00  1.60000000E+01
  1.00800000E+00  1.00800000E+00  1.60000000E+01  1.00800000E+00  1.00800000E+00
  1.60000000E+01  1.00800000E+00  1.00800000E+00  1.60000000E+01  1.00800000E+00
  1.00800000E+00  1.60000000E+01  1.00800000E+00  1.00800000E+00  1.60000000E+01
  1.00800000E+00  1.00800000E+00  1.60000000E+01  1.00800000E+00  1.00800000E+00
  1.60000000E+01  1.00800000E+00  1.00800000E+00  1.60000000E+01  1.00800000E+00
  1.00800000E+00  1.60000000E+01  1.00800000E+00  1.00800000E+00  1.60000000E+01
  1.00800000E+00  1.00800000E+00  1.60000000E+01  1.00800000E+00  1.00800000E+00
  1.60000000E+01  1.00800000E+00  1.00800000E+00  1.60000000E+01  1.00800000E+00
  1.00800000E+00  1.60000000E+01  1.00800000E+00  1.00800000E+00  1.60000000E+01
  1.00800000E+00  1.00800000E+00  1.60000000E+01  1.00800000E+00  1.00800000E+00
  1.60000000E+01  1.00800000E+00  1.00800000E+00  1.60000000E+01  1.00800000E+00
  1.00800000E+00  1.60000000E+01  1.00800000E+00  1.00800000E+00  1.60000000E+01
  1.00800000E+00  1.00800000E+00  1.60000000E+01  1.00800000E+00  1.00800000E+00
  1.60000000E+01  1.00800000E+00  1.00800000E+00  1.60000000E+01  1.00800000E+00
  1.00800000E+00  1.60000000E+01  1.00800000E+00  1.00800000E+00  1.60000000E+01
  1.00800000E+00  1.00800000E+00  1.60000000E+01  1.00800000E+00  1.00800000E+00
  1.60000000E+01  1.00800000E+00  1.00800000E+00  1.60000000E+01  1.00800000E+00
  1.00800000E+00  1.60000000E+01  1.00800000E+00  1.00800000E+00  1.60000000E+01
  1.00800000E+00  1.00800000E+00  1.60000000E+01  1.00800000E+00  1.00800000E+00
  1.60000000E+01  1.00800000E+00  1.00800000E+00  1.60000000E+01  1.00800000E+00
  1.00800000E+00  1.60000000E+01  1.00800000E+00  1.00800000E+00  1.60000000E+01
  1.00800000E+00  1.00800000E+00  1.60000000E+01  1.00800000E+00  1.00800000E+00
  1.60000000E+01  1.00800000E+00  1.00800000E+00  1.60000000E+01  1.00800000E+00
  1.00800000E+00  1.60000000E+01  1.00800000E+00  1.00800000E+00  1.60000000E+01
  1.00800000E+00  1.00800000E+00  1.60000000E+01  1.00800000E+00  1.00800000E+00
  1.60000000E+01  1.00800000E+00  1.00800000E+00  1.60000000E+01  1.00800000E+00
  1.00800000E+00  1.60000000E+01  1.00800000E+00  1.00800000E+00  1.60000000E+01
  1.00800000E+00  1.00800000E+00  1.60000000E+01  1.00800000E+00  1.00800000E+00
  1.60000000E+01  1.00800000E+00  1.00800000E+00  1.60000000E+01  1.00800000E+00
  1.00800000E+00  1.60000000E+01  1.00800000E+00  1.00800000E+00  1.60000000E+01
  1.00800000E+00  1.00800000E+00  1.60000000E+01  1.00800000E+00  1.00800000E+00
  1.60000000E+01  1.00800000E+00  1.00800000E+00  1.60000000E+01  1.00800000E+00
  1.00800000E+00  1.60000000E+01  1.00800000E+00  1.00800000E+00  1.60000000E+01
  1.00800000E+00  1.00800000E+00  1.60000000E+01  1.00800000E+00  1.00800000E+00
  1.60000000E+01  1.00800000E+00  1.00800000E+00  1.60000000E+01  1.00800000E+00
  1.00800000E+00  1.60000000E+01  1.00800000E+00  1.00800000E+00  1.60000000E+01
  1.00800000E+00  1.00800000E+00  1.60000000E+01  1.00800000E+00  1.00800000E+00
  1.60000000E+01  1.00800000E+00  1.00800000E+00  1.60000000E+01  1.00800000E+00
  1.00800000E+00  1.60000000E+01  1.00800000E+00  1.00800000E+00  1.60000000E+01
  1.00800000E+00  1.00800000E+00  1.60000000E+01  1.00800000E+00  1.00800000E+00
  1.60000000E+01  1.00800000E+00  1.00800000E+00  1.60000000E+01  1.00800000E+00
  1.00800000E+00  1.60000000E+01  1.00800000E+00  1.00800000E+00  1.60000000E+01
  1.00800000E+00  1.00800000E+00  1.60000000E+01  1.00800000E+00  1.00800000E+00
  1.60000000E+01  1.00800000E+00  1.00800000E+00  1.60000000E+01  1.00800000E+00
  1.00800000E+00  1.60000000E+01  1.00800000E+00  1.00800000E+00  1.60000000E+01
  1.00800000E+00  1.00800000E+00  1.60000000E+01  1.00800000E+00  1.00800000E+00
  1.60000000E+01  1.00800000E+00  1.00800000E+00  1.60000000E+01  1.00800000E+00
  1.00800000E+00  1.60000000E+01  1.00800000E+00  1.00800000E+00  1.60000000E+01
  1.00800000E+00  1.00800000E+00  1.60000000E+01  1.00800000E+00  1.00800000E+00
  1.60000000E+01  1.00800000E+00  1.00800000E+00  1.60000000E+01  1.00800000E+00
  1.00800000E+00  1.60000000E+01  1.00800000E+00  1.00800000E+00  1.60000000E+01
  1.00800000E+00  1.00800000E+00  1.60000000E+01  1.00800000E+00  1.00800000E+00
  1.60000000E+01  1.00800000E+00  1.00800000E+00  1.60000000E+01  1.00800000E+00
  1.00800000E+00  1.60000000E+01  1.00800000E+00  1.00800000E+00  1.60000000E+01
  1.00800000E+00  1.00800000E+00  1.60000000E+01  1.00800000E+00  1.00800000E+00
  1.60000000E+01  1.00800000E+00  1.00800000E+00  1.60000000E+01  1.00800000E+00
  1.00800000E+00  1.60000000E+01  1.00800000E+00  1.00800000E+00  1.60000000E+01
  1.00800000E+00  1.00800000E+00  1.60000000E+01  1.00800000E+00  1.00800000E+00
  1.60000000E+01  1.00800000E+00  1.00800000E+00  1.60000000E+01  1.00800000E+00
  1.00800000E+00  1.60000000E+01  1.00800000E+00  1.00800000E+00  1.60000000E+01
  1.00800000E+00  1.00800000E+00  1.60000000E+01  1.00800000E+00  1.00800000E+00
  1.60000000E+01  1.00800000E+00  1.00800000E+00  1.60000000E+01  1.00800000E+00
  1.00800000E+00  1.60000000E+01  1.00800000E+00  1.00800000E+00  1.60000000E+01
  1.00800000E+00  1.00800000E+00  1.60000000E+01  1.00800000E+00  1.00800000E+00
  1.60000000E+01  1.00800000E+00  1.00800000E+00  1.60000000E+01  1.00800000E+00
  1.00800000E+00  1.60000000E+01  1.00800000E+00  1.00800000E+00  1.60000000E+01
  1.00800000E+00  1.00800000E+00  1.60000000E+01  1.00800000E+00  1.00800000E+00
  1.60000000E+01  1.00800000E+00  1.00800000E+00  1.60000000E+01  1.00800000E+00
  1.00800000E+00  1.60000000E+01  1.00800000E+00  1.00800000E+00  1.60000000E+01
  1.00800000E+00  1.00800000E+00  1.60000000E+01  1.00800000E+00  1.00800000E+00
  1.60000000E+01  1.00800000E+00  1.00800000E+00  1.60000000E+01  1.00800000E+00
  1.00800000E+00  1.60000000E+01  1.00800000E+00  1.00800000E+00  1.60000000E+01
  1.00800000E+00  1.00800000E+00  1.60000000E+01  1.00800000E+00  1.00800000E+00
  1.60000000E+01  1.00800000E+00  1.00800000E+00  1.60000000E+01  1.00800000E+00
  1.00800000E+00  1.60000000E+01  1.00800000E+00  1.00800000E+00  1.60000000E+01
  1.00800000E+00  1.00800000E+00  1.60000000E+01  1.00800000E+00  1.00800000E+00
  1.60000000E+01  1.00800000E+00  1.00800000E+00  1.60000000E+01  1.00800000E+00
  1.00800000E+00  1.60000000E+01  1.00800000E+00  1.00800000E+00  1.60000000E+01
  1.00800000E+00  1.00800000E+00  1.60000000E+01  1.00800000E+00  1.00800000E+00
  1.60000000E+01  1.00800000E+00  1.00800000E+00  1.60000000E+01  1.00800000E+00
  1.00800000E+00  1.60000000E+01  1.00800000E+00  1.00800000E+00  1.60000000E+01
  1.00800000E+00  1.00800000E+00  1.60000000E+01  1.00800000E+00  1.00800000E+00
  1.60000000E+01  1.00800000E+00  1.00800000E+00  1.60000000E+01  1.00800000E+00
  1.00800000E+00  1.60000000E+01  1.00800000E+00  1.00800000E+00  1.60000000E+01
  1.00800000E+00  1.00800000E+00  1.60000000E+01  1.00800000E+00  1.00800000E+00
  1.60000000E+01  1.00800000E+00  1.00800000E+00  1.60000000E+01  1.00800000E+00
  1.00800000E+00  1.60000000E+01  1.00800000E+00  1.00800000E+00  1.60000000E+01
  1.00800000E+00  1.00800000E+00  1.60000000E+01  1.00800000E+00  1.00800000E+00
  1.60000000E+01  1.00800000E+00  1.00800000E+00  1.60000000E+01  1.00800000E+00
  1.00800000E+00  1.60000000E+01  1.00800000E+00  1.00800000E+00  1.60000000E+01
  1.00800000E+00  1.00800000E+00  1.60000000E+01  1.00800000E+00  1.00800000E+00
  1.60000000E+01  1.00800000E+00  1.00800000E+00  1.60000000E+01  1.00800000E+00
  1.00800000E+00  1.60000000E+01  1.00800000E+00  1.00800000E+00  1.60000000E+01
  1.00800000E+00  1.00800000E+00  1.60000000E+01  1.00800000E+00  1.00800000E+00
  1.60000000E+01  1.00800000E+00  1.00800000E+00  1.60000000E+01  1.00800000E+00
  1.00800000E+00  1.60000000E+01  1.00800000E+00  1.00800000E+00  1.60000000E+01
  1.00800000E+00  1.00800000E+00  1.60000000E+01  1.00800000E+00  1.00800000E+00
  1.60000000E+01  1.00800000E+00  1.00800000E+00  1.60000000E+01  1.00800000E+00
  1.00800000E+00  1.60000000E+01  1.00800000E+00  1.00800000E+00  1.60000000E+01
  1.00800000E+00  1.00800000E+00  1.60000000E+01  1.00800000E+00  1.00800000E+00
  1.60000000E+01  1.00800000E+00  1.00800000E+00  1.60000000E+01  1.00800000E+00
  1.00800000E+00  1.60000000E+01  1.00800000E+00  1.00800000E+00  1.60000000E+01
  1.00800000E+00  1.00800000E+00  1.60000000E+01  1.00800000E+00  1.00800000E+00
  1.60000000E+01  1.00800000E+00  1.00800000E+00  1.60000000E+01  1.00800000E+00
  1.00800000E+00  1.60000000E+01  1.00800000E+00  1.00800000E+00  1.60000000E+01
  1.00800000E+00  1.00800000E+00  1.60000000E+01  1.00800000E+00  1.00800000E+00
  1.60000000E+01  1.00800000E+00  1.00800000E+00  1.60000000E+01  1.00800000E+00
  1.00800000E+00  1.60000000E+01  1.00800000E+00  1.00800000E+00  1.60000000E+01
  1.00800000E+00  1.00800000E+00  1.60000000E+01  1.00800000E+00  1.00800000E+00
  1.60000000E+01  1.00800000E+00  1.00800000E+00  1.60000000E+01  1.00800000E+00
  1.00800000E+00  1.60000000E+01  1.00800000E+00  1.00800000E+00  1.60000000E+01
  1.00800000E+00  1.00800000E+00  1.60000000E+01  1.00800000E+00  1.00800000E+00
  1.60000000E+01  1.00800000E+00  1.00800000E+00  1.60000000E+01  1.00800000E+00
  1.00800000E+00  1.60000000E+01  1.00800000E+00  1.00800000E+00  1.60000000E+01
  1.00800000E+00  1.00800000E+00  1.60000000E+01  1.00800000E+00  1.00800000E+00
  1.60000000E+01  1.00800000E+00  1.00800000E+00  1.60000000E+01  1.00800000E+00
  1.00800000E+00  1.60000000E+01  1.00800000E+00  1.00800000E+00  1.60000000E+01
  1.00800000E+00  1.00800000E+00  1.60000000E+01  1.00800000E+00  1.00800000E+00
  1.60000000E+01  1.00800000E+00  1.00800000E+00  1.60000000E+01  1.00800000E+00
  1.00800000E+00  1.60000000E+01  1.00800000E+00  1.00800000E+00  1.60000000E+01
  1.00800000E+00  1.00800000E+00  1.60000000E+01  1.00800000E+00  1.00800000E+00
  1.60000000E+01  1.00800000E+00  1.00800000E+00  1.60000000E+01  1.00800000E+00
  1.00800000E+00  1.60000000E+01  1.00800000E+00  1.00800000E+00  1.60000000E+01
  1.00800000E+00  1.00800000E+00  1.60000000E+01  1.00800000E+00  1.00800000E+00
  1.60000000E+01  1.00800000E+00  1.00800000E+00  1.60000000E+01  1.00800000E+00
  1.00800000E+00  1.60000000E+01  1.00800000E+00  1.00800000E+00  1.60000000E+01
  1.00800000E+00  1.00800000E+00  1.60000000E+01  1.00800000E+00  1.00800000E+00
  1.60000000E+01  1.00800000E+00  1.00800000E+00  1.60000000E+01  1.00800000E+00
  1.00800000E+00  1.60000000E+01  1.00800000E+00  1.00800000E+00  1.60000000E+01
  1.00800000E+00  1.00800000E+00  1.60000000E+01  1.00800000E+00  1.00800000E+00
  1.60000000E+01  1.00800000E+00  1.00800000E+00  1.60000000E+01  1.00800000E+00
  1.00800000E+00  1.60000000E+01  1.00800000E+00  1.00800000E+00  1.60000000E+01
  1.00800000E+00  1.00800000E+00  1.60000000E+01  1.00800000E+00  1.00800000E+00
  1.60000000E+01  1.00800000E+00  1.00800000E+00  1.60000000E+01  1.00800000E+00
  1.00800000E+00  1.60000000E+01  1.00800000E+00  1.00800000E+00  1.60000000E+01
  1.00800000E+00  1.00800000E+00  1.60000000E+01  1.00800000E+00  1.00800000E+00
  1.60000000E+01  1.00800000E+00  1.00800000E+00  1.60000000E+01  1.00800000E+00
  1.00800000E+00  1.60000000E+01  1.00800000E+00  1.00800000E+00  1.60000000E+01
  1.00800000E+00  1.00800000E+00  1.60000000E+01  1.00800000E+00  1.00800000E+00
  1.60000000E+01  1.00800000E+00  1.00800000E+00  1.60000000E+01  1.00800000E+00
  1.00800000E+00  1.60000000E+01  1.00800000E+00  1.00800000E+00  1.60000000E+01
  1.00800000E+00  1.00800000E+00  1.60000000E+01  1.00800000E+00  1.00800000E+00
  1.60000000E+01  1.00800000E+00  1.00800000E+00  1.60000000E+01  1.00800000E+00
  1.00800000E+00  1.60000000E+01  1.00800000E+00  1.00800000E+00  1.60000000E+01
  1.00800000E+00  1.00800000E+00  1.60000000E+01  1.00800000E+00  1.00800000E+00
  1.60000000E+01  1.00800000E+00  1.00800000E+00  1.60000000E+01  1.00800000E+00
  1.00800000E+00  1.60000000E+01  1.00800000E+00  1.00800000E+00  1.60000000E+01
  1.00800000E+00  1.00800000E+00  1.60000000E+01  1.00800000E+00  1.00800000E+00
  1.60000000E+01  1.00800000E+00  1.00800000E+00  1.60000000E+01  1.00800000E+00
  1.00800000E+00  1.60000000E+01  1.00800000E+00  1.00800000E+00  1.60000000E+01
  1.00800000E+00  1.00800000E+00  1.60000000E+01  1.00800000E+00  1.00800000E+00
  1.60000000E+01  1.00800000E+00  1.00800000E+00  1.60000000E+01  1.00800000E+00
  1.00800000E+00  1.60000000E+01  1.00800000E+00  1.00800000E+00  1.60000000E+01
  1.00800000E+00  1.00800000E+00  1.60000000E+01  1.00800000E+00  1.00800000E+00
  1.60000000E+01  1.00800000E+00  1.00800000E+00  1.60000000E+01  1.00800000E+00
  1.00800000E+00  1.60000000E+01  1.00800000E+00  1.00800000E+00  1.60000000E+01
  1.00800000E+00  1.00800000E+00  1.60000000E+01  1.00800000E+00  1.00800000E+00
  1.60000000E+01  1.00800000E+00  1.00800000E+00  1.60000000E+01  1.00800000E+00
  1.00800000E+00  1.60000000E+01  1.00800000E+00  1.00800000E+00  1.60000000E+01
  1.00800000E+00  1.00800000E+00  1.60000000E+01  1.00800000E+00  1.00800000E+00
  1.60000000E+01  1.00800000E+00  1.00800000E+00  1.60000000E+01  1.00800000E+00
  1.00800000E+00  1.60000000E+01  1.00800000E+00  1.00800000E+00  1.60000000E+01
  1.00800000E+00  1.00800000E+00  1.60000000E+01  1.00800000E+00  1.00800000E+00
  1.60000000E+01  1.00800000E+00  1.00800000E+00  1.60000000E+01  1.00800000E+00
  1.00800000E+00  1.60000000E+01  1.00800000E+00  1.00800000E+00  1.60000000E+01
  1.00800000E+00  1.00800000E+00  1.60000000E+01  1.00800000E+00  1.00800000E+00
  1.60000000E+01  1.00800000E+00  1.00800000E+00  1.60000000E+01  1.00800000E+00
  1.00800000E+00  1.60000000E+01  1.00800000E+00  1.00800000E+00  1.60000000E+01
  1.00800000E+00  1.00800000E+00  1.60000000E+01  1.00800000E+00  1.00800000E+00
  1.60000000E+01  1.00800000E+00  1.00800000E+00  1.60000000E+01  1.00800000E+00
  1.00800000E+00  1.60000000E+01  1.00800000E+00  1.00800000E+00  1.60000000E+01
  1.00800000E+00  1.00800000E+00  1.60000000E+01  1.00800000E+00  1.00800000E+00
  1.60000000E+01  1.00800000E+00  1.00800000E+00  1.60000000E+01  1.00800000E+00
  1.00800000E+00  1.60000000E+01  1.00800000E+00  1.00800000E+00  1.60000000E+01
  1.00800000E+00  1.00800000E+00  1.60000000E+01  1.00800000E+00  1.00800000E+00
  1.60000000E+01  1.00800000E+00  1.00800000E+00  1.60000000E+01  1.00800000E+00
  1.00800000E+00  1.60000000E+01  1.00800000E+00  1.00800000E+00  1.60000000E+01
  1.00800000E+00  1.00800000E+00  1.60000000E+01  1.00800000E+00  1.00800000E+00
  1.60000000E+01  1.00800000E+00  1.00800000E+00  1.60000000E+01  1.00800000E+00
  1.00800000E+00  1.60000000E+01  1.00800000E+00  1.00800000E+00  1.60000000E+01
  1.00800000E+00  1.00800000E+00  1.60000000E+01  1.00800000E+00  1.00800000E+00
  1.60000000E+01  1.00800000E+00  1.00800000E+00  1.60000000E+01  1.00800000E+00
  1.00800000E+00  1.60000000E+01  1.00800000E+00  1.00800000E+00  1.60000000E+01
  1.00800000E+00  1.00800000E+00  1.60000000E+01  1.00800000E+00  1.00800000E+00
  1.60000000E+01  1.00800000E+00  1.00800000E+00  1.60000000E+01  1.00800000E+00
  1.00800000E+00  1.60000000E+01  1.00800000E+00  1.00800000E+00  1.60000000E+01
  1.00800000E+00  1.00800000E+00  1.60000000E+01  1.00800000E+00  1.00800000E+00
  1.60000000E+01  1.00800000E+00  1.00800000E+00  1.60000000E+01  1.00800000E+00
  1.00800000E+00  1.60000000E+01  1.00800000E+00  1.00800000E+00  1.60000000E+01
  1.00800000E+00  1.00800000E+00  1.60000000E+01  1.00800000E+00  1.00800000E+00
  1.60000000E+01  1.00800000E+00  1.00800000E+00  1.60000000E+01  1.00800000E+00
  1.00800000E+00  1.60000000E+01  1.00800000E+00  1.00800000E+00  1.60000000E+01
  1.00800000E+00  1.00800000E+00  1.60000000E+01  1.00800000E+00  1.00800000E+00
  1.60000000E+01  1.00800000E+00  1.00800000E+00  1.60000000E+01  1.00800000E+00
  1.00800000E+00  1.60000000E+01  1.00800000E+00  1.00800000E+00  1.60000000E+01
  1.00800000E+00  1.00800000E+00  1.60000000E+01  1.00800000E+00  1.00800000E+00
  1.60000000E+01  1.00800000E+00  1.00800000E+00  1.60000000E+01  1.00800000E+00
  1.00800000E+00  1.60000000E+01  1.00800000E+00  1.00800000E+00  1.60000000E+01
  1.00800000E+00  1.00800000E+00  1.60000000E+01  1.00800000E+00  1.00800000E+00
  1.60000000E+01  1.00800000E+00  1.00800000E+00  1.60000000E+01  1.00800000E+00
  1.00800000E+00  1.60000000E+01  1.00800000E+00  1.00800000E+00  1.60000000E+01
  1.00800000E+00  1.00800000E+00  1.60000000E+01  1.00800000E+00  1.00800000E+00
  1.60000000E+01  1.00800000E+00  1.00800000E+00  1.60000000E+01  1.00800000E+00
  1.00800000E+00  1.60000000E+01  1.00800000E+00  1.00800000E+00  1.60000000E+01
  1.00800000E+00  1.00800000E+00  1.60000000E+01  1.00800000E+00  1.00800000E+00
  1.60000000E+01  1.00800000E+00  1.00800000E+00  1.60000000E+01  1.00800000E+00
  1.00800000E+00  1.60000000E+01  1.00800000E+00  1.00800000E+00  1.60000000E+01
  1.00800000E+00  1.00800000E+00  1.60000000E+01  1.00800000E+00  1.00800000E+00
  1.60000000E+01  1.00800000E+00  1.00800000E+00  1.60000000E+01  1.00800000E+00
  1.00800000E+00  1.60000000E+01  1.00800000E+00  1.00800000E+00  1.60000000E+01
  1.00800000E+00  1.00800000E+00  1.60000000E+01  1.00800000E+00  1.00800000E+00
  1.60000000E+01  1.00800000E+00  1.00800000E+00  1.60000000E+01  1.00800000E+00
  1.00800000E+00  1.60000000E+01  1.00800000E+00  1.00800000E+00  1.60000000E+01
  1.00800000E+00  1.00800000E+00  1.60000000E+01  1.00800000E+00  1.00800000E+00
  1.60000000E+01  1.00800000E+00  1.00800000E+00  1.60000000E+01  1.00800000E+00
  1.00800000E+00  1.60000000E+01  1.00800000E+00  1.00800000E+00  1.60000000E+01
  1.00800000E+00  1.00800000E+00  1.60000000E+01  1.00800000E+00  1.00800000E+00
  1.60000000E+01  1.00800000E+00  1.00800000E+00  1.60000000E+01  1.00800000E+00
  1.00800000E+00  1.60000000E+01  1.00800000E+00  1.00800000E+00  1.60000000E+01
  1.00800000E+00  1.00800000E+00  1.60000000E+01  1.00800000E+00  1.00800000E+00
  1.60000000E+01  1.00800000E+00  1.00800000E+00  1.60000000E+01  1.00800000E+00
  1.00800000E+00  1.60000000E+01  1.00800000E+00  1.00800000E+00  1.60000000E+01
  1.00800000E+00  1.00800000E+00  1.60000000E+01  1.00800000E+00  1.00800000E+00
  1.60000000E+01  1.00800000E+00  1.00800000E+00  1.60000000E+01  1.00800000E+00
  1.00800000E+00  1.60000000E+01  1.00800000E+00  1.00800000E+00  1.60000000E+01
  1.00800000E+00  1.00800000E+00  1.60000000E+01  1.00800000E+00  1.00800000E+00
  1.60000000E+01  1.00800000E+00  1.00800000E+00  1.60000000E+01  1.00800000E+00
  1.00800000E+00  1.60000000E+01  1.00800000E+00  1.00800000E+00  1.60000000E+01
  1.00800000E+00  1.00800000E+00  1.60000000E+01  1.00800000E+00  1.00800000E+00
  1.60000000E+01  1.00800000E+00  1.00800000E+00  1.60000000E+01  1.00800000E+00
  1.00800000E+00  1.60000000E+01  1.00800000E+00  1.00800000E+00  1.60000000E+01
  1.00800000E+00  1.00800000E+00  1.60000000E+01  1.00800000E+00  1.00800000E+00
  1.60000000E+01  1.00800000E+00  1.00800000E+00  1.60000000E+01  1.00800000E+00
  1.00800000E+00  1.60000000E+01  1.00800000E+00  1.00800000E+00  1.60000000E+01
  1.00800000E+00  1.00800000E+00  1.60000000E+01  1.00800000E+00  1.00800000E+00
  1.60000000E+01  1.00800000E+00  1.00800000E+00  1.60000000E+01  1.00800000E+00
  1.00800000E+00  1.60000000E+01  1.00800000E+00  1.00800000E+00  1.60000000E+01
  1.00800000E+00  1.00800000E+00  1.60000000E+01  1.00800000E+00  1.00800000E+00
  1.60000000E+01  1.00800000E+00  1.00800000E+00  1.60000000E+01  1.00800000E+00
  1.00800000E+00  1.60000000E+01  1.00800000E+00  1.00800000E+00  1.60000000E+01
  1.00800000E+00  1.00800000E+00  1.60000000E+01  1.00800000E+00  1.00800000E+00
  1.60000000E+01  1.00800000E+00  1.00800000E+00  1.60000000E+01  1.00800000E+00
  1.00800000E+00  1.60000000E+01  1.00800000E+00  1.00800000E+00  1.60000000E+01
  1.00800000E+00  1.00800000E+00  1.60000000E+01  1.00800000E+00  1.00800000E+00
  1.60000000E+01  1.00800000E+00  1.00800000E+00  1.60000000E+01  1.00800000E+00
  1.00800000E+00  1.60000000E+01  1.00800000E+00  1.00800000E+00  1.60000000E+01
  1.00800000E+00  1.00800000E+00  1.60000000E+01  1.00800000E+00  1.00800000E+00
  1.60000000E+01  1.00800000E+00  1.00800000E+00  1.60000000E+01  1.00800000E+00
  1.00800000E+00  1.60000000E+01  1.00800000E+00  1.00800000E+00  1.60000000E+01
  1.00800000E+00  1.00800000E+00  1.60000000E+01  1.00800000E+00  1.00800000E+00
  1.60000000E+01  1.00800000E+00  1.00800000E+00  1.60000000E+01  1.00800000E+00
  1.00800000E+00  1.60000000E+01  1.00800000E+00  1.00800000E+00  1.60000000E+01
  1.00800000E+00  1.00800000E+00  1.60000000E+01  1.00800000E+00  1.00800000E+00
  1.60000000E+01  1.00800000E+00  1.00800000E+00  1.60000000E+01  1.00800000E+00
  1.00800000E+00  1.60000000E+01  1.00800000E+00  1.00800000E+00  1.60000000E+01
  1.00800000E+00  1.00800000E+00  1.60000000E+01  1.00800000E+00  1.00800000E+00
  1.60000000E+01  1.00800000E+00  1.00800000E+00  1.60000000E+01  1.00800000E+00
  1.00800000E+00  1.60000000E+01  1.00800000E+00  1.00800000E+00  1.60000000E+01
  1.00800000E+00  1.00800000E+00  1.60000000E+01  1.00800000E+00  1.00800000E+00
  1.60000000E+01  1.00800000E+00  1.00800000E+00  1.60000000E+01  1.00800000E+00
  1.00800000E+00  1.60000000E+01  1.00800000E+00  1.00800000E+00  1.60000000E+01
  1.00800000E+00  1.00800000E+00  1.60000000E+01  1.00800000E+00  1.00800000E+00
  1.60000000E+01  1.00800000E+00  1.00800000E+00  1.60000000E+01  1.00800000E+00
  1.00800000E+00  1.60000000E+01  1.00800000E+00  1.00800000E+00  1.60000000E+01
  1.00800000E+00  1.00800000E+00  1.60000000E+01  1.00800000E+00  1.00800000E+00
  1.60000000E+01  1.00800000E+00  1.00800000E+00  1.60000000E+01  1.00800000E+00
  1.00800000E+00  1.60000000E+01  1.00800000E+00  1.00800000E+00  1.60000000E+01
  1.00800000E+00  1.00800000E+00  1.60000000E+01  1.00800000E+00  1.00800000E+00
  1.60000000E+01  1.00800000E+00  1.00800000E+00  1.60000000E+01  1.00800000E+00
  1.00800000E+00  1.60000000E+01  1.00800000E+00  1.00800000E+00  1.60000000E+01
  1.00800000E+00  1.00800000E+00  1.60000000E+01  1.00800000E+00  1.00800000E+00
  1.60000000E+01  1.00800000E+00  1.00800000E+00  1.60000000E+01  1.00800000E+00
  1.00800000E+00  1.60000000E+01  1.00800000E+00  1.00800000E+00  1.60000000E+01
  1.00800000E+00  1.00800000E+00  1.60000000E+01  1.00800000E+00  1.00800000E+00
  1.60000000E+01  1.00800000E+00  1.00800000E+00  1.60000000E+01  1.00800000E+00
  1.00800000E+00  1.60000000E+01  1.00800000E+00  1.00800000E+00  1.60000000E+01
  1.00800000E+00  1.00800000E+00  1.60000000E+01  1.00800000E+00  1.00800000E+00
  1.60000000E+01  1.00800000E+00  1.00800000E+00  1.60000000E+01  1.00800000E+00
  1.00800000E+00  1.60000000E+01  1.00800000E+00  1.00800000E+00  1.60000000E+01
  1.00800000E+00  1.00800000E+00  1.60000000E+01  1.00800000E+00  1.00800000E+00
  1.60000000E+01  1.00800000E+00  1.00800000E+00  1.60000000E+01  1.00800000E+00
  1.00800000E+00  1.60000000E+01  1.00800000E+00  1.00800000E+00  1.60000000E+01
  1.00800000E+00  1.00800000E+00  1.60000000E+01  1.00800000E+00  1.00800000E+00
  1.60000000E+01  1.00800000E+00  1.00800000E+00  1.60000000E+01  1.00800000E+00
  1.00800000E+00  1.60000000E+01  1.00800000E+00  1.00800000E+00  1.60000000E+01
  1.00800000E+00  1.00800000E+00  1.60000000E+01  1.00800000E+00  1.00800000E+00
  1.60000000E+01  1.00800000E+00  1.00800000E+00  1.60000000E+01  1.00800000E+00
  1.00800000E+00  1.60000000E+01  1.00800000E+00  1.00800000E+00  1.60000000E+01
  1.00800000E+00  1.00800000E+00  1.60000000E+01  1.00800000E+00  1.00800000E+00
  1.60000000E+01  1.00800000E+00  1.00800000E+00  1.60000000E+01  1.00800000E+00
  1.00800000E+00  1.60000000E+01  1.00800000E+00  1.00800000E+00  1.60000000E+01
  1.00800000E+00  1.00800000E+00  1.60000000E+01  1.00800000E+00  1.00800000E+00
  1.60000000E+01  1.00800000E+00  1.00800000E+00  1.60000000E+01  1.00800000E+00
  1.00800000E+00  1.60000000E+01  1.00800000E+00  1.00800000E+00  1.60000000E+01
  1.00800000E+00  1.00800000E+00  1.60000000E+01  1.00800000E+00  1.00800000E+00
  1.60000000E+01  1.00800000E+00  1.00800000E+00  1.60000000E+01  1.00800000E+00
  1.00800000E+00  1.60000000E+01  1.00800000E+00  1.00800000E+00  1.60000000E+01
  1.00800000E+00  1.00800000E+00  1.60000000E+01  1.00800000E+00  1.00800000E+00
  1.60000000E+01  1.00800000E+00  1.00800000E+00  1.60000000E+01  1.00800000E+00
  1.00800000E+00  1.60000000E+01  1.00800000E+00  1.00800000E+00  1.60000000E+01
  1.00800000E+00  1.00800000E+00  1.60000000E+01  1.00800000E+00  1.00800000E+00
  1.60000000E+01  1.00800000E+00  1.00800000E+00  1.60000000E+01  1.00800000E+00
  1.00800000E+00  1.60000000E+01  1.00800000E+00  1.00800000E+00  1.60000000E+01
  1.00800000E+00  1.00800000E+00  1.60000000E+01  1.00800000E+00  1.00800000E+00
  1.60000000E+01  1.00800000E+00  1.00800000E+00  1.60000000E+01  1.00800000E+00
  1.00800000E+00  1.60000000E+01  1.00800000E+00  1.00800000E+00  1.60000000E+01
  1.00800000E+00  1.00800000E+00  1.60000000E+01  1.00800000E+00  1.00800000E+00
  1.60000000E+01  1.00800000E+00  1.00800000E+00  1.60000000E+01  1.00800000E+00
  1.00800000E+00  1.60000000E+01  1.00800000E+00  1.00800000E+00  1.60000000E+01
  1.00800000E+00  1.00800000E+00  1.60000000E+01  1.00800000E+00  1.00800000E+00
  1.60000000E+01  1.00800000E+00  1.00800000E+00  1.60000000E+01  1.00800000E+00
  1.00800000E+00  1.60000000E+01  1.00800000E+00  1.00800000E+00  1.60000000E+01
  1.00800000E+00  1.00800000E+00  1.60000000E+01  1.00800000E+00  1.00800000E+00
  1.60000000E+01  1.00800000E+00  1.00800000E+00  1.60000000E+01  1.00800000E+00
  1.00800000E+00  1.60000000E+01  1.00800000E+00  1.00800000E+00  1.60000000E+01
  1.00800000E+00  1.00800000E+00  1.60000000E+01  1.00800000E+00  1.00800000E+00
  1.60000000E+01  1.00800000E+00  1.00800000E+00  1.60000000E+01  1.00800000E+00
  1.00800000E+00  1.60000000E+01  1.00800000E+00  1.00800000E+00  1.60000000E+01
  1.00800000E+00  1.00800000E+00  1.60000000E+01  1.00800000E+00  1.00800000E+00
  1.60000000E+01  1.00800000E+00  1.00800000E+00  1.60000000E+01  1.00800000E+00
  1.00800000E+00  1.60000000E+01  1.00800000E+00  1.00800000E+00  1.60000000E+01
  1.00800000E+00  1.00800000E+00  1.60000000E+01  1.00800000E+00  1.00800000E+00
  1.60000000E+01  1.00800000E+00  1.00800000E+00  1.60000000E+01  1.00800000E+00
  1.00800000E+00  1.60000000E+01  1.00800000E+00  1.00800000E+00  1.60000000E+01
  1.00800000E+00  1.00800000E+00  1.60000000E+01  1.00800000E+00  1.00800000E+00
  1.60000000E+01  1.00800000E+00  1.00800000E+00  1.60000000E+01  1.00800000E+00
  1.00800000E+00  1.60000000E+01  1.00800000E+00  1.00800000E+00  1.60000000E+01
  1.00800000E+00  1.00800000E+00  1.60000000E+01  1.00800000E+00  1.00800000E+00
  1.60000000E+01  1.00800000E+00  1.00800000E+00  1.60000000E+01  1.00800000E+00
  1.00800000E+00  1.60000000E+01  1.00800000E+00  1.00800000E+00  1.60000000E+01
  1.00800000E+00  1.00800000E+00  1.60000000E+01  1.00800000E+00  1.00800000E+00
  1.60000000E+01  1.00800000E+00  1.00800000E+00  1.60000000E+01  1.00800000E+00
  1.00800000E+00  1.60000000E+01  1.00800000E+00  1.00800000E+00  1.60000000E+01
  1.00800000E+00  1.00800000E+00  1.60000000E+01  1.00800000E+00  1.00800000E+00
  1.60000000E+01  1.00800000E+00  1.00800000E+00  1.60000000E+01  1.00800000E+00
  1.00800000E+00  1.60000000E+01  1.00800000E+00  1.00800000E+00  1.60000000E+01
  1.00800000E+00  1.00800000E+00  1.60000000E+01  1.00800000E+00  1.00800000E+00
  1.60000000E+01  1.00800000E+00  1.00800000E+00  1.60000000E+01  1.00800000E+00
  1.00800000E+00  1.60000000E+01  1.00800000E+00  1.00800000E+00  1.60000000E+01
  1.00800000E+00  1.00800000E+00  1.60000000E+01  1.00800000E+00  1.00800000E+00
  1.60000000E+01  1.00800000E+00  1.00800000E+00  1.60000000E+01  1.00800000E+00
  1.00800000E+00  1.60000000E+01  1.00800000E+00  1.00800000E+00  1.60000000E+01
  1.00800000E+00  1.00800000E+00  1.60000000E+01  1.00800000E+00  1.00800000E+00
  1.60000000E+01  1.00800000E+00  1.00800000E+00  1.60000000E+01  1.00800000E+00
  1.00800000E+00  1.60000000E+01  1.00800000E+00  1.00800000E+00  1.60000000E+01
  1.00800000E+00  1.00800000E+00  1.60000000E+01  1.00800000E+00  1.00800000E+00
  1.60000000E+01  1.00800000E+00  1.00800000E+00  1.60000000E+01  1.00800000E+00
  1.00800000E+00  1.60000000E+01  1.00800000E+00  1.00800000E+00  1.60000000E+01
  1.00800000E+00  1.00800000E+00  1.60000000E+01  1.00800000E+00  1.00800000E+00
  1.60000000E+01  1.00800000E+00  1.00800000E+00  1.60000000E+01  1.00800000E+00
  1.00800000E+00  1.60000000E+01  1.00800000E+00  1.00800000E+00  1.60000000E+01
  1.00800000E+00  1.00800000E+00  1.60000000E+01  1.00800000E+00  1.00800000E+00
  1.60000000E+01  1.00800000E+00  1.00800000E+00  1.60000000E+01  1.00800000E+00
  1.00800000E+00  1.60000000E+01  1.00800000E+00  1.00800000E+00  1.60000000E+01
  1.00800000E+00  1.00800000E+00  1.60000000E+01  1.00800000E+00  1.00800000E+00
  1.60000000E+01  1.00800000E+00  1.00800000E+00  1.60000000E+01  1.00800000E+00
  1.00800000E+00  1.60000000E+01  1.00800000E+00  1.00800000E+00  1.60000000E+01
  1.00800000E+00  1.00800000E+00  1.60000000E+01  1.00800000E+00  1.00800000E+00
  1.60000000E+01  1.00800000E+00  1.00800000E+00  1.60000000E+01  1.00800000E+00
  1.00800000E+00  1.60000000E+01  1.00800000E+00  1.00800000E+00  1.60000000E+01
  1.00800000E+00  1.00800000E+00  1.60000000E+01  1.00800000E+00  1.00800000E+00
  1.60000000E+01  1.00800000E+00  1.00800000E+00  1.60000000E+01  1.00800000E+00
  1.00800000E+00  1.60000000E+01  1.00800000E+00  1.00800000E+00  1.60000000E+01
  1.00800000E+00  1.00800000E+00  1.60000000E+01  1.00800000E+00  1.00800000E+00
  1.60000000E+01  1.00800000E+00  1.00800000E+00  1.60000000E+01  1.00800000E+00
  1.00800000E+00  1.60000000E+01  1.00800000E+00  1.00800000E+00  1.60000000E+01
  1.00800000E+00  1.00800000E+00  1.60000000E+01  1.00800000E+00  1.00800000E+00
  1.60000000E+01  1.00800000E+00  1.00800000E+00  1.60000000E+01  1.00800000E+00
  1.00800000E+00  1.60000000E+01  1.00800000E+00  1.00800000E+00  1.60000000E+01
  1.00800000E+00  1.00800000E+00  1.60000000E+01  1.00800000E+00  1.00800000E+00
  1.60000000E+01  1.00800000E+00  1.00800000E+00  1.60000000E+01  1.00800000E+00
  1.00800000E+00  1.60000000E+01  1.00800000E+00  1.00800000E+00  1.60000000E+01
  1.00800000E+00  1.00800000E+00  1.60000000E+01  1.00800000E+00  1.00800000E+00
  1.60000000E+01  1.00800000E+00  1.00800000E+00  1.60000000E+01  1.00800000E+00
  1.00800000E+00  1.60000000E+01  1.00800000E+00  1.00800000E+00  1.60000000E+01
  1.00800000E+00  1.00800000E+00  1.60000000E+01  1.00800000E+00  1.00800000E+00
  1.60000000E+01  1.00800000E+00  1.00800000E+00  1.60000000E+01  1.00800000E+00
  1.00800000E+00  1.60000000E+01  1.00800000E+00  1.00800000E+00  1.60000000E+01
  1.00800000E+00  1.00800000E+00  1.60000000E+01  1.00800000E+00  1.00800000E+00
  1.60000000E+01  1.00800000E+00  1.00800000E+00  1.60000000E+01  1.00800000E+00
  1.00800000E+00  1.60000000E+01  1.00800000E+00  1.00800000E+00  1.60000000E+01
  1.00800000E+00  1.00800000E+00  1.60000000E+01  1.00800000E+00  1.00800000E+00
  1.60000000E+01  1.00800000E+00  1.00800000E+00  1.60000000E+01  1.00800000E+00
  1.00800000E+00  1.60000000E+01  1.00800000E+00  1.00800000E+00  1.60000000E+01
  1.00800000E+00  1.00800000E+00  1.60000000E+01  1.00800000E+00  1.00800000E+00
  1.60000000E+01  1.00800000E+00  1.00800000E+00  1.60000000E+01  1.00800000E+00
  1.00800000E+00  1.60000000E+01  1.00800000E+00  1.00800000E+00  1.60000000E+01
  1.00800000E+00  1.00800000E+00  1.60000000E+01  1.00800000E+00  1.00800000E+00
  1.60000000E+01  1.00800000E+00  1.00800000E+00  1.60000000E+01  1.00800000E+00
  1.00800000E+00  1.60000000E+01  1.00800000E+00  1.00800000E+00  1.60000000E+01
  1.00800000E+00  1.00800000E+00  1.60000000E+01  1.00800000E+00  1.00800000E+00
  1.60000000E+01  1.00800000E+00  1.00800000E+00  1.60000000E+01  1.00800000E+00
  1.00800000E+00  1.60000000E+01  1.00800000E+00  1.00800000E+00  1.60000000E+01
  1.00800000E+00  1.00800000E+00  1.60000000E+01  1.00800000E+00  1.00800000E+00
  1.60000000E+01  1.00800000E+00  1.00800000E+00  1.60000000E+01  1.00800000E+00
  1.00800000E+00  1.60000000E+01  1.00800000E+00  1.00800000E+00  1.60000000E+01
  1.00800000E+00  1.00800000E+00  1.60000000E+01  1.00800000E+00  1.00800000E+00
  1.60000000E+01  1.00800000E+00  1.00800000E+00  1.60000000E+01  1.00800000E+00
  1.00800000E+00  1.60000000E+01  1.00800000E+00  1.00800000E+00  1.60000000E+01
  1.00800000E+00  1.00800000E+00  1.60000000E+01  1.00800000E+00  1.00800000E+00
  1.60000000E+01  1.00800000E+00  1.00800000E+00  1.60000000E+01  1.00800000E+00
  1.00800000E+00  1.60000000E+01  1.00800000E+00  1.00800000E+00  1.60000000E+01
  1.00800000E+00  1.00800000E+00  1.60000000E+01  1.00800000E+00  1.00800000E+00
  1.60000000E+01  1.00800000E+00  1.00800000E+00  1.60000000E+01  1.00800000E+00
  1.00800000E+00  1.60000000E+01  1.00800000E+00  1.00800000E+00  1.60000000E+01
  1.00800000E+00  1.00800000E+00  1.60000000E+01  1.00800000E+00  1.00800000E+00
  1.60000000E+01  1.00800000E+00  1.00800000E+00  1.60000000E+01  1.00800000E+00
  1.00800000E+00  1.60000000E+01  1.00800000E+00  1.00800000E+00  1.60000000E+01
  1.00800000E+00  1.00800000E+00  1.60000000E+01  1.00800000E+00  1.00800000E+00
  1.60000000E+01  1.00800000E+00  1.00800000E+00  1.60000000E+01  1.00800000E+00
  1.00800000E+00  1.60000000E+01  1.00800000E+00  1.00800000E+00  1.60000000E+01
  1.00800000E+00  1.00800000E+00  1.60000000E+01  1.00800000E+00  1.00800000E+00
  1.60000000E+01  1.00800000E+00  1.00800000E+00  1.60000000E+01  1.00800000E+00
  1.00800000E+00  1.60000000E+01  1.00800000E+00  1.00800000E+00  1.60000000E+01
  1.00800000E+00  1.00800000E+00  1.60000000E+01  1.00800000E+00  1.00800000E+00
  1.60000000E+01  1.00800000E+00  1.00800000E+00  1.60000000E+01  1.00800000E+00
  1.00800000E+00  1.60000000E+01  1.00800000E+00  1.00800000E+00  1.60000000E+01
  1.00800000E+00  1.00800000E+00  1.60000000E+01  1.00800000E+00  1.00800000E+00
  1.60000000E+01  1.00800000E+00  1.00800000E+00  1.60000000E+01  1.00800000E+00
  1.00800000E+00  1.60000000E+01  1.00800000E+00  1.00800000E+00  1.60000000E+01
  1.00800000E+00  1.00800000E+00  1.60000000E+01  1.00800000E+00  1.00800000E+00
  1.60000000E+01  1.00800000E+00  1.00800000E+00  1.60000000E+01  1.00800000E+00
  1.00800000E+00  1.60000000E+01  1.00800000E+00  1.00800000E+00  1.60000000E+01
  1.00800000E+00  1.00800000E+00  1.60000000E+01  1.00800000E+00  1.00800000E+00
  1.60000000E+01  1.00800000E+00  1.00800000E+00  1.60000000E+01  1.00800000E+00
  1.00800000E+00  1.60000000E+01  1.00800000E+00  1.00800000E+00  1.60000000E+01
  1.00800000E+00  1.00800000E+00  1.60000000E+01  1.00800000E+00  1.00800000E+00
  1.60000000E+01  1.00800000E+00  1.00800000E+00  1.60000000E+01  1.00800000E+00
  1.00800000E+00  1.60000000E+01  1.00800000E+00  1.00800000E+00  1.60000000E+01
  1.00800000E+00  1.00800000E+00  1.60000000E+01  1.00800000E+00  1.00800000E+00
  1.60000000E+01  1.00800000E+00  1.00800000E+00  1.60000000E+01  1.00800000E+00
  1.00800000E+00  1.60000000E+01  1.00800000E+00  1.00800000E+00  1.60000000E+01
  1.00800000E+00  1.00800000E+00  1.60000000E+01  1.00800000E+00  1.00800000E+00
  1.60000000E+01  1.00800000E+00  1.00800000E+00  1.60000000E+01  1.00800000E+00
  1.00800000E+00  1.60000000E+01  1.00800000E+00  1.00800000E+00  1.60000000E+01
  1.00800000E+00  1.00800000E+00  1.60000000E+01  1.00800000E+00  1.00800000E+00
  1.60000000E+01  1.00800000E+00  1.00800000E+00  1.60000000E+01  1.00800000E+00
  1.00800000E+00  1.60000000E+01  1.00800000E+00  1.00800000E+00  1.60000000E+01
  1.00800000E+00  1.00800000E+00  1.60000000E+01  1.00800000E+00  1.00800000E+00
  1.60000000E+01  1.00800000E+00  1.00800000E+00  1.60000000E+01  1.00800000E+00
  1.00800000E+00  1.60000000E+01  1.00800000E+00  1.00800000E+00  1.60000000E+01
  1.00800000E+00  1.00800000E+00  1.60000000E+01  1.00800000E+00  1.00800000E+00
  1.60000000E+01  1.00800000E+00  1.00800000E+00  1.60000000E+01  1.00800000E+00
  1.00800000E+00  1.60000000E+01  1.00800000E+00  1.00800000E+00  1.60000000E+01
  1.00800000E+00  1.00800000E+00  1.60000000E+01  1.00800000E+00  1.00800000E+00
  1.60000000E+01  1.00800000E+00  1.00800000E+00  1.60000000E+01  1.00800000E+00
  1.00800000E+00  1.60000000E+01  1.00800000E+00  1.00800000E+00  1.60000000E+01
  1.00800000E+00  1.00800000E+00  1.60000000E+01  1.00800000E+00  1.00800000E+00
  1.60000000E+01  1.00800000E+00  1.00800000E+00  1.60000000E+01  1.00800000E+00
  1.00800000E+00  1.60000000E+01  1.00800000E+00  1.00800000E+00  1.60000000E+01
  1.00800000E+00  1.00800000E+00  1.60000000E+01  1.00800000E+00  1.00800000E+00
  1.60000000E+01  1.00800000E+00  1.00800000E+00  1.60000000E+01  1.00800000E+00
  1.00800000E+00  1.60000000E+01  1.00800000E+00  1.00800000E+00  1.60000000E+01
  1.00800000E+00  1.00800000E+00  1.60000000E+01  1.00800000E+00  1.00800000E+00
  1.60000000E+01  1.00800000E+00  1.00800000E+00  1.60000000E+01  1.00800000E+00
  1.00800000E+00  1.60000000E+01  1.00800000E+00  1.00800000E+00  1.60000000E+01
  1.00800000E+00  1.00800000E+00  1.60000000E+01  1.00800000E+00  1.00800000E+00
  1.60000000E+01  1.00800000E+00  1.00800000E+00  1.60000000E+01  1.00800000E+00
  1.00800000E+00  1.60000000E+01  1.00800000E+00  1.00800000E+00  1.60000000E+01
  1.00800000E+00  1.00800000E+00  1.60000000E+01  1.00800000E+00  1.00800000E+00
  1.60000000E+01  1.00800000E+00  1.00800000E+00  1.60000000E+01  1.00800000E+00
  1.00800000E+00  1.60000000E+01  1.00800000E+00  1.00800000E+00  1.60000000E+01
  1.00800000E+00  1.00800000E+00  1.60000000E+01  1.00800000E+00  1.00800000E+00
  1.60000000E+01  1.00800000E+00  1.00800000E+00  1.60000000E+01  1.00800000E+00
  1.00800000E+00  1.60000000E+01  1.00800000E+00  1.00800000E+00  1.60000000E+01
  1.00800000E+00  1.00800000E+00  1.60000000E+01  1.00800000E+00  1.00800000E+00
  1.60000000E+01  1.00800000E+00  1.00800000E+00  1.60000000E+01  1.00800000E+00
  1.00800000E+00  1.60000000E+01  1.00800000E+00  1.00800000E+00  1.60000000E+01
  1.00800000E+00  1.00800000E+00  1.60000000E+01  1.00800000E+00  1.00800000E+00
  1.60000000E+01  1.00800000E+00  1.00800000E+00  1.60000000E+01  1.00800000E+00
  1.00800000E+00  1.60000000E+01  1.00800000E+00  1.00800000E+00  1.60000000E+01
  1.00800000E+00  1.00800000E+00  1.60000000E+01  1.00800000E+00  1.00800000E+00
  1.60000000E+01  1.00800000E+00  1.00800000E+00  1.60000000E+01  1.00800000E+00
  1.00800000E+00  1.60000000E+01  1.00800000E+00  1.00800000E+00  1.60000000E+01
  1.00800000E+00  1.00800000E+00  1.60000000E+01  1.00800000E+00  1.00800000E+00
  1.60000000E+01  1.00800000E+00  1.00800000E+00  1.60000000E+01  1.00800000E+00
  1.00800000E+00  1.60000000E+01  1.00800000E+00  1.00800000E+00  1.60000000E+01
  1.00800000E+00  1.00800000E+00  1.60000000E+01  1.00800000E+00  1.00800000E+00
  1.60000000E+01  1.00800000E+00  1.00800000E+00  1.60000000E+01  1.00800000E+00
  1.00800000E+00  1.60000000E+01  1.00800000E+00  1.00800000E+00  1.60000000E+01
  1.00800000E+00  1.00800000E+00  1.60000000E+01  1.00800000E+00  1.00800000E+00
  1.60000000E+01  1.00800000E+00  1.00800000E+00  1.60000000E+01  1.00800000E+00
  1.00800000E+00  1.60000000E+01  1.00800000E+00  1.00800000E+00  1.60000000E+01
  1.00800000E+00  1.00800000E+00  1.60000000E+01  1.00800000E+00  1.00800000E+00
  1.60000000E+01  1.00800000E+00  1.00800000E+00  1.60000000E+01  1.00800000E+00
  1.00800000E+00  1.60000000E+01  1.00800000E+00  1.00800000E+00  1.60000000E+01
  1.00800000E+00  1.00800000E+00  1.60000000E+01  1.00800000E+00  1.00800000E+00
  1.60000000E+01  1.00800000E+00  1.00800000E+00  1.60000000E+01  1.00800000E+00
  1.00800000E+00  1.60000000E+01  1.00800000E+00  1.00800000E+00  1.60000000E+01
  1.00800000E+00  1.00800000E+00  1.60000000E+01  1.00800000E+00  1.00800000E+00
  1.60000000E+01  1.00800000E+00  1.00800000E+00  1.60000000E+01  1.00800000E+00
  1.00800000E+00  1.60000000E+01  1.00800000E+00  1.00800000E+00  1.60000000E+01
  1.00800000E+00  1.00800000E+00  1.60000000E+01  1.00800000E+00  1.00800000E+00
  1.60000000E+01  1.00800000E+00  1.00800000E+00  1.60000000E+01  1.00800000E+00
  1.00800000E+00  1.60000000E+01  1.00800000E+00  1.00800000E+00  1.60000000E+01
  1.00800000E+00  1.00800000E+00  1.60000000E+01  1.00800000E+00  1.00800000E+00
  1.60000000E+01  1.00800000E+00  1.00800000E+00  1.60000000E+01  1.00800000E+00
  1.00800000E+00  1.60000000E+01  1.00800000E+00  1.00800000E+00  1.60000000E+01
  1.00800000E+00  1.00800000E+00  1.60000000E+01  1.00800000E+00  1.00800000E+00
  1.60000000E+01  1.00800000E+00  1.00800000E+00  1.60000000E+01  1.00800000E+00
  1.00800000E+00  1.60000000E+01  1.00800000E+00  1.00800000E+00  1.60000000E+01
  1.00800000E+00  1.00800000E+00  1.60000000E+01  1.00800000E+00  1.00800000E+00
  1.60000000E+01  1.00800000E+00  1.00800000E+00  1.60000000E+01  1.00800000E+00
  1.00800000E+00  1.60000000E+01  1.00800000E+00  1.00800000E+00  1.60000000E+01
  1.00800000E+00  1.00800000E+00  1.60000000E+01  1.00800000E+00  1.00800000E+00
  1.60000000E+01  1.00800000E+00  1.00800000E+00  1.60000000E+01  1.00800000E+00
  1.00800000E+00  1.60000000E+01  1.00800000E+00  1.00800000E+00  1.60000000E+01
  1.00800000E+00  1.00800000E+00  1.60000000E+01  1.00800000E+00  1.00800000E+00
  1.60000000E+01  1.00800000E+00  1.00800000E+00  1.60000000E+01  1.00800000E+00
  1.00800000E+00  1.60000000E+01  1.00800000E+00  1.00800000E+00  1.60000000E+01
  1.00800000E+00  1.00800000E+00  1.60000000E+01  1.00800000E+00  1.00800000E+00
  1.60000000E+01  1.00800000E+00  1.00800000E+00  1.60000000E+01  1.00800000E+00
  1.00800000E+00  1.60000000E+01  1.00800000E+00  1.00800000E+00  1.60000000E+01
  1.00800000E+00  1.00800000E+00  1.60000000E+01  1.00800000E+00  1.00800000E+00
  1.60000000E+01  1.00800000E+00  1.00800000E+00  1.60000000E+01  1.00800000E+00
  1.00800000E+00  1.60000000E+01  1.00800000E+00  1.00800000E+00  1.60000000E+01
  1.00800000E+00  1.00800000E+00  1.60000000E+01  1.00800000E+00  1.00800000E+00
  1.60000000E+01  1.00800000E+00  1.00800000E+00  1.60000000E+01  1.00800000E+00
  1.00800000E+00  1.60000000E+01  1.00800000E+00  1.00800000E+00  1.60000000E+01
  1.00800000E+00  1.00800000E+00  1.60000000E+01  1.00800000E+00  1.00800000E+00
  1.60000000E+01  1.00800000E+00  1.00800000E+00  1.60000000E+01  1.00800000E+00
  1.00800000E+00  1.60000000E+01  1.00800000E+00  1.00800000E+00  1.60000000E+01
  1.00800000E+00  1.00800000E+00  1.60000000E+01  1.00800000E+00  1.00800000E+00
  1.60000000E+01  1.00800000E+00  1.00800000E+00  1.60000000E+01  1.00800000E+00
  1.00800000E+00  1.60000000E+01  1.00800000E+00  1.00800000E+00  1.60000000E+01
  1.00800000E+00  1.00800000E+00  1.60000000E+01  1.00800000E+00  1.00800000E+00
  1.60000000E+01  1.00800000E+00  1.00800000E+00  1.60000000E+01  1.00800000E+00
  1.00800000E+00  1.60000000E+01  1.00800000E+00  1.00800000E+00  1.60000000E+01
  1.00800000E+00  1.00800000E+00  1.60000000E+01  1.00800000E+00  1.00800000E+00
  1.60000000E+01  1.00800000E+00  1.00800000E+00  1.60000000E+01  1.00800000E+00
  1.00800000E+00  1.60000000E+01  1.00800000E+00  1.00800000E+00  1.60000000E+01
  1.00800000E+00  1.00800000E+00  1.60000000E+01  1.00800000E+00  1.00800000E+00
  1.60000000E+01  1.00800000E+00  1.00800000E+00  1.60000000E+01  1.00800000E+00
  1.00800000E+00  1.60000000E+01  1.00800000E+00  1.00800000E+00  1.60000000E+01
  1.00800000E+00  1.00800000E+00  1.60000000E+01  1.00800000E+00  1.00800000E+00
  1.60000000E+01  1.00800000E+00  1.00800000E+00  1.60000000E+01  1.00800000E+00
  1.00800000E+00  1.60000000E+01  1.00800000E+00  1.00800000E+00  1.60000000E+01
  1.00800000E+00  1.00800000E+00  1.60000000E+01  1.00800000E+00  1.00800000E+00
  1.60000000E+01  1.00800000E+00  1.00800000E+00  1.60000000E+01  1.00800000E+00
  1.00800000E+00  1.60000000E+01  1.00800000E+00  1.00800000E+00  1.60000000E+01
  1.00800000E+00  1.00800000E+00  1.60000000E+01  1.00800000E+00  1.00800000E+00
  1.60000000E+01  1.00800000E+00  1.00800000E+00  1.60000000E+01  1.00800000E+00
  1.00800000E+00  1.60000000E+01  1.00800000E+00  1.00800000E+00  1.60000000E+01
  1.00800000E+00  1.00800000E+00  1.60000000E+01  1.00800000E+00  1.00800000E+00
  1.60000000E+01  1.00800000E+00  1.00800000E+00  1.60000000E+01  1.00800000E+00
  1.00800000E+00  1.60000000E+01  1.00800000E+00  1.00800000E+00  1.60000000E+01
  1.00800000E+00  1.00800000E+00  1.60000000E+01  1.00800000E+00  1.00800000E+00
  1.60000000E+01  1.00800000E+00  1.00800000E+00  1.60000000E+01  1.00800000E+00
  1.00800000E+00  1.60000000E+01  1.00800000E+00  1.00800000E+00  1.60000000E+01
  1.00800000E+00  1.00800000E+00  1.60000000E+01  1.00800000E+00  1.00800000E+00
  1.60000000E+01  1.00800000E+00  1.00800000E+00  1.60000000E+01  1.00800000E+00
  1.00800000E+00  1.60000000E+01  1.00800000E+00  1.00800000E+00  1.60000000E+01
  1.00800000E+00  1.00800000E+00  1.60000000E+01  1.00800000E+00  1.00800000E+00
  1.60000000E+01  1.00800000E+00  1.00800000E+00  1.60000000E+01  1.00800000E+00
  1.00800000E+00  1.60000000E+01  1.00800000E+00  1.00800000E+00  1.60000000E+01
  1.00800000E+00  1.00800000E+00  1.60000000E+01  1.00800000E+00  1.00800000E+00
  1.60000000E+01  1.00800000E+00  1.00800000E+00  1.60000000E+01  1.00800000E+00
  1.00800000E+00  1.60000000E+01  1.00800000E+00  1.00800000E+00  1.60000000E+01
  1.00800000E+00  1.00800000E+00  1.60000000E+01  1.00800000E+00  1.00800000E+00
  1.60000000E+01  1.00800000E+00  1.00800000E+00  1.60000000E+01  1.00800000E+00
  1.00800000E+00  1.60000000E+01  1.00800000E+00  1.00800000E+00  1.60000000E+01
  1.00800000E+00  1.00800000E+00  1.60000000E+01  1.00800000E+00  1.00800000E+00
  1.60000000E+01  1.00800000E+00  1.00800000E+00  1.60000000E+01  1.00800000E+00
  1.00800000E+00  1.60000000E+01  1.00800000E+00  1.00800000E+00  1.60000000E+01
  1.00800000E+00  1.00800000E+00  1.60000000E+01  1.00800000E+00  1.00800000E+00
  1.60000000E+01  1.00800000E+00  1.00800000E+00  1.60000000E+01  1.00800000E+00
  1.00800000E+00  1.60000000E+01  1.00800000E+00  1.00800000E+00  1.60000000E+01
  1.00800000E+00  1.00800000E+00  1.60000000E+01  1.00800000E+00  1.00800000E+00
  1.60000000E+01  1.00800000E+00  1.00800000E+00  1.60000000E+01  1.00800000E+00
  1.00800000E+00  1.60000000E+01  1.00800000E+00  1.00800000E+00  1.60000000E+01
  1.00800000E+00  1.00800000E+00  1.60000000E+01  1.00800000E+00  1.00800000E+00
  1.60000000E+01  1.00800000E+00  1.00800000E+00  1.60000000E+01  1.00800000E+00
  1.00800000E+00  1.60000000E+01  1.00800000E+00  1.00800000E+00  1.60000000E+01
  1.00800000E+00  1.00800000E+00  1.60000000E+01  1.00800000E+00  1.00800000E+00
  1.60000000E+01  1.00800000E+00  1.00800000E+00  1.60000000E+01  1.00800000E+00
  1.00800000E+00  1.60000000E+01  1.00800000E+00  1.00800000E+00  1.60000000E+01
  1.00800000E+00  1.00800000E+00  1.60000000E+01  1.00800000E+00  1.00800000E+00
  1.60000000E+01  1.00800000E+00  1.00800000E+00  1.60000000E+01  1.00800000E+00
  1.00800000E+00  1.60000000E+01  1.00800000E+00  1.00800000E+00  1.60000000E+01
  1.00800000E+00  1.00800000E+00  1.60000000E+01  1.00800000E+00  1.00800000E+00
  1.60000000E+01  1.00800000E+00  1.00800000E+00  1.60000000E+01  1.00800000E+00
  1.00800000E+00  1.60000000E+01  1.00800000E+00  1.00800000E+00  1.60000000E+01
  1.00800000E+00  1.00800000E+00  1.60000000E+01  1.00800000E+00  1.00800000E+00
  1.60000000E+01  1.00800000E+00  1.00800000E+00  1.60000000E+01  1.00800000E+00
  1.00800000E+00  1.60000000E+01  1.00800000E+00  1.00800000E+00  1.60000000E+01
  1.00800000E+00  1.00800000E+00  1.60000000E+01  1.00800000E+00  1.00800000E+00
  1.60000000E+01  1.00800000E+00  1.00800000E+00  1.60000000E+01  1.00800000E+00
  1.00800000E+00  1.60000000E+01  1.00800000E+00  1.00800000E+00  1.60000000E+01
  1.00800000E+00  1.00800000E+00  1.60000000E+01  1.00800000E+00  1.00800000E+00
  1.60000000E+01  1.00800000E+00  1.00800000E+00  1.60000000E+01  1.00800000E+00
  1.00800000E+00  1.60000000E+01  1.00800000E+00  1.00800000E+00  1.60000000E+01
  1.00800000E+00  1.00800000E+00  1.60000000E+01  1.00800000E+00  1.00800000E+00
  1.60000000E+01  1.00800000E+00  1.00800000E+00  1.60000000E+01  1.00800000E+00
  1.00800000E+00  1.60000000E+01  1.00800000E+00  1.00800000E+00  1.60000000E+01
  1.00800000E+00  1.00800000E+00  1.60000000E+01  1.00800000E+00  1.00800000E+00
  1.60000000E+01  1.00800000E+00  1.00800000E+00  1.60000000E+01  1.00800000E+00
  1.00800000E+00  1.60000000E+01  1.00800000E+00  1.00800000E+00  1.60000000E+01
  1.00800000E+00  1.00800000E+00  1.60000000E+01  1.00800000E+00  1.00800000E+00
  1.60000000E+01  1.00800000E+00  1.00800000E+00  1.60000000E+01  1.00800000E+00
  1.00800000E+00  1.60000000E+01  1.00800000E+00  1.00800000E+00  1.60000000E+01
  1.00800000E+00  1.00800000E+00  1.60000000E+01  1.00800000E+00  1.00800000E+00
  1.60000000E+01  1.00800000E+00  1.00800000E+00  1.60000000E+01  1.00800000E+00
  1.00800000E+00  1.60000000E+01  1.00800000E+00  1.00800000E+00  1.60000000E+01
  1.00800000E+00  1.00800000E+00  1.60000000E+01  1.00800000E+00  1.00800000E+00
  1.60000000E+01  1.00800000E+00  1.00800000E+00  1.60000000E+01  1.00800000E+00
  1.00800000E+00  1.60000000E+01  1.00800000E+00  1.00800000E+00  1.60000000E+01
  1.00800000E+00  1.00800000E+00  1.60000000E+01  1.00800000E+00  1.00800000E+00
  1.60000000E+01  1.00800000E+00  1.00800000E+00  1.60000000E+01  1.00800000E+00
  1.00800000E+00  1.60000000E+01  1.00800000E+00  1.00800000E+00  1.60000000E+01
  1.00800000E+00  1.00800000E+00  1.60000000E+01  1.00800000E+00  1.00800000E+00
  1.60000000E+01  1.00800000E+00  1.00800000E+00  1.60000000E+01  1.00800000E+00
  1.00800000E+00  1.60000000E+01  1.00800000E+00  1.00800000E+00  1.60000000E+01
  1.00800000E+00  1.00800000E+00  1.60000000E+01  1.00800000E+00  1.00800000E+00
  1.60000000E+01  1.00800000E+00  1.00800000E+00  1.60000000E+01  1.00800000E+00
  1.00800000E+00  1.60000000E+01  1.00800000E+00  1.00800000E+00  1.60000000E+01
  1.00800000E+00  1.00800000E+00  1.60000000E+01  1.00800000E+00  1.00800000E+00
  1.60000000E+01  1.00800000E+00  1.00800000E+00  1.60000000E+01  1.00800000E+00
  1.00800000E+00  1.60000000E+01  1.00800000E+00  1.00800000E+00  1.60000000E+01
  1.00800000E+00  1.00800000E+00  1.60000000E+01  1.00800000E+00  1.00800000E+00
  1.60000000E+01  1.00800000E+00  1.00800000E+00  1.60000000E+01  1.00800000E+00
  1.00800000E+00  1.60000000E+01  1.00800000E+00  1.00800000E+00  1.60000000E+01
  1.00800000E+00  1.00800000E+00  1.60000000E+01  1.00800000E+00  1.00800000E+00
  1.60000000E+01  1.00800000E+00  1.00800000E+00  1.60000000E+01  1.00800000E+00
  1.00800000E+00  1.60000000E+01  1.00800000E+00  1.00800000E+00  1.60000000E+01
  1.00800000E+00  1.00800000E+00  1.60000000E+01  1.00800000E+00  1.00800000E+00
  1.60000000E+01  1.00800000E+00  1.00800000E+00  1.60000000E+01  1.00800000E+00
  1.00800000E+00  1.60000000E+01  1.00800000E+00  1.00800000E+00  1.60000000E+01
  1.00800000E+00  1.00800000E+00  1.60000000E+01  1.00800000E+00  1.00800000E+00
  1.60000000E+01  1.00800000E+00  1.00800000E+00  1.60000000E+01  1.00800000E+00
  1.00800000E+00  1.60000000E+01  1.00800000E+00  1.00800000E+00  1.60000000E+01
  1.00800000E+00  1.00800000E+00  1.60000000E+01  1.00800000E+00  1.00800000E+00
  1.60000000E+01  1.00800000E+00  1.00800000E+00  1.60000000E+01  1.00800000E+00
  1.00800000E+00  1.60000000E+01  1.00800000E+00  1.00800000E+00  1.60000000E+01
  1.00800000E+00  1.00800000E+00  1.60000000E+01  1.00800000E+00  1.00800000E+00
  1.60000000E+01  1.00800000E+00  1.00800000E+00  1.60000000E+01  1.00800000E+00
  1.00800000E+00  1.60000000E+01  1.00800000E+00  1.00800000E+00  1.60000000E+01
  1.00800000E+00  1.00800000E+00  1.60000000E+01  1.00800000E+00  1.00800000E+00
  1.60000000E+01  1.00800000E+00  1.00800000E+00  1.60000000E+01  1.00800000E+00
  1.00800000E+00  1.60000000E+01  1.00800000E+00  1.00800000E+00  1.60000000E+01
  1.00800000E+00  1.00800000E+00  1.60000000E+01  1.00800000E+00  1.00800000E+00
  1.60000000E+01  1.00800000E+00  1.00800000E+00  1.60000000E+01  1.00800000E+00
  1.00800000E+00  1.60000000E+01  1.00800000E+00  1.00800000E+00  1.60000000E+01
  1.00800000E+00  1.00800000E+00  1.60000000E+01  1.00800000E+00  1.00800000E+00
  1.60000000E+01  1.00800000E+00  1.00800000E+00  1.60000000E+01  1.00800000E+00
  1.00800000E+00  1.60000000E+01  1.00800000E+00  1.00800000E+00  1.60000000E+01
  1.00800000E+00  1.00800000E+00  1.60000000E+01  1.00800000E+00  1.00800000E+00
  1.60000000E+01  1.00800000E+00  1.00800000E+00  1.60000000E+01  1.00800000E+00
  1.00800000E+00  1.60000000E+01  1.00800000E+00  1.00800000E+00  1.60000000E+01
  1.00800000E+00  1.00800000E+00  1.60000000E+01  1.00800000E+00  1.00800000E+00
  1.60000000E+01  1.00800000E+00  1.00800000E+00  1.60000000E+01  1.00800000E+00
  1.00800000E+00  1.60000000E+01  1.00800000E+00  1.00800000E+00  1.60000000E+01
  1.00800000E+00  1.00800000E+00  1.60000000E+01  1.00800000E+00  1.00800000E+00
  1.60000000E+01  1.00800000E+00  1.00800000E+00  1.60000000E+01  1.00800000E+00
  1.00800000E+00  1.60000000E+01  1.00800000E+00  1.00800000E+00  1.60000000E+01
  1.00800000E+00  1.00800000E+00  1.60000000E+01  1.00800000E+00  1.00800000E+00
  1.60000000E+01  1.00800000E+00  1.00800000E+00  1.60000000E+01  1.00800000E+00
  1.00800000E+00  1.60000000E+01  1.00800000E+00  1.00800000E+00  1.60000000E+01
  1.00800000E+00  1.00800000E+00  1.60000000E+01  1.00800000E+00  1.00800000E+00
  1.60000000E+01  1.00800000E+00  1.00800000E+00  1.60000000E+01  1.00800000E+00
  1.00800000E+00  1.60000000E+01  1.00800000E+00  1.00800000E+00  1.60000000E+01
  1.00800000E+00  1.00800000E+00  1.60000000E+01  1.00800000E+00  1.00800000E+00
  1.60000000E+01  1.00800000E+00  1.00800000E+00  1.60000000E+01  1.00800000E+00
  1.00800000E+00  1.60000000E+01  1.00800000E+00  1.00800000E+00  1.60000000E+01
  1.00800000E+00  1.00800000E+00  1.60000000E+01  1.00800000E+00  1.00800000E+00
  1.60000000E+01  1.00800000E+00  1.00800000E+00  1.60000000E+01  1.00800000E+00
  1.00800000E+00  1.60000000E+01  1.00800000E+00  1.00800000E+00  1.60000000E+01
  1.00800000E+00  1.00800000E+00  1.60000000E+01  1.00800000E+00  1.00800000E+00
  1.60000000E+01  1.00800000E+00  1.00800000E+00  1.60000000E+01  1.00800000E+00
  1.00800000E+00  1.60000000E+01  1.00800000E+00  1.00800000E+00  1.60000000E+01
  1.00800000E+00  1.00800000E+00  1.60000000E+01  1.00800000E+00  1.00800000E+00
  1.60000000E+01  1.00800000E+00  1.00800000E+00  1.60000000E+01  1.00800000E+00
  1.00800000E+00  1.60000000E+01  1.00800000E+00  1.00800000E+00  1.60000000E+01
  1.00800000E+00  1.00800000E+00  1.60000000E+01  1.00800000E+00  1.00800000E+00
  1.60000000E+01  1.00800000E+00  1.00800000E+00  1.60000000E+01  1.00800000E+00
  1.00800000E+00  1.60000000E+01  1.00800000E+00  1.00800000E+00  1.60000000E+01
  1.00800000E+00  1.00800000E+00  1.60000000E+01  1.00800000E+00  1.00800000E+00
  1.60000000E+01  1.00800000E+00  1.00800000E+00  1.60000000E+01  1.00800000E+00
  1.00800000E+00  1.60000000E+01  1.00800000E+00  1.00800000E+00  1.60000000E+01
  1.00800000E+00  1.00800000E+00  1.60000000E+01  1.00800000E+00  1.00800000E+00
  1.60000000E+01  1.00800000E+00  1.00800000E+00  1.60000000E+01  1.00800000E+00
  1.00800000E+00  1.60000000E+01  1.00800000E+00  1.00800000E+00  1.60000000E+01
  1.00800000E+00  1.00800000E+00  1.60000000E+01  1.00800000E+00  1.00800000E+00
  1.60000000E+01  1.00800000E+00  1.00800000E+00  1.60000000E+01  1.00800000E+00
  1.00800000E+00  1.60000000E+01  1.00800000E+00  1.00800000E+00  1.60000000E+01
  1.00800000E+00  1.00800000E+00  1.60000000E+01  1.00800000E+00  1.00800000E+00
  1.60000000E+01  1.00800000E+00  1.00800000E+00  1.60000000E+01  1.00800000E+00
  1.00800000E+00  1.60000000E+01  1.00800000E+00  1.00800000E+00  1.60000000E+01
  1.00800000E+00  1.00800000E+00  1.60000000E+01  1.00800000E+00  1.00800000E+00
  1.60000000E+01  1.00800000E+00  1.00800000E+00  1.60000000E+01  1.00800000E+00
  1.00800000E+00  1.60000000E+01  1.00800000E+00  1.00800000E+00  1.60000000E+01
  1.00800000E+00  1.00800000E+00  1.60000000E+01  1.00800000E+00  1.00800000E+00
  1.60000000E+01  1.00800000E+00  1.00800000E+00  1.60000000E+01  1.00800000E+00
  1.00800000E+00  1.60000000E+01  1.00800000E+00  1.00800000E+00  1.60000000E+01
  1.00800000E+00  1.00800000E+00  1.60000000E+01  1.00800000E+00  1.00800000E+00
  1.60000000E+01  1.00800000E+00  1.00800000E+00  1.60000000E+01  1.00800000E+00
  1.00800000E+00  1.60000000E+01  1.00800000E+00  1.00800000E+00  1.60000000E+01
  1.00800000E+00  1.00800000E+00  1.60000000E+01  1.00800000E+00  1.00800000E+00
  1.60000000E+01  1.00800000E+00  1.00800000E+00  1.60000000E+01  1.00800000E+00
  1.00800000E+00  1.60000000E+01  1.00800000E+00  1.00800000E+00  1.60000000E+01
  1.00800000E+00  1.00800000E+00  1.60000000E+01  1.00800000E+00  1.00800000E+00
  1.60000000E+01  1.00800000E+00  1.00800000E+00  1.60000000E+01  1.00800000E+00
  1.00800000E+00  1.60000000E+01  1.00800000E+00  1.00800000E+00  1.60000000E+01
  1.00800000E+00  1.00800000E+00  1.60000000E+01  1.00800000E+00  1.00800000E+00
  1.60000000E+01  1.00800000E+00  1.00800000E+00  1.60000000E+01  1.00800000E+00
  1.00800000E+00  1.60000000E+01  1.00800000E+00  1.00800000E+00  1.60000000E+01
  1.00800000E+00  1.00800000E+00  1.60000000E+01  1.00800000E+00  1.00800000E+00
  1.60000000E+01  1.00800000E+00  1.00800000E+00  1.60000000E+01  1.00800000E+00
  1.00800000E+00  1.60000000E+01  1.00800000E+00  1.00800000E+00  1.60000000E+01
  1.00800000E+00  1.00800000E+00  1.60000000E+01  1.00800000E+00  1.00800000E+00
  1.60000000E+01  1.00800000E+00  1.00800000E+00  1.60000000E+01  1.00800000E+00
  1.00800000E+00  1.60000000E+01  1.00800000E+00  1.00800000E+00  1.60000000E+01
  1.00800000E+00  1.00800000E+00  1.60000000E+01  1.00800000E+00  1.00800000E+00
  1.60000000E+01  1.00800000E+00  1.00800000E+00  1.60000000E+01  1.00800000E+00
  1.00800000E+00  1.60000000E+01  1.00800000E+00  1.00800000E+00  1.60000000E+01
  1.00800000E+00  1.00800000E+00  1.60000000E+01  1.00800000E+00  1.00800000E+00
  1.60000000E+01  1.00800000E+00  1.00800000E+00  1.60000000E+01  1.00800000E+00
  1.00800000E+00  1.60000000E+01  1.00800000E+00  1.00800000E+00  1.60000000E+01
  1.00800000E+00  1.00800000E+00  1.60000000E+01  1.00800000E+00  1.00800000E+00
  1.60000000E+01  1.00800000E+00  1.00800000E+00  1.60000000E+01  1.00800000E+00
  1.00800000E+00  1.60000000E+01  1.00800000E+00  1.00800000E+00  1.60000000E+01
  1.00800000E+00  1.00800000E+00  1.60000000E+01  1.00800000E+00  1.00800000E+00
  1.60000000E+01  1.00800000E+00  1.00800000E+00  1.60000000E+01  1.00800000E+00
  1.00800000E+00  1.60000000E+01  1.00800000E+00  1.00800000E+00  1.60000000E+01
  1.00800000E+00  1.00800000E+00  1.60000000E+01  1.00800000E+00  1.00800000E+00
  1.60000000E+01  1.00800000E+00  1.00800000E+00  1.60000000E+01  1.00800000E+00
  1.00800000E+00  1.60000000E+01  1.00800000E+00  1.00800000E+00  1.60000000E+01
  1.00800000E+00  1.00800000E+00  1.60000000E+01  1.00800000E+00  1.00800000E+00
  1.60000000E+01  1.00800000E+00  1.00800000E+00  1.60000000E+01  1.00800000E+00
  1.00800000E+00  1.60000000E+01  1.00800000E+00  1.00800000E+00  1.60000000E+01
  1.00800000E+00  1.00800000E+00  1.60000000E+01  1.00800000E+00  1.00800000E+00
  1.60000000E+01  1.00800000E+00  1.00800000E+00  1.60000000E+01  1.00800000E+00
  1.00800000E+00  1.60000000E+01  1.00800000E+00  1.00800000E+00  1.60000000E+01
  1.00800000E+00  1.00800000E+00  1.60000000E+01  1.00800000E+00  1.00800000E+00
  1.60000000E+01  1.00800000E+00  1.00800000E+00  1.60000000E+01  1.00800000E+00
  1.00800000E+00  1.60000000E+01  1.00800000E+00  1.00800000E+00  1.60000000E+01
  1.00800000E+00  1.00800000E+00  1.60000000E+01  1.00800000E+00  1.00800000E+00
  1.60000000E+01  1.00800000E+00  1.00800000E+00  1.60000000E+01  1.00800000E+00
  1.00800000E+00  1.60000000E+01  1.00800000E+00  1.00800000E+00  1.60000000E+01
  1.00800000E+00  1.00800000E+00  1.60000000E+01  1.00800000E+00  1.00800000E+00
  1.60000000E+01  1.00800000E+00  1.00800000E+00  1.60000000E+01  1.00800000E+00
  1.00800000E+00  1.60000000E+01  1.00800000E+00  1.00800000E+00  1.60000000E+01
  1.00800000E+00  1.00800000E+00  1.60000000E+01  1.00800000E+00  1.00800000E+00
  1.60000000E+01  1.00800000E+00  1.00800000E+00  1.60000000E+01  1.00800000E+00
  1.00800000E+00  1.60000000E+01  1.00800000E+00  1.00800000E+00  1.60000000E+01
  1.00800000E+00  1.00800000E+00  1.60000000E+01  1.00800000E+00  1.00800000E+00
  1.60000000E+01  1.00800000E+00  1.00800000E+00  1.60000000E+01  1.00800000E+00
  1.00800000E+00  1.60000000E+01  1.00800000E+00  1.00800000E+00  1.60000000E+01
  1.00800000E+00  1.00800000E+00  1.60000000E+01  1.00800000E+00  1.00800000E+00
  1.60000000E+01  1.00800000E+00  1.00800000E+00  1.60000000E+01  1.00800000E+00
  1.00800000E+00  1.60000000E+01  1.00800000E+00  1.00800000E+00  1.60000000E+01
  1.00800000E+00  1.00800000E+00  1.60000000E+01  1.00800000E+00  1.00800000E+00
  1.60000000E+01  1.00800000E+00  1.00800000E+00  1.60000000E+01  1.00800000E+00
  1.00800000E+00  1.60000000E+01  1.00800000E+00  1.00800000E+00  1.60000000E+01
  1.00800000E+00  1.00800000E+00  1.60000000E+01  1.00800000E+00  1.00800000E+00
  1.60000000E+01  1.00800000E+00  1.00800000E+00  1.60000000E+01  1.00800000E+00
  1.00800000E+00  1.60000000E+01  1.00800000E+00  1.00800000E+00  1.60000000E+01
  1.00800000E+00  1.00800000E+00  1.60000000E+01  1.00800000E+00  1.00800000E+00
  1.60000000E+01  1.00800000E+00  1.00800000E+00  1.60000000E+01  1.00800000E+00
  1.00800000E+00  1.60000000E+01  1.00800000E+00  1.00800000E+00  1.60000000E+01
  1.00800000E+00  1.00800000E+00  1.60000000E+01  1.00800000E+00  1.00800000E+00
  1.60000000E+01  1.00800000E+00  1.00800000E+00  1.60000000E+01  1.00800000E+00
  1.00800000E+00  1.60000000E+01  1.00800000E+00  1.00800000E+00  1.60000000E+01
  1.00800000E+00  1.00800000E+00  1.60000000E+01  1.00800000E+00  1.00800000E+00
  1.60000000E+01  1.00800000E+00  1.00800000E+00  1.60000000E+01  1.00800000E+00
  1.00800000E+00  1.60000000E+01  1.00800000E+00  1.00800000E+00  1.60000000E+01
  1.00800000E+00  1.00800000E+00  1.60000000E+01  1.00800000E+00  1.00800000E+00
  1.60000000E+01  1.00800000E+00  1.00800000E+00  1.60000000E+01  1.00800000E+00
  1.00800000E+00  1.60000000E+01  1.00800000E+00  1.00800000E+00  1.60000000E+01
  1.00800000E+00  1.00800000E+00  1.60000000E+01  1.00800000E+00  1.00800000E+00
  1.60000000E+01  1.00800000E+00  1.00800000E+00  1.60000000E+01  1.00800000E+00
  1.00800000E+00  1.60000000E+01  1.00800000E+00  1.00800000E+00  1.60000000E+01
  1.00800000E+00  1.00800000E+00  1.60000000E+01  1.00800000E+00  1.00800000E+00
  1.60000000E+01  1.00800000E+00  1.00800000E+00  1.60000000E+01  1.00800000E+00
  1.00800000E+00  1.60000000E+01  1.00800000E+00  1.00800000E+00  1.60000000E+01
  1.00800000E+00  1.00800000E+00  1.60000000E+01  1.00800000E+00  1.00800000E+00
  1.60000000E+01  1.00800000E+00  1.00800000E+00  1.60000000E+01  1.00800000E+00
  1.00800000E+00  1.60000000E+01  1.00800000E+00  1.00800000E+00  1.60000000E+01
  1.00800000E+00  1.00800000E+00  1.60000000E+01  1.00800000E+00  1.00800000E+00
  1.60000000E+01  1.00800000E+00  1.00800000E+00  1.60000000E+01  1.00800000E+00
  1.00800000E+00  1.60000000E+01  1.00800000E+00  1.00800000E+00  1.60000000E+01
  1.00800000E+00  1.00800000E+00  1.60000000E+01  1.00800000E+00  1.00800000E+00
  1.60000000E+01  1.00800000E+00  1.00800000E+00  1.60000000E+01  1.00800000E+00
  1.00800000E+00  1.60000000E+01  1.00800000E+00  1.00800000E+00  1.60000000E+01
  1.00800000E+00  1.00800000E+00  1.60000000E+01  1.00800000E+00  1.00800000E+00
  1.60000000E+01  1.00800000E+00  1.00800000E+00  1.60000000E+01  1.00800000E+00
  1.00800000E+00  1.60000000E+01  1.00800000E+00  1.00800000E+00  1.60000000E+01
  1.00800000E+00  1.00800000E+00  1.60000000E+01  1.00800000E+00  1.00800000E+00
  1.60000000E+01  1.00800000E+00  1.00800000E+00  1.60000000E+01  1.00800000E+00
  1.00800000E+00  1.60000000E+01  1.00800000E+00  1.00800000E+00  1.60000000E+01
  1.00800000E+00  1.00800000E+00  1.60000000E+01  1.00800000E+00  1.00800000E+00
  1.60000000E+01  1.00800000E+00  1.00800000E+00  1.60000000E+01  1.00800000E+00
  1.00800000E+00  1.60000000E+01  1.00800000E+00  1.00800000E+00  1.60000000E+01
  1.00800000E+00  1.00800000E+00  1.60000000E+01  1.00800000E+00  1.00800000E+00
  1.60000000E+01  1.00800000E+00  1.00800000E+00  1.60000000E+01  1.00800000E+00
  1.00800000E+00  1.60000000E+01  1.00800000E+00  1.00800000E+00  1.60000000E+01
  1.00800000E+00  1.00800000E+00  1.60000000E+01  1.00800000E+00  1.00800000E+00
  1.60000000E+01  1.00800000E+00  1.00800000E+00  1.60000000E+01  1.00800000E+00
  1.00800000E+00  1.60000000E+01  1.00800000E+00  1.00800000E+00  1.60000000E+01
  1.00800000E+00  1.00800000E+00  1.60000000E+01  1.00800000E+00  1.00800000E+00
  1.60000000E+01  1.00800000E+00  1.00800000E+00  1.60000000E+01  1.00800000E+00
  1.00800000E+00  1.60000000E+01  1.00800000E+00  1.00800000E+00  1.60000000E+01
  1.00800000E+00  1.00800000E+00  1.60000000E+01  1.00800000E+00  1.00800000E+00
  1.60000000E+01  1.00800000E+00  1.00800000E+00  1.60000000E+01  1.00800000E+00
  1.00800000E+00  1.60000000E+01  1.00800000E+00  1.00800000E+00  1.60000000E+01
  1.00800000E+00  1.00800000E+00  1.60000000E+01  1.00800000E+00  1.00800000E+00
  1.60000000E+01  1.00800000E+00  1.00800000E+00  1.60000000E+01  1.00800000E+00
  1.00800000E+00  1.60000000E+01  1.00800000E+00  1.00800000E+00  1.60000000E+01
  1.00800000E+00  1.00800000E+00  1.60000000E+01  1.00800000E+00  1.00800000E+00
  1.60000000E+01  1.00800000E+00  1.00800000E+00  1.60000000E+01  1.00800000E+00
  1.00800000E+00  1.60000000E+01  1.00800000E+00  1.00800000E+00  1.60000000E+01
  1.00800000E+00  1.00800000E+00  1.60000000E+01  1.00800000E+00  1.00800000E+00
  1.60000000E+01  1.00800000E+00  1.00800000E+00  1.60000000E+01  1.00800000E+00
  1.00800000E+00  1.60000000E+01  1.00800000E+00  1.00800000E+00  1.60000000E+01
  1.00800000E+00  1.00800000E+00  1.60000000E+01  1.00800000E+00  1.00800000E+00
  1.60000000E+01  1.00800000E+00  1.00800000E+00  1.60000000E+01  1.00800000E+00
  1.00800000E+00  1.60000000E+01  1.00800000E+00  1.00800000E+00  1.60000000E+01
  1.00800000E+00  1.00800000E+00  1.60000000E+01  1.00800000E+00  1.00800000E+00
  1.60000000E+01  1.00800000E+00  1.00800000E+00  1.60000000E+01  1.00800000E+00
  1.00800000E+00  1.60000000E+01  1.00800000E+00  1.00800000E+00  1.60000000E+01
  1.00800000E+00  1.00800000E+00  1.60000000E+01  1.00800000E+00  1.00800000E+00
  1.60000000E+01  1.00800000E+00  1.00800000E+00  1.60000000E+01  1.00800000E+00
  1.00800000E+00  1.60000000E+01  1.00800000E+00  1.00800000E+00  1.60000000E+01
  1.00800000E+00  1.00800000E+00  1.60000000E+01  1.00800000E+00  1.00800000E+00
  1.60000000E+01  1.00800000E+00  1.00800000E+00  1.60000000E+01  1.00800000E+00
  1.00800000E+00  1.60000000E+01  1.00800000E+00  1.00800000E+00  1.60000000E+01
  1.00800000E+00  1.00800000E+00  1.60000000E+01  1.00800000E+00  1.00800000E+00
  1.60000000E+01  1.00800000E+00  1.00800000E+00  1.60000000E+01  1.00800000E+00
  1.00800000E+00  1.60000000E+01  1.00800000E+00  1.00800000E+00  1.60000000E+01
  1.00800000E+00  1.00800000E+00  1.60000000E+01  1.00800000E+00  1.00800000E+00
  1.60000000E+01  1.00800000E+00  1.00800000E+00  1.60000000E+01  1.00800000E+00
  1.00800000E+00  1.60000000E+01  1.00800000E+00  1.00800000E+00  1.60000000E+01
  1.00800000E+00  1.00800000E+00  1.60000000E+01  1.00800000E+00  1.00800000E+00
  1.60000000E+01  1.00800000E+00  1.00800000E+00  1.60000000E+01  1.00800000E+00
  1.00800000E+00  1.60000000E+01  1.00800000E+00  1.00800000E+00  1.60000000E+01
  1.00800000E+00  1.00800000E+00  1.60000000E+01  1.00800000E+00  1.00800000E+00
  1.60000000E+01  1.00800000E+00  1.00800000E+00  1.60000000E+01  1.00800000E+00
  1.00800000E+00  1.60000000E+01  1.00800000E+00  1.00800000E+00  1.60000000E+01
  1.00800000E+00  1.00800000E+00  1.60000000E+01  1.00800000E+00  1.00800000E+00
  1.60000000E+01  1.00800000E+00  1.00800000E+00  1.60000000E+01  1.00800000E+00
  1.00800000E+00  1.60000000E+01  1.00800000E+00  1.00800000E+00  1.60000000E+01
  1.00800000E+00  1.00800000E+00  1.60000000E+01  1.00800000E+00  1.00800000E+00
  1.60000000E+01  1.00800000E+00  1.00800000E+00  1.60000000E+01  1.00800000E+00
  1.00800000E+00  1.60000000E+01  1.00800000E+00  1.00800000E+00  1.60000000E+01
  1.00800000E+00  1.00800000E+00  1.60000000E+01  1.00800000E+00  1.00800000E+00
  1.60000000E+01  1.00800000E+00  1.00800000E+00  1.60000000E+01  1.00800000E+00
  1.00800000E+00  1.60000000E+01  1.00800000E+00  1.00800000E+00  1.60000000E+01
  1.00800000E+00  1.00800000E+00  1.60000000E+01  1.00800000E+00  1.00800000E+00
  1.60000000E+01  1.00800000E+00  1.00800000E+00  1.60000000E+01  1.00800000E+00
  1.00800000E+00  1.60000000E+01  1.00800000E+00  1.00800000E+00  1.60000000E+01
  1.00800000E+00  1.00800000E+00  1.60000000E+01  1.00800000E+00  1.00800000E+00
  1.60000000E+01  1.00800000E+00  1.00800000E+00  1.60000000E+01  1.00800000E+00
  1.00800000E+00  1.60000000E+01  1.00800000E+00  1.00800000E+00  1.60000000E+01
  1.00800000E+00  1.00800000E+00  1.60000000E+01  1.00800000E+00  1.00800000E+00
  1.60000000E+01  1.00800000E+00  1.00800000E+00  1.60000000E+01  1.00800000E+00
  1.00800000E+00  1.60000000E+01  1.00800000E+00  1.00800000E+00  1.60000000E+01
  1.00800000E+00  1.00800000E+00  1.60000000E+01  1.00800000E+00  1.00800000E+00
  1.60000000E+01  1.00800000E+00  1.00800000E+00  1.60000000E+01  1.00800000E+00
  1.00800000E+00  1.60000000E+01  1.00800000E+00  1.00800000E+00  1.60000000E+01
  1.00800000E+00  1.00800000E+00  1.60000000E+01  1.00800000E+00  1.00800000E+00
  1.60000000E+01  1.00800000E+00  1.00800000E+00  1.60000000E+01  1.00800000E+00
  1.00800000E+00  1.60000000E+01  1.00800000E+00  1.00800000E+00  1.60000000E+01
  1.00800000E+00  1.00800000E+00  1.60000000E+01  1.00800000E+00  1.00800000E+00
  1.60000000E+01  1.00800000E+00  1.00800000E+00  1.60000000E+01  1.00800000E+00
  1.00800000E+00  1.60000000E+01  1.00800000E+00  1.00800000E+00  1.60000000E+01
  1.00800000E+00  1.00800000E+00  1.60000000E+01  1.00800000E+00  1.00800000E+00
  1.60000000E+01  1.00800000E+00  1.00800000E+00  1.60000000E+01  1.00800000E+00
  1.00800000E+00  1.60000000E+01  1.00800000E+00  1.00800000E+00  1.60000000E+01
  1.00800000E+00  1.00800000E+00  1.60000000E+01  1.00800000E+00  1.00800000E+00
  1.60000000E+01  1.00800000E+00  1.00800000E+00  1.60000000E+01  1.00800000E+00
  1.00800000E+00  1.60000000E+01  1.00800000E+00  1.00800000E+00  1.60000000E+01
  1.00800000E+00  1.00800000E+00  1.60000000E+01  1.00800000E+00  1.00800000E+00
  1.60000000E+01  1.00800000E+00  1.00800000E+00  1.60000000E+01  1.00800000E+00
  1.00800000E+00  1.60000000E+01  1.00800000E+00  1.00800000E+00  1.60000000E+01
  1.00800000E+00  1.00800000E+00  1.60000000E+01  1.00800000E+00  1.00800000E+00
  1.60000000E+01  1.00800000E+00  1.00800000E+00  1.60000000E+01  1.00800000E+00
  1.00800000E+00  1.60000000E+01  1.00800000E+00  1.00800000E+00  1.60000000E+01
  1.00800000E+00  1.00800000E+00  1.60000000E+01  1.00800000E+00  1.00800000E+00
  1.60000000E+01  1.00800000E+00  1.00800000E+00  1.60000000E+01  1.00800000E+00
  1.00800000E+00  1.60000000E+01  1.00800000E+00  1.00800000E+00  1.60000000E+01
  1.00800000E+00  1.00800000E+00  1.60000000E+01  1.00800000E+00  1.00800000E+00
  1.60000000E+01  1.00800000E+00  1.00800000E+00  1.60000000E+01  1.00800000E+00
  1.00800000E+00  1.60000000E+01  1.00800000E+00  1.00800000E+00  1.60000000E+01
  1.00800000E+00  1.00800000E+00  1.60000000E+01  1.00800000E+00  1.00800000E+00
  1.60000000E+01  1.00800000E+00  1.00800000E+00  1.60000000E+01  1.00800000E+00
  1.00800000E+00  1.60000000E+01  1.00800000E+00  1.00800000E+00  1.60000000E+01
  1.00800000E+00  1.00800000E+00  1.60000000E+01  1.00800000E+00  1.00800000E+00
  1.60000000E+01  1.00800000E+00  1.00800000E+00  1.60000000E+01  1.00800000E+00
  1.00800000E+00  1.60000000E+01  1.00800000E+00  1.00800000E+00  1.60000000E+01
  1.00800000E+00  1.00800000E+00  1.60000000E+01  1.00800000E+00  1.00800000E+00
  1.60000000E+01  1.00800000E+00  1.00800000E+00  1.60000000E+01  1.00800000E+00
  1.00800000E+00  1.60000000E+01  1.00800000E+00  1.00800000E+00  1.60000000E+01
  1.00800000E+00  1.00800000E+00  1.60000000E+01  1.00800000E+00  1.00800000E+00
  1.60000000E+01  1.00800000E+00  1.00800000E+00  1.60000000E+01  1.00800000E+00
  1.00800000E+00  1.60000000E+01  1.00800000E+00  1.00800000E+00  1.60000000E+01
  1.00800000E+00  1.00800000E+00  1.60000000E+01  1.00800000E+00  1.00800000E+00
  1.60000000E+01  1.00800000E+00  1.00800000E+00  1.60000000E+01  1.00800000E+00
  1.00800000E+00  1.60000000E+01  1.00800000E+00  1.00800000E+00  1.60000000E+01
  1.00800000E+00  1.00800000E+00  1.60000000E+01  1.00800000E+00  1.00800000E+00
  1.60000000E+01  1.00800000E+00  1.00800000E+00  1.60000000E+01  1.00800000E+00
  1.00800000E+00  1.60000000E+01  1.00800000E+00  1.00800000E+00  1.60000000E+01
  1.00800000E+00  1.00800000E+00  1.60000000E+01  1.00800000E+00  1.00800000E+00
  1.60000000E+01  1.00800000E+00  1.00800000E+00  1.60000000E+01  1.00800000E+00
  1.00800000E+00  1.60000000E+01  1.00800000E+00  1.00800000E+00  1.60000000E+01
  1.00800000E+00  1.00800000E+00  1.60000000E+01  1.00800000E+00  1.00800000E+00
  1.60000000E+01  1.00800000E+00  1.00800000E+00  1.60000000E+01  1.00800000E+00
  1.00800000E+00  1.60000000E+01  1.00800000E+00  1.00800000E+00  1.60000000E+01
  1.00800000E+00  1.00800000E+00  1.60000000E+01  1.00800000E+00  1.00800000E+00
  1.60000000E+01  1.00800000E+00  1.00800000E+00  1.60000000E+01  1.00800000E+00
  1.00800000E+00  1.60000000E+01  1.00800000E+00  1.00800000E+00  1.60000000E+01
  1.00800000E+00  1.00800000E+00  1.60000000E+01  1.00800000E+00  1.00800000E+00
  1.60000000E+01  1.00800000E+00  1.00800000E+00  1.60000000E+01  1.00800000E+00
  1.00800000E+00  1.60000000E+01  1.00800000E+00  1.00800000E+00  1.60000000E+01
  1.00800000E+00  1.00800000E+00  1.60000000E+01  1.00800000E+00  1.00800000E+00
  1.60000000E+01  1.00800000E+00  1.00800000E+00  1.60000000E+01  1.00800000E+00
  1.00800000E+00  1.60000000E+01  1.00800000E+00  1.00800000E+00  1.60000000E+01
  1.00800000E+00  1.00800000E+00  1.60000000E+01  1.00800000E+00  1.00800000E+00
  1.60000000E+01  1.00800000E+00  1.00800000E+00  1.60000000E+01  1.00800000E+00
  1.00800000E+00  1.60000000E+01  1.00800000E+00  1.00800000E+00  1.60000000E+01
  1.00800000E+00  1.00800000E+00  1.60000000E+01  1.00800000E+00  1.00800000E+00
  1.60000000E+01  1.00800000E+00  1.00800000E+00  1.60000000E+01  1.00800000E+00
  1.00800000E+00  1.60000000E+01  1.00800000E+00  1.00800000E+00  1.60000000E+01
  1.00800000E+00  1.00800000E+00  1.60000000E+01  1.00800000E+00  1.00800000E+00
  1.60000000E+01  1.00800000E+00  1.00800000E+00  1.60000000E+01  1.00800000E+00
  1.00800000E+00  1.60000000E+01  1.00800000E+00  1.00800000E+00  1.60000000E+01
  1.00800000E+00  1.00800000E+00  1.60000000E+01  1.00800000E+00  1.00800000E+00
  1.60000000E+01  1.00800000E+00  1.00800000E+00  1.60000000E+01  1.00800000E+00
  1.00800000E+00  1.60000000E+01  1.00800000E+00  1.00800000E+00  1.60000000E+01
  1.00800000E+00  1.00800000E+00  1.60000000E+01  1.00800000E+00  1.00800000E+00
  1.60000000E+01  1.00800000E+00  1.00800000E+00  1.60000000E+01  1.00800000E+00
  1.00800000E+00  1.60000000E+01  1.00800000E+00  1.00800000E+00  1.60000000E+01
  1.00800000E+00  1.00800000E+00  1.60000000E+01  1.00800000E+00  1.00800000E+00
  1.60000000E+01  1.00800000E+00  1.00800000E+00  1.60000000E+01  1.00800000E+00
  1.00800000E+00  1.60000000E+01  1.00800000E+00  1.00800000E+00  1.60000000E+01
  1.00800000E+00  1.00800000E+00  1.60000000E+01  1.00800000E+00  1.00800000E+00
  1.60000000E+01  1.00800000E+00  1.00800000E+00  1.60000000E+01  1.00800000E+00
  1.00800000E+00  1.60000000E+01  1.00800000E+00  1.00800000E+00  1.60000000E+01
  1.00800000E+00  1.00800000E+00  1.60000000E+01  1.00800000E+00  1.00800000E+00
  1.60000000E+01  1.00800000E+00  1.00800000E+00  1.60000000E+01  1.00800000E+00
  1.00800000E+00  1.60000000E+01  1.00800000E+00  1.00800000E+00  1.60000000E+01
  1.00800000E+00  1.00800000E+00  1.60000000E+01  1.00800000E+00  1.00800000E+00
  1.60000000E+01  1.00800000E+00  1.00800000E+00  1.60000000E+01  1.00800000E+00
  1.00800000E+00  1.60000000E+01  1.00800000E+00  1.00800000E+00  1.60000000E+01
  1.00800000E+00  1.00800000E+00  1.60000000E+01  1.00800000E+00  1.00800000E+00
  1.60000000E+01  1.00800000E+00  1.00800000E+00  1.60000000E+01  1.00800000E+00
  1.00800000E+00  1.60000000E+01  1.00800000E+00  1.00800000E+00  1.60000000E+01
  1.00800000E+00  1.00800000E+00  1.60000000E+01  1.00800000E+00  1.00800000E+00
  1.60000000E+01  1.00800000E+00  1.00800000E+00  1.60000000E+01  1.00800000E+00
  1.00800000E+00  1.60000000E+01  1.00800000E+00  1.00800000E+00  1.60000000E+01
  1.00800000E+00  1.00800000E+00  1.60000000E+01  1.00800000E+00  1.00800000E+00
  1.60000000E+01  1.00800000E+00  1.00800000E+00  1.60000000E+01  1.00800000E+00
  1.00800000E+00  1.60000000E+01  1.00800000E+00  1.00800000E+00  1.60000000E+01
  1.00800000E+00  1.00800000E+00  1.60000000E+01  1.00800000E+00  1.00800000E+00
  1.60000000E+01  1.00800000E+00  1.00800000E+00  1.60000000E+01  1.00800000E+00
  1.00800000E+00  1.60000000E+01  1.00800000E+00  1.00800000E+00  1.60000000E+01
  1.00800000E+00  1.00800000E+00  1.60000000E+01  1.00800000E+00  1.00800000E+00
  1.60000000E+01  1.00800000E+00  1.00800000E+00  1.60000000E+01  1.00800000E+00
  1.00800000E+00  1.60000000E+01  1.00800000E+00  1.00800000E+00  1.60000000E+01
  1.00800000E+00  1.00800000E+00  1.60000000E+01  1.00800000E+00  1.00800000E+00
  1.60000000E+01  1.00800000E+00  1.00800000E+00  1.60000000E+01  1.00800000E+00
  1.00800000E+00  1.60000000E+01  1.00800000E+00  1.00800000E+00  1.60000000E+01
  1.00800000E+00  1.00800000E+00  1.60000000E+01  1.00800000E+00  1.00800000E+00
  1.60000000E+01  1.00800000E+00  1.00800000E+00  1.60000000E+01  1.00800000E+00
  1.00800000E+00  1.60000000E+01  1.00800000E+00  1.00800000E+00  1.60000000E+01
  1.00800000E+00  1.00800000E+00  1.60000000E+01  1.00800000E+00  1.00800000E+00
  1.60000000E+01  1.00800000E+00  1.00800000E+00  1.60000000E+01  1.00800000E+00
  1.00800000E+00  1.60000000E+01  1.00800000E+00  1.00800000E+00  1.60000000E+01
  1.00800000E+00  1.00800000E+00  1.60000000E+01  1.00800000E+00  1.00800000E+00
  1.60000000E+01  1.00800000E+00  1.00800000E+00  1.60000000E+01  1.00800000E+00
  1.00800000E+00  1.60000000E+01  1.00800000E+00  1.00800000E+00  1.60000000E+01
  1.00800000E+00  1.00800000E+00  1.60000000E+01  1.00800000E+00  1.00800000E+00
  1.60000000E+01  1.00800000E+00  1.00800000E+00  1.60000000E+01  1.00800000E+00
  1.00800000E+00  1.60000000E+01  1.00800000E+00  1.00800000E+00  1.60000000E+01
  1.00800000E+00  1.00800000E+00  1.60000000E+01  1.00800000E+00  1.00800000E+00
  1.60000000E+01  1.00800000E+00  1.00800000E+00  1.60000000E+01  1.00800000E+00
  1.00800000E+00  1.60000000E+01  1.00800000E+00  1.00800000E+00  1.60000000E+01
  1.00800000E+00  1.00800000E+00  1.60000000E+01  1.00800000E+00  1.00800000E+00
  1.60000000E+01  1.00800000E+00  1.00800000E+00  1.60000000E+01  1.00800000E+00
  1.00800000E+00  1.60000000E+01  1.00800000E+00  1.00800000E+00  1.60000000E+01
  1.00800000E+00  1.00800000E+00  1.60000000E+01  1.00800000E+00  1.00800000E+00
  1.60000000E+01  1.00800000E+00  1.00800000E+00  1.60000000E+01  1.00800000E+00
  1.00800000E+00  1.60000000E+01  1.00800000E+00  1.00800000E+00  1.60000000E+01
  1.00800000E+00  1.00800000E+00  1.60000000E+01  1.00800000E+00  1.00800000E+00
  1.60000000E+01  1.00800000E+00  1.00800000E+00  1.60000000E+01  1.00800000E+00
  1.00800000E+00  1.60000000E+01  1.00800000E+00  1.00800000E+00  1.60000000E+01
  1.00800000E+00  1.00800000E+00  1.60000000E+01  1.00800000E+00  1.00800000E+00
  1.60000000E+01  1.00800000E+00  1.00800000E+00  1.60000000E+01  1.00800000E+00
  1.00800000E+00  1.60000000E+01  1.00800000E+00  1.00800000E+00  1.60000000E+01
  1.00800000E+00  1.00800000E+00  1.60000000E+01  1.00800000E+00  1.00800000E+00
  1.60000000E+01  1.00800000E+00  1.00800000E+00  1.60000000E+01  1.00800000E+00
  1.00800000E+00  1.60000000E+01  1.00800000E+00  1.00800000E+00  1.60000000E+01
  1.00800000E+00  1.00800000E+00  1.60000000E+01  1.00800000E+00  1.00800000E+00
  1.60000000E+01  1.00800000E+00  1.00800000E+00  1.60000000E+01  1.00800000E+00
  1.00800000E+00  1.60000000E+01  1.00800000E+00  1.00800000E+00  1.60000000E+01
  1.00800000E+00  1.00800000E+00  1.60000000E+01  1.00800000E+00  1.00800000E+00
  1.60000000E+01  1.00800000E+00  1.00800000E+00  1.60000000E+01  1.00800000E+00
  1.00800000E+00  1.60000000E+01  1.00800000E+00  1.00800000E+00  1.60000000E+01
  1.00800000E+00  1.00800000E+00  1.60000000E+01  1.00800000E+00  1.00800000E+00
  1.60000000E+01  1.00800000E+00  1.00800000E+00  1.60000000E+01  1.00800000E+00
  1.00800000E+00  1.60000000E+01  1.00800000E+00  1.00800000E+00  1.60000000E+01
  1.00800000E+00  1.00800000E+00  1.60000000E+01  1.00800000E+00  1.00800000E+00
  1.60000000E+01  1.00800000E+00  1.00800000E+00  1.60000000E+01  1.00800000E+00
  1.00800000E+00  1.60000000E+01  1.00800000E+00  1.00800000E+00  1.60000000E+01
  1.00800000E+00  1.00800000E+00  1.60000000E+01  1.00800000E+00  1.00800000E+00
  1.60000000E+01  1.00800000E+00  1.00800000E+00  1.60000000E+01  1.00800000E+00
  1.00800000E+00  1.60000000E+01  1.00800000E+00  1.00800000E+00  1.60000000E+01
  1.00800000E+00  1.00800000E+00  1.60000000E+01  1.00800000E+00  1.00800000E+00
  1.60000000E+01  1.00800000E+00  1.00800000E+00  1.60000000E+01  1.00800000E+00
  1.00800000E+00  1.60000000E+01  1.00800000E+00  1.00800000E+00  1.60000000E+01
  1.00800000E+00  1.00800000E+00  1.60000000E+01  1.00800000E+00  1.00800000E+00
  1.60000000E+01  1.00800000E+00  1.00800000E+00  1.60000000E+01  1.00800000E+00
  1.00800000E+00  1.60000000E+01  1.00800000E+00  1.00800000E+00  1.60000000E+01
  1.00800000E+00  1.00800000E+00  1.60000000E+01  1.00800000E+00  1.00800000E+00
  1.60000000E+01  1.00800000E+00  1.00800000E+00  1.60000000E+01  1.00800000E+00
  1.00800000E+00  1.60000000E+01  1.00800000E+00  1.00800000E+00  1.60000000E+01
  1.00800000E+00  1.00800000E+00  1.60000000E+01  1.00800000E+00  1.00800000E+00
  1.60000000E+01  1.00800000E+00  1.00800000E+00  1.60000000E+01  1.00800000E+00
  1.00800000E+00  1.60000000E+01  1.00800000E+00  1.00800000E+00  1.60000000E+01
  1.00800000E+00  1.00800000E+00  1.60000000E+01  1.00800000E+00  1.00800000E+00
  1.60000000E+01  1.00800000E+00  1.00800000E+00  1.60000000E+01  1.00800000E+00
  1.00800000E+00  1.60000000E+01  1.00800000E+00  1.00800000E+00  1.60000000E+01
  1.00800000E+00  1.00800000E+00  1.60000000E+01  1.00800000E+00  1.00800000E+00
  1.60000000E+01  1.00800000E+00  1.00800000E+00  1.60000000E+01  1.00800000E+00
  1.00800000E+00  1.60000000E+01  1.00800000E+00  1.00800000E+00  1.60000000E+01
  1.00800000E+00  1.00800000E+00  1.60000000E+01  1.00800000E+00  1.00800000E+00
  1.60000000E+01  1.00800000E+00  1.00800000E+00  1.60000000E+01  1.00800000E+00
  1.00800000E+00  1.60000000E+01  1.00800000E+00  1.00800000E+00  1.60000000E+01
  1.00800000E+00  1.00800000E+00  1.60000000E+01  1.00800000E+00  1.00800000E+00
  1.60000000E+01  1.00800000E+00  1.00800000E+00  1.60000000E+01  1.00800000E+00
  1.00800000E+00  1.60000000E+01  1.00800000E+00  1.00800000E+00  1.60000000E+01
  1.00800000E+00  1.00800000E+00  1.60000000E+01  1.00800000E+00  1.00800000E+00
  1.60000000E+01  1.00800000E+00  1.00800000E+00  1.60000000E+01  1.00800000E+00
  1.00800000E+00  1.60000000E+01  1.00800000E+00  1.00800000E+00  1.60000000E+01
  1.00800000E+00  1.00800000E+00  1.60000000E+01  1.00800000E+00  1.00800000E+00
  1.60000000E+01  1.00800000E+00  1.00800000E+00  1.60000000E+01  1.00800000E+00
  1.00800000E+00  1.60000000E+01  1.00800000E+00  1.00800000E+00  1.60000000E+01
  1.00800000E+00  1.00800000E+00  1.60000000E+01  1.00800000E+00  1.00800000E+00
  1.60000000E+01  1.00800000E+00  1.00800000E+00  1.60000000E+01  1.00800000E+00
  1.00800000E+00  1.60000000E+01  1.00800000E+00  1.00800000E+00  1.60000000E+01
  1.00800000E+00  1.00800000E+00  1.60000000E+01  1.00800000E+00  1.00800000E+00
  1.60000000E+01  1.00800000E+00  1.00800000E+00  1.60000000E+01  1.00800000E+00
  1.00800000E+00  1.60000000E+01  1.00800000E+00  1.00800000E+00  1.60000000E+01
  1.00800000E+00  1.00800000E+00  1.60000000E+01  1.00800000E+00  1.00800000E+00
  1.60000000E+01  1.00800000E+00  1.00800000E+00  1.60000000E+01  1.00800000E+00
  1.00800000E+00  1.60000000E+01  1.00800000E+00  1.00800000E+00  1.60000000E+01
  1.00800000E+00  1.00800000E+00  1.60000000E+01  1.00800000E+00  1.00800000E+00
  1.60000000E+01  1.00800000E+00  1.00800000E+00  1.60000000E+01  1.00800000E+00
  1.00800000E+00  1.60000000E+01  1.00800000E+00  1.00800000E+00  1.60000000E+01
  1.00800000E+00  1.00800000E+00  1.60000000E+01  1.00800000E+00  1.00800000E+00
  1.60000000E+01  1.00800000E+00  1.00800000E+00  1.60000000E+01  1.00800000E+00
  1.00800000E+00  1.60000000E+01  1.00800000E+00  1.00800000E+00  1.60000000E+01
  1.00800000E+00  1.00800000E+00  1.60000000E+01  1.00800000E+00  1.00800000E+00
  1.60000000E+01  1.00800000E+00  1.00800000E+00  1.60000000E+01  1.00800000E+00
  1.00800000E+00  1.60000000E+01  1.00800000E+00  1.00800000E+00  1.60000000E+01
  1.00800000E+00  1.00800000E+00  1.60000000E+01  1.00800000E+00  1.00800000E+00
  1.60000000E+01  1.00800000E+00  1.00800000E+00  1.60000000E+01  1.00800000E+00
  1.00800000E+00  1.60000000E+01  1.00800000E+00  1.00800000E+00  1.60000000E+01
  1.00800000E+00  1.00800000E+00  1.60000000E+01  1.00800000E+00  1.00800000E+00
  1.60000000E+01  1.00800000E+00  1.00800000E+00  1.60000000E+01  1.00800000E+00
  1.00800000E+00  1.60000000E+01  1.00800000E+00  1.00800000E+00  1.60000000E+01
  1.00800000E+00  1.00800000E+00  1.60000000E+01  1.00800000E+00  1.00800000E+00
  1.60000000E+01  1.00800000E+00  1.00800000E+00  1.60000000E+01  1.00800000E+00
  1.00800000E+00  1.60000000E+01  1.00800000E+00  1.00800000E+00  1.60000000E+01
  1.00800000E+00  1.00800000E+00  1.60000000E+01  1.00800000E+00  1.00800000E+00
  1.60000000E+01  1.00800000E+00  1.00800000E+00  1.60000000E+01  1.00800000E+00
  1.00800000E+00  1.60000000E+01  1.00800000E+00  1.00800000E+00  1.60000000E+01
  1.00800000E+00  1.00800000E+00  1.60000000E+01  1.00800000E+00  1.00800000E+00
  1.60000000E+01  1.00800000E+00  1.00800000E+00  1.60000000E+01  1.00800000E+00
  1.00800000E+00  1.60000000E+01  1.00800000E+00  1.00800000E+00  1.60000000E+01
  1.00800000E+00  1.00800000E+00  1.60000000E+01  1.00800000E+00  1.00800000E+00
  1.60000000E+01  1.00800000E+00  1.00800000E+00  1.60000000E+01  1.00800000E+00
  1.00800000E+00  1.60000000E+01  1.00800000E+00  1.00800000E+00  1.60000000E+01
  1.00800000E+00  1.00800000E+00  1.60000000E+01  1.00800000E+00  1.00800000E+00
  1.60000000E+01  1.00800000E+00  1.00800000E+00  1.60000000E+01  1.00800000E+00
  1.00800000E+00  1.60000000E+01  1.00800000E+00  1.00800000E+00  1.60000000E+01
  1.00800000E+00  1.00800000E+00  1.60000000E+01  1.00800000E+00  1.00800000E+00
  1.60000000E+01  1.00800000E+00  1.00800000E+00  1.60000000E+01  1.00800000E+00
  1.00800000E+00  1.60000000E+01  1.00800000E+00  1.00800000E+00  1.60000000E+01
  1.00800000E+00  1.00800000E+00  1.60000000E+01  1.00800000E+00  1.00800000E+00
  1.60000000E+01  1.00800000E+00  1.00800000E+00  1.60000000E+01  1.00800000E+00
  1.00800000E+00  1.60000000E+01  1.00800000E+00  1.00800000E+00  1.60000000E+01
  1.00800000E+00  1.00800000E+00  1.60000000E+01  1.00800000E+00  1.00800000E+00
  1.60000000E+01  1.00800000E+00  1.00800000E+00  1.60000000E+01  1.00800000E+00
  1.00800000E+00  1.60000000E+01  1.00800000E+00  1.00800000E+00  1.60000000E+01
  1.00800000E+00  1.00800000E+00  1.60000000E+01  1.00800000E+00  1.00800000E+00
  1.60000000E+01  1.00800000E+00  1.00800000E+00  1.60000000E+01  1.00800000E+00
  1.00800000E+00  1.60000000E+01  1.00800000E+00  1.00800000E+00  1.60000000E+01
  1.00800000E+00  1.00800000E+00  1.60000000E+01  1.00800000E+00  1.00800000E+00
  1.60000000E+01  1.00800000E+00  1.00800000E+00  1.60000000E+01  1.00800000E+00
  1.00800000E+00  1.60000000E+01  1.00800000E+00  1.00800000E+00  1.60000000E+01
  1.00800000E+00  1.00800000E+00  1.60000000E+01  1.00800000E+00  1.00800000E+00
  1.60000000E+01  1.00800000E+00  1.00800000E+00  1.60000000E+01  1.00800000E+00
  1.00800000E+00  1.60000000E+01  1.00800000E+00  1.00800000E+00  1.60000000E+01
  1.00800000E+00  1.00800000E+00  1.60000000E+01  1.00800000E+00  1.00800000E+00
  1.60000000E+01  1.00800000E+00  1.00800000E+00  1.60000000E+01  1.00800000E+00
  1.00800000E+00  1.60000000E+01  1.00800000E+00  1.00800000E+00  1.60000000E+01
  1.00800000E+00  1.00800000E+00  1.60000000E+01  1.00800000E+00  1.00800000E+00
  1.60000000E+01  1.00800000E+00  1.00800000E+00  1.60000000E+01  1.00800000E+00
  1.00800000E+00  1.60000000E+01  1.00800000E+00  1.00800000E+00  1.60000000E+01
  1.00800000E+00  1.00800000E+00  1.60000000E+01  1.00800000E+00  1.00800000E+00
  1.60000000E+01  1.00800000E+00  1.00800000E+00  1.60000000E+01  1.00800000E+00
  1.00800000E+00  1.60000000E+01  1.00800000E+00  1.00800000E+00  1.60000000E+01
  1.00800000E+00  1.00800000E+00  1.60000000E+01  1.00800000E+00  1.00800000E+00
  1.60000000E+01  1.00800000E+00  1.00800000E+00  1.60000000E+01  1.00800000E+00
  1.00800000E+00  1.60000000E+01  1.00800000E+00  1.00800000E+00  1.60000000E+01
  1.00800000E+00  1.00800000E+00  1.60000000E+01  1.00800000E+00  1.00800000E+00
  1.60000000E+01  1.00800000E+00  1.00800000E+00  1.60000000E+01  1.00800000E+00
  1.00800000E+00  1.60000000E+01  1.00800000E+00  1.00800000E+00  1.60000000E+01
  1.00800000E+00  1.00800000E+00  1.60000000E+01  1.00800000E+00  1.00800000E+00
  1.60000000E+01  1.00800000E+00  1.00800000E+00  1.60000000E+01  1.00800000E+00
  1.00800000E+00  1.60000000E+01  1.00800000E+00  1.00800000E+00  1.60000000E+01
  1.00800000E+00  1.00800000E+00  1.60000000E+01  1.00800000E+00  1.00800000E+00
  1.60000000E+01  1.00800000E+00  1.00800000E+00  1.60000000E+01  1.00800000E+00
  1.00800000E+00  1.60000000E+01  1.00800000E+00  1.00800000E+00  1.60000000E+01
  1.00800000E+00  1.00800000E+00  1.60000000E+01  1.00800000E+00  1.00800000E+00
  1.60000000E+01  1.00800000E+00  1.00800000E+00  1.60000000E+01  1.00800000E+00
  1.00800000E+00  1.60000000E+01  1.00800000E+00  1.00800000E+00  1.60000000E+01
  1.00800000E+00  1.00800000E+00  1.60000000E+01  1.00800000E+00  1.00800000E+00
  1.60000000E+01  1.00800000E+00  1.00800000E+00  1.60000000E+01  1.00800000E+00
  1.00800000E+00  1.60000000E+01  1.00800000E+00  1.00800000E+00  1.60000000E+01
  1.00800000E+00  1.00800000E+00  1.60000000E+01  1.00800000E+00  1.00800000E+00
  1.60000000E+01  1.00800000E+00  1.00800000E+00  1.60000000E+01  1.00800000E+00
  1.00800000E+00  1.60000000E+01  1.00800000E+00  1.00800000E+00  1.60000000E+01
  1.00800000E+00  1.00800000E+00  1.60000000E+01  1.00800000E+00  1.00800000E+00
  1.60000000E+01  1.00800000E+00  1.00800000E+00  1.60000000E+01  1.00800000E+00
  1.00800000E+00  1.60000000E+01  1.00800000E+00  1.00800000E+00  1.60000000E+01
  1.00800000E+00  1.00800000E+00  1.60000000E+01  1.00800000E+00  1.00800000E+00
  1.60000000E+01  1.00800000E+00  1.00800000E+00  1.60000000E+01  1.00800000E+00
  1.00800000E+00  1.60000000E+01  1.00800000E+00  1.00800000E+00  1.60000000E+01
  1.00800000E+00  1.00800000E+00  1.60000000E+01  1.00800000E+00  1.00800000E+00
  1.60000000E+01  1.00800000E+00  1.00800000E+00  1.60000000E+01  1.00800000E+00
  1.00800000E+00  1.60000000E+01  1.00800000E+00  1.00800000E+00  1.60000000E+01
  1.00800000E+00  1.00800000E+00  1.60000000E+01  1.00800000E+00  1.00800000E+00
  1.60000000E+01  1.00800000E+00  1.00800000E+00  1.60000000E+01  1.00800000E+00
  1.00800000E+00  1.60000000E+01  1.00800000E+00  1.00800000E+00  1.60000000E+01
  1.00800000E+00  1.00800000E+00  1.60000000E+01  1.00800000E+00  1.00800000E+00
  1.60000000E+01  1.00800000E+00  1.00800000E+00  1.60000000E+01  1.00800000E+00
  1.00800000E+00  1.60000000E+01  1.00800000E+00  1.00800000E+00  1.60000000E+01
  1.00800000E+00  1.00800000E+00  1.60000000E+01  1.00800000E+00  1.00800000E+00
  1.60000000E+01  1.00800000E+00  1.00800000E+00  1.60000000E+01  1.00800000E+00
  1.00800000E+00  1.60000000E+01  1.00800000E+00  1.00800000E+00  1.60000000E+01
  1.00800000E+00  1.00800000E+00  1.60000000E+01  1.00800000E+00  1.00800000E+00
  1.60000000E+01  1.00800000E+00  1.00800000E+00  1.60000000E+01  1.00800000E+00
  1.00800000E+00  1.60000000E+01  1.00800000E+00  1.00800000E+00  1.60000000E+01
  1.00800000E+00  1.00800000E+00  1.60000000E+01  1.00800000E+00  1.00800000E+00
  1.60000000E+01  1.00800000E+00  1.00800000E+00  1.60000000E+01  1.00800000E+00
  1.00800000E+00  1.60000000E+01  1.00800000E+00  1.00800000E+00  1.60000000E+01
  1.00800000E+00  1.00800000E+00  1.60000000E+01  1.00800000E+00  1.00800000E+00
  1.60000000E+01  1.00800000E+00  1.00800000E+00  1.60000000E+01  1.00800000E+00
  1.00800000E+00  1.60000000E+01  1.00800000E+00  1.00800000E+00  1.60000000E+01
  1.00800000E+00  1.00800000E+00  1.60000000E+01  1.00800000E+00  1.00800000E+00
  1.60000000E+01  1.00800000E+00  1.00800000E+00  1.60000000E+01  1.00800000E+00
  1.00800000E+00  1.60000000E+01  1.00800000E+00  1.00800000E+00  1.60000000E+01
  1.00800000E+00  1.00800000E+00  1.60000000E+01  1.00800000E+00  1.00800000E+00
  1.60000000E+01  1.00800000E+00  1.00800000E+00  1.60000000E+01  1.00800000E+00
  1.00800000E+00  1.60000000E+01  1.00800000E+00  1.00800000E+00  1.60000000E+01
  1.00800000E+00  1.00800000E+00  1.60000000E+01  1.00800000E+00  1.00800000E+00
  1.60000000E+01  1.00800000E+00  1.00800000E+00  1.60000000E+01  1.00800000E+00
  1.00800000E+00  1.60000000E+01  1.00800000E+00  1.00800000E+00  1.60000000E+01
  1.00800000E+00  1.00800000E+00  1.60000000E+01  1.00800000E+00  1.00800000E+00
  1.60000000E+01  1.00800000E+00  1.00800000E+00  1.60000000E+01  1.00800000E+00
  1.00800000E+00  1.60000000E+01  1.00800000E+00  1.00800000E+00  1.60000000E+01
  1.00800000E+00  1.00800000E+00  1.60000000E+01  1.00800000E+00  1.00800000E+00
  1.60000000E+01  1.00800000E+00  1.00800000E+00  1.60000000E+01  1.00800000E+00
  1.00800000E+00  1.60000000E+01  1.00800000E+00  1.00800000E+00  1.60000000E+01
  1.00800000E+00  1.00800000E+00  1.60000000E+01  1.00800000E+00  1.00800000E+00
  1.60000000E+01  1.00800000E+00  1.00800000E+00  1.60000000E+01  1.00800000E+00
  1.00800000E+00  1.60000000E+01  1.00800000E+00  1.00800000E+00  1.60000000E+01
  1.00800000E+00  1.00800000E+00  1.60000000E+01  1.00800000E+00  1.00800000E+00
  1.60000000E+01  1.00800000E+00  1.00800000E+00  1.60000000E+01  1.00800000E+00
  1.00800000E+00  1.60000000E+01  1.00800000E+00  1.00800000E+00  1.60000000E+01
  1.00800000E+00  1.00800000E+00  1.60000000E+01  1.00800000E+00  1.00800000E+00
  1.60000000E+01  1.00800000E+00  1.00800000E+00  1.60000000E+01  1.00800000E+00
  1.00800000E+00  1.60000000E+01  1.00800000E+00  1.00800000E+00  1.60000000E+01
  1.00800000E+00  1.00800000E+00  1.60000000E+01  1.00800000E+00  1.00800000E+00
  1.60000000E+01  1.00800000E+00  1.00800000E+00  1.60000000E+01  1.00800000E+00
  1.00800000E+00  1.60000000E+01  1.00800000E+00  1.00800000E+00  1.60000000E+01
  1.00800000E+00  1.00800000E+00  1.60000000E+01  1.00800000E+00  1.00800000E+00
  1.60000000E+01  1.00800000E+00  1.00800000E+00  1.60000000E+01  1.00800000E+00
  1.00800000E+00  1.60000000E+01  1.00800000E+00  1.00800000E+00  1.60000000E+01
  1.00800000E+00  1.00800000E+00  1.60000000E+01  1.00800000E+00  1.00800000E+00
  1.60000000E+01  1.00800000E+00  1.00800000E+00  1.60000000E+01  1.00800000E+00
  1.00800000E+00  1.60000000E+01  1.00800000E+00  1.00800000E+00  1.60000000E+01
  1.00800000E+00  1.00800000E+00  1.60000000E+01  1.00800000E+00  1.00800000E+00
  1.60000000E+01  1.00800000E+00  1.00800000E+00  1.60000000E+01  1.00800000E+00
  1.00800000E+00  1.60000000E+01  1.00800000E+00  1.00800000E+00  1.60000000E+01
  1.00800000E+00  1.00800000E+00  1.60000000E+01  1.00800000E+00  1.00800000E+00
  1.60000000E+01  1.00800000E+00  1.00800000E+00  1.60000000E+01  1.00800000E+00
  1.00800000E+00  1.60000000E+01  1.00800000E+00  1.00800000E+00  1.60000000E+01
  1.00800000E+00  1.00800000E+00  1.60000000E+01  1.00800000E+00  1.00800000E+00
  1.60000000E+01  1.00800000E+00  1.00800000E+00  1.60000000E+01  1.00800000E+00
  1.00800000E+00  1.60000000E+01  1.00800000E+00  1.00800000E+00  1.60000000E+01
  1.00800000E+00  1.00800000E+00  1.60000000E+01  1.00800000E+00  1.00800000E+00
  1.60000000E+01  1.00800000E+00  1.00800000E+00  1.60000000E+01  1.00800000E+00
  1.00800000E+00  1.60000000E+01  1.00800000E+00  1.00800000E+00  1.60000000E+01
  1.00800000E+00  1.00800000E+00  1.60000000E+01  1.00800000E+00  1.00800000E+00
  1.60000000E+01  1.00800000E+00  1.00800000E+00  1.60000000E+01  1.00800000E+00
  1.00800000E+00  1.60000000E+01  1.00800000E+00  1.00800000E+00  1.60000000E+01
  1.00800000E+00  1.00800000E+00  1.60000000E+01  1.00800000E+00  1.00800000E+00
  1.60000000E+01  1.00800000E+00  1.00800000E+00  1.60000000E+01  1.00800000E+00
  1.00800000E+00  1.60000000E+01  1.00800000E+00  1.00800000E+00  1.60000000E+01
  1.00800000E+00  1.00800000E+00  1.60000000E+01  1.00800000E+00  1.00800000E+00
  1.60000000E+01  1.00800000E+00  1.00800000E+00  1.60000000E+01  1.00800000E+00
  1.00800000E+00  1.60000000E+01  1.00800000E+00  1.00800000E+00  1.60000000E+01
  1.00800000E+00  1.00800000E+00  1.60000000E+01  1.00800000E+00  1.00800000E+00
  1.60000000E+01  1.00800000E+00  1.00800000E+00  1.60000000E+01  1.00800000E+00
  1.00800000E+00  1.60000000E+01  1.00800000E+00  1.00800000E+00  1.60000000E+01
  1.00800000E+00  1.00800000E+00  1.60000000E+01  1.00800000E+00  1.00800000E+00
  1.60000000E+01  1.00800000E+00  1.00800000E+00  1.60000000E+01  1.00800000E+00
  1.00800000E+00  1.60000000E+01  1.00800000E+00  1.00800000E+00  1.60000000E+01
  1.00800000E+00  1.00800000E+00  1.60000000E+01  1.00800000E+00  1.00800000E+00
  1.60000000E+01  1.00800000E+00  1.00800000E+00  1.60000000E+01  1.00800000E+00
  1.00800000E+00  1.60000000E+01  1.00800000E+00  1.00800000E+00  1.60000000E+01
  1.00800000E+00  1.00800000E+00  1.60000000E+01  1.00800000E+00  1.00800000E+00
  1.60000000E+01  1.00800000E+00  1.00800000E+00  1.60000000E+01  1.00800000E+00
  1.00800000E+00  1.60000000E+01  1.00800000E+00  1.00800000E+00  1.60000000E+01
  1.00800000E+00  1.00800000E+00  1.60000000E+01  1.00800000E+00  1.00800000E+00
  1.60000000E+01  1.00800000E+00  1.00800000E+00  1.60000000E+01  1.00800000E+00
  1.00800000E+00  1.60000000E+01  1.00800000E+00  1.00800000E+00  1.60000000E+01
  1.00800000E+00  1.00800000E+00  1.60000000E+01  1.00800000E+00  1.00800000E+00
  1.60000000E+01  1.00800000E+00  1.00800000E+00  1.60000000E+01  1.00800000E+00
  1.00800000E+00  1.60000000E+01  1.00800000E+00  1.00800000E+00  1.60000000E+01
  1.00800000E+00  1.00800000E+00  1.60000000E+01  1.00800000E+00  1.00800000E+00
  1.60000000E+01  1.00800000E+00  1.00800000E+00  1.60000000E+01  1.00800000E+00
  1.00800000E+00  1.60000000E+01  1.00800000E+00  1.00800000E+00  1.60000000E+01
  1.00800000E+00  1.00800000E+00  1.60000000E+01  1.00800000E+00  1.00800000E+00
  1.60000000E+01  1.00800000E+00  1.00800000E+00  1.60000000E+01  1.00800000E+00
  1.00800000E+00  1.60000000E+01  1.00800000E+00  1.00800000E+00  1.60000000E+01
  1.00800000E+00  1.00800000E+00  1.60000000E+01  1.00800000E+00  1.00800000E+00
  1.60000000E+01  1.00800000E+00  1.00800000E+00  1.60000000E+01  1.00800000E+00
  1.00800000E+00  1.60000000E+01  1.00800000E+00  1.00800000E+00  1.60000000E+01
  1.00800000E+00  1.00800000E+00  1.60000000E+01  1.00800000E+00  1.00800000E+00
  1.60000000E+01  1.00800000E+00  1.00800000E+00  1.60000000E+01  1.00800000E+00
  1.00800000E+00  1.60000000E+01  1.00800000E+00  1.00800000E+00  1.60000000E+01
  1.00800000E+00  1.00800000E+00  1.60000000E+01  1.00800000E+00  1.00800000E+00
  1.60000000E+01  1.00800000E+00  1.00800000E+00  1.60000000E+01  1.00800000E+00
  1.00800000E+00  1.60000000E+01  1.00800000E+00  1.00800000E+00  1.60000000E+01
  1.00800000E+00  1.00800000E+00  1.60000000E+01  1.00800000E+00  1.00800000E+00
  1.60000000E+01  1.00800000E+00  1.00800000E+00  1.60000000E+01  1.00800000E+00
  1.00800000E+00  1.60000000E+01  1.00800000E+00  1.00800000E+00  1.60000000E+01
  1.00800000E+00  1.00800000E+00  1.60000000E+01  1.00800000E+00  1.00800000E+00
  1.60000000E+01  1.00800000E+00  1.00800000E+00  1.60000000E+01  1.00800000E+00
  1.00800000E+00  1.60000000E+01  1.00800000E+00  1.00800000E+00  1.60000000E+01
  1.00800000E+00  1.00800000E+00  1.60000000E+01  1.00800000E+00  1.00800000E+00
  1.60000000E+01  1.00800000E+00  1.00800000E+00  1.60000000E+01  1.00800000E+00
  1.00800000E+00  1.60000000E+01  1.00800000E+00  1.00800000E+00  1.60000000E+01
  1.00800000E+00  1.00800000E+00  1.60000000E+01  1.00800000E+00  1.00800000E+00
  1.60000000E+01  1.00800000E+00  1.00800000E+00  1.60000000E+01  1.00800000E+00
  1.00800000E+00  1.60000000E+01  1.00800000E+00  1.00800000E+00  1.60000000E+01
  1.00800000E+00  1.00800000E+00  1.60000000E+01  1.00800000E+00  1.00800000E+00
  1.60000000E+01  1.00800000E+00  1.00800000E+00  1.60000000E+01  1.00800000E+00
  1.00800000E+00  1.60000000E+01  1.00800000E+00  1.00800000E+00  1.60000000E+01
  1.00800000E+00  1.00800000E+00  1.60000000E+01  1.00800000E+00  1.00800000E+00
  1.60000000E+01  1.00800000E+00  1.00800000E+00  1.60000000E+01  1.00800000E+00
  1.00800000E+00  1.60000000E+01  1.00800000E+00  1.00800000E+00  1.60000000E+01
  1.00800000E+00  1.00800000E+00  1.60000000E+01  1.00800000E+00  1.00800000E+00
  1.60000000E+01  1.00800000E+00  1.00800000E+00  1.60000000E+01  1.00800000E+00
  1.00800000E+00  1.60000000E+01  1.00800000E+00  1.00800000E+00  1.60000000E+01
  1.00800000E+00  1.00800000E+00  1.60000000E+01  1.00800000E+00  1.00800000E+00
  1.60000000E+01  1.00800000E+00  1.00800000E+00  1.60000000E+01  1.00800000E+00
  1.00800000E+00  1.60000000E+01  1.00800000E+00  1.00800000E+00  1.60000000E+01
  1.00800000E+00  1.00800000E+00  1.60000000E+01  1.00800000E+00  1.00800000E+00
  1.60000000E+01  1.00800000E+00  1.00800000E+00  1.60000000E+01  1.00800000E+00
  1.00800000E+00  1.60000000E+01  1.00800000E+00  1.00800000E+00  1.60000000E+01
  1.00800000E+00  1.00800000E+00  1.60000000E+01  1.00800000E+00  1.00800000E+00
  1.60000000E+01  1.00800000E+00  1.00800000E+00  1.60000000E+01  1.00800000E+00
  1.00800000E+00  1.60000000E+01  1.00800000E+00  1.00800000E+00  1.60000000E+01
  1.00800000E+00  1.00800000E+00  1.60000000E+01  1.00800000E+00  1.00800000E+00
  1.60000000E+01  1.00800000E+00  1.00800000E+00  1.60000000E+01  1.00800000E+00
  1.00800000E+00  1.60000000E+01  1.00800000E+00  1.00800000E+00  1.60000000E+01
  1.00800000E+00  1.00800000E+00  1.60000000E+01  1.00800000E+00  1.00800000E+00
  1.60000000E+01  1.00800000E+00  1.00800000E+00  1.60000000E+01  1.00800000E+00
  1.00800000E+00  1.60000000E+01  1.00800000E+00  1.00800000E+00  1.60000000E+01
  1.00800000E+00  1.00800000E+00  1.60000000E+01  1.00800000E+00  1.00800000E+00
  1.60000000E+01  1.00800000E+00  1.00800000E+00  1.60000000E+01  1.00800000E+00
  1.00800000E+00  1.60000000E+01  1.00800000E+00  1.00800000E+00  1.60000000E+01
  1.00800000E+00  1.00800000E+00  1.60000000E+01  1.00800000E+00  1.00800000E+00
  1.60000000E+01  1.00800000E+00  1.00800000E+00  1.60000000E+01  1.00800000E+00
  1.00800000E+00  1.60000000E+01  1.00800000E+00  1.00800000E+00  1.60000000E+01
  1.00800000E+00  1.00800000E+00  1.60000000E+01  1.00800000E+00  1.00800000E+00
  1.60000000E+01  1.00800000E+00  1.00800000E+00  1.60000000E+01  1.00800000E+00
  1.00800000E+00  1.60000000E+01  1.00800000E+00  1.00800000E+00  1.60000000E+01
  1.00800000E+00  1.00800000E+00  1.60000000E+01  1.00800000E+00  1.00800000E+00
  1.60000000E+01  1.00800000E+00  1.00800000E+00  1.60000000E+01  1.00800000E+00
  1.00800000E+00  1.60000000E+01  1.00800000E+00  1.00800000E+00  1.60000000E+01
  1.00800000E+00  1.00800000E+00  1.60000000E+01  1.00800000E+00  1.00800000E+00
  1.60000000E+01  1.00800000E+00  1.00800000E+00  1.60000000E+01  1.00800000E+00
  1.00800000E+00  1.60000000E+01  1.00800000E+00  1.00800000E+00  1.60000000E+01
  1.00800000E+00  1.00800000E+00  1.60000000E+01  1.00800000E+00  1.00800000E+00
  1.60000000E+01  1.00800000E+00  1.00800000E+00  1.60000000E+01  1.00800000E+00
  1.00800000E+00  1.60000000E+01  1.00800000E+00  1.00800000E+00  1.60000000E+01
  1.00800000E+00  1.00800000E+00  1.60000000E+01  1.00800000E+00  1.00800000E+00
  1.60000000E+01  1.00800000E+00  1.00800000E+00  1.60000000E+01  1.00800000E+00
  1.00800000E+00  1.60000000E+01  1.00800000E+00  1.00800000E+00  1.60000000E+01
  1.00800000E+00  1.00800000E+00  1.60000000E+01  1.00800000E+00  1.00800000E+00
  1.60000000E+01  1.00800000E+00  1.00800000E+00  1.60000000E+01  1.00800000E+00
  1.00800000E+00  1.60000000E+01  1.00800000E+00  1.00800000E+00  1.60000000E+01
  1.00800000E+00  1.00800000E+00  1.60000000E+01  1.00800000E+00  1.00800000E+00
  1.60000000E+01  1.00800000E+00  1.00800000E+00  1.60000000E+01  1.00800000E+00
  1.00800000E+00  1.60000000E+01  1.00800000E+00  1.00800000E+00  1.60000000E+01
  1.00800000E+00  1.00800000E+00  1.60000000E+01  1.00800000E+00  1.00800000E+00
  1.60000000E+01  1.00800000E+00  1.00800000E+00  1.60000000E+01  1.00800000E+00
  1.00800000E+00  1.60000000E+01  1.00800000E+00  1.00800000E+00  1.60000000E+01
  1.00800000E+00  1.00800000E+00  1.60000000E+01  1.00800000E+00  1.00800000E+00
  1.60000000E+01  1.00800000E+00  1.00800000E+00  1.60000000E+01  1.00800000E+00
  1.00800000E+00  1.60000000E+01  1.00800000E+00  1.00800000E+00  1.60000000E+01
  1.00800000E+00  1.00800000E+00  1.60000000E+01  1.00800000E+00  1.00800000E+00
  1.60000000E+01  1.00800000E+00  1.00800000E+00  1.60000000E+01  1.00800000E+00
  1.00800000E+00  1.60000000E+01  1.00800000E+00  1.00800000E+00  1.60000000E+01
  1.00800000E+00  1.00800000E+00  1.60000000E+01  1.00800000E+00  1.00800000E+00
  1.60000000E+01  1.00800000E+00  1.00800000E+00  1.60000000E+01  1.00800000E+00
  1.00800000E+00  1.60000000E+01  1.00800000E+00  1.00800000E+00  1.60000000E+01
  1.00800000E+00  1.00800000E+00  1.60000000E+01  1.00800000E+00  1.00800000E+00
  1.60000000E+01  1.00800000E+00  1.00800000E+00  1.60000000E+01  1.00800000E+00
  1.00800000E+00  1.60000000E+01  1.00800000E+00  1.00800000E+00  1.60000000E+01
  1.00800000E+00  1.00800000E+00  1.60000000E+01  1.00800000E+00  1.00800000E+00
  1.60000000E+01  1.00800000E+00  1.00800000E+00  1.60000000E+01  1.00800000E+00
  1.00800000E+00  1.60000000E+01  1.00800000E+00  1.00800000E+00  1.60000000E+01
  1.00800000E+00  1.00800000E+00  1.60000000E+01  1.00800000E+00  1.00800000E+00
  1.60000000E+01  1.00800000E+00  1.00800000E+00  1.60000000E+01  1.00800000E+00
  1.00800000E+00  1.60000000E+01  1.00800000E+00  1.00800000E+00  1.60000000E+01
  1.00800000E+00  1.00800000E+00  1.60000000E+01  1.00800000E+00  1.00800000E+00
  1.60000000E+01  1.00800000E+00  1.00800000E+00  1.60000000E+01  1.00800000E+00
  1.00800000E+00  1.60000000E+01  1.00800000E+00  1.00800000E+00  1.60000000E+01
  1.00800000E+00  1.00800000E+00  1.60000000E+01  1.00800000E+00  1.00800000E+00
  1.60000000E+01  1.00800000E+00  1.00800000E+00  1.60000000E+01  1.00800000E+00
  1.00800000E+00  1.60000000E+01  1.00800000E+00  1.00800000E+00  1.60000000E+01
  1.00800000E+00  1.00800000E+00  1.60000000E+01  1.00800000E+00  1.00800000E+00
  1.60000000E+01  1.00800000E+00  1.00800000E+00  1.60000000E+01  1.00800000E+00
  1.00800000E+00  1.60000000E+01  1.00800000E+00  1.00800000E+00  1.60000000E+01
  1.00800000E+00  1.00800000E+00  1.60000000E+01  1.00800000E+00  1.00800000E+00
  1.60000000E+01  1.00800000E+00  1.00800000E+00  1.60000000E+01  1.00800000E+00
  1.00800000E+00  1.60000000E+01  1.00800000E+00  1.00800000E+00  1.60000000E+01
  1.00800000E+00  1.00800000E+00  1.60000000E+01  1.00800000E+00  1.00800000E+00
  1.60000000E+01  1.00800000E+00  1.00800000E+00  1.60000000E+01  1.00800000E+00
  1.00800000E+00  1.60000000E+01  1.00800000E+00  1.00800000E+00  1.60000000E+01
  1.00800000E+00  1.00800000E+00  1.60000000E+01  1.00800000E+00  1.00800000E+00
  1.60000000E+01  1.00800000E+00  1.00800000E+00  1.60000000E+01  1.00800000E+00
  1.00800000E+00  1.60000000E+01  1.00800000E+00  1.00800000E+00  1.60000000E+01
  1.00800000E+00  1.00800000E+00  1.60000000E+01  1.00800000E+00  1.00800000E+00
  1.60000000E+01  1.00800000E+00  1.00800000E+00  1.60000000E+01  1.00800000E+00
  1.00800000E+00  1.60000000E+01  1.00800000E+00  1.00800000E+00  1.60000000E+01
  1.00800000E+00  1.00800000E+00  1.60000000E+01  1.00800000E+00  1.00800000E+00
  1.60000000E+01  1.00800000E+00  1.00800000E+00  1.60000000E+01  1.00800000E+00
  1.00800000E+00  1.60000000E+01  1.00800000E+00  1.00800000E+00  1.60000000E+01
  1.00800000E+00  1.00800000E+00  1.60000000E+01  1.00800000E+00  1.00800000E+00
  1.60000000E+01  1.00800000E+00  1.00800000E+00  1.60000000E+01  1.00800000E+00
  1.00800000E+00  1.60000000E+01  1.00800000E+00  1.00800000E+00  1.60000000E+01
  1.00800000E+00  1.00800000E+00  1.60000000E+01  1.00800000E+00  1.00800000E+00
  1.60000000E+01  1.00800000E+00  1.00800000E+00  1.60000000E+01  1.00800000E+00
  1.00800000E+00  1.60000000E+01  1.00800000E+00  1.00800000E+00  1.60000000E+01
  1.00800000E+00  1.00800000E+00  1.60000000E+01  1.00800000E+00  1.00800000E+00
  1.60000000E+01  1.00800000E+00  1.00800000E+00  1.60000000E+01  1.00800000E+00
  1.00800000E+00  1.60000000E+01  1.00800000E+00  1.00800000E+00  1.60000000E+01
  1.00800000E+00  1.00800000E+00  1.60000000E+01  1.00800000E+00  1.00800000E+00
  1.60000000E+01  1.00800000E+00  1.00800000E+00  1.60000000E+01  1.00800000E+00
  1.00800000E+00  1.60000000E+01  1.00800000E+00  1.00800000E+00  1.60000000E+01
  1.00800000E+00  1.00800000E+00  1.60000000E+01  1.00800000E+00  1.00800000E+00
  1.60000000E+01  1.00800000E+00  1.00800000E+00  1.60000000E+01  1.00800000E+00
  1.00800000E+00  1.60000000E+01  1.00800000E+00  1.00800000E+00  1.60000000E+01
  1.00800000E+00  1.00800000E+00  1.60000000E+01  1.00800000E+00  1.00800000E+00
  1.60000000E+01  1.00800000E+00  1.00800000E+00  1.60000000E+01  1.00800000E+00
  1.00800000E+00  1.60000000E+01  1.00800000E+00  1.00800000E+00  1.60000000E+01
  1.00800000E+00  1.00800000E+00  1.60000000E+01  1.00800000E+00  1.00800000E+00
  1.60000000E+01  1.00800000E+00  1.00800000E+00  1.60000000E+01  1.00800000E+00
  1.00800000E+00  1.60000000E+01  1.00800000E+00  1.00800000E+00  1.60000000E+01
  1.00800000E+00  1.00800000E+00  1.60000000E+01  1.00800000E+00  1.00800000E+00
  1.60000000E+01  1.00800000E+00  1.00800000E+00  1.60000000E+01  1.00800000E+00
  1.00800000E+00  1.60000000E+01  1.00800000E+00  1.00800000E+00  1.60000000E+01
  1.00800000E+00  1.00800000E+00  1.60000000E+01  1.00800000E+00  1.00800000E+00
  1.60000000E+01  1.00800000E+00  1.00800000E+00  1.60000000E+01  1.00800000E+00
  1.00800000E+00  1.60000000E+01  1.00800000E+00  1.00800000E+00  1.60000000E+01
  1.00800000E+00  1.00800000E+00  1.60000000E+01  1.00800000E+00  1.00800000E+00
  1.60000000E+01  1.00800000E+00  1.00800000E+00  1.60000000E+01  1.00800000E+00
  1.00800000E+00  1.60000000E+01  1.00800000E+00  1.00800000E+00  1.60000000E+01
  1.00800000E+00  1.00800000E+00  1.60000000E+01  1.00800000E+00  1.00800000E+00
  1.60000000E+01  1.00800000E+00  1.00800000E+00  1.60000000E+01  1.00800000E+00
  1.00800000E+00  1.60000000E+01  1.00800000E+00  1.00800000E+00  1.60000000E+01
  1.00800000E+00  1.00800000E+00  1.60000000E+01  1.00800000E+00  1.00800000E+00
  1.60000000E+01  1.00800000E+00  1.00800000E+00  1.60000000E+01  1.00800000E+00
  1.00800000E+00  1.60000000E+01  1.00800000E+00  1.00800000E+00  1.60000000E+01
  1.00800000E+00  1.00800000E+00  1.60000000E+01  1.00800000E+00  1.00800000E+00
  1.60000000E+01  1.00800000E+00  1.00800000E+00  1.60000000E+01  1.00800000E+00
  1.00800000E+00  1.60000000E+01  1.00800000E+00  1.00800000E+00  1.60000000E+01
  1.00800000E+00  1.00800000E+00  1.60000000E+01  1.00800000E+00  1.00800000E+00
  1.60000000E+01  1.00800000E+00  1.00800000E+00  1.60000000E+01  1.00800000E+00
  1.00800000E+00  1.60000000E+01  1.00800000E+00  1.00800000E+00  1.60000000E+01
  1.00800000E+00  1.00800000E+00  1.60000000E+01  1.00800000E+00  1.00800000E+00
  1.60000000E+01  1.00800000E+00  1.00800000E+00  1.60000000E+01  1.00800000E+00
  1.00800000E+00  1.60000000E+01  1.00800000E+00  1.00800000E+00  1.60000000E+01
  1.00800000E+00  1.00800000E+00  1.60000000E+01  1.00800000E+00  1.00800000E+00
  1.60000000E+01  1.00800000E+00  1.00800000E+00  1.60000000E+01  1.00800000E+00
  1.00800000E+00  1.60000000E+01  1.00800000E+00  1.00800000E+00  1.60000000E+01
  1.00800000E+00  1.00800000E+00  1.60000000E+01  1.00800000E+00  1.00800000E+00
  1.60000000E+01  1.00800000E+00  1.00800000E+00  1.60000000E+01  1.00800000E+00
  1.00800000E+00  1.60000000E+01  1.00800000E+00  1.00800000E+00  1.60000000E+01
  1.00800000E+00  1.00800000E+00  1.60000000E+01  1.00800000E+00  1.00800000E+00
  1.60000000E+01  1.00800000E+00  1.00800000E+00  1.60000000E+01  1.00800000E+00
  1.00800000E+00  1.60000000E+01  1.00800000E+00  1.00800000E+00  1.60000000E+01
  1.00800000E+00  1.00800000E+00  1.60000000E+01  1.00800000E+00  1.00800000E+00
  1.60000000E+01  1.00800000E+00  1.00800000E+00  1.60000000E+01  1.00800000E+00
  1.00800000E+00  1.60000000E+01  1.00800000E+00  1.00800000E+00  1.60000000E+01
  1.00800000E+00  1.00800000E+00  1.60000000E+01  1.00800000E+00  1.00800000E+00
  1.60000000E+01  1.00800000E+00  1.00800000E+00  1.60000000E+01  1.00800000E+00
  1.00800000E+00  1.60000000E+01  1.00800000E+00  1.00800000E+00  1.60000000E+01
  1.00800000E+00  1.00800000E+00  1.60000000E+01  1.00800000E+00  1.00800000E+00
  1.60000000E+01  1.00800000E+00  1.00800000E+00  1.60000000E+01  1.00800000E+00
  1.00800000E+00  1.60000000E+01  1.00800000E+00  1.00800000E+00  1.60000000E+01
  1.00800000E+00  1.00800000E+00  1.60000000E+01  1.00800000E+00  1.00800000E+00
  1.60000000E+01  1.00800000E+00  1.00800000E+00  1.60000000E+01  1.00800000E+00
  1.00800000E+00  1.60000000E+01  1.00800000E+00  1.00800000E+00  1.60000000E+01
  1.00800000E+00  1.00800000E+00  1.60000000E+01  1.00800000E+00  1.00800000E+00
  1.60000000E+01  1.00800000E+00  1.00800000E+00  1.60000000E+01  1.00800000E+00
  1.00800000E+00  1.60000000E+01  1.00800000E+00  1.00800000E+00  1.60000000E+01
  1.00800000E+00  1.00800000E+00  1.60000000E+01  1.00800000E+00  1.00800000E+00
  1.60000000E+01  1.00800000E+00  1.00800000E+00  1.60000000E+01  1.00800000E+00
  1.00800000E+00  1.60000000E+01  1.00800000E+00  1.00800000E+00  1.60000000E+01
  1.00800000E+00  1.00800000E+00  1.60000000E+01  1.00800000E+00  1.00800000E+00
  1.60000000E+01  1.00800000E+00  1.00800000E+00  1.60000000E+01  1.00800000E+00
  1.00800000E+00  1.60000000E+01  1.00800000E+00  1.00800000E+00  1.60000000E+01
  1.00800000E+00  1.00800000E+00  1.60000000E+01  1.00800000E+00  1.00800000E+00
  1.60000000E+01  1.00800000E+00  1.00800000E+00  1.60000000E+01  1.00800000E+00
  1.00800000E+00  1.60000000E+01  1.00800000E+00  1.00800000E+00  1.60000000E+01
  1.00800000E+00  1.00800000E+00  1.60000000E+01  1.00800000E+00  1.00800000E+00
  1.60000000E+01  1.00800000E+00  1.00800000E+00  1.60000000E+01  1.00800000E+00
  1.00800000E+00  1.60000000E+01  1.00800000E+00  1.00800000E+00  1.60000000E+01
  1.00800000E+00  1.00800000E+00  1.60000000E+01  1.00800000E+00  1.00800000E+00
  1.60000000E+01  1.00800000E+00  1.00800000E+00  1.60000000E+01  1.00800000E+00
  1.00800000E+00  1.60000000E+01  1.00800000E+00  1.00800000E+00  1.60000000E+01
  1.00800000E+00  1.00800000E+00  1.60000000E+01  1.00800000E+00  1.00800000E+00
  1.60000000E+01  1.00800000E+00  1.00800000E+00  1.60000000E+01  1.00800000E+00
  1.00800000E+00  1.60000000E+01  1.00800000E+00  1.00800000E+00  1.60000000E+01
  1.00800000E+00  1.00800000E+00  1.60000000E+01  1.00800000E+00  1.00800000E+00
  1.60000000E+01  1.00800000E+00  1.00800000E+00  1.60000000E+01  1.00800000E+00
  1.00800000E+00  1.60000000E+01  1.00800000E+00  1.00800000E+00  1.60000000E+01
  1.00800000E+00  1.00800000E+00  1.60000000E+01  1.00800000E+00  1.00800000E+00
  1.60000000E+01  1.00800000E+00  1.00800000E+00  1.60000000E+01  1.00800000E+00
  1.00800000E+00  1.60000000E+01  1.00800000E+00  1.00800000E+00  1.60000000E+01
  1.00800000E+00  1.00800000E+00  1.60000000E+01  1.00800000E+00  1.00800000E+00
  1.60000000E+01  1.00800000E+00  1.00800000E+00  1.60000000E+01  1.00800000E+00
  1.00800000E+00  1.60000000E+01  1.00800000E+00  1.00800000E+00  1.60000000E+01
  1.00800000E+00  1.00800000E+00  1.60000000E+01  1.00800000E+00  1.00800000E+00
  1.60000000E+01  1.00800000E+00  1.00800000E+00  1.60000000E+01  1.00800000E+00
  1.00800000E+00  1.60000000E+01  1.00800000E+00  1.00800000E+00  1.60000000E+01
  1.00800000E+00  1.00800000E+00  1.60000000E+01  1.00800000E+00  1.00800000E+00
  1.60000000E+01  1.00800000E+00  1.00800000E+00  1.60000000E+01  1.00800000E+00
  1.00800000E+00  1.60000000E+01  1.00800000E+00  1.00800000E+00  1.60000000E+01
  1.00800000E+00  1.00800000E+00  1.60000000E+01  1.00800000E+00  1.00800000E+00
  1.60000000E+01  1.00800000E+00  1.00800000E+00  1.60000000E+01  1.00800000E+00
  1.00800000E+00  1.60000000E+01  1.00800000E+00  1.00800000E+00  1.60000000E+01
  1.00800000E+00  1.00800000E+00  1.60000000E+01  1.00800000E+00  1.00800000E+00
  1.60000000E+01  1.00800000E+00  1.00800000E+00  1.60000000E+01  1.00800000E+00
  1.00800000E+00  1.60000000E+01  1.00800000E+00  1.00800000E+00  1.60000000E+01
  1.00800000E+00  1.00800000E+00  1.60000000E+01  1.00800000E+00  1.00800000E+00
  1.60000000E+01  1.00800000E+00  1.00800000E+00  1.60000000E+01  1.00800000E+00
  1.00800000E+00  1.60000000E+01  1.00800000E+00  1.00800000E+00  1.60000000E+01
  1.00800000E+00  1.00800000E+00  1.60000000E+01  1.00800000E+00  1.00800000E+00
  1.60000000E+01  1.00800000E+00  1.00800000E+00  1.60000000E+01  1.00800000E+00
  1.00800000E+00  1.60000000E+01  1.00800000E+00  1.00800000E+00  1.60000000E+01
  1.00800000E+00  1.00800000E+00  1.60000000E+01  1.00800000E+00  1.00800000E+00
  1.60000000E+01  1.00800000E+00  1.00800000E+00  1.60000000E+01  1.00800000E+00
  1.00800000E+00  1.60000000E+01  1.00800000E+00  1.00800000E+00  1.60000000E+01
  1.00800000E+00  1.00800000E+00  1.60000000E+01  1.00800000E+00  1.00800000E+00
  1.60000000E+01  1.00800000E+00  1.00800000E+00  1.60000000E+01  1.00800000E+00
  1.00800000E+00  1.60000000E+01  1.00800000E+00  1.00800000E+00  1.60000000E+01
  1.00800000E+00  1.00800000E+00  1.60000000E+01  1.00800000E+00  1.00800000E+00
  1.60000000E+01  1.00800000E+00  1.00800000E+00  1.60000000E+01  1.00800000E+00
  1.00800000E+00  1.60000000E+01  1.00800000E+00  1.00800000E+00  1.60000000E+01
  1.00800000E+00  1.00800000E+00  1.60000000E+01  1.00800000E+00  1.00800000E+00
  1.60000000E+01  1.00800000E+00  1.00800000E+00  1.60000000E+01  1.00800000E+00
  1.00800000E+00  1.60000000E+01  1.00800000E+00  1.00800000E+00  1.60000000E+01
  1.00800000E+00  1.00800000E+00  1.60000000E+01  1.00800000E+00  1.00800000E+00
  1.60000000E+01  1.00800000E+00  1.00800000E+00  1.60000000E+01  1.00800000E+00
  1.00800000E+00  1.60000000E+01  1.00800000E+00  1.00800000E+00  1.60000000E+01
  1.00800000E+00  1.00800000E+00  1.60000000E+01  1.00800000E+00  1.00800000E+00
  1.60000000E+01  1.00800000E+00  1.00800000E+00  1.60000000E+01  1.00800000E+00
  1.00800000E+00  1.60000000E+01  1.00800000E+00  1.00800000E+00  1.60000000E+01
  1.00800000E+00  1.00800000E+00  1.60000000E+01  1.00800000E+00  1.00800000E+00
  1.60000000E+01  1.00800000E+00  1.00800000E+00  1.60000000E+01  1.00800000E+00
  1.00800000E+00  1.60000000E+01  1.00800000E+00  1.00800000E+00  1.60000000E+01
  1.00800000E+00  1.00800000E+00  1.60000000E+01  1.00800000E+00  1.00800000E+00
  1.60000000E+01  1.00800000E+00  1.00800000E+00  1.60000000E+01  1.00800000E+00
  1.00800000E+00  1.60000000E+01  1.00800000E+00  1.00800000E+00  1.60000000E+01
  1.00800000E+00  1.00800000E+00  1.60000000E+01  1.00800000E+00  1.00800000E+00
  1.60000000E+01  1.00800000E+00  1.00800000E+00  1.60000000E+01  1.00800000E+00
  1.00800000E+00  1.60000000E+01  1.00800000E+00  1.00800000E+00  1.60000000E+01
  1.00800000E+00  1.00800000E+00  1.60000000E+01  1.00800000E+00  1.00800000E+00
  1.60000000E+01  1.00800000E+00  1.00800000E+00  1.60000000E+01  1.00800000E+00
  1.00800000E+00  1.60000000E+01  1.00800000E+00  1.00800000E+00  1.60000000E+01
  1.00800000E+00  1.00800000E+00  1.60000000E+01  1.00800000E+00  1.00800000E+00
  1.60000000E+01  1.00800000E+00  1.00800000E+00  1.60000000E+01  1.00800000E+00
  1.00800000E+00  1.60000000E+01  1.00800000E+00  1.00800000E+00  1.60000000E+01
  1.00800000E+00  1.00800000E+00  1.60000000E+01  1.00800000E+00  1.00800000E+00
  1.60000000E+01  1.00800000E+00  1.00800000E+00  1.60000000E+01  1.00800000E+00
  1.00800000E+00  1.60000000E+01  1.00800000E+00  1.00800000E+00  1.60000000E+01
  1.00800000E+00  1.00800000E+00  1.60000000E+01  1.00800000E+00  1.00800000E+00
  1.60000000E+01  1.00800000E+00  1.00800000E+00  1.60000000E+01  1.00800000E+00
  1.00800000E+00  1.60000000E+01  1.00800000E+00  1.00800000E+00  1.60000000E+01
  1.00800000E+00  1.00800000E+00  1.60000000E+01  1.00800000E+00  1.00800000E+00
  1.60000000E+01  1.00800000E+00  1.00800000E+00  1.60000000E+01  1.00800000E+00
  1.00800000E+00  1.60000000E+01  1.00800000E+00  1.00800000E+00  1.60000000E+01
  1.00800000E+00  1.00800000E+00  1.60000000E+01  1.00800000E+00  1.00800000E+00
  1.60000000E+01  1.00800000E+00  1.00800000E+00  1.60000000E+01  1.00800000E+00
  1.00800000E+00  1.60000000E+01  1.00800000E+00  1.00800000E+00  1.60000000E+01
  1.00800000E+00  1.00800000E+00  1.60000000E+01  1.00800000E+00  1.00800000E+00
  1.60000000E+01  1.00800000E+00  1.00800000E+00  1.60000000E+01  1.00800000E+00
  1.00800000E+00  1.60000000E+01  1.00800000E+00  1.00800000E+00  1.60000000E+01
  1.00800000E+00  1.00800000E+00  1.60000000E+01  1.00800000E+00  1.00800000E+00
  1.60000000E+01  1.00800000E+00  1.00800000E+00  1.60000000E+01  1.00800000E+00
  1.00800000E+00  1.60000000E+01  1.00800000E+00  1.00800000E+00  1.60000000E+01
  1.00800000E+00  1.00800000E+00  1.60000000E+01  1.00800000E+00  1.00800000E+00
  1.60000000E+01  1.00800000E+00  1.00800000E+00  1.60000000E+01  1.00800000E+00
  1.00800000E+00  1.60000000E+01  1.00800000E+00  1.00800000E+00  1.60000000E+01
  1.00800000E+00  1.00800000E+00  1.60000000E+01  1.00800000E+00  1.00800000E+00
  1.60000000E+01  1.00800000E+00  1.00800000E+00  1.60000000E+01  1.00800000E+00
  1.00800000E+00  1.60000000E+01  1.00800000E+00  1.00800000E+00  1.60000000E+01
  1.00800000E+00  1.00800000E+00  1.60000000E+01  1.00800000E+00  1.00800000E+00
  1.60000000E+01  1.00800000E+00  1.00800000E+00  1.60000000E+01  1.00800000E+00
  1.00800000E+00  1.60000000E+01  1.00800000E+00  1.00800000E+00  1.60000000E+01
  1.00800000E+00  1.00800000E+00  1.60000000E+01  1.00800000E+00  1.00800000E+00
  1.60000000E+01  1.00800000E+00  1.00800000E+00  1.60000000E+01  1.00800000E+00
  1.00800000E+00  1.60000000E+01  1.00800000E+00  1.00800000E+00  1.60000000E+01
  1.00800000E+00  1.00800000E+00  1.60000000E+01  1.00800000E+00  1.00800000E+00
  1.60000000E+01  1.00800000E+00  1.00800000E+00  1.60000000E+01  1.00800000E+00
  1.00800000E+00  1.60000000E+01  1.00800000E+00  1.00800000E+00  1.60000000E+01
  1.00800000E+00  1.00800000E+00  1.60000000E+01  1.00800000E+00  1.00800000E+00
  1.60000000E+01  1.00800000E+00  1.00800000E+00  1.60000000E+01  1.00800000E+00
  1.00800000E+00  1.60000000E+01  1.00800000E+00  1.00800000E+00  1.60000000E+01
  1.00800000E+00  1.00800000E+00  1.60000000E+01  1.00800000E+00  1.00800000E+00
  1.60000000E+01  1.00800000E+00  1.00800000E+00  1.60000000E+01  1.00800000E+00
  1.00800000E+00  1.60000000E+01  1.00800000E+00  1.00800000E+00  1.60000000E+01
  1.00800000E+00  1.00800000E+00  1.60000000E+01  1.00800000E+00  1.00800000E+00
  1.60000000E+01  1.00800000E+00  1.00800000E+00  1.60000000E+01  1.00800000E+00
  1.00800000E+00  1.60000000E+01  1.00800000E+00  1.00800000E+00  1.60000000E+01
  1.00800000E+00  1.00800000E+00  1.60000000E+01  1.00800000E+00  1.00800000E+00
  1.60000000E+01  1.00800000E+00  1.00800000E+00  1.60000000E+01  1.00800000E+00
  1.00800000E+00  1.60000000E+01  1.00800000E+00  1.00800000E+00  1.60000000E+01
  1.00800000E+00  1.00800000E+00  1.60000000E+01  1.00800000E+00  1.00800000E+00
  1.60000000E+01  1.00800000E+00  1.00800000E+00  1.60000000E+01  1.00800000E+00
  1.00800000E+00  1.60000000E+01  1.00800000E+00  1.00800000E+00  1.60000000E+01
  1.00800000E+00  1.00800000E+00  1.60000000E+01  1.00800000E+00  1.00800000E+00
  1.60000000E+01  1.00800000E+00  1.00800000E+00  1.60000000E+01  1.00800000E+00
  1.00800000E+00  1.60000000E+01  1.00800000E+00  1.00800000E+00  1.60000000E+01
  1.00800000E+00  1.00800000E+00  1.60000000E+01  1.00800000E+00  1.00800000E+00
  1.60000000E+01  1.00800000E+00  1.00800000E+00  1.60000000E+01  1.00800000E+00
  1.00800000E+00  1.60000000E+01  1.00800000E+00  1.00800000E+00  1.60000000E+01
  1.00800000E+00  1.00800000E+00  1.60000000E+01  1.00800000E+00  1.00800000E+00
  1.60000000E+01  1.00800000E+00  1.00800000E+00  1.60000000E+01  1.00800000E+00
  1.00800000E+00  1.60000000E+01  1.00800000E+00  1.00800000E+00  1.60000000E+01
  1.00800000E+00  1.00800000E+00  1.60000000E+01  1.00800000E+00  1.00800000E+00
  1.60000000E+01  1.00800000E+00  1.00800000E+00  1.60000000E+01  1.00800000E+00
  1.00800000E+00  1.60000000E+01  1.00800000E+00  1.00800000E+00  1.60000000E+01
  1.00800000E+00  1.00800000E+00  1.60000000E+01  1.00800000E+00  1.00800000E+00
  1.60000000E+01  1.00800000E+00  1.00800000E+00  1.60000000E+01  1.00800000E+00
  1.00800000E+00  1.60000000E+01  1.00800000E+00  1.00800000E+00  1.60000000E+01
  1.00800000E+00  1.00800000E+00  1.60000000E+01  1.00800000E+00  1.00800000E+00
  1.60000000E+01  1.00800000E+00  1.00800000E+00  1.60000000E+01  1.00800000E+00
  1.00800000E+00  1.60000000E+01  1.00800000E+00  1.00800000E+00  1.60000000E+01
  1.00800000E+00  1.00800000E+00  1.60000000E+01  1.00800000E+00  1.00800000E+00
  1.60000000E+01  1.00800000E+00  1.00800000E+00  1.60000000E+01  1.00800000E+00
  1.00800000E+00  1.60000000E+01  1.00800000E+00  1.00800000E+00  1.60000000E+01
  1.00800000E+00  1.00800000E+00  1.60000000E+01  1.00800000E+00  1.00800000E+00
  1.60000000E+01  1.00800000E+00  1.00800000E+00  1.60000000E+01  1.00800000E+00
  1.00800000E+00  1.60000000E+01  1.00800000E+00  1.00800000E+00  1.60000000E+01
  1.00800000E+00  1.00800000E+00  1.60000000E+01  1.00800000E+00  1.00800000E+00
  1.60000000E+01  1.00800000E+00  1.00800000E+00  1.60000000E+01  1.00800000E+00
  1.00800000E+00  1.60000000E+01  1.00800000E+00  1.00800000E+00  1.60000000E+01
  1.00800000E+00  1.00800000E+00  1.60000000E+01  1.00800000E+00  1.00800000E+00
  1.60000000E+01  1.00800000E+00  1.00800000E+00  1.60000000E+01  1.00800000E+00
  1.00800000E+00  1.60000000E+01  1.00800000E+00  1.00800000E+00  1.60000000E+01
  1.00800000E+00  1.00800000E+00  1.60000000E+01  1.00800000E+00  1.00800000E+00
  1.60000000E+01  1.00800000E+00  1.00800000E+00  1.60000000E+01  1.00800000E+00
  1.00800000E+00  1.60000000E+01  1.00800000E+00  1.00800000E+00  1.60000000E+01
  1.00800000E+00  1.00800000E+00  1.60000000E+01  1.00800000E+00  1.00800000E+00
  1.60000000E+01  1.00800000E+00  1.00800000E+00  1.60000000E+01  1.00800000E+00
  1.00800000E+00  1.60000000E+01  1.00800000E+00  1.00800000E+00  1.60000000E+01
  1.00800000E+00  1.00800000E+00  1.60000000E+01  1.00800000E+00  1.00800000E+00
  1.60000000E+01  1.00800000E+00  1.00800000E+00  1.60000000E+01  1.00800000E+00
  1.00800000E+00  1.60000000E+01  1.00800000E+00  1.00800000E+00  1.60000000E+01
  1.00800000E+00  1.00800000E+00  1.60000000E+01  1.00800000E+00  1.00800000E+00
  1.60000000E+01  1.00800000E+00  1.00800000E+00  1.60000000E+01  1.00800000E+00
  1.00800000E+00  1.60000000E+01  1.00800000E+00  1.00800000E+00  1.60000000E+01
  1.00800000E+00  1.00800000E+00  1.60000000E+01  1.00800000E+00  1.00800000E+00
  1.60000000E+01  1.00800000E+00  1.00800000E+00  1.60000000E+01  1.00800000E+00
  1.00800000E+00  1.60000000E+01  1.00800000E+00  1.00800000E+00  1.60000000E+01
  1.00800000E+00  1.00800000E+00  1.60000000E+01  1.00800000E+00  1.00800000E+00
  1.60000000E+01  1.00800000E+00  1.00800000E+00  1.60000000E+01  1.00800000E+00
  1.00800000E+00  1.60000000E+01  1.00800000E+00  1.00800000E+00  1.60000000E+01
  1.00800000E+00  1.00800000E+00  1.60000000E+01  1.00800000E+00  1.00800000E+00
  1.60000000E+01  1.00800000E+00  1.00800000E+00  1.60000000E+01  1.00800000E+00
  1.00800000E+00  1.60000000E+01  1.00800000E+00  1.00800000E+00  1.60000000E+01
  1.00800000E+00  1.00800000E+00  1.60000000E+01  1.00800000E+00  1.00800000E+00
  1.60000000E+01  1.00800000E+00  1.00800000E+00  1.60000000E+01  1.00800000E+00
  1.00800000E+00  1.60000000E+01  1.00800000E+00  1.00800000E+00  1.60000000E+01
  1.00800000E+00  1.00800000E+00  1.60000000E+01  1.00800000E+00  1.00800000E+00
  1.60000000E+01  1.00800000E+00  1.00800000E+00  1.60000000E+01  1.00800000E+00
  1.00800000E+00  1.60000000E+01  1.00800000E+00  1.00800000E+00  1.60000000E+01
  1.00800000E+00  1.00800000E+00  1.60000000E+01  1.00800000E+00  1.00800000E+00
  1.60000000E+01  1.00800000E+00  1.00800000E+00  1.60000000E+01  1.00800000E+00
  1.00800000E+00  1.60000000E+01  1.00800000E+00  1.00800000E+00  1.60000000E+01
  1.00800000E+00  1.00800000E+00  1.60000000E+01  1.00800000E+00  1.00800000E+00
  1.60000000E+01  1.00800000E+00  1.00800000E+00  1.60000000E+01  1.00800000E+00
  1.00800000E+00  1.60000000E+01  1.00800000E+00  1.00800000E+00  1.60000000E+01
  1.00800000E+00  1.00800000E+00  1.60000000E+01  1.00800000E+00  1.00800000E+00
  1.60000000E+01  1.00800000E+00  1.00800000E+00  1.60000000E+01  1.00800000E+00
  1.00800000E+00  1.60000000E+01  1.00800000E+00  1.00800000E+00  1.60000000E+01
  1.00800000E+00  1.00800000E+00  1.60000000E+01  1.00800000E+00  1.00800000E+00
  1.60000000E+01  1.00800000E+00  1.00800000E+00  1.60000000E+01  1.00800000E+00
  1.00800000E+00  1.60000000E+01  1.00800000E+00  1.00800000E+00  1.60000000E+01
  1.00800000E+00  1.00800000E+00  1.60000000E+01  1.00800000E+00  1.00800000E+00
  1.60000000E+01  1.00800000E+00  1.00800000E+00  1.60000000E+01  1.00800000E+00
  1.00800000E+00  1.60000000E+01  1.00800000E+00  1.00800000E+00  1.60000000E+01
  1.00800000E+00  1.00800000E+00  1.60000000E+01  1.00800000E+00  1.00800000E+00
  1.60000000E+01  1.00800000E+00  1.00800000E+00  1.60000000E+01  1.00800000E+00
  1.00800000E+00  1.60000000E+01  1.00800000E+00  1.00800000E+00  1.60000000E+01
  1.00800000E+00  1.00800000E+00  1.60000000E+01  1.00800000E+00  1.00800000E+00
  1.60000000E+01  1.00800000E+00  1.00800000E+00  1.60000000E+01  1.00800000E+00
  1.00800000E+00  1.60000000E+01  1.00800000E+00  1.00800000E+00  1.60000000E+01
  1.00800000E+00  1.00800000E+00  1.60000000E+01  1.00800000E+00  1.00800000E+00
  1.60000000E+01  1.00800000E+00  1.00800000E+00  1.60000000E+01  1.00800000E+00
  1.00800000E+00  1.60000000E+01  1.00800000E+00  1.00800000E+00  1.60000000E+01
  1.00800000E+00  1.00800000E+00  1.60000000E+01  1.00800000E+00  1.00800000E+00
  1.60000000E+01  1.00800000E+00  1.00800000E+00  1.60000000E+01  1.00800000E+00
  1.00800000E+00  1.60000000E+01  1.00800000E+00  1.00800000E+00  1.60000000E+01
  1.00800000E+00  1.00800000E+00  1.60000000E+01  1.00800000E+00  1.00800000E+00
  1.60000000E+01  1.00800000E+00  1.00800000E+00  1.60000000E+01  1.00800000E+00
  1.00800000E+00  1.60000000E+01  1.00800000E+00  1.00800000E+00  1.60000000E+01
  1.00800000E+00  1.00800000E+00  1.60000000E+01  1.00800000E+00  1.00800000E+00
  1.60000000E+01  1.00800000E+00  1.00800000E+00  1.60000000E+01  1.00800000E+00
  1.00800000E+00  1.60000000E+01  1.00800000E+00  1.00800000E+00  1.60000000E+01
  1.00800000E+00  1.00800000E+00  1.60000000E+01  1.00800000E+00  1.00800000E+00
  1.60000000E+01  1.00800000E+00  1.00800000E+00  1.60000000E+01  1.00800000E+00
  1.00800000E+00  1.60000000E+01  1.00800000E+00  1.00800000E+00  1.60000000E+01
  1.00800000E+00  1.00800000E+00  1.60000000E+01  1.00800000E+00  1.00800000E+00
  1.60000000E+01  1.00800000E+00  1.00800000E+00  1.60000000E+01  1.00800000E+00
  1.00800000E+00  1.60000000E+01  1.00800000E+00  1.00800000E+00  1.60000000E+01
  1.00800000E+00  1.00800000E+00  1.60000000E+01  1.00800000E+00  1.00800000E+00
  1.60000000E+01  1.00800000E+00  1.00800000E+00  1.60000000E+01  1.00800000E+00
  1.00800000E+00  1.60000000E+01  1.00800000E+00  1.00800000E+00  1.60000000E+01
  1.00800000E+00  1.00800000E+00  1.60000000E+01  1.00800000E+00  1.00800000E+00
  1.60000000E+01  1.00800000E+00  1.00800000E+00  1.60000000E+01  1.00800000E+00
  1.00800000E+00  1.60000000E+01  1.00800000E+00  1.00800000E+00  1.60000000E+01
  1.00800000E+00  1.00800000E+00  1.60000000E+01  1.00800000E+00  1.00800000E+00
  1.60000000E+01  1.00800000E+00  1.00800000E+00  1.60000000E+01  1.00800000E+00
  1.00800000E+00  1.60000000E+01  1.00800000E+00  1.00800000E+00  1.60000000E+01
  1.00800000E+00  1.00800000E+00  1.60000000E+01  1.00800000E+00  1.00800000E+00
  1.60000000E+01  1.00800000E+00  1.00800000E+00  1.60000000E+01  1.00800000E+00
  1.00800000E+00  1.60000000E+01  1.00800000E+00  1.00800000E+00  1.60000000E+01
  1.00800000E+00  1.00800000E+00  1.60000000E+01  1.00800000E+00  1.00800000E+00
  1.60000000E+01  1.00800000E+00  1.00800000E+00  1.60000000E+01  1.00800000E+00
  1.00800000E+00  1.60000000E+01  1.00800000E+00  1.00800000E+00  1.60000000E+01
  1.00800000E+00  1.00800000E+00  1.60000000E+01  1.00800000E+00  1.00800000E+00
  1.60000000E+01  1.00800000E+00  1.00800000E+00  1.60000000E+01  1.00800000E+00
  1.00800000E+00  1.60000000E+01  1.00800000E+00  1.00800000E+00  1.60000000E+01
  1.00800000E+00  1.00800000E+00  1.60000000E+01  1.00800000E+00  1.00800000E+00
  1.60000000E+01  1.00800000E+00  1.00800000E+00  1.60000000E+01  1.00800000E+00
  1.00800000E+00  1.60000000E+01  1.00800000E+00  1.00800000E+00  1.60000000E+01
  1.00800000E+00  1.00800000E+00  1.60000000E+01  1.00800000E+00  1.00800000E+00
  1.60000000E+01  1.00800000E+00  1.00800000E+00  1.60000000E+01  1.00800000E+00
  1.00800000E+00  1.60000000E+01  1.00800000E+00  1.00800000E+00  1.60000000E+01
  1.00800000E+00  1.00800000E+00  1.60000000E+01  1.00800000E+00  1.00800000E+00
  1.60000000E+01  1.00800000E+00  1.00800000E+00  1.60000000E+01  1.00800000E+00
  1.00800000E+00  1.60000000E+01  1.00800000E+00  1.00800000E+00  1.60000000E+01
  1.00800000E+00  1.00800000E+00  1.60000000E+01  1.00800000E+00  1.00800000E+00
  1.60000000E+01  1.00800000E+00  1.00800000E+00  1.60000000E+01  1.00800000E+00
  1.00800000E+00  1.60000000E+01  1.00800000E+00  1.00800000E+00  1.60000000E+01
  1.00800000E+00  1.00800000E+00  1.60000000E+01  1.00800000E+00  1.00800000E+00
  1.60000000E+01  1.00800000E+00  1.00800000E+00  1.60000000E+01  1.00800000E+00
  1.00800000E+00  1.60000000E+01  1.00800000E+00  1.00800000E+00  1.60000000E+01
  1.00800000E+00  1.00800000E+00  1.60000000E+01  1.00800000E+00  1.00800000E+00
  1.60000000E+01  1.00800000E+00  1.00800000E+00  1.60000000E+01  1.00800000E+00
  1.00800000E+00  1.60000000E+01  1.00800000E+00  1.00800000E+00  1.60000000E+01
  1.00800000E+00  1.00800000E+00  1.60000000E+01  1.00800000E+00  1.00800000E+00
  1.60000000E+01  1.00800000E+00  1.00800000E+00  1.60000000E+01  1.00800000E+00
  1.00800000E+00  1.60000000E+01  1.00800000E+00  1.00800000E+00  1.60000000E+01
  1.00800000E+00  1.00800000E+00  1.60000000E+01  1.00800000E+00  1.00800000E+00
  1.60000000E+01  1.00800000E+00  1.00800000E+00  1.60000000E+01  1.00800000E+00
  1.00800000E+00  1.60000000E+01  1.00800000E+00  1.00800000E+00  1.60000000E+01
  1.00800000E+00  1.00800000E+00  1.60000000E+01  1.00800000E+00  1.00800000E+00
  1.60000000E+01  1.00800000E+00  1.00800000E+00  1.60000000E+01  1.00800000E+00
  1.00800000E+00  1.60000000E+01  1.00800000E+00  1.00800000E+00  1.60000000E+01
  1.00800000E+00  1.00800000E+00  1.60000000E+01  1.00800000E+00  1.00800000E+00
  1.60000000E+01  1.00800000E+00  1.00800000E+00  1.60000000E+01  1.00800000E+00
  1.00800000E+00  1.60000000E+01  1.00800000E+00  1.00800000E+00  1.60000000E+01
  1.00800000E+00  1.00800000E+00  1.60000000E+01  1.00800000E+00  1.00800000E+00
  1.60000000E+01  1.00800000E+00  1.00800000E+00  1.60000000E+01  1.00800000E+00
  1.00800000E+00  1.60000000E+01  1.00800000E+00  1.00800000E+00  1.60000000E+01
  1.00800000E+00  1.00800000E+00  1.60000000E+01  1.00800000E+00  1.00800000E+00
  1.60000000E+01  1.00800000E+00  1.00800000E+00  1.60000000E+01  1.00800000E+00
  1.00800000E+00  1.60000000E+01  1.00800000E+00  1.00800000E+00  1.60000000E+01
  1.00800000E+00  1.00800000E+00  1.60000000E+01  1.00800000E+00  1.00800000E+00
  1.60000000E+01  1.00800000E+00  1.00800000E+00  1.60000000E+01  1.00800000E+00
  1.00800000E+00  1.60000000E+01  1.00800000E+00  1.00800000E+00  1.60000000E+01
  1.00800000E+00  1.00800000E+00  1.60000000E+01  1.00800000E+00  1.00800000E+00
  1.60000000E+01  1.00800000E+00  1.00800000E+00  1.60000000E+01  1.00800000E+00
  1.00800000E+00  1.60000000E+01  1.00800000E+00  1.00800000E+00  1.60000000E+01
  1.00800000E+00  1.00800000E+00  1.60000000E+01  1.00800000E+00  1.00800000E+00
  1.60000000E+01  1.00800000E+00  1.00800000E+00  1.60000000E+01  1.00800000E+00
  1.00800000E+00  1.60000000E+01  1.00800000E+00  1.00800000E+00  1.60000000E+01
  1.00800000E+00  1.00800000E+00  1.60000000E+01  1.00800000E+00  1.00800000E+00
  1.60000000E+01  1.00800000E+00  1.00800000E+00  1.60000000E+01  1.00800000E+00
  1.00800000E+00  1.60000000E+01  1.00800000E+00  1.00800000E+00  1.60000000E+01
  1.00800000E+00  1.00800000E+00  1.60000000E+01  1.00800000E+00  1.00800000E+00
  1.60000000E+01  1.00800000E+00  1.00800000E+00  1.60000000E+01  1.00800000E+00
  1.00800000E+00  1.60000000E+01  1.00800000E+00  1.00800000E+00  1.60000000E+01
  1.00800000E+00  1.00800000E+00  1.60000000E+01  1.00800000E+00  1.00800000E+00
  1.60000000E+01  1.00800000E+00  1.00800000E+00  1.60000000E+01  1.00800000E+00
  1.00800000E+00  1.60000000E+01  1.00800000E+00  1.00800000E+00  1.60000000E+01
  1.00800000E+00  1.00800000E+00  1.60000000E+01  1.00800000E+00  1.00800000E+00
  1.60000000E+01  1.00800000E+00  1.00800000E+00  1.60000000E+01  1.00800000E+00
  1.00800000E+00  1.60000000E+01  1.00800000E+00  1.00800000E+00  1.60000000E+01
  1.00800000E+00  1.00800000E+00  1.60000000E+01  1.00800000E+00  1.00800000E+00
  1.60000000E+01  1.00800000E+00  1.00800000E+00  1.60000000E+01  1.00800000E+00
  1.00800000E+00  1.60000000E+01  1.00800000E+00  1.00800000E+00  1.60000000E+01
  1.00800000E+00  1.00800000E+00  1.60000000E+01  1.00800000E+00  1.00800000E+00
  1.60000000E+01  1.00800000E+00  1.00800000E+00  1.60000000E+01  1.00800000E+00
  1.00800000E+00  1.60000000E+01  1.00800000E+00  1.00800000E+00  1.60000000E+01
  1.00800000E+00  1.00800000E+00  1.60000000E+01  1.00800000E+00  1.00800000E+00
  1.60000000E+01  1.00800000E+00  1.00800000E+00  1.60000000E+01  1.00800000E+00
  1.00800000E+00  1.60000000E+01  1.00800000E+00  1.00800000E+00  1.60000000E+01
  1.00800000E+00  1.00800000E+00  1.60000000E+01  1.00800000E+00  1.00800000E+00
  1.60000000E+01  1.00800000E+00  1.00800000E+00  1.60000000E+01  1.00800000E+00
  1.00800000E+00  1.60000000E+01  1.00800000E+00  1.00800000E+00  1.60000000E+01
  1.00800000E+00  1.00800000E+00  1.60000000E+01  1.00800000E+00  1.00800000E+00
  1.60000000E+01  1.00800000E+00  1.00800000E+00  1.60000000E+01  1.00800000E+00
  1.00800000E+00  1.60000000E+01  1.00800000E+00  1.00800000E+00  1.60000000E+01
  1.00800000E+00  1.00800000E+00  1.60000000E+01  1.00800000E+00  1.00800000E+00
  1.60000000E+01  1.00800000E+00  1.00800000E+00  1.60000000E+01  1.00800000E+00
  1.00800000E+00  1.60000000E+01  1.00800000E+00  1.00800000E+00  1.60000000E+01
  1.00800000E+00  1.00800000E+00  1.60000000E+01  1.00800000E+00  1.00800000E+00
  1.60000000E+01  1.00800000E+00  1.00800000E+00  1.60000000E+01  1.00800000E+00
  1.00800000E+00  1.60000000E+01  1.00800000E+00  1.00800000E+00  1.60000000E+01
  1.00800000E+00  1.00800000E+00  1.60000000E+01  1.00800000E+00  1.00800000E+00
  1.60000000E+01  1.00800000E+00  1.00800000E+00  1.60000000E+01  1.00800000E+00
  1.00800000E+00  1.60000000E+01  1.00800000E+00  1.00800000E+00  1.60000000E+01
  1.00800000E+00  1.00800000E+00  1.60000000E+01  1.00800000E+00  1.00800000E+00
  1.60000000E+01  1.00800000E+00  1.00800000E+00  1.60000000E+01  1.00800000E+00
  1.00800000E+00  1.60000000E+01  1.00800000E+00  1.00800000E+00  1.60000000E+01
  1.00800000E+00  1.00800000E+00  1.60000000E+01  1.00800000E+00  1.00800000E+00
  1.60000000E+01  1.00800000E+00  1.00800000E+00  1.60000000E+01  1.00800000E+00
  1.00800000E+00  1.60000000E+01  1.00800000E+00  1.00800000E+00  1.60000000E+01
  1.00800000E+00  1.00800000E+00  1.60000000E+01  1.00800000E+00  1.00800000E+00
  1.60000000E+01  1.00800000E+00  1.00800000E+00  1.60000000E+01  1.00800000E+00
  1.00800000E+00  1.60000000E+01  1.00800000E+00  1.00800000E+00  1.60000000E+01
  1.00800000E+00  1.00800000E+00  1.60000000E+01  1.00800000E+00  1.00800000E+00
  1.60000000E+01  1.00800000E+00  1.00800000E+00  1.60000000E+01  1.00800000E+00
  1.00800000E+00  1.60000000E+01  1.00800000E+00  1.00800000E+00  1.60000000E+01
  1.00800000E+00  1.00800000E+00  1.60000000E+01  1.00800000E+00  1.00800000E+00
  1.60000000E+01  1.00800000E+00  1.00800000E+00  1.60000000E+01  1.00800000E+00
  1.00800000E+00  1.60000000E+01  1.00800000E+00  1.00800000E+00  1.60000000E+01
  1.00800000E+00  1.00800000E+00  1.60000000E+01  1.00800000E+00  1.00800000E+00
  1.60000000E+01  1.00800000E+00  1.00800000E+00  1.60000000E+01  1.00800000E+00
  1.00800000E+00  1.60000000E+01  1.00800000E+00  1.00800000E+00  1.60000000E+01
  1.00800000E+00  1.00800000E+00  1.60000000E+01  1.00800000E+00  1.00800000E+00
  1.60000000E+01  1.00800000E+00  1.00800000E+00  1.60000000E+01  1.00800000E+00
  1.00800000E+00  1.60000000E+01  1.00800000E+00  1.00800000E+00  1.60000000E+01
  1.00800000E+00  1.00800000E+00  1.60000000E+01  1.00800000E+00  1.00800000E+00
  1.60000000E+01  1.00800000E+00  1.00800000E+00  1.60000000E+01  1.00800000E+00
  1.00800000E+00  1.60000000E+01  1.00800000E+00  1.00800000E+00  1.60000000E+01
  1.00800000E+00  1.00800000E+00  1.60000000E+01  1.00800000E+00  1.00800000E+00
  1.60000000E+01  1.00800000E+00  1.00800000E+00  1.60000000E+01  1.00800000E+00
  1.00800000E+00  1.60000000E+01  1.00800000E+00  1.00800000E+00  1.60000000E+01
  1.00800000E+00  1.00800000E+00  1.60000000E+01  1.00800000E+00  1.00800000E+00
  1.60000000E+01  1.00800000E+00  1.00800000E+00  1.60000000E+01  1.00800000E+00
  1.00800000E+00  1.60000000E+01  1.00800000E+00  1.00800000E+00  1.60000000E+01
  1.00800000E+00  1.00800000E+00  1.60000000E+01  1.00800000E+00  1.00800000E+00
  1.60000000E+01  1.00800000E+00  1.00800000E+00  1.60000000E+01  1.00800000E+00
  1.00800000E+00  1.60000000E+01  1.00800000E+00  1.00800000E+00  1.60000000E+01
  1.00800000E+00  1.00800000E+00  1.60000000E+01  1.00800000E+00  1.00800000E+00
  1.60000000E+01  1.00800000E+00  1.00800000E+00  1.60000000E+01  1.00800000E+00
  1.00800000E+00  1.60000000E+01  1.00800000E+00  1.00800000E+00  1.60000000E+01
  1.00800000E+00  1.00800000E+00  1.60000000E+01  1.00800000E+00  1.00800000E+00
  1.60000000E+01  1.00800000E+00  1.00800000E+00  1.60000000E+01  1.00800000E+00
  1.00800000E+00  1.60000000E+01  1.00800000E+00  1.00800000E+00  1.60000000E+01
  1.00800000E+00  1.00800000E+00  1.60000000E+01  1.00800000E+00  1.00800000E+00
  1.60000000E+01  1.00800000E+00  1.00800000E+00  1.60000000E+01  1.00800000E+00
  1.00800000E+00  1.60000000E+01  1.00800000E+00  1.00800000E+00  1.60000000E+01
  1.00800000E+00  1.00800000E+00  1.60000000E+01  1.00800000E+00  1.00800000E+00
  1.60000000E+01  1.00800000E+00  1.00800000E+00  1.60000000E+01  1.00800000E+00
  1.00800000E+00  1.60000000E+01  1.00800000E+00  1.00800000E+00  1.60000000E+01
  1.00800000E+00  1.00800000E+00  1.60000000E+01  1.00800000E+00  1.00800000E+00
  1.60000000E+01  1.00800000E+00  1.00800000E+00  1.60000000E+01  1.00800000E+00
  1.00800000E+00  1.60000000E+01  1.00800000E+00  1.00800000E+00  1.60000000E+01
  1.00800000E+00  1.00800000E+00  1.60000000E+01  1.00800000E+00  1.00800000E+00
  1.60000000E+01  1.00800000E+00  1.00800000E+00  1.60000000E+01  1.00800000E+00
  1.00800000E+00  1.60000000E+01  1.00800000E+00  1.00800000E+00  1.60000000E+01
  1.00800000E+00  1.00800000E+00  1.60000000E+01  1.00800000E+00  1.00800000E+00
  1.60000000E+01  1.00800000E+00  1.00800000E+00  1.60000000E+01  1.00800000E+00
  1.00800000E+00  1.60000000E+01  1.00800000E+00  1.00800000E+00  1.60000000E+01
  1.00800000E+00  1.00800000E+00  1.60000000E+01  1.00800000E+00  1.00800000E+00
  1.60000000E+01  1.00800000E+00  1.00800000E+00  1.60000000E+01  1.00800000E+00
  1.00800000E+00  1.60000000E+01  1.00800000E+00  1.00800000E+00  1.60000000E+01
  1.00800000E+00  1.00800000E+00  1.60000000E+01  1.00800000E+00  1.00800000E+00
  1.60000000E+01  1.00800000E+00  1.00800000E+00  1.60000000E+01  1.00800000E+00
  1.00800000E+00  1.60000000E+01  1.00800000E+00  1.00800000E+00  1.60000000E+01
  1.00800000E+00  1.00800000E+00  1.60000000E+01  1.00800000E+00  1.00800000E+00
  1.60000000E+01  1.00800000E+00  1.00800000E+00  1.60000000E+01  1.00800000E+00
  1.00800000E+00  1.60000000E+01  1.00800000E+00  1.00800000E+00  1.60000000E+01
  1.00800000E+00  1.00800000E+00  1.60000000E+01  1.00800000E+00  1.00800000E+00
  1.60000000E+01  1.00800000E+00  1.00800000E+00  1.60000000E+01  1.00800000E+00
  1.00800000E+00  1.60000000E+01  1.00800000E+00  1.00800000E+00  1.60000000E+01
  1.00800000E+00  1.00800000E+00  1.60000000E+01  1.00800000E+00  1.00800000E+00
  1.60000000E+01  1.00800000E+00  1.00800000E+00  1.60000000E+01  1.00800000E+00
  1.00800000E+00  1.60000000E+01  1.00800000E+00  1.00800000E+00  1.60000000E+01
  1.00800000E+00  1.00800000E+00  1.60000000E+01  1.00800000E+00  1.00800000E+00
  1.60000000E+01  1.00800000E+00  1.00800000E+00  1.60000000E+01  1.00800000E+00
  1.00800000E+00  1.60000000E+01  1.00800000E+00  1.00800000E+00  1.60000000E+01
  1.00800000E+00  1.00800000E+00  1.60000000E+01  1.00800000E+00  1.00800000E+00
  1.60000000E+01  1.00800000E+00  1.00800000E+00  1.60000000E+01  1.00800000E+00
  1.00800000E+00  1.60000000E+01  1.00800000E+00  1.00800000E+00  1.60000000E+01
  1.00800000E+00  1.00800000E+00  1.60000000E+01  1.00800000E+00  1.00800000E+00
  1.60000000E+01  1.00800000E+00  1.00800000E+00  1.60000000E+01  1.00800000E+00
  1.00800000E+00  1.60000000E+01  1.00800000E+00  1.00800000E+00  1.60000000E+01
  1.00800000E+00  1.00800000E+00  1.60000000E+01  1.00800000E+00  1.00800000E+00
  1.60000000E+01  1.00800000E+00  1.00800000E+00  1.60000000E+01  1.00800000E+00
  1.00800000E+00  1.60000000E+01  1.00800000E+00  1.00800000E+00  1.60000000E+01
  1.00800000E+00  1.00800000E+00  1.60000000E+01  1.00800000E+00  1.00800000E+00
  1.60000000E+01  1.00800000E+00  1.00800000E+00  1.60000000E+01  1.00800000E+00
  1.00800000E+00  1.60000000E+01  1.00800000E+00  1.00800000E+00  1.60000000E+01
  1.00800000E+00  1.00800000E+00  1.60000000E+01  1.00800000E+00  1.00800000E+00
  1.60000000E+01  1.00800000E+00  1.00800000E+00  1.60000000E+01  1.00800000E+00
  1.00800000E+00  1.60000000E+01  1.00800000E+00  1.00800000E+00  1.60000000E+01
  1.00800000E+00  1.00800000E+00  1.60000000E+01  1.00800000E+00  1.00800000E+00
  1.60000000E+01  1.00800000E+00  1.00800000E+00  1.60000000E+01  1.00800000E+00
  1.00800000E+00  1.60000000E+01  1.00800000E+00  1.00800000E+00  1.60000000E+01
  1.00800000E+00  1.00800000E+00  1.60000000E+01  1.00800000E+00  1.00800000E+00
  1.60000000E+01  1.00800000E+00  1.00800000E+00  1.60000000E+01  1.00800000E+00
  1.00800000E+00  1.60000000E+01  1.00800000E+00  1.00800000E+00  1.60000000E+01
  1.00800000E+00  1.00800000E+00  1.60000000E+01  1.00800000E+00  1.00800000E+00
  1.60000000E+01  1.00800000E+00  1.00800000E+00  1.60000000E+01  1.00800000E+00
  1.00800000E+00  1.60000000E+01  1.00800000E+00  1.00800000E+00  1.60000000E+01
  1.00800000E+00  1.00800000E+00  1.60000000E+01  1.00800000E+00  1.00800000E+00
  1.60000000E+01  1.00800000E+00  1.00800000E+00  1.60000000E+01  1.00800000E+00
  1.00800000E+00  1.60000000E+01  1.00800000E+00  1.00800000E+00  1.60000000E+01
  1.00800000E+00  1.00800000E+00  1.60000000E+01  1.00800000E+00  1.00800000E+00
  1.60000000E+01  1.00800000E+00  1.00800000E+00  1.60000000E+01  1.00800000E+00
  1.00800000E+00  1.60000000E+01  1.00800000E+00  1.00800000E+00  1.60000000E+01
  1.00800000E+00  1.00800000E+00  1.60000000E+01  1.00800000E+00  1.00800000E+00
  1.60000000E+01  1.00800000E+00  1.00800000E+00  1.60000000E+01  1.00800000E+00
  1.00800000E+00  1.60000000E+01  1.00800000E+00  1.00800000E+00  1.60000000E+01
  1.00800000E+00  1.00800000E+00  1.60000000E+01  1.00800000E+00  1.00800000E+00
  1.60000000E+01  1.00800000E+00  1.00800000E+00  1.60000000E+01  1.00800000E+00
  1.00800000E+00  1.60000000E+01  1.00800000E+00  1.00800000E+00  1.60000000E+01
  1.00800000E+00  1.00800000E+00  1.60000000E+01  1.00800000E+00  1.00800000E+00
  1.60000000E+01  1.00800000E+00  1.00800000E+00  1.60000000E+01  1.00800000E+00
  1.00800000E+00  1.60000000E+01  1.00800000E+00  1.00800000E+00  1.60000000E+01
  1.00800000E+00  1.00800000E+00  1.60000000E+01  1.00800000E+00  1.00800000E+00
  1.60000000E+01  1.00800000E+00  1.00800000E+00  1.60000000E+01  1.00800000E+00
  1.00800000E+00  1.60000000E+01  1.00800000E+00  1.00800000E+00  1.60000000E+01
  1.00800000E+00  1.00800000E+00  1.60000000E+01  1.00800000E+00  1.00800000E+00
  1.60000000E+01  1.00800000E+00  1.00800000E+00  1.60000000E+01  1.00800000E+00
  1.00800000E+00  1.60000000E+01  1.00800000E+00  1.00800000E+00  1.60000000E+01
  1.00800000E+00  1.00800000E+00  1.60000000E+01  1.00800000E+00  1.00800000E+00
  1.60000000E+01  1.00800000E+00  1.00800000E+00  1.60000000E+01  1.00800000E+00
  1.00800000E+00  1.60000000E+01  1.00800000E+00  1.00800000E+00  1.60000000E+01
  1.00800000E+00  1.00800000E+00  1.60000000E+01  1.00800000E+00  1.00800000E+00
  1.60000000E+01  1.00800000E+00  1.00800000E+00  1.60000000E+01  1.00800000E+00
  1.00800000E+00  1.60000000E+01  1.00800000E+00  1.00800000E+00  1.60000000E+01
  1.00800000E+00  1.00800000E+00  1.60000000E+01  1.00800000E+00  1.00800000E+00
  1.60000000E+01  1.00800000E+00  1.00800000E+00  1.60000000E+01  1.00800000E+00
  1.00800000E+00  1.60000000E+01  1.00800000E+00  1.00800000E+00  1.60000000E+01
  1.00800000E+00  1.00800000E+00  1.60000000E+01  1.00800000E+00  1.00800000E+00
  1.60000000E+01  1.00800000E+00  1.00800000E+00  1.60000000E+01  1.00800000E+00
  1.00800000E+00  1.60000000E+01  1.00800000E+00  1.00800000E+00  1.60000000E+01
  1.00800000E+00  1.00800000E+00  1.60000000E+01  1.00800000E+00  1.00800000E+00
  1.60000000E+01  1.00800000E+00  1.00800000E+00  1.60000000E+01  1.00800000E+00
  1.00800000E+00  1.60000000E+01  1.00800000E+00  1.00800000E+00  1.60000000E+01
  1.00800000E+00  1.00800000E+00  1.60000000E+01  1.00800000E+00  1.00800000E+00
  1.60000000E+01  1.00800000E+00  1.00800000E+00  1.60000000E+01  1.00800000E+00
  1.00800000E+00  1.60000000E+01  1.00800000E+00  1.00800000E+00  1.60000000E+01
  1.00800000E+00  1.00800000E+00  1.60000000E+01  1.00800000E+00  1.00800000E+00
  1.60000000E+01  1.00800000E+00  1.00800000E+00  1.60000000E+01  1.00800000E+00
  1.00800000E+00  1.60000000E+01  1.00800000E+00  1.00800000E+00  1.60000000E+01
  1.00800000E+00  1.00800000E+00  1.60000000E+01  1.00800000E+00  1.00800000E+00
  1.60000000E+01  1.00800000E+00  1.00800000E+00  1.60000000E+01  1.00800000E+00
  1.00800000E+00  1.60000000E+01  1.00800000E+00  1.00800000E+00  1.60000000E+01
  1.00800000E+00  1.00800000E+00  1.60000000E+01  1.00800000E+00  1.00800000E+00
  1.60000000E+01  1.00800000E+00  1.00800000E+00  1.60000000E+01  1.00800000E+00
  1.00800000E+00  1.60000000E+01  1.00800000E+00  1.00800000E+00  1.60000000E+01
  1.00800000E+00  1.00800000E+00  1.60000000E+01  1.00800000E+00  1.00800000E+00
  1.60000000E+01  1.00800000E+00  1.00800000E+00  1.60000000E+01  1.00800000E+00
  1.00800000E+00  1.60000000E+01  1.00800000E+00  1.00800000E+00  1.60000000E+01
  1.00800000E+00  1.00800000E+00  1.60000000E+01  1.00800000E+00  1.00800000E+00
  1.60000000E+01  1.00800000E+00  1.00800000E+00  1.60000000E+01  1.00800000E+00
  1.00800000E+00  1.60000000E+01  1.00800000E+00  1.00800000E+00  1.60000000E+01
  1.00800000E+00  1.00800000E+00  1.60000000E+01  1.00800000E+00  1.00800000E+00
  1.60000000E+01  1.00800000E+00  1.00800000E+00  1.60000000E+01  1.00800000E+00
  1.00800000E+00  1.60000000E+01  1.00800000E+00  1.00800000E+00  1.60000000E+01
  1.00800000E+00  1.00800000E+00  1.60000000E+01  1.00800000E+00  1.00800000E+00
  1.60000000E+01  1.00800000E+00  1.00800000E+00  1.60000000E+01  1.00800000E+00
  1.00800000E+00  1.60000000E+01  1.00800000E+00  1.00800000E+00  1.60000000E+01
  1.00800000E+00  1.00800000E+00  1.60000000E+01  1.00800000E+00  1.00800000E+00
  1.60000000E+01  1.00800000E+00  1.00800000E+00  1.60000000E+01  1.00800000E+00
  1.00800000E+00  1.60000000E+01  1.00800000E+00  1.00800000E+00  1.60000000E+01
  1.00800000E+00  1.00800000E+00  1.60000000E+01  1.00800000E+00  1.00800000E+00
  1.60000000E+01  1.00800000E+00  1.00800000E+00  1.60000000E+01  1.00800000E+00
  1.00800000E+00  1.60000000E+01  1.00800000E+00  1.00800000E+00  1.60000000E+01
  1.00800000E+00  1.00800000E+00  1.60000000E+01  1.00800000E+00  1.00800000E+00
  1.60000000E+01  1.00800000E+00  1.00800000E+00  1.60000000E+01  1.00800000E+00
  1.00800000E+00  1.60000000E+01  1.00800000E+00  1.00800000E+00  1.60000000E+01
  1.00800000E+00  1.00800000E+00  1.60000000E+01  1.00800000E+00  1.00800000E+00
  1.60000000E+01  1.00800000E+00  1.00800000E+00  1.60000000E+01  1.00800000E+00
  1.00800000E+00  1.60000000E+01  1.00800000E+00  1.00800000E+00  1.60000000E+01
  1.00800000E+00  1.00800000E+00  1.60000000E+01  1.00800000E+00  1.00800000E+00
  1.60000000E+01  1.00800000E+00  1.00800000E+00  1.60000000E+01  1.00800000E+00
  1.00800000E+00  1.60000000E+01  1.00800000E+00  1.00800000E+00  1.60000000E+01
  1.00800000E+00  1.00800000E+00  1.60000000E+01  1.00800000E+00  1.00800000E+00
  1.60000000E+01  1.00800000E+00  1.00800000E+00  1.60000000E+01  1.00800000E+00
  1.00800000E+00  1.60000000E+01  1.00800000E+00  1.00800000E+00  1.60000000E+01
  1.00800000E+00  1.00800000E+00  1.60000000E+01  1.00800000E+00  1.00800000E+00
  1.60000000E+01  1.00800000E+00  1.00800000E+00  1.60000000E+01  1.00800000E+00
  1.00800000E+00  1.60000000E+01  1.00800000E+00  1.00800000E+00  1.60000000E+01
  1.00800000E+00  1.00800000E+00  1.60000000E+01  1.00800000E+00  1.00800000E+00
  1.60000000E+01  1.00800000E+00  1.00800000E+00  1.60000000E+01  1.00800000E+00
  1.00800000E+00  1.60000000E+01  1.00800000E+00  1.00800000E+00  1.60000000E+01
  1.00800000E+00  1.00800000E+00  1.60000000E+01  1.00800000E+00  1.00800000E+00
  1.60000000E+01  1.00800000E+00  1.00800000E+00  1.60000000E+01  1.00800000E+00
  1.00800000E+00  1.60000000E+01  1.00800000E+00  1.00800000E+00  1.60000000E+01
  1.00800000E+00  1.00800000E+00  1.60000000E+01  1.00800000E+00  1.00800000E+00
  1.60000000E+01  1.00800000E+00  1.00800000E+00  1.60000000E+01  1.00800000E+00
  1.00800000E+00  1.60000000E+01  1.00800000E+00  1.00800000E+00  1.60000000E+01
  1.00800000E+00  1.00800000E+00  1.60000000E+01  1.00800000E+00  1.00800000E+00
  1.60000000E+01  1.00800000E+00  1.00800000E+00  1.60000000E+01  1.00800000E+00
  1.00800000E+00  1.60000000E+01  1.00800000E+00  1.00800000E+00  1.60000000E+01
  1.00800000E+00  1.00800000E+00  1.60000000E+01  1.00800000E+00  1.00800000E+00
  1.60000000E+01  1.00800000E+00  1.00800000E+00  1.60000000E+01  1.00800000E+00
  1.00800000E+00  1.60000000E+01  1.00800000E+00  1.00800000E+00  1.60000000E+01
  1.00800000E+00  1.00800000E+00  1.60000000E+01  1.00800000E+00  1.00800000E+00
  1.60000000E+01  1.00800000E+00  1.00800000E+00  1.60000000E+01  1.00800000E+00
  1.00800000E+00  1.60000000E+01  1.00800000E+00  1.00800000E+00  1.60000000E+01
  1.00800000E+00  1.00800000E+00  1.60000000E+01  1.00800000E+00  1.00800000E+00
  1.60000000E+01  1.00800000E+00  1.00800000E+00  1.60000000E+01  1.00800000E+00
  1.00800000E+00  1.60000000E+01  1.00800000E+00  1.00800000E+00  1.60000000E+01
  1.00800000E+00  1.00800000E+00  1.60000000E+01  1.00800000E+00  1.00800000E+00
  1.60000000E+01  1.00800000E+00  1.00800000E+00  1.60000000E+01  1.00800000E+00
  1.00800000E+00  1.60000000E+01  1.00800000E+00  1.00800000E+00  1.60000000E+01
  1.00800000E+00  1.00800000E+00  1.60000000E+01  1.00800000E+00  1.00800000E+00
  1.60000000E+01  1.00800000E+00  1.00800000E+00  1.60000000E+01  1.00800000E+00
  1.00800000E+00  1.60000000E+01  1.00800000E+00  1.00800000E+00  1.60000000E+01
  1.00800000E+00  1.00800000E+00  1.60000000E+01  1.00800000E+00  1.00800000E+00
  1.60000000E+01  1.00800000E+00  1.00800000E+00  1.60000000E+01  1.00800000E+00
  1.00800000E+00  1.60000000E+01  1.00800000E+00  1.00800000E+00  1.60000000E+01
  1.00800000E+00  1.00800000E+00  1.60000000E+01  1.00800000E+00  1.00800000E+00
  1.60000000E+01  1.00800000E+00  1.00800000E+00  1.60000000E+01  1.00800000E+00
  1.00800000E+00  1.60000000E+01  1.00800000E+00  1.00800000E+00  1.60000000E+01
  1.00800000E+00  1.00800000E+00  1.60000000E+01  1.00800000E+00  1.00800000E+00
  1.60000000E+01  1.00800000E+00  1.00800000E+00  1.60000000E+01  1.00800000E+00
  1.00800000E+00  1.60000000E+01  1.00800000E+00  1.00800000E+00  1.60000000E+01
  1.00800000E+00  1.00800000E+00  1.60000000E+01  1.00800000E+00  1.00800000E+00
  1.60000000E+01  1.00800000E+00  1.00800000E+00  1.60000000E+01  1.00800000E+00
  1.00800000E+00  1.60000000E+01  1.00800000E+00  1.00800000E+00  1.60000000E+01
  1.00800000E+00  1.00800000E+00  1.60000000E+01  1.00800000E+00  1.00800000E+00
  1.60000000E+01  1.00800000E+00  1.00800000E+00  1.60000000E+01  1.00800000E+00
  1.00800000E+00  1.60000000E+01  1.00800000E+00  1.00800000E+00  1.60000000E+01
  1.00800000E+00  1.00800000E+00  1.60000000E+01  1.00800000E+00  1.00800000E+00
  1.60000000E+01  1.00800000E+00  1.00800000E+00  1.60000000E+01  1.00800000E+00
  1.00800000E+00  1.60000000E+01  1.00800000E+00  1.00800000E+00  1.60000000E+01
  1.00800000E+00  1.00800000E+00  1.60000000E+01  1.00800000E+00  1.00800000E+00
  1.60000000E+01  1.00800000E+00  1.00800000E+00  1.60000000E+01  1.00800000E+00
  1.00800000E+00  1.60000000E+01  1.00800000E+00  1.00800000E+00  1.60000000E+01
  1.00800000E+00  1.00800000E+00  1.60000000E+01  1.00800000E+00  1.00800000E+00
  1.60000000E+01  1.00800000E+00  1.00800000E+00  1.60000000E+01  1.00800000E+00
  1.00800000E+00  1.60000000E+01  1.00800000E+00  1.00800000E+00  1.60000000E+01
  1.00800000E+00  1.00800000E+00  1.60000000E+01  1.00800000E+00  1.00800000E+00
  1.60000000E+01  1.00800000E+00  1.00800000E+00  1.60000000E+01  1.00800000E+00
  1.00800000E+00  1.60000000E+01  1.00800000E+00  1.00800000E+00  1.60000000E+01
  1.00800000E+00  1.00800000E+00  1.60000000E+01  1.00800000E+00  1.00800000E+00
  1.60000000E+01  1.00800000E+00  1.00800000E+00  1.60000000E+01  1.00800000E+00
  1.00800000E+00  1.60000000E+01  1.00800000E+00  1.00800000E+00  1.60000000E+01
  1.00800000E+00  1.00800000E+00  1.60000000E+01  1.00800000E+00  1.00800000E+00
  1.60000000E+01  1.00800000E+00  1.00800000E+00  1.60000000E+01  1.00800000E+00
  1.00800000E+00  1.60000000E+01  1.00800000E+00  1.00800000E+00  1.60000000E+01
  1.00800000E+00  1.00800000E+00  1.60000000E+01  1.00800000E+00  1.00800000E+00
  1.60000000E+01  1.00800000E+00  1.00800000E+00  1.60000000E+01  1.00800000E+00
  1.00800000E+00  1.60000000E+01  1.00800000E+00  1.00800000E+00  1.60000000E+01
  1.00800000E+00  1.00800000E+00  1.60000000E+01  1.00800000E+00  1.00800000E+00
  1.60000000E+01  1.00800000E+00  1.00800000E+00  1.60000000E+01  1.00800000E+00
  1.00800000E+00  1.60000000E+01  1.00800000E+00  1.00800000E+00  1.60000000E+01
  1.00800000E+00  1.00800000E+00  1.60000000E+01  1.00800000E+00  1.00800000E+00
  1.60000000E+01  1.00800000E+00  1.00800000E+00  1.60000000E+01  1.00800000E+00
  1.00800000E+00  1.60000000E+01  1.00800000E+00  1.00800000E+00  1.60000000E+01
  1.00800000E+00  1.00800000E+00  1.60000000E+01  1.00800000E+00  1.00800000E+00
  1.60000000E+01  1.00800000E+00  1.00800000E+00  1.60000000E+01  1.00800000E+00
  1.00800000E+00  1.60000000E+01  1.00800000E+00  1.00800000E+00  1.60000000E+01
  1.00800000E+00  1.00800000E+00  1.60000000E+01  1.00800000E+00  1.00800000E+00
  1.60000000E+01  1.00800000E+00  1.00800000E+00  1.60000000E+01  1.00800000E+00
  1.00800000E+00  1.60000000E+01  1.00800000E+00  1.00800000E+00  1.60000000E+01
  1.00800000E+00  1.00800000E+00  1.60000000E+01  1.00800000E+00  1.00800000E+00
  1.60000000E+01  1.00800000E+00  1.00800000E+00  1.60000000E+01  1.00800000E+00
  1.00800000E+00  1.60000000E+01  1.00800000E+00  1.00800000E+00  1.60000000E+01
  1.00800000E+00  1.00800000E+00  1.60000000E+01  1.00800000E+00  1.00800000E+00
  1.60000000E+01  1.00800000E+00  1.00800000E+00  1.60000000E+01  1.00800000E+00
  1.00800000E+00  1.60000000E+01  1.00800000E+00  1.00800000E+00  1.60000000E+01
  1.00800000E+00  1.00800000E+00  1.60000000E+01  1.00800000E+00  1.00800000E+00
  1.60000000E+01  1.00800000E+00  1.00800000E+00  1.60000000E+01  1.00800000E+00
  1.00800000E+00  1.60000000E+01  1.00800000E+00  1.00800000E+00  1.60000000E+01
  1.00800000E+00  1.00800000E+00  1.60000000E+01  1.00800000E+00  1.00800000E+00
  1.60000000E+01  1.00800000E+00  1.00800000E+00  1.60000000E+01  1.00800000E+00
  1.00800000E+00  1.60000000E+01  1.00800000E+00  1.00800000E+00  1.60000000E+01
  1.00800000E+00  1.00800000E+00  1.60000000E+01  1.00800000E+00  1.00800000E+00
  1.60000000E+01  1.00800000E+00  1.00800000E+00  1.60000000E+01  1.00800000E+00
  1.00800000E+00  1.60000000E+01  1.00800000E+00  1.00800000E+00  1.60000000E+01
  1.00800000E+00  1.00800000E+00  1.60000000E+01  1.00800000E+00  1.00800000E+00
  1.60000000E+01  1.00800000E+00  1.00800000E+00  1.60000000E+01  1.00800000E+00
  1.00800000E+00  1.60000000E+01  1.00800000E+00  1.00800000E+00  1.60000000E+01
  1.00800000E+00  1.00800000E+00  1.60000000E+01  1.00800000E+00  1.00800000E+00
  1.60000000E+01  1.00800000E+00  1.00800000E+00  1.60000000E+01  1.00800000E+00
  1.00800000E+00  1.60000000E+01  1.00800000E+00  1.00800000E+00  1.60000000E+01
  1.00800000E+00  1.00800000E+00  1.60000000E+01  1.00800000E+00  1.00800000E+00
  1.60000000E+01  1.00800000E+00  1.00800000E+00  1.60000000E+01  1.00800000E+00
  1.00800000E+00  1.60000000E+01  1.00800000E+00  1.00800000E+00  1.60000000E+01
  1.00800000E+00  1.00800000E+00  1.60000000E+01  1.00800000E+00  1.00800000E+00
  1.60000000E+01  1.00800000E+00  1.00800000E+00  1.60000000E+01  1.00800000E+00
  1.00800000E+00  1.60000000E+01  1.00800000E+00  1.00800000E+00  1.60000000E+01
  1.00800000E+00  1.00800000E+00  1.60000000E+01  1.00800000E+00  1.00800000E+00
  1.60000000E+01  1.00800000E+00  1.00800000E+00  1.60000000E+01  1.00800000E+00
  1.00800000E+00  1.60000000E+01  1.00800000E+00  1.00800000E+00  1.60000000E+01
  1.00800000E+00  1.00800000E+00  1.60000000E+01  1.00800000E+00  1.00800000E+00
  1.60000000E+01  1.00800000E+00  1.00800000E+00  1.60000000E+01  1.00800000E+00
  1.00800000E+00  1.60000000E+01  1.00800000E+00  1.00800000E+00  1.60000000E+01
  1.00800000E+00  1.00800000E+00  1.60000000E+01  1.00800000E+00  1.00800000E+00
  1.60000000E+01  1.00800000E+00  1.00800000E+00  1.60000000E+01  1.00800000E+00
  1.00800000E+00  1.60000000E+01  1.00800000E+00  1.00800000E+00  1.60000000E+01
  1.00800000E+00  1.00800000E+00  1.60000000E+01  1.00800000E+00  1.00800000E+00
  1.60000000E+01  1.00800000E+00  1.00800000E+00  1.60000000E+01  1.00800000E+00
  1.00800000E+00  1.60000000E+01  1.00800000E+00  1.00800000E+00  1.60000000E+01
  1.00800000E+00  1.00800000E+00  1.60000000E+01  1.00800000E+00  1.00800000E+00
  1.60000000E+01  1.00800000E+00  1.00800000E+00  1.60000000E+01  1.00800000E+00
  1.00800000E+00  1.60000000E+01  1.00800000E+00  1.00800000E+00  1.60000000E+01
  1.00800000E+00  1.00800000E+00  1.60000000E+01  1.00800000E+00  1.00800000E+00
  1.60000000E+01  1.00800000E+00  1.00800000E+00  1.60000000E+01  1.00800000E+00
  1.00800000E+00  1.60000000E+01  1.00800000E+00  1.00800000E+00  1.60000000E+01
  1.00800000E+00  1.00800000E+00  1.60000000E+01  1.00800000E+00  1.00800000E+00
  1.60000000E+01  1.00800000E+00  1.00800000E+00  1.60000000E+01  1.00800000E+00
  1.00800000E+00  1.60000000E+01  1.00800000E+00  1.00800000E+00  1.60000000E+01
  1.00800000E+00  1.00800000E+00  1.60000000E+01  1.00800000E+00  1.00800000E+00
  1.60000000E+01  1.00800000E+00  1.00800000E+00  1.60000000E+01  1.00800000E+00
  1.00800000E+00  1.60000000E+01  1.00800000E+00  1.00800000E+00  1.60000000E+01
  1.00800000E+00  1.00800000E+00  1.60000000E+01  1.00800000E+00  1.00800000E+00
  1.60000000E+01  1.00800000E+00  1.00800000E+00  1.60000000E+01  1.00800000E+00
  1.00800000E+00  1.60000000E+01  1.00800000E+00  1.00800000E+00  1.60000000E+01
  1.00800000E+00  1.00800000E+00  1.60000000E+01  1.00800000E+00  1.00800000E+00
  1.60000000E+01  1.00800000E+00  1.00800000E+00  1.60000000E+01  1.00800000E+00
  1.00800000E+00  1.60000000E+01  1.00800000E+00  1.00800000E+00  1.60000000E+01
  1.00800000E+00  1.00800000E+00  1.60000000E+01  1.00800000E+00  1.00800000E+00
  1.60000000E+01  1.00800000E+00  1.00800000E+00  1.60000000E+01  1.00800000E+00
  1.00800000E+00  1.60000000E+01  1.00800000E+00  1.00800000E+00  1.60000000E+01
  1.00800000E+00  1.00800000E+00  1.60000000E+01  1.00800000E+00  1.00800000E+00
  1.60000000E+01  1.00800000E+00  1.00800000E+00  1.60000000E+01  1.00800000E+00
  1.00800000E+00  1.60000000E+01  1.00800000E+00  1.00800000E+00  1.60000000E+01
  1.00800000E+00  1.00800000E+00  1.60000000E+01  1.00800000E+00  1.00800000E+00
  1.60000000E+01  1.00800000E+00  1.00800000E+00  1.60000000E+01  1.00800000E+00
  1.00800000E+00  1.60000000E+01  1.00800000E+00  1.00800000E+00  1.60000000E+01
  1.00800000E+00  1.00800000E+00  1.60000000E+01  1.00800000E+00  1.00800000E+00
  1.60000000E+01  1.00800000E+00  1.00800000E+00  1.60000000E+01  1.00800000E+00
  1.00800000E+00  1.60000000E+01  1.00800000E+00  1.00800000E+00  1.60000000E+01
  1.00800000E+00  1.00800000E+00  1.60000000E+01  1.00800000E+00  1.00800000E+00
  1.60000000E+01  1.00800000E+00  1.00800000E+00  1.60000000E+01  1.00800000E+00
  1.00800000E+00  1.60000000E+01  1.00800000E+00  1.00800000E+00  1.60000000E+01
  1.00800000E+00  1.00800000E+00  1.60000000E+01  1.00800000E+00  1.00800000E+00
  1.60000000E+01  1.00800000E+00  1.00800000E+00  1.60000000E+01  1.00800000E+00
  1.00800000E+00  1.60000000E+01  1.00800000E+00  1.00800000E+00  1.60000000E+01
  1.00800000E+00  1.00800000E+00  1.60000000E+01  1.00800000E+00  1.00800000E+00
  1.60000000E+01  1.00800000E+00  1.00800000E+00  1.60000000E+01  1.00800000E+00
  1.00800000E+00  1.60000000E+01  1.00800000E+00  1.00800000E+00  1.60000000E+01
  1.00800000E+00  1.00800000E+00  1.60000000E+01  1.00800000E+00  1.00800000E+00
  1.60000000E+01  1.00800000E+00  1.00800000E+00  1.60000000E+01  1.00800000E+00
  1.00800000E+00  1.60000000E+01  1.00800000E+00  1.00800000E+00  1.60000000E+01
  1.00800000E+00  1.00800000E+00  1.60000000E+01  1.00800000E+00  1.00800000E+00
  1.60000000E+01  1.00800000E+00  1.00800000E+00  1.60000000E+01  1.00800000E+00
  1.00800000E+00  1.60000000E+01  1.00800000E+00  1.00800000E+00  1.60000000E+01
  1.00800000E+00  1.00800000E+00  1.60000000E+01  1.00800000E+00  1.00800000E+00
  1.60000000E+01  1.00800000E+00  1.00800000E+00  1.60000000E+01  1.00800000E+00
  1.00800000E+00  1.60000000E+01  1.00800000E+00  1.00800000E+00  1.60000000E+01
  1.00800000E+00  1.00800000E+00  1.60000000E+01  1.00800000E+00  1.00800000E+00
  1.60000000E+01  1.00800000E+00  1.00800000E+00  1.60000000E+01  1.00800000E+00
  1.00800000E+00  1.60000000E+01  1.00800000E+00  1.00800000E+00  1.60000000E+01
  1.00800000E+00  1.00800000E+00  1.60000000E+01  1.00800000E+00  1.00800000E+00
  1.60000000E+01  1.00800000E+00  1.00800000E+00  1.60000000E+01  1.00800000E+00
  1.00800000E+00  1.60000000E+01  1.00800000E+00  1.00800000E+00  1.60000000E+01
  1.00800000E+00  1.00800000E+00  1.60000000E+01  1.00800000E+00  1.00800000E+00
  1.60000000E+01  1.00800000E+00  1.00800000E+00  1.60000000E+01  1.00800000E+00
  1.00800000E+00  1.60000000E+01  1.00800000E+00  1.00800000E+00  1.60000000E+01
  1.00800000E+00  1.00800000E+00  1.60000000E+01  1.00800000E+00  1.00800000E+00
  1.60000000E+01  1.00800000E+00  1.00800000E+00  1.60000000E+01  1.00800000E+00
  1.00800000E+00  1.60000000E+01  1.00800000E+00  1.00800000E+00  1.60000000E+01
  1.00800000E+00  1.00800000E+00  1.60000000E+01  1.00800000E+00  1.00800000E+00
  1.60000000E+01  1.00800000E+00  1.00800000E+00  1.60000000E+01  1.00800000E+00
  1.00800000E+00  1.60000000E+01  1.00800000E+00  1.00800000E+00  1.60000000E+01
  1.00800000E+00  1.00800000E+00  1.60000000E+01  1.00800000E+00  1.00800000E+00
  1.60000000E+01  1.00800000E+00  1.00800000E+00  1.60000000E+01  1.00800000E+00
  1.00800000E+00  1.60000000E+01  1.00800000E+00  1.00800000E+00  1.60000000E+01
  1.00800000E+00  1.00800000E+00  1.60000000E+01  1.00800000E+00  1.00800000E+00
  1.60000000E+01  1.00800000E+00  1.00800000E+00  1.60000000E+01  1.00800000E+00
  1.00800000E+00  1.60000000E+01  1.00800000E+00  1.00800000E+00  1.60000000E+01
  1.00800000E+00  1.00800000E+00  1.60000000E+01  1.00800000E+00  1.00800000E+00
  1.60000000E+01  1.00800000E+00  1.00800000E+00  1.60000000E+01  1.00800000E+00
  1.00800000E+00  1.60000000E+01  1.00800000E+00  1.00800000E+00  1.60000000E+01
  1.00800000E+00  1.00800000E+00  1.60000000E+01  1.00800000E+00  1.00800000E+00
  1.60000000E+01  1.00800000E+00  1.00800000E+00  1.60000000E+01  1.00800000E+00
  1.00800000E+00  1.60000000E+01  1.00800000E+00  1.00800000E+00  1.60000000E+01
  1.00800000E+00  1.00800000E+00  1.60000000E+01  1.00800000E+00  1.00800000E+00
  1.60000000E+01  1.00800000E+00  1.00800000E+00  1.60000000E+01  1.00800000E+00
  1.00800000E+00  1.60000000E+01  1.00800000E+00  1.00800000E+00  1.60000000E+01
  1.00800000E+00  1.00800000E+00  1.60000000E+01  1.00800000E+00  1.00800000E+00
  1.60000000E+01  1.00800000E+00  1.00800000E+00  1.60000000E+01  1.00800000E+00
  1.00800000E+00  1.60000000E+01  1.00800000E+00  1.00800000E+00  1.60000000E+01
  1.00800000E+00  1.00800000E+00  1.60000000E+01  1.00800000E+00  1.00800000E+00
  1.60000000E+01  1.00800000E+00  1.00800000E+00  1.60000000E+01  1.00800000E+00
  1.00800000E+00  1.60000000E+01  1.00800000E+00  1.00800000E+00  1.60000000E+01
  1.00800000E+00  1.00800000E+00  1.60000000E+01  1.00800000E+00  1.00800000E+00
  1.60000000E+01  1.00800000E+00  1.00800000E+00  1.60000000E+01  1.00800000E+00
  1.00800000E+00  1.60000000E+01  1.00800000E+00  1.00800000E+00  1.60000000E+01
  1.00800000E+00  1.00800000E+00  1.60000000E+01  1.00800000E+00  1.00800000E+00
  1.60000000E+01  1.00800000E+00  1.00800000E+00  1.60000000E+01  1.00800000E+00
  1.00800000E+00  1.60000000E+01  1.00800000E+00  1.00800000E+00  1.60000000E+01
  1.00800000E+00  1.00800000E+00  1.60000000E+01  1.00800000E+00  1.00800000E+00
  1.60000000E+01  1.00800000E+00  1.00800000E+00  1.60000000E+01  1.00800000E+00
  1.00800000E+00  1.60000000E+01  1.00800000E+00  1.00800000E+00  1.60000000E+01
  1.00800000E+00  1.00800000E+00  1.60000000E+01  1.00800000E+00  1.00800000E+00
  1.60000000E+01  1.00800000E+00  1.00800000E+00  1.60000000E+01  1.00800000E+00
  1.00800000E+00  1.60000000E+01  1.00800000E+00  1.00800000E+00  1.60000000E+01
  1.00800000E+00  1.00800000E+00  1.60000000E+01  1.00800000E+00  1.00800000E+00
  1.60000000E+01  1.00800000E+00  1.00800000E+00  1.60000000E+01  1.00800000E+00
  1.00800000E+00  1.60000000E+01  1.00800000E+00  1.00800000E+00  1.60000000E+01
  1.00800000E+00  1.00800000E+00  1.60000000E+01  1.00800000E+00  1.00800000E+00
  1.60000000E+01  1.00800000E+00  1.00800000E+00  1.60000000E+01  1.00800000E+00
  1.00800000E+00  1.60000000E+01  1.00800000E+00  1.00800000E+00  1.60000000E+01
  1.00800000E+00  1.00800000E+00  1.60000000E+01  1.00800000E+00  1.00800000E+00
  1.60000000E+01  1.00800000E+00  1.00800000E+00  1.60000000E+01  1.00800000E+00
  1.00800000E+00  1.60000000E+01  1.00800000E+00  1.00800000E+00  1.60000000E+01
  1.00800000E+00  1.00800000E+00  1.60000000E+01  1.00800000E+00  1.00800000E+00
  1.60000000E+01  1.00800000E+00  1.00800000E+00  1.60000000E+01  1.00800000E+00
  1.00800000E+00  1.60000000E+01  1.00800000E+00  1.00800000E+00  1.60000000E+01
  1.00800000E+00  1.00800000E+00  1.60000000E+01  1.00800000E+00  1.00800000E+00
  1.60000000E+01  1.00800000E+00  1.00800000E+00  1.60000000E+01  1.00800000E+00
  1.00800000E+00  1.60000000E+01  1.00800000E+00  1.00800000E+00  1.60000000E+01
  1.00800000E+00  1.00800000E+00  1.60000000E+01  1.00800000E+00  1.00800000E+00
  1.60000000E+01  1.00800000E+00  1.00800000E+00  1.60000000E+01  1.00800000E+00
  1.00800000E+00  1.60000000E+01  1.00800000E+00  1.00800000E+00  1.60000000E+01
  1.00800000E+00  1.00800000E+00  1.60000000E+01  1.00800000E+00  1.00800000E+00
  1.60000000E+01  1.00800000E+00  1.00800000E+00  1.60000000E+01  1.00800000E+00
  1.00800000E+00  1.60000000E+01  1.00800000E+00  1.00800000E+00  1.60000000E+01
  1.00800000E+00  1.00800000E+00  1.60000000E+01  1.00800000E+00  1.00800000E+00
  1.60000000E+01  1.00800000E+00  1.00800000E+00  1.60000000E+01  1.00800000E+00
  1.00800000E+00  1.60000000E+01  1.00800000E+00  1.00800000E+00  1.60000000E+01
  1.00800000E+00  1.00800000E+00  1.60000000E+01  1.00800000E+00  1.00800000E+00
  1.60000000E+01  1.00800000E+00  1.00800000E+00  1.60000000E+01  1.00800000E+00
  1.00800000E+00  1.60000000E+01  1.00800000E+00  1.00800000E+00  1.60000000E+01
  1.00800000E+00  1.00800000E+00  1.60000000E+01  1.00800000E+00  1.00800000E+00
  1.60000000E+01  1.00800000E+00  1.00800000E+00  1.60000000E+01  1.00800000E+00
  1.00800000E+00  1.60000000E+01  1.00800000E+00  1.00800000E+00  1.60000000E+01
  1.00800000E+00  1.00800000E+00  1.60000000E+01  1.00800000E+00  1.00800000E+00
  1.60000000E+01  1.00800000E+00  1.00800000E+00  1.60000000E+01  1.00800000E+00
  1.00800000E+00  1.60000000E+01  1.00800000E+00  1.00800000E+00  1.60000000E+01
  1.00800000E+00  1.00800000E+00  1.60000000E+01  1.00800000E+00  1.00800000E+00
  1.60000000E+01  1.00800000E+00  1.00800000E+00  1.60000000E+01  1.00800000E+00
  1.00800000E+00  1.60000000E+01  1.00800000E+00  1.00800000E+00  1.60000000E+01
  1.00800000E+00  1.00800000E+00  1.60000000E+01  1.00800000E+00  1.00800000E+00
  1.60000000E+01  1.00800000E+00  1.00800000E+00  1.60000000E+01  1.00800000E+00
  1.00800000E+00  1.60000000E+01  1.00800000E+00  1.00800000E+00  1.60000000E+01
  1.00800000E+00  1.00800000E+00  1.60000000E+01  1.00800000E+00  1.00800000E+00
  1.60000000E+01  1.00800000E+00  1.00800000E+00  1.60000000E+01  1.00800000E+00
  1.00800000E+00  1.60000000E+01  1.00800000E+00  1.00800000E+00  1.60000000E+01
  1.00800000E+00  1.00800000E+00  1.60000000E+01  1.00800000E+00  1.00800000E+00
  1.60000000E+01  1.00800000E+00  1.00800000E+00  1.60000000E+01  1.00800000E+00
  1.00800000E+00  1.60000000E+01  1.00800000E+00  1.00800000E+00  1.60000000E+01
  1.00800000E+00  1.00800000E+00  1.60000000E+01  1.00800000E+00  1.00800000E+00
  1.60000000E+01  1.00800000E+00  1.00800000E+00  1.60000000E+01  1.00800000E+00
  1.00800000E+00  1.60000000E+01  1.00800000E+00  1.00800000E+00  1.60000000E+01
  1.00800000E+00  1.00800000E+00  1.60000000E+01  1.00800000E+00  1.00800000E+00
  1.60000000E+01  1.00800000E+00  1.00800000E+00  1.60000000E+01  1.00800000E+00
  1.00800000E+00  1.60000000E+01  1.00800000E+00  1.00800000E+00  1.60000000E+01
  1.00800000E+00  1.00800000E+00  1.60000000E+01  1.00800000E+00  1.00800000E+00
  1.60000000E+01  1.00800000E+00  1.00800000E+00  1.60000000E+01  1.00800000E+00
  1.00800000E+00  1.60000000E+01  1.00800000E+00  1.00800000E+00  1.60000000E+01
  1.00800000E+00  1.00800000E+00  1.60000000E+01  1.00800000E+00  1.00800000E+00
  1.60000000E+01  1.00800000E+00  1.00800000E+00  1.60000000E+01  1.00800000E+00
  1.00800000E+00  1.60000000E+01  1.00800000E+00  1.00800000E+00  1.60000000E+01
  1.00800000E+00  1.00800000E+00  1.60000000E+01  1.00800000E+00  1.00800000E+00
  1.60000000E+01  1.00800000E+00  1.00800000E+00  1.60000000E+01  1.00800000E+00
  1.00800000E+00  1.60000000E+01  1.00800000E+00  1.00800000E+00  1.60000000E+01
  1.00800000E+00  1.00800000E+00  1.60000000E+01  1.00800000E+00  1.00800000E+00
  1.60000000E+01  1.00800000E+00  1.00800000E+00  1.60000000E+01  1.00800000E+00
  1.00800000E+00  1.60000000E+01  1.00800000E+00  1.00800000E+00  1.60000000E+01
  1.00800000E+00  1.00800000E+00  1.60000000E+01  1.00800000E+00  1.00800000E+00
  1.60000000E+01  1.00800000E+00  1.00800000E+00  1.60000000E+01  1.00800000E+00
  1.00800000E+00  1.60000000E+01  1.00800000E+00  1.00800000E+00  1.60000000E+01
  1.00800000E+00  1.00800000E+00  1.60000000E+01  1.00800000E+00  1.00800000E+00
  1.60000000E+01  1.00800000E+00  1.00800000E+00  1.60000000E+01  1.00800000E+00
  1.00800000E+00  1.60000000E+01  1.00800000E+00  1.00800000E+00  1.60000000E+01
  1.00800000E+00  1.00800000E+00  1.60000000E+01  1.00800000E+00  1.00800000E+00
  1.60000000E+01  1.00800000E+00  1.00800000E+00  1.60000000E+01  1.00800000E+00
  1.00800000E+00  1.60000000E+01  1.00800000E+00  1.00800000E+00  1.60000000E+01
  1.00800000E+00  1.00800000E+00  1.60000000E+01  1.00800000E+00  1.00800000E+00
  1.60000000E+01  1.00800000E+00  1.00800000E+00  1.60000000E+01  1.00800000E+00
  1.00800000E+00  1.60000000E+01  1.00800000E+00  1.00800000E+00  1.60000000E+01
  1.00800000E+00  1.00800000E+00  1.60000000E+01  1.00800000E+00  1.00800000E+00
  1.60000000E+01  1.00800000E+00  1.00800000E+00  1.60000000E+01  1.00800000E+00
  1.00800000E+00  1.60000000E+01  1.00800000E+00  1.00800000E+00  1.60000000E+01
  1.00800000E+00  1.00800000E+00  1.60000000E+01  1.00800000E+00  1.00800000E+00
  1.60000000E+01  1.00800000E+00  1.00800000E+00  1.60000000E+01  1.00800000E+00
  1.00800000E+00  1.60000000E+01  1.00800000E+00  1.00800000E+00  1.60000000E+01
  1.00800000E+00  1.00800000E+00  1.60000000E+01  1.00800000E+00  1.00800000E+00
  1.60000000E+01  1.00800000E+00  1.00800000E+00  1.60000000E+01  1.00800000E+00
  1.00800000E+00  1.60000000E+01  1.00800000E+00  1.00800000E+00  1.60000000E+01
  1.00800000E+00  1.00800000E+00  1.60000000E+01  1.00800000E+00  1.00800000E+00
  1.60000000E+01  1.00800000E+00  1.00800000E+00  1.60000000E+01  1.00800000E+00
  1.00800000E+00  1.60000000E+01  1.00800000E+00  1.00800000E+00  1.60000000E+01
  1.00800000E+00  1.00800000E+00  1.60000000E+01  1.00800000E+00  1.00800000E+00
  1.60000000E+01  1.00800000E+00  1.00800000E+00  1.60000000E+01  1.00800000E+00
  1.00800000E+00  1.60000000E+01  1.00800000E+00  1.00800000E+00  1.60000000E+01
  1.00800000E+00  1.00800000E+00  1.60000000E+01  1.00800000E+00  1.00800000E+00
  1.60000000E+01  1.00800000E+00  1.00800000E+00  1.60000000E+01  1.00800000E+00
  1.00800000E+00  1.60000000E+01  1.00800000E+00  1.00800000E+00  1.60000000E+01
  1.00800000E+00  1.00800000E+00  1.60000000E+01  1.00800000E+00  1.00800000E+00
  1.60000000E+01  1.00800000E+00  1.00800000E+00  1.60000000E+01  1.00800000E+00
  1.00800000E+00  1.60000000E+01  1.00800000E+00  1.00800000E+00  1.60000000E+01
  1.00800000E+00  1.00800000E+00  1.60000000E+01  1.00800000E+00  1.00800000E+00
  1.60000000E+01  1.00800000E+00  1.00800000E+00  1.60000000E+01  1.00800000E+00
  1.00800000E+00  1.60000000E+01  1.00800000E+00  1.00800000E+00  1.60000000E+01
  1.00800000E+00  1.00800000E+00  1.60000000E+01  1.00800000E+00  1.00800000E+00
  1.60000000E+01  1.00800000E+00  1.00800000E+00  1.60000000E+01  1.00800000E+00
  1.00800000E+00  1.60000000E+01  1.00800000E+00  1.00800000E+00  1.60000000E+01
  1.00800000E+00  1.00800000E+00  1.60000000E+01  1.00800000E+00  1.00800000E+00
  1.60000000E+01  1.00800000E+00  1.00800000E+00  1.60000000E+01  1.00800000E+00
  1.00800000E+00  1.60000000E+01  1.00800000E+00  1.00800000E+00  1.60000000E+01
  1.00800000E+00  1.00800000E+00  1.60000000E+01  1.00800000E+00  1.00800000E+00
  1.60000000E+01  1.00800000E+00  1.00800000E+00  1.60000000E+01  1.00800000E+00
  1.00800000E+00  1.60000000E+01  1.00800000E+00  1.00800000E+00  1.60000000E+01
  1.00800000E+00  1.00800000E+00  1.60000000E+01  1.00800000E+00  1.00800000E+00
  1.60000000E+01  1.00800000E+00  1.00800000E+00  1.60000000E+01  1.00800000E+00
  1.00800000E+00  1.60000000E+01  1.00800000E+00  1.00800000E+00  1.60000000E+01
  1.00800000E+00  1.00800000E+00  1.60000000E+01  1.00800000E+00  1.00800000E+00
  1.60000000E+01  1.00800000E+00  1.00800000E+00  1.60000000E+01  1.00800000E+00
  1.00800000E+00  1.60000000E+01  1.00800000E+00  1.00800000E+00  1.60000000E+01
  1.00800000E+00  1.00800000E+00  1.60000000E+01  1.00800000E+00  1.00800000E+00
  1.60000000E+01  1.00800000E+00  1.00800000E+00  1.60000000E+01  1.00800000E+00
  1.00800000E+00  1.60000000E+01  1.00800000E+00  1.00800000E+00  1.60000000E+01
  1.00800000E+00  1.00800000E+00  1.60000000E+01  1.00800000E+00  1.00800000E+00
  1.60000000E+01  1.00800000E+00  1.00800000E+00  1.60000000E+01  1.00800000E+00
  1.00800000E+00  1.60000000E+01  1.00800000E+00  1.00800000E+00  1.60000000E+01
  1.00800000E+00  1.00800000E+00  1.60000000E+01  1.00800000E+00  1.00800000E+00
  1.60000000E+01  1.00800000E+00  1.00800000E+00  1.60000000E+01  1.00800000E+00
  1.00800000E+00  1.60000000E+01  1.00800000E+00  1.00800000E+00  1.60000000E+01
  1.00800000E+00  1.00800000E+00  1.60000000E+01  1.00800000E+00  1.00800000E+00
  1.60000000E+01  1.00800000E+00  1.00800000E+00  1.60000000E+01  1.00800000E+00
  1.00800000E+00  1.60000000E+01  1.00800000E+00  1.00800000E+00  1.60000000E+01
  1.00800000E+00  1.00800000E+00  1.60000000E+01  1.00800000E+00  1.00800000E+00
  1.60000000E+01  1.00800000E+00  1.00800000E+00  1.60000000E+01  1.00800000E+00
  1.00800000E+00  1.60000000E+01  1.00800000E+00  1.00800000E+00  1.60000000E+01
  1.00800000E+00  1.00800000E+00  1.60000000E+01  1.00800000E+00  1.00800000E+00
  1.60000000E+01  1.00800000E+00  1.00800000E+00  1.60000000E+01  1.00800000E+00
  1.00800000E+00  1.60000000E+01  1.00800000E+00  1.00800000E+00  1.60000000E+01
  1.00800000E+00  1.00800000E+00  1.60000000E+01  1.00800000E+00  1.00800000E+00
  1.60000000E+01  1.00800000E+00  1.00800000E+00  1.60000000E+01  1.00800000E+00
  1.00800000E+00  1.60000000E+01  1.00800000E+00  1.00800000E+00  1.60000000E+01
  1.00800000E+00  1.00800000E+00  1.60000000E+01  1.00800000E+00  1.00800000E+00
  1.60000000E+01  1.00800000E+00  1.00800000E+00  1.60000000E+01  1.00800000E+00
  1.00800000E+00  1.60000000E+01  1.00800000E+00  1.00800000E+00  1.60000000E+01
  1.00800000E+00  1.00800000E+00  1.60000000E+01  1.00800000E+00  1.00800000E+00
  1.60000000E+01  1.00800000E+00  1.00800000E+00  1.60000000E+01  1.00800000E+00
  1.00800000E+00  1.60000000E+01  1.00800000E+00  1.00800000E+00  1.60000000E+01
  1.00800000E+00  1.00800000E+00  1.60000000E+01  1.00800000E+00  1.00800000E+00
  1.60000000E+01  1.00800000E+00  1.00800000E+00  1.60000000E+01  1.00800000E+00
  1.00800000E+00  1.60000000E+01  1.00800000E+00  1.00800000E+00  1.60000000E+01
  1.00800000E+00  1.00800000E+00  1.60000000E+01  1.00800000E+00  1.00800000E+00
  1.60000000E+01  1.00800000E+00  1.00800000E+00  1.60000000E+01  1.00800000E+00
  1.00800000E+00  1.60000000E+01  1.00800000E+00  1.00800000E+00  1.60000000E+01
  1.00800000E+00  1.00800000E+00  1.60000000E+01  1.00800000E+00  1.00800000E+00
  1.60000000E+01  1.00800000E+00  1.00800000E+00  1.60000000E+01  1.00800000E+00
  1.00800000E+00  1.60000000E+01  1.00800000E+00  1.00800000E+00  1.60000000E+01
  1.00800000E+00  1.00800000E+00  1.60000000E+01  1.00800000E+00  1.00800000E+00
  1.60000000E+01  1.00800000E+00  1.00800000E+00  1.60000000E+01  1.00800000E+00
  1.00800000E+00  1.60000000E+01  1.00800000E+00  1.00800000E+00  1.60000000E+01
  1.00800000E+00  1.00800000E+00  1.60000000E+01  1.00800000E+00  1.00800000E+00
  1.60000000E+01  1.00800000E+00  1.00800000E+00  1.60000000E+01  1.00800000E+00
  1.00800000E+00  1.60000000E+01  1.00800000E+00  1.00800000E+00  1.60000000E+01
  1.00800000E+00  1.00800000E+00  1.60000000E+01  1.00800000E+00  1.00800000E+00
  1.60000000E+01  1.00800000E+00  1.00800000E+00  1.60000000E+01  1.00800000E+00
  1.00800000E+00  1.60000000E+01  1.00800000E+00  1.00800000E+00  1.60000000E+01
  1.00800000E+00  1.00800000E+00  1.60000000E+01  1.00800000E+00  1.00800000E+00
  1.60000000E+01  1.00800000E+00  1.00800000E+00  1.60000000E+01  1.00800000E+00
  1.00800000E+00  1.60000000E+01  1.00800000E+00  1.00800000E+00  1.60000000E+01
  1.00800000E+00  1.00800000E+00  1.60000000E+01  1.00800000E+00  1.00800000E+00
  1.60000000E+01  1.00800000E+00  1.00800000E+00  1.60000000E+01  1.00800000E+00
  1.00800000E+00  1.60000000E+01  1.00800000E+00  1.00800000E+00  1.60000000E+01
  1.00800000E+00  1.00800000E+00  1.60000000E+01  1.00800000E+00  1.00800000E+00
  1.60000000E+01  1.00800000E+00  1.00800000E+00  1.60000000E+01  1.00800000E+00
  1.00800000E+00  1.60000000E+01  1.00800000E+00  1.00800000E+00  1.60000000E+01
  1.00800000E+00  1.00800000E+00  1.60000000E+01  1.00800000E+00  1.00800000E+00
  1.60000000E+01  1.00800000E+00  1.00800000E+00  1.60000000E+01  1.00800000E+00
  1.00800000E+00  1.60000000E+01  1.00800000E+00  1.00800000E+00  1.60000000E+01
  1.00800000E+00  1.00800000E+00  1.60000000E+01  1.00800000E+00  1.00800000E+00
  1.60000000E+01  1.00800000E+00  1.00800000E+00  1.60000000E+01  1.00800000E+00
  1.00800000E+00  1.60000000E+01  1.00800000E+00  1.00800000E+00  1.60000000E+01
  1.00800000E+00  1.00800000E+00  1.60000000E+01  1.00800000E+00  1.00800000E+00
  1.60000000E+01  1.00800000E+00  1.00800000E+00  1.60000000E+01  1.00800000E+00
  1.00800000E+00  1.60000000E+01  1.00800000E+00  1.00800000E+00  1.60000000E+01
  1.00800000E+00  1.00800000E+00  1.60000000E+01  1.00800000E+00  1.00800000E+00
  1.60000000E+01  1.00800000E+00  1.00800000E+00  1.60000000E+01  1.00800000E+00
  1.00800000E+00  1.60000000E+01  1.00800000E+00  1.00800000E+00  1.60000000E+01
  1.00800000E+00  1.00800000E+00  1.60000000E+01  1.00800000E+00  1.00800000E+00
  1.60000000E+01  1.00800000E+00  1.00800000E+00  1.60000000E+01  1.00800000E+00
  1.00800000E+00  1.60000000E+01  1.00800000E+00  1.00800000E+00  1.60000000E+01
  1.00800000E+00  1.00800000E+00  1.60000000E+01  1.00800000E+00  1.00800000E+00
  1.60000000E+01  1.00800000E+00  1.00800000E+00  1.60000000E+01  1.00800000E+00
  1.00800000E+00  1.60000000E+01  1.00800000E+00  1.00800000E+00  1.60000000E+01
  1.00800000E+00  1.00800000E+00  1.60000000E+01  1.00800000E+00  1.00800000E+00
  1.60000000E+01  1.00800000E+00  1.00800000E+00  1.60000000E+01  1.00800000E+00
  1.00800000E+00  1.60000000E+01  1.00800000E+00  1.00800000E+00  1.60000000E+01
  1.00800000E+00  1.00800000E+00  1.60000000E+01  1.00800000E+00  1.00800000E+00
  1.60000000E+01  1.00800000E+00  1.00800000E+00  1.60000000E+01  1.00800000E+00
  1.00800000E+00  1.60000000E+01  1.00800000E+00  1.00800000E+00  1.60000000E+01
  1.00800000E+00  1.00800000E+00  1.60000000E+01  1.00800000E+00  1.00800000E+00
  1.60000000E+01  1.00800000E+00  1.00800000E+00  1.60000000E+01  1.00800000E+00
  1.00800000E+00  1.60000000E+01  1.00800000E+00  1.00800000E+00  1.60000000E+01
  1.00800000E+00  1.00800000E+00  1.60000000E+01  1.00800000E+00  1.00800000E+00
  1.60000000E+01  1.00800000E+00  1.00800000E+00  1.60000000E+01  1.00800000E+00
  1.00800000E+00  1.60000000E+01  1.00800000E+00  1.00800000E+00  1.60000000E+01
  1.00800000E+00  1.00800000E+00  1.60000000E+01  1.00800000E+00  1.00800000E+00
  1.60000000E+01  1.00800000E+00  1.00800000E+00  1.60000000E+01  1.00800000E+00
  1.00800000E+00  1.60000000E+01  1.00800000E+00  1.00800000E+00  1.60000000E+01
  1.00800000E+00  1.00800000E+00  1.60000000E+01  1.00800000E+00  1.00800000E+00
  1.60000000E+01  1.00800000E+00  1.00800000E+00  1.60000000E+01  1.00800000E+00
  1.00800000E+00  1.60000000E+01  1.00800000E+00  1.00800000E+00  1.60000000E+01
  1.00800000E+00  1.00800000E+00  1.60000000E+01  1.00800000E+00  1.00800000E+00
  1.60000000E+01  1.00800000E+00  1.00800000E+00  1.60000000E+01  1.00800000E+00
  1.00800000E+00  1.60000000E+01  1.00800000E+00  1.00800000E+00  1.60000000E+01
  1.00800000E+00  1.00800000E+00  1.60000000E+01  1.00800000E+00  1.00800000E+00
  1.60000000E+01  1.00800000E+00  1.00800000E+00  1.60000000E+01  1.00800000E+00
  1.00800000E+00  1.60000000E+01  1.00800000E+00  1.00800000E+00  1.60000000E+01
  1.00800000E+00  1.00800000E+00  1.60000000E+01  1.00800000E+00  1.00800000E+00
  1.60000000E+01  1.00800000E+00  1.00800000E+00  1.60000000E+01  1.00800000E+00
  1.00800000E+00  1.60000000E+01  1.00800000E+00  1.00800000E+00  1.60000000E+01
  1.00800000E+00  1.00800000E+00  1.60000000E+01  1.00800000E+00  1.00800000E+00
  1.60000000E+01  1.00800000E+00  1.00800000E+00  1.60000000E+01  1.00800000E+00
  1.00800000E+00  1.60000000E+01  1.00800000E+00  1.00800000E+00  1.60000000E+01
  1.00800000E+00  1.00800000E+00  1.60000000E+01  1.00800000E+00  1.00800000E+00
  1.60000000E+01  1.00800000E+00  1.00800000E+00  1.60000000E+01  1.00800000E+00
  1.00800000E+00  1.60000000E+01  1.00800000E+00  1.00800000E+00  1.60000000E+01
  1.00800000E+00  1.00800000E+00  1.60000000E+01  1.00800000E+00  1.00800000E+00
  1.60000000E+01  1.00800000E+00  1.00800000E+00  1.60000000E+01  1.00800000E+00
  1.00800000E+00  1.60000000E+01  1.00800000E+00  1.00800000E+00  1.60000000E+01
  1.00800000E+00  1.00800000E+00  1.60000000E+01  1.00800000E+00  1.00800000E+00
  1.60000000E+01  1.00800000E+00  1.00800000E+00  1.60000000E+01  1.00800000E+00
  1.00800000E+00  1.60000000E+01  1.00800000E+00  1.00800000E+00  1.60000000E+01
  1.00800000E+00  1.00800000E+00  1.60000000E+01  1.00800000E+00  1.00800000E+00
  1.60000000E+01  1.00800000E+00  1.00800000E+00  1.60000000E+01  1.00800000E+00
  1.00800000E+00  1.60000000E+01  1.00800000E+00  1.00800000E+00  1.60000000E+01
  1.00800000E+00  1.00800000E+00  1.60000000E+01  1.00800000E+00  1.00800000E+00
  1.60000000E+01  1.00800000E+00  1.00800000E+00  1.60000000E+01  1.00800000E+00
  1.00800000E+00  1.60000000E+01  1.00800000E+00  1.00800000E+00  1.60000000E+01
  1.00800000E+00  1.00800000E+00  1.60000000E+01  1.00800000E+00  1.00800000E+00
  1.60000000E+01  1.00800000E+00  1.00800000E+00  1.60000000E+01  1.00800000E+00
  1.00800000E+00  1.60000000E+01  1.00800000E+00  1.00800000E+00  1.60000000E+01
  1.00800000E+00  1.00800000E+00  1.60000000E+01  1.00800000E+00  1.00800000E+00
  1.60000000E+01  1.00800000E+00  1.00800000E+00  1.60000000E+01  1.00800000E+00
  1.00800000E+00  1.60000000E+01  1.00800000E+00  1.00800000E+00  1.60000000E+01
  1.00800000E+00  1.00800000E+00  1.60000000E+01  1.00800000E+00  1.00800000E+00
  1.60000000E+01  1.00800000E+00  1.00800000E+00  1.60000000E+01  1.00800000E+00
  1.00800000E+00  1.60000000E+01  1.00800000E+00  1.00800000E+00  1.60000000E+01
  1.00800000E+00  1.00800000E+00  1.60000000E+01  1.00800000E+00  1.00800000E+00
  1.60000000E+01  1.00800000E+00  1.00800000E+00  1.60000000E+01  1.00800000E+00
  1.00800000E+00  1.60000000E+01  1.00800000E+00  1.00800000E+00  1.60000000E+01
  1.00800000E+00  1.00800000E+00  1.60000000E+01  1.00800000E+00  1.00800000E+00
  1.60000000E+01  1.00800000E+00  1.00800000E+00  1.60000000E+01  1.00800000E+00
  1.00800000E+00  1.60000000E+01  1.00800000E+00  1.00800000E+00  1.60000000E+01
  1.00800000E+00  1.00800000E+00  1.60000000E+01  1.00800000E+00  1.00800000E+00
  1.60000000E+01  1.00800000E+00  1.00800000E+00  1.60000000E+01  1.00800000E+00
  1.00800000E+00  1.60000000E+01  1.00800000E+00  1.00800000E+00  1.60000000E+01
  1.00800000E+00  1.00800000E+00  1.60000000E+01  1.00800000E+00  1.00800000E+00
  1.60000000E+01  1.00800000E+00  1.00800000E+00  1.60000000E+01  1.00800000E+00
  1.00800000E+00  1.60000000E+01  1.00800000E+00  1.00800000E+00  1.60000000E+01
  1.00800000E+00  1.00800000E+00  1.60000000E+01  1.00800000E+00  1.00800000E+00
  1.60000000E+01  1.00800000E+00  1.00800000E+00  1.60000000E+01  1.00800000E+00
  1.00800000E+00  1.60000000E+01  1.00800000E+00  1.00800000E+00  1.60000000E+01
  1.00800000E+00  1.00800000E+00  1.60000000E+01  1.00800000E+00  1.00800000E+00
  1.60000000E+01  1.00800000E+00  1.00800000E+00  1.60000000E+01  1.00800000E+00
  1.00800000E+00  1.60000000E+01  1.00800000E+00  1.00800000E+00  1.60000000E+01
  1.00800000E+00  1.00800000E+00  1.60000000E+01  1.00800000E+00  1.00800000E+00
  1.60000000E+01  1.00800000E+00  1.00800000E+00  1.60000000E+01  1.00800000E+00
  1.00800000E+00  1.60000000E+01  1.00800000E+00  1.00800000E+00  1.60000000E+01
  1.00800000E+00  1.00800000E+00  1.60000000E+01  1.00800000E+00  1.00800000E+00
  1.60000000E+01  1.00800000E+00  1.00800000E+00  1.60000000E+01  1.00800000E+00
  1.00800000E+00  1.60000000E+01  1.00800000E+00  1.00800000E+00  1.60000000E+01
  1.00800000E+00  1.00800000E+00  1.60000000E+01  1.00800000E+00  1.00800000E+00
  1.60000000E+01  1.00800000E+00  1.00800000E+00  1.60000000E+01  1.00800000E+00
  1.00800000E+00  1.60000000E+01  1.00800000E+00  1.00800000E+00  1.60000000E+01
  1.00800000E+00  1.00800000E+00  1.60000000E+01  1.00800000E+00  1.00800000E+00
  1.60000000E+01  1.00800000E+00  1.00800000E+00  1.60000000E+01  1.00800000E+00
  1.00800000E+00  1.60000000E+01  1.00800000E+00  1.00800000E+00  1.60000000E+01
  1.00800000E+00  1.00800000E+00  1.60000000E+01  1.00800000E+00  1.00800000E+00
  1.60000000E+01  1.00800000E+00  1.00800000E+00  1.60000000E+01  1.00800000E+00
  1.00800000E+00  1.60000000E+01  1.00800000E+00  1.00800000E+00  1.60000000E+01
  1.00800000E+00  1.00800000E+00  1.60000000E+01  1.00800000E+00  1.00800000E+00
  1.60000000E+01  1.00800000E+00  1.00800000E+00  1.60000000E+01  1.00800000E+00
  1.00800000E+00  1.60000000E+01  1.00800000E+00  1.00800000E+00  1.60000000E+01
  1.00800000E+00  1.00800000E+00  1.60000000E+01  1.00800000E+00  1.00800000E+00
  1.60000000E+01  1.00800000E+00  1.00800000E+00  1.60000000E+01  1.00800000E+00
  1.00800000E+00  1.60000000E+01  1.00800000E+00  1.00800000E+00  1.60000000E+01
  1.00800000E+00  1.00800000E+00  1.60000000E+01  1.00800000E+00  1.00800000E+00
  1.60000000E+01  1.00800000E+00  1.00800000E+00  1.60000000E+01  1.00800000E+00
  1.00800000E+00  1.60000000E+01  1.00800000E+00  1.00800000E+00  1.60000000E+01
  1.00800000E+00  1.00800000E+00  1.60000000E+01  1.00800000E+00  1.00800000E+00
  1.60000000E+01  1.00800000E+00  1.00800000E+00  1.60000000E+01  1.00800000E+00
  1.00800000E+00  1.60000000E+01  1.00800000E+00  1.00800000E+00  1.60000000E+01
  1.00800000E+00  1.00800000E+00  1.60000000E+01  1.00800000E+00  1.00800000E+00
  1.60000000E+01  1.00800000E+00  1.00800000E+00  1.60000000E+01  1.00800000E+00
  1.00800000E+00  1.60000000E+01  1.00800000E+00  1.00800000E+00  1.60000000E+01
  1.00800000E+00  1.00800000E+00  1.60000000E+01  1.00800000E+00  1.00800000E+00
  1.60000000E+01  1.00800000E+00  1.00800000E+00  1.60000000E+01  1.00800000E+00
  1.00800000E+00  1.60000000E+01  1.00800000E+00  1.00800000E+00  1.60000000E+01
  1.00800000E+00  1.00800000E+00  1.60000000E+01  1.00800000E+00  1.00800000E+00
  1.60000000E+01  1.00800000E+00  1.00800000E+00  1.60000000E+01  1.00800000E+00
  1.00800000E+00  1.60000000E+01  1.00800000E+00  1.00800000E+00  1.60000000E+01
  1.00800000E+00  1.00800000E+00  1.60000000E+01  1.00800000E+00  1.00800000E+00
  1.60000000E+01  1.00800000E+00  1.00800000E+00  1.60000000E+01  1.00800000E+00
  1.00800000E+00  1.60000000E+01  1.00800000E+00  1.00800000E+00  1.60000000E+01
  1.00800000E+00  1.00800000E+00  1.60000000E+01  1.00800000E+00  1.00800000E+00
  1.60000000E+01  1.00800000E+00  1.00800000E+00  1.60000000E+01  1.00800000E+00
  1.00800000E+00  1.60000000E+01  1.00800000E+00  1.00800000E+00  1.60000000E+01
  1.00800000E+00  1.00800000E+00  1.60000000E+01  1.00800000E+00  1.00800000E+00
  1.60000000E+01  1.00800000E+00  1.00800000E+00  1.60000000E+01  1.00800000E+00
  1.00800000E+00  1.60000000E+01  1.00800000E+00  1.00800000E+00  1.60000000E+01
  1.00800000E+00  1.00800000E+00  1.60000000E+01  1.00800000E+00  1.00800000E+00
  1.60000000E+01  1.00800000E+00  1.00800000E+00  1.60000000E+01  1.00800000E+00
  1.00800000E+00  1.60000000E+01  1.00800000E+00  1.00800000E+00  1.60000000E+01
  1.00800000E+00  1.00800000E+00  1.60000000E+01  1.00800000E+00  1.00800000E+00
  1.60000000E+01  1.00800000E+00  1.00800000E+00  1.60000000E+01  1.00800000E+00
  1.00800000E+00  1.60000000E+01  1.00800000E+00  1.00800000E+00  1.60000000E+01
  1.00800000E+00  1.00800000E+00  1.60000000E+01  1.00800000E+00  1.00800000E+00
  1.60000000E+01  1.00800000E+00  1.00800000E+00  1.60000000E+01  1.00800000E+00
  1.00800000E+00  1.60000000E+01  1.00800000E+00  1.00800000E+00  1.60000000E+01
  1.00800000E+00  1.00800000E+00  1.60000000E+01  1.00800000E+00  1.00800000E+00
  1.60000000E+01  1.00800000E+00  1.00800000E+00  1.60000000E+01  1.00800000E+00
  1.00800000E+00  1.60000000E+01  1.00800000E+00  1.00800000E+00  1.60000000E+01
  1.00800000E+00  1.00800000E+00  1.60000000E+01  1.00800000E+00  1.00800000E+00
  1.60000000E+01  1.00800000E+00  1.00800000E+00  1.60000000E+01  1.00800000E+00
  1.00800000E+00  1.60000000E+01  1.00800000E+00  1.00800000E+00  1.60000000E+01
  1.00800000E+00  1.00800000E+00  1.60000000E+01  1.00800000E+00  1.00800000E+00
  1.60000000E+01  1.00800000E+00  1.00800000E+00  1.60000000E+01  1.00800000E+00
  1.00800000E+00  1.60000000E+01  1.00800000E+00  1.00800000E+00  1.60000000E+01
  1.00800000E+00  1.00800000E+00  1.60000000E+01  1.00800000E+00  1.00800000E+00
  1.60000000E+01  1.00800000E+00  1.00800000E+00  1.60000000E+01  1.00800000E+00
  1.00800000E+00  1.60000000E+01  1.00800000E+00  1.00800000E+00  1.60000000E+01
  1.00800000E+00  1.00800000E+00  1.60000000E+01  1.00800000E+00  1.00800000E+00
  1.60000000E+01  1.00800000E+00  1.00800000E+00  1.60000000E+01  1.00800000E+00
  1.00800000E+00  1.60000000E+01  1.00800000E+00  1.00800000E+00  1.60000000E+01
  1.00800000E+00  1.00800000E+00  1.60000000E+01  1.00800000E+00  1.00800000E+00
  1.60000000E+01  1.00800000E+00  1.00800000E+00  1.60000000E+01  1.00800000E+00
  1.00800000E+00  1.60000000E+01  1.00800000E+00  1.00800000E+00  1.60000000E+01
  1.00800000E+00  1.00800000E+00  1.60000000E+01  1.00800000E+00  1.00800000E+00
  1.60000000E+01  1.00800000E+00  1.00800000E+00  1.60000000E+01  1.00800000E+00
  1.00800000E+00  1.60000000E+01  1.00800000E+00  1.00800000E+00  1.60000000E+01
  1.00800000E+00  1.00800000E+00  1.60000000E+01  1.00800000E+00  1.00800000E+00
  1.60000000E+01  1.00800000E+00  1.00800000E+00  1.60000000E+01  1.00800000E+00
  1.00800000E+00  1.60000000E+01  1.00800000E+00  1.00800000E+00  1.60000000E+01
  1.00800000E+00  1.00800000E+00  1.60000000E+01  1.00800000E+00  1.00800000E+00
  1.60000000E+01  1.00800000E+00  1.00800000E+00  1.60000000E+01  1.00800000E+00
  1.00800000E+00  1.60000000E+01  1.00800000E+00  1.00800000E+00  1.60000000E+01
  1.00800000E+00  1.00800000E+00  1.60000000E+01  1.00800000E+00  1.00800000E+00
  1.60000000E+01  1.00800000E+00  1.00800000E+00  1.60000000E+01  1.00800000E+00
  1.00800000E+00  1.60000000E+01  1.00800000E+00  1.00800000E+00  1.60000000E+01
  1.00800000E+00  1.00800000E+00  1.60000000E+01  1.00800000E+00  1.00800000E+00
  1.60000000E+01  1.00800000E+00  1.00800000E+00  1.60000000E+01  1.00800000E+00
  1.00800000E+00  1.60000000E+01  1.00800000E+00  1.00800000E+00  1.60000000E+01
  1.00800000E+00  1.00800000E+00  1.60000000E+01  1.00800000E+00  1.00800000E+00
  1.60000000E+01  1.00800000E+00  1.00800000E+00  1.60000000E+01  1.00800000E+00
  1.00800000E+00  1.60000000E+01  1.00800000E+00  1.00800000E+00  1.60000000E+01
  1.00800000E+00  1.00800000E+00  1.60000000E+01  1.00800000E+00  1.00800000E+00
  1.60000000E+01  1.00800000E+00  1.00800000E+00  1.60000000E+01  1.00800000E+00
  1.00800000E+00  1.60000000E+01  1.00800000E+00  1.00800000E+00  1.60000000E+01
  1.00800000E+00  1.00800000E+00  1.60000000E+01  1.00800000E+00  1.00800000E+00
  1.60000000E+01  1.00800000E+00  1.00800000E+00  1.60000000E+01  1.00800000E+00
  1.00800000E+00  1.60000000E+01  1.00800000E+00  1.00800000E+00  1.60000000E+01
  1.00800000E+00  1.00800000E+00  1.60000000E+01  1.00800000E+00  1.00800000E+00
  1.60000000E+01  1.00800000E+00  1.00800000E+00  1.60000000E+01  1.00800000E+00
  1.00800000E+00  1.60000000E+01  1.00800000E+00  1.00800000E+00  1.60000000E+01
  1.00800000E+00  1.00800000E+00  1.60000000E+01  1.00800000E+00  1.00800000E+00
  1.60000000E+01  1.00800000E+00  1.00800000E+00  1.60000000E+01  1.00800000E+00
  1.00800000E+00  1.60000000E+01  1.00800000E+00  1.00800000E+00  1.60000000E+01
  1.00800000E+00  1.00800000E+00  1.60000000E+01  1.00800000E+00  1.00800000E+00
  1.60000000E+01  1.00800000E+00  1.00800000E+00  1.60000000E+01  1.00800000E+00
  1.00800000E+00  1.60000000E+01  1.00800000E+00  1.00800000E+00  1.60000000E+01
  1.00800000E+00  1.00800000E+00  1.60000000E+01  1.00800000E+00  1.00800000E+00
  1.60000000E+01  1.00800000E+00  1.00800000E+00  1.60000000E+01  1.00800000E+00
  1.00800000E+00  1.60000000E+01  1.00800000E+00  1.00800000E+00  1.60000000E+01
  1.00800000E+00  1.00800000E+00  1.60000000E+01  1.00800000E+00  1.00800000E+00
  1.60000000E+01  1.00800000E+00  1.00800000E+00  1.60000000E+01  1.00800000E+00
  1.00800000E+00  1.60000000E+01  1.00800000E+00  1.00800000E+00  1.60000000E+01
  1.00800000E+00  1.00800000E+00  1.60000000E+01  1.00800000E+00  1.00800000E+00
  1.60000000E+01  1.00800000E+00  1.00800000E+00  1.60000000E+01  1.00800000E+00
  1.00800000E+00  1.60000000E+01  1.00800000E+00  1.00800000E+00  1.60000000E+01
  1.00800000E+00  1.00800000E+00  1.60000000E+01  1.00800000E+00  1.00800000E+00
  1.60000000E+01  1.00800000E+00  1.00800000E+00  1.60000000E+01  1.00800000E+00
  1.00800000E+00  1.60000000E+01  1.00800000E+00  1.00800000E+00  1.60000000E+01
  1.00800000E+00  1.00800000E+00  1.60000000E+01  1.00800000E+00  1.00800000E+00
  1.60000000E+01  1.00800000E+00  1.00800000E+00  1.60000000E+01  1.00800000E+00
  1.00800000E+00  1.60000000E+01  1.00800000E+00  1.00800000E+00  1.60000000E+01
  1.00800000E+00  1.00800000E+00  1.60000000E+01  1.00800000E+00  1.00800000E+00
  1.60000000E+01  1.00800000E+00  1.00800000E+00  1.60000000E+01  1.00800000E+00
  1.00800000E+00  1.60000000E+01  1.00800000E+00  1.00800000E+00  1.60000000E+01
  1.00800000E+00  1.00800000E+00  1.60000000E+01  1.00800000E+00  1.00800000E+00
  1.60000000E+01  1.00800000E+00  1.00800000E+00  1.60000000E+01  1.00800000E+00
  1.00800000E+00  1.60000000E+01  1.00800000E+00  1.00800000E+00  1.60000000E+01
  1.00800000E+00  1.00800000E+00  1.60000000E+01  1.00800000E+00  1.00800000E+00
  1.60000000E+01  1.00800000E+00  1.00800000E+00  1.60000000E+01  1.00800000E+00
  1.00800000E+00  1.60000000E+01  1.00800000E+00  1.00800000E+00  1.60000000E+01
  1.00800000E+00  1.00800000E+00  1.60000000E+01  1.00800000E+00  1.00800000E+00
  1.60000000E+01  1.00800000E+00  1.00800000E+00  1.60000000E+01  1.00800000E+00
  1.00800000E+00  1.60000000E+01  1.00800000E+00  1.00800000E+00  1.60000000E+01
  1.00800000E+00  1.00800000E+00  1.60000000E+01  1.00800000E+00  1.00800000E+00
  1.60000000E+01  1.00800000E+00  1.00800000E+00  1.60000000E+01  1.00800000E+00
  1.00800000E+00  1.60000000E+01  1.00800000E+00  1.00800000E+00  1.60000000E+01
  1.00800000E+00  1.00800000E+00  1.60000000E+01  1.00800000E+00  1.00800000E+00
  1.60000000E+01  1.00800000E+00  1.00800000E+00  1.60000000E+01  1.00800000E+00
  1.00800000E+00  1.60000000E+01  1.00800000E+00  1.00800000E+00  1.60000000E+01
  1.00800000E+00  1.00800000E+00  1.60000000E+01  1.00800000E+00  1.00800000E+00
  1.60000000E+01  1.00800000E+00  1.00800000E+00  1.60000000E+01  1.00800000E+00
  1.00800000E+00  1.60000000E+01  1.00800000E+00  1.00800000E+00  1.60000000E+01
  1.00800000E+00  1.00800000E+00  1.60000000E+01  1.00800000E+00  1.00800000E+00
  1.60000000E+01  1.00800000E+00  1.00800000E+00  1.60000000E+01  1.00800000E+00
  1.00800000E+00  1.60000000E+01  1.00800000E+00  1.00800000E+00  1.60000000E+01
  1.00800000E+00  1.00800000E+00  1.60000000E+01  1.00800000E+00  1.00800000E+00
  1.60000000E+01  1.00800000E+00  1.00800000E+00  1.60000000E+01  1.00800000E+00
  1.00800000E+00  1.60000000E+01  1.00800000E+00  1.00800000E+00  1.60000000E+01
  1.00800000E+00  1.00800000E+00  1.60000000E+01  1.00800000E+00  1.00800000E+00
  1.60000000E+01  1.00800000E+00  1.00800000E+00  1.60000000E+01  1.00800000E+00
  1.00800000E+00  1.60000000E+01  1.00800000E+00  1.00800000E+00  1.60000000E+01
  1.00800000E+00  1.00800000E+00  1.60000000E+01  1.00800000E+00  1.00800000E+00
  1.60000000E+01  1.00800000E+00  1.00800000E+00  1.60000000E+01  1.00800000E+00
  1.00800000E+00  1.60000000E+01  1.00800000E+00  1.00800000E+00  1.60000000E+01
  1.00800000E+00  1.00800000E+00  1.60000000E+01  1.00800000E+00  1.00800000E+00
  1.60000000E+01  1.00800000E+00  1.00800000E+00  1.60000000E+01  1.00800000E+00
  1.00800000E+00  1.60000000E+01  1.00800000E+00  1.00800000E+00  1.60000000E+01
  1.00800000E+00  1.00800000E+00  1.60000000E+01  1.00800000E+00  1.00800000E+00
  1.60000000E+01  1.00800000E+00  1.00800000E+00  1.60000000E+01  1.00800000E+00
  1.00800000E+00  1.60000000E+01  1.00800000E+00  1.00800000E+00  1.60000000E+01
  1.00800000E+00  1.00800000E+00  1.60000000E+01  1.00800000E+00  1.00800000E+00
  1.60000000E+01  1.00800000E+00  1.00800000E+00  1.60000000E+01  1.00800000E+00
  1.00800000E+00  1.60000000E+01  1.00800000E+00  1.00800000E+00  1.60000000E+01
  1.00800000E+00  1.00800000E+00  1.60000000E+01  1.00800000E+00  1.00800000E+00
  1.60000000E+01  1.00800000E+00  1.00800000E+00  1.60000000E+01  1.00800000E+00
  1.00800000E+00  1.60000000E+01  1.00800000E+00  1.00800000E+00  1.60000000E+01
  1.00800000E+00  1.00800000E+00  1.60000000E+01  1.00800000E+00  1.00800000E+00
  1.60000000E+01  1.00800000E+00  1.00800000E+00  1.60000000E+01  1.00800000E+00
  1.00800000E+00  1.60000000E+01  1.00800000E+00  1.00800000E+00  1.60000000E+01
  1.00800000E+00  1.00800000E+00  1.60000000E+01  1.00800000E+00  1.00800000E+00
  1.60000000E+01  1.00800000E+00  1.00800000E+00  1.60000000E+01  1.00800000E+00
  1.00800000E+00  1.60000000E+01  1.00800000E+00  1.00800000E+00  1.60000000E+01
  1.00800000E+00  1.00800000E+00  1.60000000E+01  1.00800000E+00  1.00800000E+00
  1.60000000E+01  1.00800000E+00  1.00800000E+00  1.60000000E+01  1.00800000E+00
  1.00800000E+00  1.60000000E+01  1.00800000E+00  1.00800000E+00  1.60000000E+01
  1.00800000E+00  1.00800000E+00  1.60000000E+01  1.00800000E+00  1.00800000E+00
  1.60000000E+01  1.00800000E+00  1.00800000E+00  1.60000000E+01  1.00800000E+00
  1.00800000E+00  1.60000000E+01  1.00800000E+00  1.00800000E+00  1.60000000E+01
  1.00800000E+00  1.00800000E+00  1.60000000E+01  1.00800000E+00  1.00800000E+00
  1.60000000E+01  1.00800000E+00  1.00800000E+00  1.60000000E+01  1.00800000E+00
  1.00800000E+00  1.60000000E+01  1.00800000E+00  1.00800000E+00  1.60000000E+01
  1.00800000E+00  1.00800000E+00  1.60000000E+01  1.00800000E+00  1.00800000E+00
  1.60000000E+01  1.00800000E+00  1.00800000E+00  1.60000000E+01  1.00800000E+00
  1.00800000E+00  1.60000000E+01  1.00800000E+00  1.00800000E+00  1.60000000E+01
  1.00800000E+00  1.00800000E+00  1.60000000E+01  1.00800000E+00  1.00800000E+00
  1.60000000E+01  1.00800000E+00  1.00800000E+00  1.60000000E+01  1.00800000E+00
  1.00800000E+00  1.60000000E+01  1.00800000E+00  1.00800000E+00  1.60000000E+01
  1.00800000E+00  1.00800000E+00  1.60000000E+01  1.00800000E+00  1.00800000E+00
  1.60000000E+01  1.00800000E+00  1.00800000E+00  1.60000000E+01  1.00800000E+00
  1.00800000E+00  1.60000000E+01  1.00800000E+00  1.00800000E+00  1.60000000E+01
  1.00800000E+00  1.00800000E+00  1.60000000E+01  1.00800000E+00  1.00800000E+00
  1.60000000E+01  1.00800000E+00  1.00800000E+00  1.60000000E+01  1.00800000E+00
  1.00800000E+00  1.60000000E+01  1.00800000E+00  1.00800000E+00  1.60000000E+01
  1.00800000E+00  1.00800000E+00  1.60000000E+01  1.00800000E+00  1.00800000E+00
  1.60000000E+01  1.00800000E+00  1.00800000E+00  1.60000000E+01  1.00800000E+00
  1.00800000E+00  1.60000000E+01  1.00800000E+00  1.00800000E+00  1.60000000E+01
  1.00800000E+00  1.00800000E+00  1.60000000E+01  1.00800000E+00  1.00800000E+00
  1.60000000E+01  1.00800000E+00  1.00800000E+00  1.60000000E+01  1.00800000E+00
  1.00800000E+00  1.60000000E+01  1.00800000E+00  1.00800000E+00  1.60000000E+01
  1.00800000E+00  1.00800000E+00  1.60000000E+01  1.00800000E+00  1.00800000E+00
  1.60000000E+01  1.00800000E+00  1.00800000E+00  1.60000000E+01  1.00800000E+00
  1.00800000E+00  1.60000000E+01  1.00800000E+00  1.00800000E+00  1.60000000E+01
  1.00800000E+00  1.00800000E+00  1.60000000E+01  1.00800000E+00  1.00800000E+00
  1.60000000E+01  1.00800000E+00  1.00800000E+00  1.60000000E+01  1.00800000E+00
  1.00800000E+00  1.60000000E+01  1.00800000E+00  1.00800000E+00  1.60000000E+01
  1.00800000E+00  1.00800000E+00  1.60000000E+01  1.00800000E+00  1.00800000E+00
  1.60000000E+01  1.00800000E+00  1.00800000E+00  1.60000000E+01  1.00800000E+00
  1.00800000E+00  1.60000000E+01  1.00800000E+00  1.00800000E+00  1.60000000E+01
  1.00800000E+00  1.00800000E+00  1.60000000E+01  1.00800000E+00  1.00800000E+00
  1.60000000E+01  1.00800000E+00  1.00800000E+00  1.60000000E+01  1.00800000E+00
  1.00800000E+00  1.60000000E+01  1.00800000E+00  1.00800000E+00  1.60000000E+01
  1.00800000E+00  1.00800000E+00  1.60000000E+01  1.00800000E+00  1.00800000E+00
  1.60000000E+01  1.00800000E+00  1.00800000E+00  1.60000000E+01  1.00800000E+00
  1.00800000E+00  1.60000000E+01  1.00800000E+00  1.00800000E+00  1.60000000E+01
  1.00800000E+00  1.00800000E+00  1.60000000E+01  1.00800000E+00  1.00800000E+00
  1.60000000E+01  1.00800000E+00  1.00800000E+00  1.60000000E+01  1.00800000E+00
  1.00800000E+00  1.60000000E+01  1.00800000E+00  1.00800000E+00  1.60000000E+01
  1.00800000E+00  1.00800000E+00  1.60000000E+01  1.00800000E+00  1.00800000E+00
  1.60000000E+01  1.00800000E+00  1.00800000E+00  1.60000000E+01  1.00800000E+00
  1.00800000E+00  1.60000000E+01  1.00800000E+00  1.00800000E+00  1.60000000E+01
  1.00800000E+00  1.00800000E+00  1.60000000E+01  1.00800000E+00  1.00800000E+00
  1.60000000E+01  1.00800000E+00  1.00800000E+00  1.60000000E+01  1.00800000E+00
  1.00800000E+00  1.60000000E+01  1.00800000E+00  1.00800000E+00  1.60000000E+01
  1.00800000E+00  1.00800000E+00  1.60000000E+01  1.00800000E+00  1.00800000E+00
  1.60000000E+01  1.00800000E+00  1.00800000E+00  1.60000000E+01  1.00800000E+00
  1.00800000E+00  1.60000000E+01  1.00800000E+00  1.00800000E+00  1.60000000E+01
  1.00800000E+00  1.00800000E+00  1.60000000E+01  1.00800000E+00  1.00800000E+00
  1.60000000E+01  1.00800000E+00  1.00800000E+00  1.60000000E+01  1.00800000E+00
  1.00800000E+00  1.60000000E+01  1.00800000E+00  1.00800000E+00  1.60000000E+01
  1.00800000E+00  1.00800000E+00  1.60000000E+01  1.00800000E+00  1.00800000E+00
  1.60000000E+01  1.00800000E+00  1.00800000E+00  1.60000000E+01  1.00800000E+00
  1.00800000E+00  1.60000000E+01  1.00800000E+00  1.00800000E+00  1.60000000E+01
  1.00800000E+00  1.00800000E+00  1.60000000E+01  1.00800000E+00  1.00800000E+00
  1.60000000E+01  1.00800000E+00  1.00800000E+00  1.60000000E+01  1.00800000E+00
  1.00800000E+00  1.60000000E+01  1.00800000E+00  1.00800000E+00  1.60000000E+01
  1.00800000E+00  1.00800000E+00  1.60000000E+01  1.00800000E+00  1.00800000E+00
  1.60000000E+01  1.00800000E+00  1.00800000E+00  1.60000000E+01  1.00800000E+00
  1.00800000E+00  1.60000000E+01  1.00800000E+00  1.00800000E+00  1.60000000E+01
  1.00800000E+00  1.00800000E+00  1.60000000E+01  1.00800000E+00  1.00800000E+00
  1.60000000E+01  1.00800000E+00  1.00800000E+00  1.60000000E+01  1.00800000E+00
  1.00800000E+00  1.60000000E+01  1.00800000E+00  1.00800000E+00  1.60000000E+01
  1.00800000E+00  1.00800000E+00  1.60000000E+01  1.00800000E+00  1.00800000E+00
  1.60000000E+01  1.00800000E+00  1.00800000E+00  1.60000000E+01  1.00800000E+00
  1.00800000E+00  1.60000000E+01  1.00800000E+00  1.00800000E+00  1.60000000E+01
  1.00800000E+00  1.00800000E+00  1.60000000E+01  1.00800000E+00  1.00800000E+00
  1.60000000E+01  1.00800000E+00  1.00800000E+00  1.60000000E+01  1.00800000E+00
  1.00800000E+00  1.60000000E+01  1.00800000E+00  1.00800000E+00  1.60000000E+01
  1.00800000E+00  1.00800000E+00  1.60000000E+01  1.00800000E+00  1.00800000E+00
  1.60000000E+01  1.00800000E+00  1.00800000E+00  1.60000000E+01  1.00800000E+00
  1.00800000E+00  1.60000000E+01  1.00800000E+00  1.00800000E+00  1.60000000E+01
  1.00800000E+00  1.00800000E+00  1.60000000E+01  1.00800000E+00  1.00800000E+00
  1.60000000E+01  1.00800000E+00  1.00800000E+00  1.60000000E+01  1.00800000E+00
  1.00800000E+00  1.60000000E+01  1.00800000E+00  1.00800000E+00  1.60000000E+01
  1.00800000E+00  1.00800000E+00  1.60000000E+01  1.00800000E+00  1.00800000E+00
  1.60000000E+01  1.00800000E+00  1.00800000E+00  1.60000000E+01  1.00800000E+00
  1.00800000E+00  1.60000000E+01  1.00800000E+00  1.00800000E+00  1.60000000E+01
  1.00800000E+00  1.00800000E+00  1.60000000E+01  1.00800000E+00  1.00800000E+00
  1.60000000E+01  1.00800000E+00  1.00800000E+00  1.60000000E+01  1.00800000E+00
  1.00800000E+00  1.60000000E+01  1.00800000E+00  1.00800000E+00  1.60000000E+01
  1.00800000E+00  1.00800000E+00  1.60000000E+01  1.00800000E+00  1.00800000E+00
  1.60000000E+01  1.00800000E+00  1.00800000E+00  1.60000000E+01  1.00800000E+00
  1.00800000E+00  1.60000000E+01  1.00800000E+00  1.00800000E+00  1.60000000E+01
  1.00800000E+00  1.00800000E+00  1.60000000E+01  1.00800000E+00  1.00800000E+00
  1.60000000E+01  1.00800000E+00  1.00800000E+00  1.60000000E+01  1.00800000E+00
  1.00800000E+00  1.60000000E+01  1.00800000E+00  1.00800000E+00  1.60000000E+01
  1.00800000E+00  1.00800000E+00  1.60000000E+01  1.00800000E+00  1.00800000E+00
  1.60000000E+01  1.00800000E+00  1.00800000E+00  1.60000000E+01  1.00800000E+00
  1.00800000E+00  1.60000000E+01  1.00800000E+00  1.00800000E+00  1.60000000E+01
  1.00800000E+00  1.00800000E+00  1.60000000E+01  1.00800000E+00  1.00800000E+00
  1.60000000E+01  1.00800000E+00  1.00800000E+00  1.60000000E+01  1.00800000E+00
  1.00800000E+00  1.60000000E+01  1.00800000E+00  1.00800000E+00  1.60000000E+01
  1.00800000E+00  1.00800000E+00  1.60000000E+01  1.00800000E+00  1.00800000E+00
  1.60000000E+01  1.00800000E+00  1.00800000E+00  1.60000000E+01  1.00800000E+00
  1.00800000E+00  1.60000000E+01  1.00800000E+00  1.00800000E+00  1.60000000E+01
  1.00800000E+00  1.00800000E+00  1.60000000E+01  1.00800000E+00  1.00800000E+00
  1.60000000E+01  1.00800000E+00  1.00800000E+00  1.60000000E+01  1.00800000E+00
  1.00800000E+00  1.60000000E+01  1.00800000E+00  1.00800000E+00  1.60000000E+01
  1.00800000E+00  1.00800000E+00  1.60000000E+01  1.00800000E+00  1.00800000E+00
  1.60000000E+01  1.00800000E+00  1.00800000E+00  1.60000000E+01  1.00800000E+00
  1.00800000E+00  1.60000000E+01  1.00800000E+00  1.00800000E+00  1.60000000E+01
  1.00800000E+00  1.00800000E+00  1.60000000E+01  1.00800000E+00  1.00800000E+00
  1.60000000E+01  1.00800000E+00  1.00800000E+00  1.60000000E+01  1.00800000E+00
  1.00800000E+00  1.60000000E+01  1.00800000E+00  1.00800000E+00  1.60000000E+01
  1.00800000E+00  1.00800000E+00  1.60000000E+01  1.00800000E+00  1.00800000E+00
  1.60000000E+01  1.00800000E+00  1.00800000E+00  1.60000000E+01  1.00800000E+00
  1.00800000E+00  1.60000000E+01  1.00800000E+00  1.00800000E+00  1.60000000E+01
  1.00800000E+00  1.00800000E+00  1.60000000E+01  1.00800000E+00  1.00800000E+00
  1.60000000E+01  1.00800000E+00  1.00800000E+00  1.60000000E+01  1.00800000E+00
  1.00800000E+00  1.60000000E+01  1.00800000E+00  1.00800000E+00  1.60000000E+01
  1.00800000E+00  1.00800000E+00  1.60000000E+01  1.00800000E+00  1.00800000E+00
  1.60000000E+01  1.00800000E+00  1.00800000E+00  1.60000000E+01  1.00800000E+00
  1.00800000E+00  1.60000000E+01  1.00800000E+00  1.00800000E+00  1.60000000E+01
  1.00800000E+00  1.00800000E+00  1.60000000E+01  1.00800000E+00  1.00800000E+00
  1.60000000E+01  1.00800000E+00  1.00800000E+00  1.60000000E+01  1.00800000E+00
  1.00800000E+00  1.60000000E+01  1.00800000E+00  1.00800000E+00  1.60000000E+01
  1.00800000E+00  1.00800000E+00  1.60000000E+01  1.00800000E+00  1.00800000E+00
  1.60000000E+01  1.00800000E+00  1.00800000E+00  1.60000000E+01  1.00800000E+00
  1.00800000E+00  1.60000000E+01  1.00800000E+00  1.00800000E+00  1.60000000E+01
  1.00800000E+00  1.00800000E+00  1.60000000E+01  1.00800000E+00  1.00800000E+00
  1.60000000E+01  1.00800000E+00  1.00800000E+00  1.60000000E+01  1.00800000E+00
  1.00800000E+00  1.60000000E+01  1.00800000E+00  1.00800000E+00  1.60000000E+01
  1.00800000E+00  1.00800000E+00  1.60000000E+01  1.00800000E+00  1.00800000E+00
  1.60000000E+01  1.00800000E+00  1.00800000E+00  1.60000000E+01  1.00800000E+00
  1.00800000E+00  1.60000000E+01  1.00800000E+00  1.00800000E+00  1.60000000E+01
  1.00800000E+00  1.00800000E+00  1.60000000E+01  1.00800000E+00  1.00800000E+00
  1.60000000E+01  1.00800000E+00  1.00800000E+00  1.60000000E+01  1.00800000E+00
  1.00800000E+00  1.60000000E+01  1.00800000E+00  1.00800000E+00  1.60000000E+01
  1.00800000E+00  1.00800000E+00  1.60000000E+01  1.00800000E+00  1.00800000E+00
  1.60000000E+01  1.00800000E+00  1.00800000E+00  1.60000000E+01  1.00800000E+00
  1.00800000E+00  1.60000000E+01  1.00800000E+00  1.00800000E+00  1.60000000E+01
  1.00800000E+00  1.00800000E+00  1.60000000E+01  1.00800000E+00  1.00800000E+00
  1.60000000E+01  1.00800000E+00  1.00800000E+00  1.60000000E+01  1.00800000E+00
  1.00800000E+00  1.60000000E+01  1.00800000E+00  1.00800000E+00  1.60000000E+01
  1.00800000E+00  1.00800000E+00  1.60000000E+01  1.00800000E+00  1.00800000E+00
  1.60000000E+01  1.00800000E+00  1.00800000E+00  1.60000000E+01  1.00800000E+00
  1.00800000E+00  1.60000000E+01  1.00800000E+00  1.00800000E+00  1.60000000E+01
  1.00800000E+00  1.00800000E+00  1.60000000E+01  1.00800000E+00  1.00800000E+00
  1.60000000E+01  1.00800000E+00  1.00800000E+00  1.60000000E+01  1.00800000E+00
  1.00800000E+00  1.60000000E+01  1.00800000E+00  1.00800000E+00  1.60000000E+01
  1.00800000E+00  1.00800000E+00  1.60000000E+01  1.00800000E+00  1.00800000E+00
  1.60000000E+01  1.00800000E+00  1.00800000E+00  1.60000000E+01  1.00800000E+00
  1.00800000E+00  1.60000000E+01  1.00800000E+00  1.00800000E+00  1.60000000E+01
  1.00800000E+00  1.00800000E+00  1.60000000E+01  1.00800000E+00  1.00800000E+00
  1.60000000E+01  1.00800000E+00  1.00800000E+00  1.60000000E+01  1.00800000E+00
  1.00800000E+00  1.60000000E+01  1.00800000E+00  1.00800000E+00  1.60000000E+01
  1.00800000E+00  1.00800000E+00  1.60000000E+01  1.00800000E+00  1.00800000E+00
  1.60000000E+01  1.00800000E+00  1.00800000E+00  1.60000000E+01  1.00800000E+00
  1.00800000E+00  1.60000000E+01  1.00800000E+00  1.00800000E+00  1.60000000E+01
  1.00800000E+00  1.00800000E+00  1.60000000E+01  1.00800000E+00  1.00800000E+00
  1.60000000E+01  1.00800000E+00  1.00800000E+00  1.60000000E+01  1.00800000E+00
  1.00800000E+00  1.60000000E+01  1.00800000E+00  1.00800000E+00  1.60000000E+01
  1.00800000E+00  1.00800000E+00  1.60000000E+01  1.00800000E+00  1.00800000E+00
  1.60000000E+01  1.00800000E+00  1.00800000E+00  1.60000000E+01  1.00800000E+00
  1.00800000E+00  1.60000000E+01  1.00800000E+00  1.00800000E+00  1.60000000E+01
  1.00800000E+00  1.00800000E+00  1.60000000E+01  1.00800000E+00  1.00800000E+00
  1.60000000E+01  1.00800000E+00  1.00800000E+00  1.60000000E+01  1.00800000E+00
  1.00800000E+00  1.60000000E+01  1.00800000E+00  1.00800000E+00  1.60000000E+01
  1.00800000E+00  1.00800000E+00  1.60000000E+01  1.00800000E+00  1.00800000E+00
  1.60000000E+01  1.00800000E+00  1.00800000E+00  1.60000000E+01  1.00800000E+00
  1.00800000E+00  1.60000000E+01  1.00800000E+00  1.00800000E+00  1.60000000E+01
  1.00800000E+00  1.00800000E+00  1.60000000E+01  1.00800000E+00  1.00800000E+00
  1.60000000E+01  1.00800000E+00  1.00800000E+00  1.60000000E+01  1.00800000E+00
  1.00800000E+00  1.60000000E+01  1.00800000E+00  1.00800000E+00  1.60000000E+01
  1.00800000E+00  1.00800000E+00  1.60000000E+01  1.00800000E+00  1.00800000E+00
  1.60000000E+01  1.00800000E+00  1.00800000E+00  1.60000000E+01  1.00800000E+00
  1.00800000E+00  1.60000000E+01  1.00800000E+00  1.00800000E+00  1.60000000E+01
  1.00800000E+00  1.00800000E+00  1.60000000E+01  1.00800000E+00  1.00800000E+00
  1.60000000E+01  1.00800000E+00  1.00800000E+00  1.60000000E+01  1.00800000E+00
  1.00800000E+00  1.60000000E+01  1.00800000E+00  1.00800000E+00  1.60000000E+01
  1.00800000E+00  1.00800000E+00  1.60000000E+01  1.00800000E+00  1.00800000E+00
  1.60000000E+01  1.00800000E+00  1.00800000E+00  1.60000000E+01  1.00800000E+00
  1.00800000E+00  1.60000000E+01  1.00800000E+00  1.00800000E+00  1.60000000E+01
  1.00800000E+00  1.00800000E+00  1.60000000E+01  1.00800000E+00  1.00800000E+00
  1.60000000E+01  1.00800000E+00  1.00800000E+00  1.60000000E+01  1.00800000E+00
  1.00800000E+00  1.60000000E+01  1.00800000E+00  1.00800000E+00  1.60000000E+01
  1.00800000E+00  1.00800000E+00  1.60000000E+01  1.00800000E+00  1.00800000E+00
  1.60000000E+01  1.00800000E+00  1.00800000E+00  1.60000000E+01  1.00800000E+00
  1.00800000E+00  1.60000000E+01  1.00800000E+00  1.00800000E+00  1.60000000E+01
  1.00800000E+00  1.00800000E+00  1.60000000E+01  1.00800000E+00  1.00800000E+00
  1.60000000E+01  1.00800000E+00  1.00800000E+00  1.60000000E+01  1.00800000E+00
  1.00800000E+00  1.60000000E+01  1.00800000E+00  1.00800000E+00  1.60000000E+01
  1.00800000E+00  1.00800000E+00  1.60000000E+01  1.00800000E+00  1.00800000E+00
  1.60000000E+01  1.00800000E+00  1.00800000E+00  1.60000000E+01  1.00800000E+00
  1.00800000E+00  1.60000000E+01  1.00800000E+00  1.00800000E+00  1.60000000E+01
  1.00800000E+00  1.00800000E+00  1.60000000E+01  1.00800000E+00  1.00800000E+00
  1.60000000E+01  1.00800000E+00  1.00800000E+00  1.60000000E+01  1.00800000E+00
  1.00800000E+00  1.60000000E+01  1.00800000E+00  1.00800000E+00  1.60000000E+01
  1.00800000E+00  1.00800000E+00  1.60000000E+01  1.00800000E+00  1.00800000E+00
  1.60000000E+01  1.00800000E+00  1.00800000E+00  1.60000000E+01  1.00800000E+00
  1.00800000E+00  1.60000000E+01  1.00800000E+00  1.00800000E+00  1.60000000E+01
  1.00800000E+00  1.00800000E+00  1.60000000E+01  1.00800000E+00  1.00800000E+00
  1.60000000E+01  1.00800000E+00  1.00800000E+00  1.60000000E+01  1.00800000E+00
  1.00800000E+00  1.60000000E+01  1.00800000E+00  1.00800000E+00  1.60000000E+01
  1.00800000E+00  1.00800000E+00  1.60000000E+01  1.00800000E+00  1.00800000E+00
  1.60000000E+01  1.00800000E+00  1.00800000E+00  1.60000000E+01  1.00800000E+00
  1.00800000E+00  1.60000000E+01  1.00800000E+00  1.00800000E+00  1.60000000E+01
  1.00800000E+00  1.00800000E+00  1.60000000E+01  1.00800000E+00  1.00800000E+00
  1.60000000E+01  1.00800000E+00  1.00800000E+00  1.60000000E+01  1.00800000E+00
  1.00800000E+00  1.60000000E+01  1.00800000E+00  1.00800000E+00  1.60000000E+01
  1.00800000E+00  1.00800000E+00  1.60000000E+01  1.00800000E+00  1.00800000E+00
  1.60000000E+01  1.00800000E+00  1.00800000E+00  1.60000000E+01  1.00800000E+00
  1.00800000E+00  1.60000000E+01  1.00800000E+00  1.00800000E+00  1.60000000E+01
  1.00800000E+00  1.00800000E+00  1.60000000E+01  1.00800000E+00  1.00800000E+00
  1.60000000E+01  1.00800000E+00  1.00800000E+00  1.60000000E+01  1.00800000E+00
  1.00800000E+00  1.60000000E+01  1.00800000E+00  1.00800000E+00  1.60000000E+01
  1.00800000E+00  1.00800000E+00  1.60000000E+01  1.00800000E+00  1.00800000E+00
  1.60000000E+01  1.00800000E+00  1.00800000E+00  1.60000000E+01  1.00800000E+00
  1.00800000E+00  1.60000000E+01  1.00800000E+00  1.00800000E+00  1.60000000E+01
  1.00800000E+00  1.00800000E+00  1.60000000E+01  1.00800000E+00  1.00800000E+00
  1.60000000E+01  1.00800000E+00  1.00800000E+00  1.60000000E+01  1.00800000E+00
  1.00800000E+00  1.60000000E+01  1.00800000E+00  1.00800000E+00  1.60000000E+01
  1.00800000E+00  1.00800000E+00  1.60000000E+01  1.00800000E+00  1.00800000E+00
  1.60000000E+01  1.00800000E+00  1.00800000E+00  1.60000000E+01  1.00800000E+00
  1.00800000E+00  1.60000000E+01  1.00800000E+00  1.00800000E+00  1.60000000E+01
  1.00800000E+00  1.00800000E+00  1.60000000E+01  1.00800000E+00  1.00800000E+00
  1.60000000E+01  1.00800000E+00  1.00800000E+00  1.60000000E+01  1.00800000E+00
  1.00800000E+00  1.60000000E+01  1.00800000E+00  1.00800000E+00  1.60000000E+01
  1.00800000E+00  1.00800000E+00  1.60000000E+01  1.00800000E+00  1.00800000E+00
  1.60000000E+01  1.00800000E+00  1.00800000E+00  1.60000000E+01  1.00800000E+00
  1.00800000E+00  1.60000000E+01  1.00800000E+00  1.00800000E+00  1.60000000E+01
  1.00800000E+00  1.00800000E+00  1.60000000E+01  1.00800000E+00  1.00800000E+00
  1.60000000E+01  1.00800000E+00  1.00800000E+00  1.60000000E+01  1.00800000E+00
  1.00800000E+00  1.60000000E+01  1.00800000E+00  1.00800000E+00  1.60000000E+01
  1.00800000E+00  1.00800000E+00  1.60000000E+01  1.00800000E+00  1.00800000E+00
  1.60000000E+01  1.00800000E+00  1.00800000E+00  1.60000000E+01  1.00800000E+00
  1.00800000E+00  1.60000000E+01  1.00800000E+00  1.00800000E+00  1.60000000E+01
  1.00800000E+00  1.00800000E+00  1.60000000E+01  1.00800000E+00  1.00800000E+00
  1.60000000E+01  1.00800000E+00  1.00800000E+00  1.60000000E+01  1.00800000E+00
  1.00800000E+00  1.60000000E+01  1.00800000E+00  1.00800000E+00  1.60000000E+01
  1.00800000E+00  1.00800000E+00  1.60000000E+01  1.00800000E+00  1.00800000E+00
  1.60000000E+01  1.00800000E+00  1.00800000E+00  1.60000000E+01  1.00800000E+00
  1.00800000E+00  1.60000000E+01  1.00800000E+00  1.00800000E+00  1.60000000E+01
  1.00800000E+00  1.00800000E+00  1.60000000E+01  1.00800000E+00  1.00800000E+00
  1.60000000E+01  1.00800000E+00  1.00800000E+00  1.60000000E+01  1.00800000E+00
  1.00800000E+00  1.60000000E+01  1.00800000E+00  1.00800000E+00  1.60000000E+01
  1.00800000E+00  1.00800000E+00  1.60000000E+01  1.00800000E+00  1.00800000E+00
  1.60000000E+01  1.00800000E+00  1.00800000E+00  1.60000000E+01  1.00800000E+00
  1.00800000E+00  1.60000000E+01  1.00800000E+00  1.00800000E+00  1.60000000E+01
  1.00800000E+00  1.00800000E+00  1.60000000E+01  1.00800000E+00  1.00800000E+00
  1.60000000E+01  1.00800000E+00  1.00800000E+00  1.60000000E+01  1.00800000E+00
  1.00800000E+00  1.60000000E+01  1.00800000E+00  1.00800000E+00  1.60000000E+01
  1.00800000E+00  1.00800000E+00  1.60000000E+01  1.00800000E+00  1.00800000E+00
  1.60000000E+01  1.00800000E+00  1.00800000E+00  1.60000000E+01  1.00800000E+00
  1.00800000E+00  1.60000000E+01  1.00800000E+00  1.00800000E+00  1.60000000E+01
  1.00800000E+00  1.00800000E+00  1.60000000E+01  1.00800000E+00  1.00800000E+00
  1.60000000E+01  1.00800000E+00  1.00800000E+00  1.60000000E+01  1.00800000E+00
  1.00800000E+00  1.60000000E+01  1.00800000E+00  1.00800000E+00  1.60000000E+01
  1.00800000E+00  1.00800000E+00  1.60000000E+01  1.00800000E+00  1.00800000E+00
  1.60000000E+01  1.00800000E+00  1.00800000E+00  1.60000000E+01  1.00800000E+00
  1.00800000E+00  1.60000000E+01  1.00800000E+00  1.00800000E+00  1.60000000E+01
  1.00800000E+00  1.00800000E+00  1.60000000E+01  1.00800000E+00  1.00800000E+00
  1.60000000E+01  1.00800000E+00  1.00800000E+00  1.60000000E+01  1.00800000E+00
  1.00800000E+00  1.60000000E+01  1.00800000E+00  1.00800000E+00  1.60000000E+01
  1.00800000E+00  1.00800000E+00  1.60000000E+01  1.00800000E+00  1.00800000E+00
  1.60000000E+01  1.00800000E+00  1.00800000E+00  1.60000000E+01  1.00800000E+00
  1.00800000E+00  1.60000000E+01  1.00800000E+00  1.00800000E+00  1.60000000E+01
  1.00800000E+00  1.00800000E+00  1.60000000E+01  1.00800000E+00  1.00800000E+00
  1.60000000E+01  1.00800000E+00  1.00800000E+00  1.60000000E+01  1.00800000E+00
  1.00800000E+00  1.60000000E+01  1.00800000E+00  1.00800000E+00  1.60000000E+01
  1.00800000E+00  1.00800000E+00  1.60000000E+01  1.00800000E+00  1.00800000E+00
  1.60000000E+01  1.00800000E+00  1.00800000E+00  1.60000000E+01  1.00800000E+00
  1.00800000E+00  1.60000000E+01  1.00800000E+00  1.00800000E+00  1.60000000E+01
  1.00800000E+00  1.00800000E+00  1.60000000E+01  1.00800000E+00  1.00800000E+00
  1.60000000E+01  1.00800000E+00  1.00800000E+00  1.60000000E+01  1.00800000E+00
  1.00800000E+00  1.60000000E+01  1.00800000E+00  1.00800000E+00  1.60000000E+01
  1.00800000E+00  1.00800000E+00  1.60000000E+01  1.00800000E+00  1.00800000E+00
  1.60000000E+01  1.00800000E+00  1.00800000E+00  1.60000000E+01  1.00800000E+00
  1.00800000E+00  1.60000000E+01  1.00800000E+00  1.00800000E+00  1.60000000E+01
  1.00800000E+00  1.00800000E+00  1.60000000E+01  1.00800000E+00  1.00800000E+00
  1.60000000E+01  1.00800000E+00  1.00800000E+00  1.60000000E+01  1.00800000E+00
  1.00800000E+00  1.60000000E+01  1.00800000E+00  1.00800000E+00  1.60000000E+01
  1.00800000E+00  1.00800000E+00  1.60000000E+01  1.00800000E+00  1.00800000E+00
  1.60000000E+01  1.00800000E+00  1.00800000E+00  1.60000000E+01  1.00800000E+00
  1.00800000E+00  1.60000000E+01  1.00800000E+00  1.00800000E+00  1.60000000E+01
  1.00800000E+00  1.00800000E+00  1.60000000E+01  1.00800000E+00  1.00800000E+00
  1.60000000E+01  1.00800000E+00  1.00800000E+00  1.60000000E+01  1.00800000E+00
  1.00800000E+00  1.60000000E+01  1.00800000E+00  1.00800000E+00  1.60000000E+01
  1.00800000E+00  1.00800000E+00  1.60000000E+01  1.00800000E+00  1.00800000E+00
  1.60000000E+01  1.00800000E+00  1.00800000E+00  1.60000000E+01  1.00800000E+00
  1.00800000E+00  1.60000000E+01  1.00800000E+00  1.00800000E+00  1.60000000E+01
  1.00800000E+00  1.00800000E+00  1.60000000E+01  1.00800000E+00  1.00800000E+00
  1.60000000E+01  1.00800000E+00  1.00800000E+00  1.60000000E+01  1.00800000E+00
  1.00800000E+00  1.60000000E+01  1.00800000E+00  1.00800000E+00  1.60000000E+01
  1.00800000E+00  1.00800000E+00  1.60000000E+01  1.00800000E+00  1.00800000E+00
  1.60000000E+01  1.00800000E+00  1.00800000E+00  1.60000000E+01  1.00800000E+00
  1.00800000E+00  1.60000000E+01  1.00800000E+00  1.00800000E+00  1.60000000E+01
  1.00800000E+00  1.00800000E+00  1.60000000E+01  1.00800000E+00  1.00800000E+00
  1.60000000E+01  1.00800000E+00  1.00800000E+00  1.60000000E+01  1.00800000E+00
  1.00800000E+00  1.60000000E+01  1.00800000E+00  1.00800000E+00  1.60000000E+01
  1.00800000E+00  1.00800000E+00  1.60000000E+01  1.00800000E+00  1.00800000E+00
  1.60000000E+01  1.00800000E+00  1.00800000E+00  1.60000000E+01  1.00800000E+00
  1.00800000E+00  1.60000000E+01  1.00800000E+00  1.00800000E+00  1.60000000E+01
  1.00800000E+00  1.00800000E+00  1.60000000E+01  1.00800000E+00  1.00800000E+00
  1.60000000E+01  1.00800000E+00  1.00800000E+00  1.60000000E+01  1.00800000E+00
  1.00800000E+00  1.60000000E+01  1.00800000E+00  1.00800000E+00  1.60000000E+01
  1.00800000E+00  1.00800000E+00  1.60000000E+01  1.00800000E+00  1.00800000E+00
  1.60000000E+01  1.00800000E+00  1.00800000E+00  1.60000000E+01  1.00800000E+00
  1.00800000E+00  1.60000000E+01  1.00800000E+00  1.00800000E+00  1.60000000E+01
  1.00800000E+00  1.00800000E+00  1.60000000E+01  1.00800000E+00  1.00800000E+00
  1.60000000E+01  1.00800000E+00  1.00800000E+00  1.60000000E+01  1.00800000E+00
  1.00800000E+00  1.60000000E+01  1.00800000E+00  1.00800000E+00  1.60000000E+01
  1.00800000E+00  1.00800000E+00  1.60000000E+01  1.00800000E+00  1.00800000E+00
  1.60000000E+01  1.00800000E+00  1.00800000E+00  1.60000000E+01  1.00800000E+00
  1.00800000E+00  1.60000000E+01  1.00800000E+00  1.00800000E+00  1.60000000E+01
  1.00800000E+00  1.00800000E+00  1.60000000E+01  1.00800000E+00  1.00800000E+00
  1.60000000E+01  1.00800000E+00  1.00800000E+00  1.60000000E+01  1.00800000E+00
  1.00800000E+00  1.60000000E+01  1.00800000E+00  1.00800000E+00  1.60000000E+01
  1.00800000E+00  1.00800000E+00  1.60000000E+01  1.00800000E+00  1.00800000E+00
  1.60000000E+01  1.00800000E+00  1.00800000E+00  1.60000000E+01  1.00800000E+00
  1.00800000E+00  1.60000000E+01  1.00800000E+00  1.00800000E+00  1.60000000E+01
  1.00800000E+00  1.00800000E+00  1.60000000E+01  1.00800000E+00  1.00800000E+00
  1.60000000E+01  1.00800000E+00  1.00800000E+00  1.60000000E+01  1.00800000E+00
  1.00800000E+00  1.60000000E+01  1.00800000E+00  1.00800000E+00  1.60000000E+01
  1.00800000E+00  1.00800000E+00  1.60000000E+01  1.00800000E+00  1.00800000E+00
  1.60000000E+01  1.00800000E+00  1.00800000E+00  1.60000000E+01  1.00800000E+00
  1.00800000E+00  1.60000000E+01  1.00800000E+00  1.00800000E+00  1.60000000E+01
  1.00800000E+00  1.00800000E+00  1.60000000E+01  1.00800000E+00  1.00800000E+00
  1.60000000E+01  1.00800000E+00  1.00800000E+00  1.60000000E+01  1.00800000E+00
  1.00800000E+00  1.60000000E+01  1.00800000E+00  1.00800000E+00  1.60000000E+01
  1.00800000E+00  1.00800000E+00  1.60000000E+01  1.00800000E+00  1.00800000E+00
  1.60000000E+01  1.00800000E+00  1.00800000E+00  1.60000000E+01  1.00800000E+00
  1.00800000E+00  1.60000000E+01  1.00800000E+00  1.00800000E+00  1.60000000E+01
  1.00800000E+00  1.00800000E+00  1.60000000E+01  1.00800000E+00  1.00800000E+00
  1.60000000E+01  1.00800000E+00  1.00800000E+00  1.60000000E+01  1.00800000E+00
  1.00800000E+00  1.60000000E+01  1.00800000E+00  1.00800000E+00  1.60000000E+01
  1.00800000E+00  1.00800000E+00  1.60000000E+01  1.00800000E+00  1.00800000E+00
  1.60000000E+01  1.00800000E+00  1.00800000E+00  1.60000000E+01  1.00800000E+00
  1.00800000E+00  1.60000000E+01  1.00800000E+00  1.00800000E+00  1.60000000E+01
  1.00800000E+00  1.00800000E+00  1.60000000E+01  1.00800000E+00  1.00800000E+00
  1.60000000E+01  1.00800000E+00  1.00800000E+00  1.60000000E+01  1.00800000E+00
  1.00800000E+00  1.60000000E+01  1.00800000E+00  1.00800000E+00  1.60000000E+01
  1.00800000E+00  1.00800000E+00  1.60000000E+01  1.00800000E+00  1.00800000E+00
  1.60000000E+01  1.00800000E+00  1.00800000E+00  1.60000000E+01  1.00800000E+00
  1.00800000E+00  1.60000000E+01  1.00800000E+00  1.00800000E+00  1.60000000E+01
  1.00800000E+00  1.00800000E+00  1.60000000E+01  1.00800000E+00  1.00800000E+00
  1.60000000E+01  1.00800000E+00  1.00800000E+00  1.60000000E+01  1.00800000E+00
  1.00800000E+00  1.60000000E+01  1.00800000E+00  1.00800000E+00  1.60000000E+01
  1.00800000E+00  1.00800000E+00  1.60000000E+01  1.00800000E+00  1.00800000E+00
  1.60000000E+01  1.00800000E+00  1.00800000E+00  1.60000000E+01  1.00800000E+00
  1.00800000E+00  1.60000000E+01  1.00800000E+00  1.00800000E+00  1.60000000E+01
  1.00800000E+00  1.00800000E+00  1.60000000E+01  1.00800000E+00  1.00800000E+00
  1.60000000E+01  1.00800000E+00  1.00800000E+00  1.60000000E+01  1.00800000E+00
  1.00800000E+00  1.60000000E+01  1.00800000E+00  1.00800000E+00  1.60000000E+01
  1.00800000E+00  1.00800000E+00  1.60000000E+01  1.00800000E+00  1.00800000E+00
  1.60000000E+01  1.00800000E+00  1.00800000E+00  1.60000000E+01  1.00800000E+00
  1.00800000E+00  1.60000000E+01  1.00800000E+00  1.00800000E+00  1.60000000E+01
  1.00800000E+00  1.00800000E+00  1.60000000E+01  1.00800000E+00  1.00800000E+00
  1.60000000E+01  1.00800000E+00  1.00800000E+00  1.60000000E+01  1.00800000E+00
  1.00800000E+00  1.60000000E+01  1.00800000E+00  1.00800000E+00  1.60000000E+01
  1.00800000E+00  1.00800000E+00  1.60000000E+01  1.00800000E+00  1.00800000E+00
  1.60000000E+01  1.00800000E+00  1.00800000E+00  1.60000000E+01  1.00800000E+00
  1.00800000E+00  1.60000000E+01  1.00800000E+00  1.00800000E+00  1.60000000E+01
  1.00800000E+00  1.00800000E+00  1.60000000E+01  1.00800000E+00  1.00800000E+00
  1.60000000E+01  1.00800000E+00  1.00800000E+00  1.60000000E+01  1.00800000E+00
  1.00800000E+00  1.60000000E+01  1.00800000E+00  1.00800000E+00  1.60000000E+01
  1.00800000E+00  1.00800000E+00  1.60000000E+01  1.00800000E+00  1.00800000E+00
  1.60000000E+01  1.00800000E+00  1.00800000E+00  1.60000000E+01  1.00800000E+00
  1.00800000E+00  1.60000000E+01  1.00800000E+00  1.00800000E+00  1.60000000E+01
  1.00800000E+00  1.00800000E+00  1.60000000E+01  1.00800000E+00  1.00800000E+00
  1.60000000E+01  1.00800000E+00  1.00800000E+00  1.60000000E+01  1.00800000E+00
  1.00800000E+00  1.60000000E+01  1.00800000E+00  1.00800000E+00  1.60000000E+01
  1.00800000E+00  1.00800000E+00  1.60000000E+01  1.00800000E+00  1.00800000E+00
  1.60000000E+01  1.00800000E+00  1.00800000E+00  1.60000000E+01  1.00800000E+00
  1.00800000E+00  1.60000000E+01  1.00800000E+00  1.00800000E+00  1.60000000E+01
  1.00800000E+00  1.00800000E+00  1.60000000E+01  1.00800000E+00  1.00800000E+00
  1.60000000E+01  1.00800000E+00  1.00800000E+00  1.60000000E+01  1.00800000E+00
  1.00800000E+00  1.60000000E+01  1.00800000E+00  1.00800000E+00  1.60000000E+01
  1.00800000E+00  1.00800000E+00  1.60000000E+01  1.00800000E+00  1.00800000E+00
  1.60000000E+01  1.00800000E+00  1.00800000E+00  1.60000000E+01  1.00800000E+00
  1.00800000E+00  1.60000000E+01  1.00800000E+00  1.00800000E+00  1.60000000E+01
  1.00800000E+00  1.00800000E+00  1.60000000E+01  1.00800000E+00  1.00800000E+00
  1.60000000E+01  1.00800000E+00  1.00800000E+00  1.60000000E+01  1.00800000E+00
  1.00800000E+00  1.60000000E+01  1.00800000E+00  1.00800000E+00  1.60000000E+01
  1.00800000E+00  1.00800000E+00  1.60000000E+01  1.00800000E+00  1.00800000E+00
  1.60000000E+01  1.00800000E+00  1.00800000E+00  1.60000000E+01  1.00800000E+00
  1.00800000E+00  1.60000000E+01  1.00800000E+00  1.00800000E+00  1.60000000E+01
  1.00800000E+00  1.00800000E+00  1.60000000E+01  1.00800000E+00  1.00800000E+00
  1.60000000E+01  1.00800000E+00  1.00800000E+00  1.60000000E+01  1.00800000E+00
  1.00800000E+00  1.60000000E+01  1.00800000E+00  1.00800000E+00  1.60000000E+01
  1.00800000E+00  1.00800000E+00  1.60000000E+01  1.00800000E+00  1.00800000E+00
  1.60000000E+01  1.00800000E+00  1.00800000E+00  1.60000000E+01  1.00800000E+00
  1.00800000E+00  1.60000000E+01  1.00800000E+00  1.00800000E+00  1.60000000E+01
  1.00800000E+00  1.00800000E+00  1.60000000E+01  1.00800000E+00  1.00800000E+00
  1.60000000E+01  1.00800000E+00  1.00800000E+00  1.60000000E+01  1.00800000E+00
  1.00800000E+00  1.60000000E+01  1.00800000E+00  1.00800000E+00  1.60000000E+01
  1.00800000E+00  1.00800000E+00  1.60000000E+01  1.00800000E+00  1.00800000E+00
  1.60000000E+01  1.00800000E+00  1.00800000E+00  1.60000000E+01  1.00800000E+00
  1.00800000E+00  1.60000000E+01  1.00800000E+00  1.00800000E+00  1.60000000E+01
  1.00800000E+00  1.00800000E+00  1.60000000E+01  1.00800000E+00  1.00800000E+00
  1.60000000E+01  1.00800000E+00  1.00800000E+00  1.60000000E+01  1.00800000E+00
  1.00800000E+00  1.60000000E+01  1.00800000E+00  1.00800000E+00  1.60000000E+01
  1.00800000E+00  1.00800000E+00  1.60000000E+01  1.00800000E+00  1.00800000E+00
  1.60000000E+01  1.00800000E+00  1.00800000E+00  1.60000000E+01  1.00800000E+00
  1.00800000E+00  1.60000000E+01  1.00800000E+00  1.00800000E+00  1.60000000E+01
  1.00800000E+00  1.00800000E+00  1.60000000E+01  1.00800000E+00  1.00800000E+00
  1.60000000E+01  1.00800000E+00  1.00800000E+00  1.60000000E+01  1.00800000E+00
  1.00800000E+00  1.60000000E+01  1.00800000E+00  1.00800000E+00  1.60000000E+01
  1.00800000E+00  1.00800000E+00  1.60000000E+01  1.00800000E+00  1.00800000E+00
  1.60000000E+01  1.00800000E+00  1.00800000E+00  1.60000000E+01  1.00800000E+00
  1.00800000E+00  1.60000000E+01  1.00800000E+00  1.00800000E+00  1.60000000E+01
  1.00800000E+00  1.00800000E+00  1.60000000E+01  1.00800000E+00  1.00800000E+00
  1.60000000E+01  1.00800000E+00  1.00800000E+00  1.60000000E+01  1.00800000E+00
  1.00800000E+00  1.60000000E+01  1.00800000E+00  1.00800000E+00  1.60000000E+01
  1.00800000E+00  1.00800000E+00  1.60000000E+01  1.00800000E+00  1.00800000E+00
  1.60000000E+01  1.00800000E+00  1.00800000E+00  1.60000000E+01  1.00800000E+00
  1.00800000E+00  1.60000000E+01  1.00800000E+00  1.00800000E+00  1.60000000E+01
  1.00800000E+00  1.00800000E+00  1.60000000E+01  1.00800000E+00  1.00800000E+00
  1.60000000E+01  1.00800000E+00  1.00800000E+00  1.60000000E+01  1.00800000E+00
  1.00800000E+00  1.60000000E+01  1.00800000E+00  1.00800000E+00  1.60000000E+01
  1.00800000E+00  1.00800000E+00  1.60000000E+01  1.00800000E+00  1.00800000E+00
  1.60000000E+01  1.00800000E+00  1.00800000E+00  1.60000000E+01  1.00800000E+00
  1.00800000E+00  1.60000000E+01  1.00800000E+00  1.00800000E+00  1.60000000E+01
  1.00800000E+00  1.00800000E+00  1.60000000E+01  1.00800000E+00  1.00800000E+00
  1.60000000E+01  1.00800000E+00  1.00800000E+00  1.60000000E+01  1.00800000E+00
  1.00800000E+00  1.60000000E+01  1.00800000E+00  1.00800000E+00  1.60000000E+01
  1.00800000E+00  1.00800000E+00  1.60000000E+01  1.00800000E+00  1.00800000E+00
  1.60000000E+01  1.00800000E+00  1.00800000E+00  1.60000000E+01  1.00800000E+00
  1.00800000E+00  1.60000000E+01  1.00800000E+00  1.00800000E+00  1.60000000E+01
  1.00800000E+00  1.00800000E+00  1.60000000E+01  1.00800000E+00  1.00800000E+00
  1.60000000E+01  1.00800000E+00  1.00800000E+00  1.60000000E+01  1.00800000E+00
  1.00800000E+00  1.60000000E+01  1.00800000E+00  1.00800000E+00  1.60000000E+01
  1.00800000E+00  1.00800000E+00  1.60000000E+01  1.00800000E+00  1.00800000E+00
  1.60000000E+01  1.00800000E+00  1.00800000E+00  1.60000000E+01  1.00800000E+00
  1.00800000E+00  1.60000000E+01  1.00800000E+00  1.00800000E+00  1.60000000E+01
  1.00800000E+00  1.00800000E+00  1.60000000E+01  1.00800000E+00  1.00800000E+00
  1.60000000E+01  1.00800000E+00  1.00800000E+00  1.60000000E+01  1.00800000E+00
  1.00800000E+00  1.60000000E+01  1.00800000E+00  1.00800000E+00  1.60000000E+01
  1.00800000E+00  1.00800000E+00  1.60000000E+01  1.00800000E+00  1.00800000E+00
  1.60000000E+01  1.00800000E+00  1.00800000E+00  1.60000000E+01  1.00800000E+00
  1.00800000E+00  1.60000000E+01  1.00800000E+00  1.00800000E+00  1.60000000E+01
  1.00800000E+00  1.00800000E+00  1.60000000E+01  1.00800000E+00  1.00800000E+00
  1.60000000E+01  1.00800000E+00  1.00800000E+00  1.60000000E+01  1.00800000E+00
  1.00800000E+00  1.60000000E+01  1.00800000E+00  1.00800000E+00  1.60000000E+01
  1.00800000E+00  1.00800000E+00  1.60000000E+01  1.00800000E+00  1.00800000E+00
  1.60000000E+01  1.00800000E+00  1.00800000E+00  1.60000000E+01  1.00800000E+00
  1.00800000E+00  1.60000000E+01  1.00800000E+00  1.00800000E+00  1.60000000E+01
  1.00800000E+00  1.00800000E+00  1.60000000E+01  1.00800000E+00  1.00800000E+00
  1.60000000E+01  1.00800000E+00  1.00800000E+00  1.60000000E+01  1.00800000E+00
  1.00800000E+00  1.60000000E+01  1.00800000E+00  1.00800000E+00  1.60000000E+01
  1.00800000E+00  1.00800000E+00  1.60000000E+01  1.00800000E+00  1.00800000E+00
  1.60000000E+01  1.00800000E+00  1.00800000E+00  1.60000000E+01  1.00800000E+00
  1.00800000E+00  1.60000000E+01  1.00800000E+00  1.00800000E+00  1.60000000E+01
  1.00800000E+00  1.00800000E+00  1.60000000E+01  1.00800000E+00  1.00800000E+00
  1.60000000E+01  1.00800000E+00  1.00800000E+00  1.60000000E+01  1.00800000E+00
  1.00800000E+00  1.60000000E+01  1.00800000E+00  1.00800000E+00  1.60000000E+01
  1.00800000E+00  1.00800000E+00  1.60000000E+01  1.00800000E+00  1.00800000E+00
  1.60000000E+01  1.00800000E+00  1.00800000E+00  1.60000000E+01  1.00800000E+00
  1.00800000E+00  1.60000000E+01  1.00800000E+00  1.00800000E+00  1.60000000E+01
  1.00800000E+00  1.00800000E+00  1.60000000E+01  1.00800000E+00  1.00800000E+00
  1.60000000E+01  1.00800000E+00  1.00800000E+00  1.60000000E+01  1.00800000E+00
  1.00800000E+00  1.60000000E+01  1.00800000E+00  1.00800000E+00  1.60000000E+01
  1.00800000E+00  1.00800000E+00  1.60000000E+01  1.00800000E+00  1.00800000E+00
  1.60000000E+01  1.00800000E+00  1.00800000E+00  1.60000000E+01  1.00800000E+00
  1.00800000E+00  1.60000000E+01  1.00800000E+00  1.00800000E+00  1.60000000E+01
  1.00800000E+00  1.00800000E+00  1.60000000E+01  1.00800000E+00  1.00800000E+00
  1.60000000E+01  1.00800000E+00  1.00800000E+00  1.60000000E+01  1.00800000E+00
  1.00800000E+00  1.60000000E+01  1.00800000E+00  1.00800000E+00  1.60000000E+01
  1.00800000E+00  1.00800000E+00  1.60000000E+01  1.00800000E+00  1.00800000E+00
  1.60000000E+01  1.00800000E+00  1.00800000E+00  1.60000000E+01  1.00800000E+00
  1.00800000E+00  1.60000000E+01  1.00800000E+00  1.00800000E+00  1.60000000E+01
  1.00800000E+00  1.00800000E+00  1.60000000E+01  1.00800000E+00  1.00800000E+00
  1.60000000E+01  1.00800000E+00  1.00800000E+00  1.60000000E+01  1.00800000E+00
  1.00800000E+00  1.60000000E+01  1.00800000E+00  1.00800000E+00  1.60000000E+01
  1.00800000E+00  1.00800000E+00  1.60000000E+01  1.00800000E+00  1.00800000E+00
  1.60000000E+01  1.00800000E+00  1.00800000E+00  1.60000000E+01  1.00800000E+00
  1.00800000E+00  1.60000000E+01  1.00800000E+00  1.00800000E+00  1.60000000E+01
  1.00800000E+00  1.00800000E+00  1.60000000E+01  1.00800000E+00  1.00800000E+00
  1.60000000E+01  1.00800000E+00  1.00800000E+00  1.60000000E+01  1.00800000E+00
  1.00800000E+00  1.60000000E+01  1.00800000E+00  1.00800000E+00  1.60000000E+01
  1.00800000E+00  1.00800000E+00  1.60000000E+01  1.00800000E+00  1.00800000E+00
  1.60000000E+01  1.00800000E+00  1.00800000E+00  1.60000000E+01  1.00800000E+00
  1.00800000E+00  1.60000000E+01  1.00800000E+00  1.00800000E+00  1.60000000E+01
  1.00800000E+00  1.00800000E+00  1.60000000E+01  1.00800000E+00  1.00800000E+00
  1.60000000E+01  1.00800000E+00  1.00800000E+00  1.60000000E+01  1.00800000E+00
  1.00800000E+00  1.60000000E+01  1.00800000E+00  1.00800000E+00  1.60000000E+01
  1.00800000E+00  1.00800000E+00  1.60000000E+01  1.00800000E+00  1.00800000E+00
  1.60000000E+01  1.00800000E+00  1.00800000E+00  1.60000000E+01  1.00800000E+00
  1.00800000E+00  1.60000000E+01  1.00800000E+00  1.00800000E+00  1.60000000E+01
  1.00800000E+00  1.00800000E+00  1.60000000E+01  1.00800000E+00  1.00800000E+00
  1.60000000E+01  1.00800000E+00  1.00800000E+00  1.60000000E+01  1.00800000E+00
  1.00800000E+00  1.60000000E+01  1.00800000E+00  1.00800000E+00  1.60000000E+01
  1.00800000E+00  1.00800000E+00  1.60000000E+01  1.00800000E+00  1.00800000E+00
  1.60000000E+01  1.00800000E+00  1.00800000E+00  1.60000000E+01  1.00800000E+00
  1.00800000E+00  1.60000000E+01  1.00800000E+00  1.00800000E+00  1.60000000E+01
  1.00800000E+00  1.00800000E+00  1.60000000E+01  1.00800000E+00  1.00800000E+00
  1.60000000E+01  1.00800000E+00  1.00800000E+00  1.60000000E+01  1.00800000E+00
  1.00800000E+00  1.60000000E+01  1.00800000E+00  1.00800000E+00  1.60000000E+01
  1.00800000E+00  1.00800000E+00  1.60000000E+01  1.00800000E+00  1.00800000E+00
  1.60000000E+01  1.00800000E+00  1.00800000E+00  1.60000000E+01  1.00800000E+00
  1.00800000E+00  1.60000000E+01  1.00800000E+00  1.00800000E+00  1.60000000E+01
  1.00800000E+00  1.00800000E+00  1.60000000E+01  1.00800000E+00  1.00800000E+00
  1.60000000E+01  1.00800000E+00  1.00800000E+00  1.60000000E+01  1.00800000E+00
  1.00800000E+00  1.60000000E+01  1.00800000E+00  1.00800000E+00  1.60000000E+01
  1.00800000E+00  1.00800000E+00  1.60000000E+01  1.00800000E+00  1.00800000E+00
  1.60000000E+01  1.00800000E+00  1.00800000E+00  1.60000000E+01  1.00800000E+00
  1.00800000E+00  1.60000000E+01  1.00800000E+00  1.00800000E+00  1.60000000E+01
  1.00800000E+00  1.00800000E+00  1.60000000E+01  1.00800000E+00  1.00800000E+00
  1.60000000E+01  1.00800000E+00  1.00800000E+00  1.60000000E+01  1.00800000E+00
  1.00800000E+00  1.60000000E+01  1.00800000E+00  1.00800000E+00  1.60000000E+01
  1.00800000E+00  1.00800000E+00  1.60000000E+01  1.00800000E+00  1.00800000E+00
  1.60000000E+01  1.00800000E+00  1.00800000E+00  1.60000000E+01  1.00800000E+00
  1.00800000E+00  1.60000000E+01  1.00800000E+00  1.00800000E+00  1.60000000E+01
  1.00800000E+00  1.00800000E+00  1.60000000E+01  1.00800000E+00  1.00800000E+00
  1.60000000E+01  1.00800000E+00  1.00800000E+00  1.60000000E+01  1.00800000E+00
  1.00800000E+00  1.60000000E+01  1.00800000E+00  1.00800000E+00  1.60000000E+01
  1.00800000E+00  1.00800000E+00  1.60000000E+01  1.00800000E+00  1.00800000E+00
  1.60000000E+01  1.00800000E+00  1.00800000E+00  1.60000000E+01  1.00800000E+00
  1.00800000E+00  1.60000000E+01  1.00800000E+00  1.00800000E+00  1.60000000E+01
  1.00800000E+00  1.00800000E+00  1.60000000E+01  1.00800000E+00  1.00800000E+00
  1.60000000E+01  1.00800000E+00  1.00800000E+00  1.60000000E+01  1.00800000E+00
  1.00800000E+00  1.60000000E+01  1.00800000E+00  1.00800000E+00  1.60000000E+01
  1.00800000E+00  1.00800000E+00  1.60000000E+01  1.00800000E+00  1.00800000E+00
  1.60000000E+01  1.00800000E+00  1.00800000E+00  1.60000000E+01  1.00800000E+00
  1.00800000E+00  1.60000000E+01  1.00800000E+00  1.00800000E+00  1.60000000E+01
  1.00800000E+00  1.00800000E+00  1.60000000E+01  1.00800000E+00  1.00800000E+00
  1.60000000E+01  1.00800000E+00  1.00800000E+00  1.60000000E+01  1.00800000E+00
  1.00800000E+00  1.60000000E+01  1.00800000E+00  1.00800000E+00  1.60000000E+01
  1.00800000E+00  1.00800000E+00  1.60000000E+01  1.00800000E+00  1.00800000E+00
  1.60000000E+01  1.00800000E+00  1.00800000E+00  1.60000000E+01  1.00800000E+00
  1.00800000E+00  1.60000000E+01  1.00800000E+00  1.00800000E+00  1.60000000E+01
  1.00800000E+00  1.00800000E+00  1.60000000E+01  1.00800000E+00  1.00800000E+00
  1.60000000E+01  1.00800000E+00  1.00800000E+00  1.60000000E+01  1.00800000E+00
  1.00800000E+00  1.60000000E+01  1.00800000E+00  1.00800000E+00  1.60000000E+01
  1.00800000E+00  1.00800000E+00  1.60000000E+01  1.00800000E+00  1.00800000E+00
  1.60000000E+01  1.00800000E+00  1.00800000E+00  1.60000000E+01  1.00800000E+00
  1.00800000E+00  1.60000000E+01  1.00800000E+00  1.00800000E+00  1.60000000E+01
  1.00800000E+00  1.00800000E+00  1.60000000E+01  1.00800000E+00  1.00800000E+00
  1.60000000E+01  1.00800000E+00  1.00800000E+00  1.60000000E+01  1.00800000E+00
  1.00800000E+00  1.60000000E+01  1.00800000E+00  1.00800000E+00  1.60000000E+01
  1.00800000E+00  1.00800000E+00  1.60000000E+01  1.00800000E+00  1.00800000E+00
  1.60000000E+01  1.00800000E+00  1.00800000E+00  1.60000000E+01  1.00800000E+00
  1.00800000E+00  1.60000000E+01  1.00800000E+00  1.00800000E+00  1.60000000E+01
  1.00800000E+00  1.00800000E+00  1.60000000E+01  1.00800000E+00  1.00800000E+00
  1.60000000E+01  1.00800000E+00  1.00800000E+00  1.60000000E+01  1.00800000E+00
  1.00800000E+00  1.60000000E+01  1.00800000E+00  1.00800000E+00  1.60000000E+01
  1.00800000E+00  1.00800000E+00  1.60000000E+01  1.00800000E+00  1.00800000E+00
  1.60000000E+01  1.00800000E+00  1.00800000E+00  1.60000000E+01  1.00800000E+00
  1.00800000E+00  1.60000000E+01  1.00800000E+00  1.00800000E+00  1.60000000E+01
  1.00800000E+00  1.00800000E+00  1.60000000E+01  1.00800000E+00  1.00800000E+00
  1.60000000E+01  1.00800000E+00  1.00800000E+00  1.60000000E+01  1.00800000E+00
  1.00800000E+00  1.60000000E+01  1.00800000E+00  1.00800000E+00  1.60000000E+01
  1.00800000E+00  1.00800000E+00  1.60000000E+01  1.00800000E+00  1.00800000E+00
  1.60000000E+01  1.00800000E+00  1.00800000E+00  1.60000000E+01  1.00800000E+00
  1.00800000E+00  1.60000000E+01  1.00800000E+00  1.00800000E+00  1.60000000E+01
  1.00800000E+00  1.00800000E+00  1.60000000E+01  1.00800000E+00  1.00800000E+00
  1.60000000E+01  1.00800000E+00  1.00800000E+00  1.60000000E+01  1.00800000E+00
  1.00800000E+00  1.60000000E+01  1.00800000E+00  1.00800000E+00  1.60000000E+01
  1.00800000E+00  1.00800000E+00  1.60000000E+01  1.00800000E+00  1.00800000E+00
  1.60000000E+01  1.00800000E+00  1.00800000E+00  1.60000000E+01  1.00800000E+00
  1.00800000E+00  1.60000000E+01  1.00800000E+00  1.00800000E+00  1.60000000E+01
  1.00800000E+00  1.00800000E+00  1.60000000E+01  1.00800000E+00  1.00800000E+00
  1.60000000E+01  1.00800000E+00  1.00800000E+00  1.60000000E+01  1.00800000E+00
  1.00800000E+00  1.60000000E+01  1.00800000E+00  1.00800000E+00  1.60000000E+01
  1.00800000E+00  1.00800000E+00  1.60000000E+01  1.00800000E+00  1.00800000E+00
  1.60000000E+01  1.00800000E+00  1.00800000E+00  1.60000000E+01  1.00800000E+00
  1.00800000E+00  1.60000000E+01  1.00800000E+00  1.00800000E+00  1.60000000E+01
  1.00800000E+00  1.00800000E+00  1.60000000E+01  1.00800000E+00  1.00800000E+00
  1.60000000E+01  1.00800000E+00  1.00800000E+00  1.60000000E+01  1.00800000E+00
  1.00800000E+00  1.60000000E+01  1.00800000E+00  1.00800000E+00  1.60000000E+01
  1.00800000E+00  1.00800000E+00  1.60000000E+01  1.00800000E+00  1.00800000E+00
  1.60000000E+01  1.00800000E+00  1.00800000E+00  1.60000000E+01  1.00800000E+00
  1.00800000E+00  1.60000000E+01  1.00800000E+00  1.00800000E+00  1.60000000E+01
  1.00800000E+00  1.00800000E+00  1.60000000E+01  1.00800000E+00  1.00800000E+00
  1.60000000E+01  1.00800000E+00  1.00800000E+00  1.60000000E+01  1.00800000E+00
  1.00800000E+00  1.60000000E+01  1.00800000E+00  1.00800000E+00  1.60000000E+01
  1.00800000E+00  1.00800000E+00  1.60000000E+01  1.00800000E+00  1.00800000E+00
  1.60000000E+01  1.00800000E+00  1.00800000E+00  1.60000000E+01  1.00800000E+00
  1.00800000E+00  1.60000000E+01  1.00800000E+00  1.00800000E+00  1.60000000E+01
  1.00800000E+00  1.00800000E+00  1.60000000E+01  1.00800000E+00  1.00800000E+00
  1.60000000E+01  1.00800000E+00  1.00800000E+00  1.60000000E+01  1.00800000E+00
  1.00800000E+00  1.60000000E+01  1.00800000E+00  1.00800000E+00  1.60000000E+01
  1.00800000E+00  1.00800000E+00  1.60000000E+01  1.00800000E+00  1.00800000E+00
  1.60000000E+01  1.00800000E+00  1.00800000E+00  1.60000000E+01  1.00800000E+00
  1.00800000E+00  1.60000000E+01  1.00800000E+00  1.00800000E+00  1.60000000E+01
  1.00800000E+00  1.00800000E+00  1.60000000E+01  1.00800000E+00  1.00800000E+00
  1.60000000E+01  1.00800000E+00  1.00800000E+00  1.60000000E+01  1.00800000E+00
  1.00800000E+00  1.60000000E+01  1.00800000E+00  1.00800000E+00  1.60000000E+01
  1.00800000E+00  1.00800000E+00  1.60000000E+01  1.00800000E+00  1.00800000E+00
  1.60000000E+01  1.00800000E+00  1.00800000E+00  1.60000000E+01  1.00800000E+00
  1.00800000E+00  1.60000000E+01  1.00800000E+00  1.00800000E+00  1.60000000E+01
  1.00800000E+00  1.00800000E+00  1.60000000E+01  1.00800000E+00  1.00800000E+00
  1.60000000E+01  1.00800000E+00  1.00800000E+00  1.60000000E+01  1.00800000E+00
  1.00800000E+00  1.60000000E+01  1.00800000E+00  1.00800000E+00  1.60000000E+01
  1.00800000E+00  1.00800000E+00  1.60000000E+01  1.00800000E+00  1.00800000E+00
  1.60000000E+01  1.00800000E+00  1.00800000E+00  1.60000000E+01  1.00800000E+00
  1.00800000E+00  1.60000000E+01  1.00800000E+00  1.00800000E+00  1.60000000E+01
  1.00800000E+00  1.00800000E+00  1.60000000E+01  1.00800000E+00  1.00800000E+00
  1.60000000E+01  1.00800000E+00  1.00800000E+00  1.60000000E+01  1.00800000E+00
  1.00800000E+00  1.60000000E+01  1.00800000E+00  1.00800000E+00  1.60000000E+01
  1.00800000E+00  1.00800000E+00  1.60000000E+01  1.00800000E+00  1.00800000E+00
  1.60000000E+01  1.00800000E+00  1.00800000E+00  1.60000000E+01  1.00800000E+00
  1.00800000E+00  1.60000000E+01  1.00800000E+00  1.00800000E+00  1.60000000E+01
  1.00800000E+00  1.00800000E+00  1.60000000E+01  1.00800000E+00  1.00800000E+00
  1.60000000E+01  1.00800000E+00  1.00800000E+00  1.60000000E+01  1.00800000E+00
  1.00800000E+00  1.60000000E+01  1.00800000E+00  1.00800000E+00  1.60000000E+01
  1.00800000E+00  1.00800000E+00  1.60000000E+01  1.00800000E+00  1.00800000E+00
  1.60000000E+01  1.00800000E+00  1.00800000E+00  1.60000000E+01  1.00800000E+00
  1.00800000E+00  1.60000000E+01  1.00800000E+00  1.00800000E+00  1.60000000E+01
  1.00800000E+00  1.00800000E+00  1.60000000E+01  1.00800000E+00  1.00800000E+00
  1.60000000E+01  1.00800000E+00  1.00800000E+00  1.60000000E+01  1.00800000E+00
  1.00800000E+00  1.60000000E+01  1.00800000E+00  1.00800000E+00  1.60000000E+01
  1.00800000E+00  1.00800000E+00  1.60000000E+01  1.00800000E+00  1.00800000E+00
  1.60000000E+01  1.00800000E+00  1.00800000E+00  1.60000000E+01  1.00800000E+00
  1.00800000E+00  1.60000000E+01  1.00800000E+00  1.00800000E+00  1.60000000E+01
  1.00800000E+00  1.00800000E+00  1.60000000E+01  1.00800000E+00  1.00800000E+00
  1.60000000E+01  1.00800000E+00  1.00800000E+00  1.60000000E+01  1.00800000E+00
  1.00800000E+00  1.60000000E+01  1.00800000E+00  1.00800000E+00  1.60000000E+01
  1.00800000E+00  1.00800000E+00  1.60000000E+01  1.00800000E+00  1.00800000E+00
  1.60000000E+01  1.00800000E+00  1.00800000E+00  1.60000000E+01  1.00800000E+00
  1.00800000E+00  1.60000000E+01  1.00800000E+00  1.00800000E+00  1.60000000E+01
  1.00800000E+00  1.00800000E+00  1.60000000E+01  1.00800000E+00  1.00800000E+00
  1.60000000E+01  1.00800000E+00  1.00800000E+00  1.60000000E+01  1.00800000E+00
  1.00800000E+00  1.60000000E+01  1.00800000E+00  1.00800000E+00  1.60000000E+01
  1.00800000E+00  1.00800000E+00  1.60000000E+01  1.00800000E+00  1.00800000E+00
  1.60000000E+01  1.00800000E+00  1.00800000E+00  1.60000000E+01  1.00800000E+00
  1.00800000E+00  1.60000000E+01  1.00800000E+00  1.00800000E+00  1.60000000E+01
  1.00800000E+00  1.00800000E+00  1.60000000E+01  1.00800000E+00  1.00800000E+00
  1.60000000E+01  1.00800000E+00  1.00800000E+00  1.60000000E+01  1.00800000E+00
  1.00800000E+00  1.60000000E+01  1.00800000E+00  1.00800000E+00  1.60000000E+01
  1.00800000E+00  1.00800000E+00  1.60000000E+01  1.00800000E+00  1.00800000E+00
  1.60000000E+01  1.00800000E+00  1.00800000E+00  1.60000000E+01  1.00800000E+00
  1.00800000E+00  1.60000000E+01  1.00800000E+00  1.00800000E+00  1.60000000E+01
  1.00800000E+00  1.00800000E+00  1.60000000E+01  1.00800000E+00  1.00800000E+00
  1.60000000E+01  1.00800000E+00  1.00800000E+00  1.60000000E+01  1.00800000E+00
  1.00800000E+00  1.60000000E+01  1.00800000E+00  1.00800000E+00  1.60000000E+01
  1.00800000E+00  1.00800000E+00  1.60000000E+01  1.00800000E+00  1.00800000E+00
  1.60000000E+01  1.00800000E+00  1.00800000E+00  1.60000000E+01  1.00800000E+00
  1.00800000E+00  1.60000000E+01  1.00800000E+00  1.00800000E+00  1.60000000E+01
  1.00800000E+00  1.00800000E+00  1.60000000E+01  1.00800000E+00  1.00800000E+00
  1.60000000E+01  1.00800000E+00  1.00800000E+00  1.60000000E+01  1.00800000E+00
  1.00800000E+00  1.60000000E+01  1.00800000E+00  1.00800000E+00  1.60000000E+01
  1.00800000E+00  1.00800000E+00  1.60000000E+01  1.00800000E+00  1.00800000E+00
  1.60000000E+01  1.00800000E+00  1.00800000E+00  1.60000000E+01  1.00800000E+00
  1.00800000E+00  1.60000000E+01  1.00800000E+00  1.00800000E+00  1.60000000E+01
  1.00800000E+00  1.00800000E+00  1.60000000E+01  1.00800000E+00  1.00800000E+00
  1.60000000E+01  1.00800000E+00  1.00800000E+00  1.60000000E+01  1.00800000E+00
  1.00800000E+00  1.60000000E+01  1.00800000E+00  1.00800000E+00  1.60000000E+01
  1.00800000E+00  1.00800000E+00  1.60000000E+01  1.00800000E+00  1.00800000E+00
  1.60000000E+01  1.00800000E+00  1.00800000E+00  1.60000000E+01  1.00800000E+00
  1.00800000E+00  1.60000000E+01  1.00800000E+00  1.00800000E+00  1.60000000E+01
  1.00800000E+00  1.00800000E+00  1.60000000E+01  1.00800000E+00  1.00800000E+00
  1.60000000E+01  1.00800000E+00  1.00800000E+00  1.60000000E+01  1.00800000E+00
  1.00800000E+00  1.60000000E+01  1.00800000E+00  1.00800000E+00  1.60000000E+01
  1.00800000E+00  1.00800000E+00  1.60000000E+01  1.00800000E+00  1.00800000E+00
  1.60000000E+01  1.00800000E+00  1.00800000E+00  1.60000000E+01  1.00800000E+00
  1.00800000E+00  1.60000000E+01  1.00800000E+00  1.00800000E+00  1.60000000E+01
  1.00800000E+00  1.00800000E+00  1.60000000E+01  1.00800000E+00  1.00800000E+00
  1.60000000E+01  1.00800000E+00  1.00800000E+00  1.60000000E+01  1.00800000E+00
  1.00800000E+00  1.60000000E+01  1.00800000E+00  1.00800000E+00  1.60000000E+01
  1.00800000E+00  1.00800000E+00  1.60000000E+01  1.00800000E+00  1.00800000E+00
  1.60000000E+01  1.00800000E+00  1.00800000E+00  1.60000000E+01  1.00800000E+00
  1.00800000E+00  1.60000000E+01  1.00800000E+00  1.00800000E+00  1.60000000E+01
  1.00800000E+00  1.00800000E+00  1.60000000E+01  1.00800000E+00  1.00800000E+00
  1.60000000E+01  1.00800000E+00  1.00800000E+00  1.60000000E+01  1.00800000E+00
  1.00800000E+00  1.60000000E+01  1.00800000E+00  1.00800000E+00  1.60000000E+01
  1.00800000E+00  1.00800000E+00  1.60000000E+01  1.00800000E+00  1.00800000E+00
  1.60000000E+01  1.00800000E+00  1.00800000E+00  1.60000000E+01  1.00800000E+00
  1.00800000E+00  1.60000000E+01  1.00800000E+00  1.00800000E+00  1.60000000E+01
  1.00800000E+00  1.00800000E+00  1.60000000E+01  1.00800000E+00  1.00800000E+00
  1.60000000E+01  1.00800000E+00  1.00800000E+00  1.60000000E+01  1.00800000E+00
  1.00800000E+00  1.60000000E+01  1.00800000E+00  1.00800000E+00  1.60000000E+01
  1.00800000E+00  1.00800000E+00  1.60000000E+01  1.00800000E+00  1.00800000E+00
  1.60000000E+01  1.00800000E+00  1.00800000E+00  1.60000000E+01  1.00800000E+00
  1.00800000E+00  1.60000000E+01  1.00800000E+00  1.00800000E+00  1.60000000E+01
  1.00800000E+00  1.00800000E+00  1.60000000E+01  1.00800000E+00  1.00800000E+00
  1.60000000E+01  1.00800000E+00  1.00800000E+00  1.60000000E+01  1.00800000E+00
  1.00800000E+00  1.60000000E+01  1.00800000E+00  1.00800000E+00  1.60000000E+01
  1.00800000E+00  1.00800000E+00  1.60000000E+01  1.00800000E+00  1.00800000E+00
  1.60000000E+01  1.00800000E+00  1.00800000E+00  1.60000000E+01  1.00800000E+00
  1.00800000E+00  1.60000000E+01  1.00800000E+00  1.00800000E+00  1.60000000E+01
  1.00800000E+00  1.00800000E+00  1.60000000E+01  1.00800000E+00  1.00800000E+00
  1.60000000E+01  1.00800000E+00  1.00800000E+00  1.60000000E+01  1.00800000E+00
  1.00800000E+00  1.60000000E+01  1.00800000E+00  1.00800000E+00  1.60000000E+01
  1.00800000E+00  1.00800000E+00  1.60000000E+01  1.00800000E+00  1.00800000E+00
  1.60000000E+01  1.00800000E+00  1.00800000E+00  1.60000000E+01  1.00800000E+00
  1.00800000E+00  1.60000000E+01  1.00800000E+00  1.00800000E+00  1.60000000E+01
  1.00800000E+00  1.00800000E+00  1.60000000E+01  1.00800000E+00  1.00800000E+00
  1.60000000E+01  1.00800000E+00  1.00800000E+00  1.60000000E+01  1.00800000E+00
  1.00800000E+00  1.60000000E+01  1.00800000E+00  1.00800000E+00  1.60000000E+01
  1.00800000E+00  1.00800000E+00  1.60000000E+01  1.00800000E+00  1.00800000E+00
  1.60000000E+01  1.00800000E+00  1.00800000E+00  1.60000000E+01  1.00800000E+00
  1.00800000E+00  1.60000000E+01  1.00800000E+00  1.00800000E+00  1.60000000E+01
  1.00800000E+00  1.00800000E+00  1.60000000E+01  1.00800000E+00  1.00800000E+00
  1.60000000E+01  1.00800000E+00  1.00800000E+00  1.60000000E+01  1.00800000E+00
  1.00800000E+00  1.60000000E+01  1.00800000E+00  1.00800000E+00  1.60000000E+01
  1.00800000E+00  1.00800000E+00  1.60000000E+01  1.00800000E+00  1.00800000E+00
  1.60000000E+01  1.00800000E+00  1.00800000E+00  1.60000000E+01  1.00800000E+00
  1.00800000E+00  1.60000000E+01  1.00800000E+00  1.00800000E+00  1.60000000E+01
  1.00800000E+00  1.00800000E+00  1.60000000E+01  1.00800000E+00  1.00800000E+00
  1.60000000E+01  1.00800000E+00  1.00800000E+00  1.60000000E+01  1.00800000E+00
  1.00800000E+00  1.60000000E+01  1.00800000E+00  1.00800000E+00  1.60000000E+01
  1.00800000E+00  1.00800000E+00  1.60000000E+01  1.00800000E+00  1.00800000E+00
  1.60000000E+01  1.00800000E+00  1.00800000E+00  1.60000000E+01  1.00800000E+00
  1.00800000E+00  1.60000000E+01  1.00800000E+00  1.00800000E+00  1.60000000E+01
  1.00800000E+00  1.00800000E+00  1.60000000E+01  1.00800000E+00  1.00800000E+00
  1.60000000E+01  1.00800000E+00  1.00800000E+00  1.60000000E+01  1.00800000E+00
  1.00800000E+00  1.60000000E+01  1.00800000E+00  1.00800000E+00  1.60000000E+01
  1.00800000E+00  1.00800000E+00  1.60000000E+01  1.00800000E+00  1.00800000E+00
  1.60000000E+01  1.00800000E+00  1.00800000E+00  1.60000000E+01  1.00800000E+00
  1.00800000E+00  1.60000000E+01  1.00800000E+00  1.00800000E+00  1.60000000E+01
  1.00800000E+00  1.00800000E+00  1.60000000E+01  1.00800000E+00  1.00800000E+00
  1.60000000E+01  1.00800000E+00  1.00800000E+00  1.60000000E+01  1.00800000E+00
  1.00800000E+00  1.60000000E+01  1.00800000E+00  1.00800000E+00  1.60000000E+01
  1.00800000E+00  1.00800000E+00  1.60000000E+01  1.00800000E+00  1.00800000E+00
  1.60000000E+01  1.00800000E+00  1.00800000E+00  1.60000000E+01  1.00800000E+00
  1.00800000E+00  1.60000000E+01  1.00800000E+00  1.00800000E+00  1.60000000E+01
  1.00800000E+00  1.00800000E+00  1.60000000E+01  1.00800000E+00  1.00800000E+00
  1.60000000E+01  1.00800000E+00  1.00800000E+00  1.60000000E+01  1.00800000E+00
  1.00800000E+00  1.60000000E+01  1.00800000E+00  1.00800000E+00  1.60000000E+01
  1.00800000E+00  1.00800000E+00  1.60000000E+01  1.00800000E+00  1.00800000E+00
  1.60000000E+01  1.00800000E+00  1.00800000E+00  1.60000000E+01  1.00800000E+00
  1.00800000E+00  1.60000000E+01  1.00800000E+00  1.00800000E+00  1.60000000E+01
  1.00800000E+00  1.00800000E+00  1.60000000E+01  1.00800000E+00  1.00800000E+00
  1.60000000E+01  1.00800000E+00  1.00800000E+00  1.60000000E+01  1.00800000E+00
  1.00800000E+00  1.60000000E+01  1.00800000E+00  1.00800000E+00  1.60000000E+01
  1.00800000E+00  1.00800000E+00  1.60000000E+01  1.00800000E+00  1.00800000E+00
  1.60000000E+01  1.00800000E+00  1.00800000E+00  1.60000000E+01  1.00800000E+00
  1.00800000E+00  1.60000000E+01  1.00800000E+00  1.00800000E+00  1.60000000E+01
  1.00800000E+00  1.00800000E+00  1.60000000E+01  1.00800000E+00  1.00800000E+00
  1.60000000E+01  1.00800000E+00  1.00800000E+00  1.60000000E+01  1.00800000E+00
  1.00800000E+00  1.60000000E+01  1.00800000E+00  1.00800000E+00  1.60000000E+01
  1.00800000E+00  1.00800000E+00  1.60000000E+01  1.00800000E+00  1.00800000E+00
  1.60000000E+01  1.00800000E+00  1.00800000E+00  1.60000000E+01  1.00800000E+00
  1.00800000E+00  1.60000000E+01  1.00800000E+00  1.00800000E+00  1.60000000E+01
  1.00800000E+00  1.00800000E+00  1.60000000E+01  1.00800000E+00  1.00800000E+00
  1.60000000E+01  1.00800000E+00  1.00800000E+00  1.60000000E+01  1.00800000E+00
  1.00800000E+00  1.60000000E+01  1.00800000E+00  1.00800000E+00  1.60000000E+01
  1.00800000E+00  1.00800000E+00  1.60000000E+01  1.00800000E+00  1.00800000E+00
  1.60000000E+01  1.00800000E+00  1.00800000E+00  1.60000000E+01  1.00800000E+00
  1.00800000E+00  1.60000000E+01  1.00800000E+00  1.00800000E+00  1.60000000E+01
  1.00800000E+00  1.00800000E+00  1.60000000E+01  1.00800000E+00  1.00800000E+00
  1.60000000E+01  1.00800000E+00  1.00800000E+00  1.60000000E+01  1.00800000E+00
  1.00800000E+00  1.60000000E+01  1.00800000E+00  1.00800000E+00  1.60000000E+01
  1.00800000E+00  1.00800000E+00  1.60000000E+01  1.00800000E+00  1.00800000E+00
  1.60000000E+01  1.00800000E+00  1.00800000E+00  1.60000000E+01  1.00800000E+00
  1.00800000E+00  1.60000000E+01  1.00800000E+00  1.00800000E+00  1.60000000E+01
  1.00800000E+00  1.00800000E+00  1.60000000E+01  1.00800000E+00  1.00800000E+00
  1.60000000E+01  1.00800000E+00  1.00800000E+00  1.60000000E+01  1.00800000E+00
  1.00800000E+00  1.60000000E+01  1.00800000E+00  1.00800000E+00  1.60000000E+01
  1.00800000E+00  1.00800000E+00  1.60000000E+01  1.00800000E+00  1.00800000E+00
  1.60000000E+01  1.00800000E+00  1.00800000E+00  1.60000000E+01  1.00800000E+00
  1.00800000E+00  1.60000000E+01  1.00800000E+00  1.00800000E+00  1.60000000E+01
  1.00800000E+00  1.00800000E+00  1.60000000E+01  1.00800000E+00  1.00800000E+00
  1.60000000E+01  1.00800000E+00  1.00800000E+00  1.60000000E+01  1.00800000E+00
  1.00800000E+00  1.60000000E+01  1.00800000E+00  1.00800000E+00  1.60000000E+01
  1.00800000E+00  1.00800000E+00  1.60000000E+01  1.00800000E+00  1.00800000E+00
  1.60000000E+01  1.00800000E+00  1.00800000E+00  1.60000000E+01  1.00800000E+00
  1.00800000E+00  1.60000000E+01  1.00800000E+00  1.00800000E+00  1.60000000E+01
  1.00800000E+00  1.00800000E+00  1.60000000E+01  1.00800000E+00  1.00800000E+00
  1.60000000E+01  1.00800000E+00  1.00800000E+00  1.60000000E+01  1.00800000E+00
  1.00800000E+00  1.60000000E+01  1.00800000E+00  1.00800000E+00  1.60000000E+01
  1.00800000E+00  1.00800000E+00  1.60000000E+01  1.00800000E+00  1.00800000E+00
  1.60000000E+01  1.00800000E+00  1.00800000E+00  1.60000000E+01  1.00800000E+00
  1.00800000E+00  1.60000000E+01  1.00800000E+00  1.00800000E+00  1.60000000E+01
  1.00800000E+00  1.00800000E+00  1.60000000E+01  1.00800000E+00  1.00800000E+00
  1.60000000E+01  1.00800000E+00  1.00800000E+00  1.60000000E+01  1.00800000E+00
  1.00800000E+00  1.60000000E+01  1.00800000E+00  1.00800000E+00  1.60000000E+01
  1.00800000E+00  1.00800000E+00  1.60000000E+01  1.00800000E+00  1.00800000E+00
  1.60000000E+01  1.00800000E+00  1.00800000E+00  1.60000000E+01  1.00800000E+00
  1.00800000E+00  1.60000000E+01  1.00800000E+00  1.00800000E+00  1.60000000E+01
  1.00800000E+00  1.00800000E+00  1.60000000E+01  1.00800000E+00  1.00800000E+00
  1.60000000E+01  1.00800000E+00  1.00800000E+00  1.60000000E+01  1.00800000E+00
  1.00800000E+00  1.60000000E+01  1.00800000E+00  1.00800000E+00  1.60000000E+01
  1.00800000E+00  1.00800000E+00  1.60000000E+01  1.00800000E+00  1.00800000E+00
  1.60000000E+01  1.00800000E+00  1.00800000E+00  1.60000000E+01  1.00800000E+00
  1.00800000E+00  1.60000000E+01  1.00800000E+00  1.00800000E+00  1.60000000E+01
  1.00800000E+00  1.00800000E+00  1.60000000E+01  1.00800000E+00  1.00800000E+00
  1.60000000E+01  1.00800000E+00  1.00800000E+00  1.60000000E+01  1.00800000E+00
  1.00800000E+00  1.60000000E+01  1.00800000E+00  1.00800000E+00  1.60000000E+01
  1.00800000E+00  1.00800000E+00  1.60000000E+01  1.00800000E+00  1.00800000E+00
  1.60000000E+01  1.00800000E+00  1.00800000E+00  1.60000000E+01  1.00800000E+00
  1.00800000E+00  1.60000000E+01  1.00800000E+00  1.00800000E+00  1.60000000E+01
  1.00800000E+00  1.00800000E+00  1.60000000E+01  1.00800000E+00  1.00800000E+00
  1.60000000E+01  1.00800000E+00  1.00800000E+00  1.60000000E+01  1.00800000E+00
  1.00800000E+00  1.60000000E+01  1.00800000E+00  1.00800000E+00  1.60000000E+01
  1.00800000E+00  1.00800000E+00  1.60000000E+01  1.00800000E+00  1.00800000E+00
  1.60000000E+01  1.00800000E+00  1.00800000E+00  1.60000000E+01  1.00800000E+00
  1.00800000E+00  1.60000000E+01  1.00800000E+00  1.00800000E+00  1.60000000E+01
  1.00800000E+00  1.00800000E+00  1.60000000E+01  1.00800000E+00  1.00800000E+00
  1.60000000E+01  1.00800000E+00  1.00800000E+00  1.60000000E+01  1.00800000E+00
  1.00800000E+00  1.60000000E+01  1.00800000E+00  1.00800000E+00  1.60000000E+01
  1.00800000E+00  1.00800000E+00  1.60000000E+01  1.00800000E+00  1.00800000E+00
  1.60000000E+01  1.00800000E+00  1.00800000E+00  1.60000000E+01  1.00800000E+00
  1.00800000E+00  1.60000000E+01  1.00800000E+00  1.00800000E+00  1.60000000E+01
  1.00800000E+00  1.00800000E+00  1.60000000E+01  1.00800000E+00  1.00800000E+00
  1.60000000E+01  1.00800000E+00  1.00800000E+00  1.60000000E+01  1.00800000E+00
  1.00800000E+00  1.60000000E+01  1.00800000E+00  1.00800000E+00  1.60000000E+01
  1.00800000E+00  1.00800000E+00  1.60000000E+01  1.00800000E+00  1.00800000E+00
  1.60000000E+01  1.00800000E+00  1.00800000E+00  1.60000000E+01  1.00800000E+00
  1.00800000E+00  1.60000000E+01  1.00800000E+00  1.00800000E+00  1.60000000E+01
  1.00800000E+00  1.00800000E+00  1.60000000E+01  1.00800000E+00  1.00800000E+00
  1.60000000E+01  1.00800000E+00  1.00800000E+00  1.60000000E+01  1.00800000E+00
  1.00800000E+00  1.60000000E+01  1.00800000E+00  1.00800000E+00  1.60000000E+01
  1.00800000E+00  1.00800000E+00  1.60000000E+01  1.00800000E+00  1.00800000E+00
  1.60000000E+01  1.00800000E+00  1.00800000E+00  1.60000000E+01  1.00800000E+00
  1.00800000E+00  1.60000000E+01  1.00800000E+00  1.00800000E+00  1.60000000E+01
  1.00800000E+00  1.00800000E+00  1.60000000E+01  1.00800000E+00  1.00800000E+00
  1.60000000E+01  1.00800000E+00  1.00800000E+00  1.60000000E+01  1.00800000E+00
  1.00800000E+00  1.60000000E+01  1.00800000E+00  1.00800000E+00  1.60000000E+01
  1.00800000E+00  1.00800000E+00  1.60000000E+01  1.00800000E+00  1.00800000E+00
  1.60000000E+01  1.00800000E+00  1.00800000E+00  1.60000000E+01  1.00800000E+00
  1.00800000E+00  1.60000000E+01  1.00800000E+00  1.00800000E+00  1.60000000E+01
  1.00800000E+00  1.00800000E+00  1.60000000E+01  1.00800000E+00  1.00800000E+00
  1.60000000E+01  1.00800000E+00  1.00800000E+00  1.60000000E+01  1.00800000E+00
  1.00800000E+00  1.60000000E+01  1.00800000E+00  1.00800000E+00  1.60000000E+01
  1.00800000E+00  1.00800000E+00  1.60000000E+01  1.00800000E+00  1.00800000E+00
  1.60000000E+01  1.00800000E+00  1.00800000E+00  1.60000000E+01  1.00800000E+00
  1.00800000E+00  1.60000000E+01  1.00800000E+00  1.00800000E+00  1.60000000E+01
  1.00800000E+00  1.00800000E+00  1.60000000E+01  1.00800000E+00  1.00800000E+00
  1.60000000E+01  1.00800000E+00  1.00800000E+00  1.60000000E+01  1.00800000E+00
  1.00800000E+00  1.60000000E+01  1.00800000E+00  1.00800000E+00  1.60000000E+01
  1.00800000E+00  1.00800000E+00  1.60000000E+01  1.00800000E+00  1.00800000E+00
  1.60000000E+01  1.00800000E+00  1.00800000E+00  1.60000000E+01  1.00800000E+00
  1.00800000E+00  1.60000000E+01  1.00800000E+00  1.00800000E+00  1.60000000E+01
  1.00800000E+00  1.00800000E+00  1.60000000E+01  1.00800000E+00  1.00800000E+00
  1.60000000E+01  1.00800000E+00  1.00800000E+00  1.60000000E+01  1.00800000E+00
  1.00800000E+00  1.60000000E+01  1.00800000E+00  1.00800000E+00  1.60000000E+01
  1.00800000E+00  1.00800000E+00  1.60000000E+01  1.00800000E+00  1.00800000E+00
  1.60000000E+01  1.00800000E+00  1.00800000E+00  1.60000000E+01  1.00800000E+00
  1.00800000E+00  1.60000000E+01  1.00800000E+00  1.00800000E+00  1.60000000E+01
  1.00800000E+00  1.00800000E+00  1.60000000E+01  1.00800000E+00  1.00800000E+00
  1.60000000E+01  1.00800000E+00  1.00800000E+00  1.60000000E+01  1.00800000E+00
  1.00800000E+00  1.60000000E+01  1.00800000E+00  1.00800000E+00  1.60000000E+01
  1.00800000E+00  1.00800000E+00  1.60000000E+01  1.00800000E+00  1.00800000E+00
  1.60000000E+01  1.00800000E+00  1.00800000E+00  1.60000000E+01  1.00800000E+00
  1.00800000E+00  1.60000000E+01  1.00800000E+00  1.00800000E+00  1.60000000E+01
  1.00800000E+00  1.00800000E+00  1.60000000E+01  1.00800000E+00  1.00800000E+00
  1.60000000E+01  1.00800000E+00  1.00800000E+00  1.60000000E+01  1.00800000E+00
  1.00800000E+00  1.60000000E+01  1.00800000E+00  1.00800000E+00  1.60000000E+01
  1.00800000E+00  1.00800000E+00  1.60000000E+01  1.00800000E+00  1.00800000E+00
  1.60000000E+01  1.00800000E+00  1.00800000E+00  1.60000000E+01  1.00800000E+00
  1.00800000E+00  1.60000000E+01  1.00800000E+00  1.00800000E+00  1.60000000E+01
  1.00800000E+00  1.00800000E+00  1.60000000E+01  1.00800000E+00  1.00800000E+00
  1.60000000E+01  1.00800000E+00  1.00800000E+00  1.60000000E+01  1.00800000E+00
  1.00800000E+00  1.60000000E+01  1.00800000E+00  1.00800000E+00  1.60000000E+01
  1.00800000E+00  1.00800000E+00  1.60000000E+01  1.00800000E+00  1.00800000E+00
  1.60000000E+01  1.00800000E+00  1.00800000E+00  1.60000000E+01  1.00800000E+00
  1.00800000E+00  1.60000000E+01  1.00800000E+00  1.00800000E+00  1.60000000E+01
  1.00800000E+00  1.00800000E+00  1.60000000E+01  1.00800000E+00  1.00800000E+00
  1.60000000E+01  1.00800000E+00  1.00800000E+00  1.60000000E+01  1.00800000E+00
  1.00800000E+00  1.60000000E+01  1.00800000E+00  1.00800000E+00  1.60000000E+01
  1.00800000E+00  1.00800000E+00  1.60000000E+01  1.00800000E+00  1.00800000E+00
  1.60000000E+01  1.00800000E+00  1.00800000E+00  1.60000000E+01  1.00800000E+00
  1.00800000E+00  1.60000000E+01  1.00800000E+00  1.00800000E+00  1.60000000E+01
  1.00800000E+00  1.00800000E+00  1.60000000E+01  1.00800000E+00  1.00800000E+00
  1.60000000E+01  1.00800000E+00  1.00800000E+00  1.60000000E+01  1.00800000E+00
  1.00800000E+00  1.60000000E+01  1.00800000E+00  1.00800000E+00  1.60000000E+01
  1.00800000E+00  1.00800000E+00  1.60000000E+01  1.00800000E+00  1.00800000E+00
  1.60000000E+01  1.00800000E+00  1.00800000E+00  1.60000000E+01  1.00800000E+00
  1.00800000E+00  1.60000000E+01  1.00800000E+00  1.00800000E+00  1.60000000E+01
  1.00800000E+00  1.00800000E+00  1.60000000E+01  1.00800000E+00  1.00800000E+00
  1.60000000E+01  1.00800000E+00  1.00800000E+00  1.60000000E+01  1.00800000E+00
  1.00800000E+00  1.60000000E+01  1.00800000E+00  1.00800000E+00  1.60000000E+01
  1.00800000E+00  1.00800000E+00  1.60000000E+01  1.00800000E+00  1.00800000E+00
  1.60000000E+01  1.00800000E+00  1.00800000E+00  1.60000000E+01  1.00800000E+00
  1.00800000E+00  1.60000000E+01  1.00800000E+00  1.00800000E+00  1.60000000E+01
  1.00800000E+00  1.00800000E+00  1.60000000E+01  1.00800000E+00  1.00800000E+00
  1.60000000E+01  1.00800000E+00  1.00800000E+00  1.60000000E+01  1.00800000E+00
  1.00800000E+00  1.60000000E+01  1.00800000E+00  1.00800000E+00  1.60000000E+01
  1.00800000E+00  1.00800000E+00  1.60000000E+01  1.00800000E+00  1.00800000E+00
  1.60000000E+01  1.00800000E+00  1.00800000E+00  1.60000000E+01  1.00800000E+00
  1.00800000E+00  1.60000000E+01  1.00800000E+00  1.00800000E+00  1.60000000E+01
  1.00800000E+00  1.00800000E+00  1.60000000E+01  1.00800000E+00  1.00800000E+00
  1.60000000E+01  1.00800000E+00  1.00800000E+00  1.60000000E+01  1.00800000E+00
  1.00800000E+00  1.60000000E+01  1.00800000E+00  1.00800000E+00  1.60000000E+01
  1.00800000E+00  1.00800000E+00  1.60000000E+01  1.00800000E+00  1.00800000E+00
  1.60000000E+01  1.00800000E+00  1.00800000E+00  1.60000000E+01  1.00800000E+00
  1.00800000E+00  1.60000000E+01  1.00800000E+00  1.00800000E+00  1.60000000E+01
  1.00800000E+00  1.00800000E+00  1.60000000E+01  1.00800000E+00  1.00800000E+00
  1.60000000E+01  1.00800000E+00  1.00800000E+00  1.60000000E+01  1.00800000E+00
  1.00800000E+00  1.60000000E+01  1.00800000E+00  1.00800000E+00  1.60000000E+01
  1.00800000E+00  1.00800000E+00  1.60000000E+01  1.00800000E+00  1.00800000E+00
  1.60000000E+01  1.00800000E+00  1.00800000E+00  1.60000000E+01  1.00800000E+00
  1.00800000E+00  1.60000000E+01  1.00800000E+00  1.00800000E+00  1.60000000E+01
  1.00800000E+00  1.00800000E+00  1.60000000E+01  1.00800000E+00  1.00800000E+00
  1.60000000E+01  1.00800000E+00  1.00800000E+00  1.60000000E+01  1.00800000E+00
  1.00800000E+00  1.60000000E+01  1.00800000E+00  1.00800000E+00  1.60000000E+01
  1.00800000E+00  1.00800000E+00  1.60000000E+01  1.00800000E+00  1.00800000E+00
  1.60000000E+01  1.00800000E+00  1.00800000E+00  1.60000000E+01  1.00800000E+00
  1.00800000E+00  1.60000000E+01  1.00800000E+00  1.00800000E+00  1.60000000E+01
  1.00800000E+00  1.00800000E+00  1.60000000E+01  1.00800000E+00  1.00800000E+00
  1.60000000E+01  1.00800000E+00  1.00800000E+00  1.60000000E+01  1.00800000E+00
  1.00800000E+00  1.60000000E+01  1.00800000E+00  1.00800000E+00  1.60000000E+01
  1.00800000E+00  1.00800000E+00  1.60000000E+01  1.00800000E+00  1.00800000E+00
  1.60000000E+01  1.00800000E+00  1.00800000E+00  1.60000000E+01  1.00800000E+00
  1.00800000E+00  1.60000000E+01  1.00800000E+00  1.00800000E+00  1.60000000E+01
  1.00800000E+00  1.00800000E+00  1.60000000E+01  1.00800000E+00  1.00800000E+00
  1.60000000E+01  1.00800000E+00  1.00800000E+00  1.60000000E+01  1.00800000E+00
  1.00800000E+00  1.60000000E+01  1.00800000E+00  1.00800000E+00  1.60000000E+01
  1.00800000E+00  1.00800000E+00  1.60000000E+01  1.00800000E+00  1.00800000E+00
  1.60000000E+01  1.00800000E+00  1.00800000E+00  1.60000000E+01  1.00800000E+00
  1.00800000E+00  1.60000000E+01  1.00800000E+00  1.00800000E+00  1.60000000E+01
  1.00800000E+00  1.00800000E+00  1.60000000E+01  1.00800000E+00  1.00800000E+00
  1.60000000E+01  1.00800000E+00  1.00800000E+00  1.60000000E+01  1.00800000E+00
  1.00800000E+00  1.60000000E+01  1.00800000E+00  1.00800000E+00  1.60000000E+01
  1.00800000E+00  1.00800000E+00  1.60000000E+01  1.00800000E+00  1.00800000E+00
  1.60000000E+01  1.00800000E+00  1.00800000E+00  1.60000000E+01  1.00800000E+00
  1.00800000E+00  1.60000000E+01  1.00800000E+00  1.00800000E+00  1.60000000E+01
  1.00800000E+00  1.00800000E+00  1.60000000E+01  1.00800000E+00  1.00800000E+00
  1.60000000E+01  1.00800000E+00  1.00800000E+00  1.60000000E+01  1.00800000E+00
  1.00800000E+00  1.60000000E+01  1.00800000E+00  1.00800000E+00  1.60000000E+01
  1.00800000E+00  1.00800000E+00  1.60000000E+01  1.00800000E+00  1.00800000E+00
  1.60000000E+01  1.00800000E+00  1.00800000E+00  1.60000000E+01  1.00800000E+00
  1.00800000E+00  1.60000000E+01  1.00800000E+00  1.00800000E+00  1.60000000E+01
  1.00800000E+00  1.00800000E+00  1.60000000E+01  1.00800000E+00  1.00800000E+00
  1.60000000E+01  1.00800000E+00  1.00800000E+00  1.60000000E+01  1.00800000E+00
  1.00800000E+00  1.60000000E+01  1.00800000E+00  1.00800000E+00  1.60000000E+01
  1.00800000E+00  1.00800000E+00  1.60000000E+01  1.00800000E+00  1.00800000E+00
  1.60000000E+01  1.00800000E+00  1.00800000E+00  1.60000000E+01  1.00800000E+00
  1.00800000E+00  1.60000000E+01  1.00800000E+00  1.00800000E+00  1.60000000E+01
  1.00800000E+00  1.00800000E+00  1.60000000E+01  1.00800000E+00  1.00800000E+00
  1.60000000E+01  1.00800000E+00  1.00800000E+00  1.60000000E+01  1.00800000E+00
  1.00800000E+00  1.60000000E+01  1.00800000E+00  1.00800000E+00  1.60000000E+01
  1.00800000E+00  1.00800000E+00  1.60000000E+01  1.00800000E+00  1.00800000E+00
  1.60000000E+01  1.00800000E+00  1.00800000E+00  1.60000000E+01  1.00800000E+00
  1.00800000E+00  1.60000000E+01  1.00800000E+00  1.00800000E+00  1.60000000E+01
  1.00800000E+00  1.00800000E+00  1.60000000E+01  1.00800000E+00  1.00800000E+00
  1.60000000E+01  1.00800000E+00  1.00800000E+00  1.60000000E+01  1.00800000E+00
  1.00800000E+00  1.60000000E+01  1.00800000E+00  1.00800000E+00  1.60000000E+01
  1.00800000E+00  1.00800000E+00  1.60000000E+01  1.00800000E+00  1.00800000E+00
  1.60000000E+01  1.00800000E+00  1.00800000E+00  1.60000000E+01  1.00800000E+00
  1.00800000E+00  1.60000000E+01  1.00800000E+00  1.00800000E+00  1.60000000E+01
  1.00800000E+00  1.00800000E+00  1.60000000E+01  1.00800000E+00  1.00800000E+00
  1.60000000E+01  1.00800000E+00  1.00800000E+00  1.60000000E+01  1.00800000E+00
  1.00800000E+00  1.60000000E+01  1.00800000E+00  1.00800000E+00  1.60000000E+01
  1.00800000E+00  1.00800000E+00  1.60000000E+01  1.00800000E+00  1.00800000E+00
  1.60000000E+01  1.00800000E+00  1.00800000E+00  1.60000000E+01  1.00800000E+00
  1.00800000E+00  1.60000000E+01  1.00800000E+00  1.00800000E+00  1.60000000E+01
  1.00800000E+00  1.00800000E+00  1.60000000E+01  1.00800000E+00  1.00800000E+00
  1.60000000E+01  1.00800000E+00  1.00800000E+00  1.60000000E+01  1.00800000E+00
  1.00800000E+00  1.60000000E+01  1.00800000E+00  1.00800000E+00  1.60000000E+01
  1.00800000E+00  1.00800000E+00  1.60000000E+01  1.00800000E+00  1.00800000E+00
  1.60000000E+01  1.00800000E+00  1.00800000E+00  1.60000000E+01  1.00800000E+00
  1.00800000E+00  1.60000000E+01  1.00800000E+00  1.00800000E+00  1.60000000E+01
  1.00800000E+00  1.00800000E+00  1.60000000E+01  1.00800000E+00  1.00800000E+00
  1.60000000E+01  1.00800000E+00  1.00800000E+00  1.60000000E+01  1.00800000E+00
  1.00800000E+00  1.60000000E+01  1.00800000E+00  1.00800000E+00  1.60000000E+01
  1.00800000E+00  1.00800000E+00  1.60000000E+01  1.00800000E+00  1.00800000E+00
  1.60000000E+01  1.00800000E+00  1.00800000E+00  1.60000000E+01  1.00800000E+00
  1.00800000E+00  1.60000000E+01  1.00800000E+00  1.00800000E+00  1.60000000E+01
  1.00800000E+00  1.00800000E+00  1.60000000E+01  1.00800000E+00  1.00800000E+00
  1.60000000E+01  1.00800000E+00  1.00800000E+00  1.60000000E+01  1.00800000E+00
  1.00800000E+00  1.60000000E+01  1.00800000E+00  1.00800000E+00  1.60000000E+01
  1.00800000E+00  1.00800000E+00  1.60000000E+01  1.00800000E+00  1.00800000E+00
  1.60000000E+01  1.00800000E+00  1.00800000E+00  1.60000000E+01  1.00800000E+00
  1.00800000E+00  1.60000000E+01  1.00800000E+00  1.00800000E+00  1.60000000E+01
  1.00800000E+00  1.00800000E+00  1.60000000E+01  1.00800000E+00  1.00800000E+00
  1.60000000E+01  1.00800000E+00  1.00800000E+00  1.60000000E+01  1.00800000E+00
  1.00800000E+00  1.60000000E+01  1.00800000E+00  1.00800000E+00  1.60000000E+01
  1.00800000E+00  1.00800000E+00  1.60000000E+01  1.00800000E+00  1.00800000E+00
  1.60000000E+01  1.00800000E+00  1.00800000E+00  1.60000000E+01  1.00800000E+00
  1.00800000E+00  1.60000000E+01  1.00800000E+00  1.00800000E+00  1.60000000E+01
  1.00800000E+00  1.00800000E+00  1.60000000E+01  1.00800000E+00  1.00800000E+00
  1.60000000E+01  1.00800000E+00  1.00800000E+00  1.60000000E+01  1.00800000E+00
  1.00800000E+00  1.60000000E+01  1.00800000E+00  1.00800000E+00  1.60000000E+01
  1.00800000E+00  1.00800000E+00  1.60000000E+01  1.00800000E+00  1.00800000E+00
  1.60000000E+01  1.00800000E+00  1.00800000E+00  1.60000000E+01  1.00800000E+00
  1.00800000E+00  1.60000000E+01  1.00800000E+00  1.00800000E+00  1.60000000E+01
  1.00800000E+00  1.00800000E+00  1.60000000E+01  1.00800000E+00  1.00800000E+00
  1.60000000E+01  1.00800000E+00  1.00800000E+00  1.60000000E+01  1.00800000E+00
  1.00800000E+00  1.60000000E+01  1.00800000E+00  1.00800000E+00  1.60000000E+01
  1.00800000E+00  1.00800000E+00  1.60000000E+01  1.00800000E+00  1.00800000E+00
  1.60000000E+01  1.00800000E+00  1.00800000E+00  1.60000000E+01  1.00800000E+00
  1.00800000E+00  1.60000000E+01  1.00800000E+00  1.00800000E+00  1.60000000E+01
  1.00800000E+00  1.00800000E+00  1.60000000E+01  1.00800000E+00  1.00800000E+00
  1.60000000E+01  1.00800000E+00  1.00800000E+00  1.60000000E+01  1.00800000E+00
  1.00800000E+00  1.60000000E+01  1.00800000E+00  1.00800000E+00  1.60000000E+01
  1.00800000E+00  1.00800000E+00  1.60000000E+01  1.00800000E+00  1.00800000E+00
  1.60000000E+01  1.00800000E+00  1.00800000E+00  1.60000000E+01  1.00800000E+00
  1.00800000E+00  1.60000000E+01  1.00800000E+00  1.00800000E+00  1.60000000E+01
  1.00800000E+00  1.00800000E+00  1.60000000E+01  1.00800000E+00  1.00800000E+00
  1.60000000E+01  1.00800000E+00  1.00800000E+00  1.60000000E+01  1.00800000E+00
  1.00800000E+00  1.60000000E+01  1.00800000E+00  1.00800000E+00  1.60000000E+01
  1.00800000E+00  1.00800000E+00  1.60000000E+01  1.00800000E+00  1.00800000E+00
  1.60000000E+01  1.00800000E+00  1.00800000E+00  1.60000000E+01  1.00800000E+00
  1.00800000E+00  1.60000000E+01  1.00800000E+00  1.00800000E+00  1.60000000E+01
  1.00800000E+00  1.00800000E+00  1.60000000E+01  1.00800000E+00  1.00800000E+00
  1.60000000E+01  1.00800000E+00  1.00800000E+00  1.60000000E+01  1.00800000E+00
  1.00800000E+00  1.60000000E+01  1.00800000E+00  1.00800000E+00  1.60000000E+01
  1.00800000E+00  1.00800000E+00  1.60000000E+01  1.00800000E+00  1.00800000E+00
  1.60000000E+01  1.00800000E+00  1.00800000E+00  1.60000000E+01  1.00800000E+00
  1.00800000E+00  1.60000000E+01  1.00800000E+00  1.00800000E+00  1.60000000E+01
  1.00800000E+00  1.00800000E+00  1.60000000E+01  1.00800000E+00  1.00800000E+00
  1.60000000E+01  1.00800000E+00  1.00800000E+00  1.60000000E+01  1.00800000E+00
  1.00800000E+00  1.60000000E+01  1.00800000E+00  1.00800000E+00  1.60000000E+01
  1.00800000E+00  1.00800000E+00  1.60000000E+01  1.00800000E+00  1.00800000E+00
  1.60000000E+01  1.00800000E+00  1.00800000E+00  1.60000000E+01  1.00800000E+00
  1.00800000E+00  1.60000000E+01  1.00800000E+00  1.00800000E+00  1.60000000E+01
  1.00800000E+00  1.00800000E+00  1.60000000E+01  1.00800000E+00  1.00800000E+00
  1.60000000E+01  1.00800000E+00  1.00800000E+00  1.60000000E+01  1.00800000E+00
  1.00800000E+00  1.60000000E+01  1.00800000E+00  1.00800000E+00  1.60000000E+01
  1.00800000E+00  1.00800000E+00  1.60000000E+01  1.00800000E+00  1.00800000E+00
  1.60000000E+01  1.00800000E+00  1.00800000E+00  1.60000000E+01  1.00800000E+00
  1.00800000E+00  1.60000000E+01  1.00800000E+00  1.00800000E+00  1.60000000E+01
  1.00800000E+00  1.00800000E+00  1.60000000E+01  1.00800000E+00  1.00800000E+00
  1.60000000E+01  1.00800000E+00  1.00800000E+00  1.60000000E+01  1.00800000E+00
  1.00800000E+00  1.60000000E+01  1.00800000E+00  1.00800000E+00  1.60000000E+01
  1.00800000E+00  1.00800000E+00  1.60000000E+01  1.00800000E+00  1.00800000E+00
  1.60000000E+01  1.00800000E+00  1.00800000E+00  1.60000000E+01  1.00800000E+00
  1.00800000E+00  1.60000000E+01  1.00800000E+00  1.00800000E+00  1.60000000E+01
  1.00800000E+00  1.00800000E+00  1.60000000E+01  1.00800000E+00  1.00800000E+00
  1.60000000E+01  1.00800000E+00  1.00800000E+00  1.60000000E+01  1.00800000E+00
  1.00800000E+00  1.60000000E+01  1.00800000E+00  1.00800000E+00  1.60000000E+01
  1.00800000E+00  1.00800000E+00  1.60000000E+01  1.00800000E+00  1.00800000E+00
  1.60000000E+01  1.00800000E+00  1.00800000E+00  1.60000000E+01  1.00800000E+00
  1.00800000E+00  1.60000000E+01  1.00800000E+00  1.00800000E+00  1.60000000E+01
  1.00800000E+00  1.00800000E+00  1.60000000E+01  1.00800000E+00  1.00800000E+00
  1.60000000E+01  1.00800000E+00  1.00800000E+00  1.60000000E+01  1.00800000E+00
  1.00800000E+00  1.60000000E+01  1.00800000E+00  1.00800000E+00  1.60000000E+01
  1.00800000E+00  1.00800000E+00  1.60000000E+01  1.00800000E+00  1.00800000E+00
  1.60000000E+01  1.00800000E+00  1.00800000E+00  1.60000000E+01  1.00800000E+00
  1.00800000E+00  1.60000000E+01  1.00800000E+00  1.00800000E+00  1.60000000E+01
  1.00800000E+00  1.00800000E+00  1.60000000E+01  1.00800000E+00  1.00800000E+00
  1.60000000E+01  1.00800000E+00  1.00800000E+00  1.60000000E+01  1.00800000E+00
  1.00800000E+00  1.60000000E+01  1.00800000E+00  1.00800000E+00  1.60000000E+01
  1.00800000E+00  1.00800000E+00  1.60000000E+01  1.00800000E+00  1.00800000E+00
  1.60000000E+01  1.00800000E+00  1.00800000E+00  1.60000000E+01  1.00800000E+00
  1.00800000E+00  1.60000000E+01  1.00800000E+00  1.00800000E+00  1.60000000E+01
  1.00800000E+00  1.00800000E+00  1.60000000E+01  1.00800000E+00  1.00800000E+00
  1.60000000E+01  1.00800000E+00  1.00800000E+00  1.60000000E+01  1.00800000E+00
  1.00800000E+00  1.60000000E+01  1.00800000E+00  1.00800000E+00  1.60000000E+01
  1.00800000E+00  1.00800000E+00  1.60000000E+01  1.00800000E+00  1.00800000E+00
  1.60000000E+01  1.00800000E+00  1.00800000E+00  1.60000000E+01  1.00800000E+00
  1.00800000E+00  1.60000000E+01  1.00800000E+00  1.00800000E+00  1.60000000E+01
  1.00800000E+00  1.00800000E+00  1.60000000E+01  1.00800000E+00  1.00800000E+00
  1.60000000E+01  1.00800000E+00  1.00800000E+00  1.60000000E+01  1.00800000E+00
  1.00800000E+00  1.60000000E+01  1.00800000E+00  1.00800000E+00  1.60000000E+01
  1.00800000E+00  1.00800000E+00  1.60000000E+01  1.00800000E+00  1.00800000E+00
  1.60000000E+01  1.00800000E+00  1.00800000E+00  1.60000000E+01  1.00800000E+00
  1.00800000E+00  1.60000000E+01  1.00800000E+00  1.00800000E+00  1.60000000E+01
  1.00800000E+00  1.00800000E+00  1.60000000E+01  1.00800000E+00  1.00800000E+00
  1.60000000E+01  1.00800000E+00  1.00800000E+00  1.60000000E+01  1.00800000E+00
  1.00800000E+00  1.60000000E+01  1.00800000E+00  1.00800000E+00  1.60000000E+01
  1.00800000E+00  1.00800000E+00  1.60000000E+01  1.00800000E+00  1.00800000E+00
  1.60000000E+01  1.00800000E+00  1.00800000E+00  1.60000000E+01  1.00800000E+00
  1.00800000E+00  1.60000000E+01  1.00800000E+00  1.00800000E+00  1.60000000E+01
  1.00800000E+00  1.00800000E+00  1.60000000E+01  1.00800000E+00  1.00800000E+00
  1.60000000E+01  1.00800000E+00  1.00800000E+00  1.60000000E+01  1.00800000E+00
  1.00800000E+00  1.60000000E+01  1.00800000E+00  1.00800000E+00  1.60000000E+01
  1.00800000E+00  1.00800000E+00  1.60000000E+01  1.00800000E+00  1.00800000E+00
  1.60000000E+01  1.00800000E+00  1.00800000E+00  1.60000000E+01  1.00800000E+00
  1.00800000E+00  1.60000000E+01  1.00800000E+00  1.00800000E+00  1.60000000E+01
  1.00800000E+00  1.00800000E+00  1.60000000E+01  1.00800000E+00  1.00800000E+00
  1.60000000E+01  1.00800000E+00  1.00800000E+00  1.60000000E+01  1.00800000E+00
  1.00800000E+00  1.60000000E+01  1.00800000E+00  1.00800000E+00  1.60000000E+01
  1.00800000E+00  1.00800000E+00  1.60000000E+01  1.00800000E+00  1.00800000E+00
  1.60000000E+01  1.00800000E+00  1.00800000E+00  1.60000000E+01  1.00800000E+00
  1.00800000E+00  1.60000000E+01  1.00800000E+00  1.00800000E+00  1.60000000E+01
  1.00800000E+00  1.00800000E+00  1.60000000E+01  1.00800000E+00  1.00800000E+00
  1.60000000E+01  1.00800000E+00  1.00800000E+00  1.60000000E+01  1.00800000E+00
  1.00800000E+00  1.60000000E+01  1.00800000E+00  1.00800000E+00  1.60000000E+01
  1.00800000E+00  1.00800000E+00  1.60000000E+01  1.00800000E+00  1.00800000E+00
  1.60000000E+01  1.00800000E+00  1.00800000E+00  1.60000000E+01  1.00800000E+00
  1.00800000E+00  1.60000000E+01  1.00800000E+00  1.00800000E+00  1.60000000E+01
  1.00800000E+00  1.00800000E+00  1.60000000E+01  1.00800000E+00  1.00800000E+00
  1.60000000E+01  1.00800000E+00  1.00800000E+00  1.60000000E+01  1.00800000E+00
  1.00800000E+00  1.60000000E+01  1.00800000E+00  1.00800000E+00  1.60000000E+01
  1.00800000E+00  1.00800000E+00  1.60000000E+01  1.00800000E+00  1.00800000E+00
  1.60000000E+01  1.00800000E+00  1.00800000E+00  1.60000000E+01  1.00800000E+00
  1.00800000E+00  1.60000000E+01  1.00800000E+00  1.00800000E+00  1.60000000E+01
  1.00800000E+00  1.00800000E+00  1.60000000E+01  1.00800000E+00  1.00800000E+00
  1.60000000E+01  1.00800000E+00  1.00800000E+00  1.60000000E+01  1.00800000E+00
  1.00800000E+00  1.60000000E+01  1.00800000E+00  1.00800000E+00  1.60000000E+01
  1.00800000E+00  1.00800000E+00  1.60000000E+01  1.00800000E+00  1.00800000E+00
  1.60000000E+01  1.00800000E+00  1.00800000E+00  1.60000000E+01  1.00800000E+00
  1.00800000E+00  1.60000000E+01  1.00800000E+00  1.00800000E+00  1.60000000E+01
  1.00800000E+00  1.00800000E+00  1.60000000E+01  1.00800000E+00  1.00800000E+00
  1.60000000E+01  1.00800000E+00  1.00800000E+00  1.60000000E+01  1.00800000E+00
  1.00800000E+00  1.60000000E+01  1.00800000E+00  1.00800000E+00  1.60000000E+01
  1.00800000E+00  1.00800000E+00  1.60000000E+01  1.00800000E+00  1.00800000E+00
  1.60000000E+01  1.00800000E+00  1.00800000E+00  1.60000000E+01  1.00800000E+00
  1.00800000E+00  1.60000000E+01  1.00800000E+00  1.00800000E+00  1.60000000E+01
  1.00800000E+00  1.00800000E+00  1.60000000E+01  1.00800000E+00  1.00800000E+00
  1.60000000E+01  1.00800000E+00  1.00800000E+00  1.60000000E+01  1.00800000E+00
  1.00800000E+00  1.60000000E+01  1.00800000E+00  1.00800000E+00  1.60000000E+01
  1.00800000E+00  1.00800000E+00  1.60000000E+01  1.00800000E+00  1.00800000E+00
  1.60000000E+01  1.00800000E+00  1.00800000E+00  1.60000000E+01  1.00800000E+00
  1.00800000E+00  1.60000000E+01  1.00800000E+00  1.00800000E+00  1.60000000E+01
  1.00800000E+00  1.00800000E+00  1.60000000E+01  1.00800000E+00  1.00800000E+00
  1.60000000E+01  1.00800000E+00  1.00800000E+00  1.60000000E+01  1.00800000E+00
  1.00800000E+00  1.60000000E+01  1.00800000E+00  1.00800000E+00  1.60000000E+01
  1.00800000E+00  1.00800000E+00  1.60000000E+01  1.00800000E+00  1.00800000E+00
  1.60000000E+01  1.00800000E+00  1.00800000E+00  1.60000000E+01  1.00800000E+00
  1.00800000E+00  1.60000000E+01  1.00800000E+00  1.00800000E+00  1.60000000E+01
  1.00800000E+00  1.00800000E+00  1.60000000E+01  1.00800000E+00  1.00800000E+00
  1.60000000E+01  1.00800000E+00  1.00800000E+00  1.60000000E+01  1.00800000E+00
  1.00800000E+00  1.60000000E+01  1.00800000E+00  1.00800000E+00  1.60000000E+01
  1.00800000E+00  1.00800000E+00  1.60000000E+01  1.00800000E+00  1.00800000E+00
  1.60000000E+01  1.00800000E+00  1.00800000E+00  1.60000000E+01  1.00800000E+00
  1.00800000E+00  1.60000000E+01  1.00800000E+00  1.00800000E+00  1.60000000E+01
  1.00800000E+00  1.00800000E+00  1.60000000E+01  1.00800000E+00  1.00800000E+00
  1.60000000E+01  1.00800000E+00  1.00800000E+00  1.60000000E+01  1.00800000E+00
  1.00800000E+00  1.60000000E+01  1.00800000E+00  1.00800000E+00  1.60000000E+01
  1.00800000E+00  1.00800000E+00  1.60000000E+01  1.00800000E+00  1.00800000E+00
  1.60000000E+01  1.00800000E+00  1.00800000E+00  1.60000000E+01  1.00800000E+00
  1.00800000E+00  1.60000000E+01  1.00800000E+00  1.00800000E+00  1.60000000E+01
  1.00800000E+00  1.00800000E+00  1.60000000E+01  1.00800000E+00  1.00800000E+00
  1.60000000E+01  1.00800000E+00  1.00800000E+00  1.60000000E+01  1.00800000E+00
  1.00800000E+00  1.60000000E+01  1.00800000E+00  1.00800000E+00  1.60000000E+01
  1.00800000E+00  1.00800000E+00  1.60000000E+01  1.00800000E+00  1.00800000E+00
  1.60000000E+01  1.00800000E+00  1.00800000E+00  1.60000000E+01  1.00800000E+00
  1.00800000E+00  1.60000000E+01  1.00800000E+00  1.00800000E+00  1.60000000E+01
  1.00800000E+00  1.00800000E+00  1.60000000E+01  1.00800000E+00  1.00800000E+00
  1.60000000E+01  1.00800000E+00  1.00800000E+00  1.60000000E+01  1.00800000E+00
  1.00800000E+00  1.60000000E+01  1.00800000E+00  1.00800000E+00  1.60000000E+01
  1.00800000E+00  1.00800000E+00  1.60000000E+01  1.00800000E+00  1.00800000E+00
  1.60000000E+01  1.00800000E+00  1.00800000E+00  1.60000000E+01  1.00800000E+00
  1.00800000E+00  1.60000000E+01  1.00800000E+00  1.00800000E+00  1.60000000E+01
  1.00800000E+00  1.00800000E+00  1.60000000E+01  1.00800000E+00  1.00800000E+00
  1.60000000E+01  1.00800000E+00  1.00800000E+00  1.60000000E+01  1.00800000E+00
  1.00800000E+00  1.60000000E+01  1.00800000E+00  1.00800000E+00  1.60000000E+01
  1.00800000E+00  1.00800000E+00  1.60000000E+01  1.00800000E+00  1.00800000E+00
  1.60000000E+01  1.00800000E+00  1.00800000E+00  1.60000000E+01  1.00800000E+00
  1.00800000E+00  1.60000000E+01  1.00800000E+00  1.00800000E+00  1.60000000E+01
  1.00800000E+00  1.00800000E+00  1.60000000E+01  1.00800000E+00  1.00800000E+00
  1.60000000E+01  1.00800000E+00  1.00800000E+00  1.60000000E+01  1.00800000E+00
  1.00800000E+00  1.60000000E+01  1.00800000E+00  1.00800000E+00  1.60000000E+01
  1.00800000E+00  1.00800000E+00  1.60000000E+01  1.00800000E+00  1.00800000E+00
  1.60000000E+01  1.00800000E+00  1.00800000E+00  1.60000000E+01  1.00800000E+00
  1.00800000E+00  1.60000000E+01  1.00800000E+00  1.00800000E+00  1.60000000E+01
  1.00800000E+00  1.00800000E+00  1.60000000E+01  1.00800000E+00  1.00800000E+00
  1.60000000E+01  1.00800000E+00  1.00800000E+00  1.60000000E+01  1.00800000E+00
  1.00800000E+00  1.60000000E+01  1.00800000E+00  1.00800000E+00  1.60000000E+01
  1.00800000E+00  1.00800000E+00  1.60000000E+01  1.00800000E+00  1.00800000E+00
  1.60000000E+01  1.00800000E+00  1.00800000E+00  1.60000000E+01  1.00800000E+00
  1.00800000E+00  1.60000000E+01  1.00800000E+00  1.00800000E+00  1.60000000E+01
  1.00800000E+00  1.00800000E+00  1.60000000E+01  1.00800000E+00  1.00800000E+00
  1.60000000E+01  1.00800000E+00  1.00800000E+00  1.60000000E+01  1.00800000E+00
  1.00800000E+00  1.60000000E+01  1.00800000E+00  1.00800000E+00  1.60000000E+01
  1.00800000E+00  1.00800000E+00  1.60000000E+01  1.00800000E+00  1.00800000E+00
  1.60000000E+01  1.00800000E+00  1.00800000E+00  1.60000000E+01  1.00800000E+00
  1.00800000E+00  1.60000000E+01  1.00800000E+00  1.00800000E+00  1.60000000E+01
  1.00800000E+00  1.00800000E+00  1.60000000E+01  1.00800000E+00  1.00800000E+00
  1.60000000E+01  1.00800000E+00  1.00800000E+00  1.60000000E+01  1.00800000E+00
  1.00800000E+00  1.60000000E+01  1.00800000E+00  1.00800000E+00  1.60000000E+01
  1.00800000E+00  1.00800000E+00  1.60000000E+01  1.00800000E+00  1.00800000E+00
  1.60000000E+01  1.00800000E+00  1.00800000E+00  1.60000000E+01  1.00800000E+00
  1.00800000E+00  1.60000000E+01  1.00800000E+00  1.00800000E+00  1.60000000E+01
  1.00800000E+00  1.00800000E+00  1.60000000E+01  1.00800000E+00  1.00800000E+00
  1.60000000E+01  1.00800000E+00  1.00800000E+00  1.60000000E+01  1.00800000E+00
  1.00800000E+00  1.60000000E+01  1.00800000E+00  1.00800000E+00  1.60000000E+01
  1.00800000E+00  1.00800000E+00  1.60000000E+01  1.00800000E+00  1.00800000E+00
  1.60000000E+01  1.00800000E+00  1.00800000E+00  1.60000000E+01  1.00800000E+00
  1.00800000E+00  1.60000000E+01  1.00800000E+00  1.00800000E+00  1.60000000E+01
  1.00800000E+00  1.00800000E+00  1.60000000E+01  1.00800000E+00  1.00800000E+00
  1.60000000E+01  1.00800000E+00  1.00800000E+00  1.60000000E+01  1.00800000E+00
  1.00800000E+00  1.60000000E+01  1.00800000E+00  1.00800000E+00  1.60000000E+01
  1.00800000E+00  1.00800000E+00  1.60000000E+01  1.00800000E+00  1.00800000E+00
  1.60000000E+01  1.00800000E+00  1.00800000E+00  1.60000000E+01  1.00800000E+00
  1.00800000E+00  1.60000000E+01  1.00800000E+00  1.00800000E+00  1.60000000E+01
  1.00800000E+00  1.00800000E+00  1.60000000E+01  1.00800000E+00  1.00800000E+00
  1.60000000E+01  1.00800000E+00  1.00800000E+00  1.60000000E+01  1.00800000E+00
  1.00800000E+00  1.60000000E+01  1.00800000E+00  1.00800000E+00  1.60000000E+01
  1.00800000E+00  1.00800000E+00  1.60000000E+01  1.00800000E+00  1.00800000E+00
  1.60000000E+01  1.00800000E+00  1.00800000E+00  1.60000000E+01  1.00800000E+00
  1.00800000E+00  1.60000000E+01  1.00800000E+00  1.00800000E+00  1.60000000E+01
  1.00800000E+00  1.00800000E+00  1.60000000E+01  1.00800000E+00  1.00800000E+00
  1.60000000E+01  1.00800000E+00  1.00800000E+00  1.60000000E+01  1.00800000E+00
  1.00800000E+00  1.60000000E+01  1.00800000E+00  1.00800000E+00  1.60000000E+01
  1.00800000E+00  1.00800000E+00  1.60000000E+01  1.00800000E+00  1.00800000E+00
  1.60000000E+01  1.00800000E+00  1.00800000E+00  1.60000000E+01  1.00800000E+00
  1.00800000E+00  1.60000000E+01  1.00800000E+00  1.00800000E+00  1.60000000E+01
  1.00800000E+00  1.00800000E+00  1.60000000E+01  1.00800000E+00  1.00800000E+00
  1.60000000E+01  1.00800000E+00  1.00800000E+00  1.60000000E+01  1.00800000E+00
  1.00800000E+00  1.60000000E+01  1.00800000E+00  1.00800000E+00  1.60000000E+01
  1.00800000E+00  1.00800000E+00  1.60000000E+01  1.00800000E+00  1.00800000E+00
  1.60000000E+01  1.00800000E+00  1.00800000E+00  1.60000000E+01  1.00800000E+00
  1.00800000E+00  1.60000000E+01  1.00800000E+00  1.00800000E+00  1.60000000E+01
  1.00800000E+00  1.00800000E+00  1.60000000E+01  1.00800000E+00  1.00800000E+00
  1.60000000E+01  1.00800000E+00  1.00800000E+00  1.60000000E+01  1.00800000E+00
  1.00800000E+00  1.60000000E+01  1.00800000E+00  1.00800000E+00  1.60000000E+01
  1.00800000E+00  1.00800000E+00  1.60000000E+01  1.00800000E+00  1.00800000E+00
  1.60000000E+01  1.00800000E+00  1.00800000E+00  1.60000000E+01  1.00800000E+00
  1.00800000E+00  1.60000000E+01  1.00800000E+00  1.00800000E+00  1.60000000E+01
  1.00800000E+00  1.00800000E+00  1.60000000E+01  1.00800000E+00  1.00800000E+00
  1.60000000E+01  1.00800000E+00  1.00800000E+00  1.60000000E+01  1.00800000E+00
  1.00800000E+00  1.60000000E+01  1.00800000E+00  1.00800000E+00  1.60000000E+01
  1.00800000E+00  1.00800000E+00  1.60000000E+01  1.00800000E+00  1.00800000E+00
  1.60000000E+01  1.00800000E+00  1.00800000E+00  1.60000000E+01  1.00800000E+00
  1.00800000E+00  1.60000000E+01  1.00800000E+00  1.00800000E+00  1.60000000E+01
  1.00800000E+00  1.00800000E+00  1.60000000E+01  1.00800000E+00  1.00800000E+00
  1.60000000E+01  1.00800000E+00  1.00800000E+00  1.60000000E+01  1.00800000E+00
  1.00800000E+00  1.60000000E+01  1.00800000E+00  1.00800000E+00  1.60000000E+01
  1.00800000E+00  1.00800000E+00  1.60000000E+01  1.00800000E+00  1.00800000E+00
  1.60000000E+01  1.00800000E+00  1.00800000E+00  1.60000000E+01  1.00800000E+00
  1.00800000E+00  1.60000000E+01  1.00800000E+00  1.00800000E+00  1.60000000E+01
  1.00800000E+00  1.00800000E+00  1.60000000E+01  1.00800000E+00  1.00800000E+00
  1.60000000E+01  1.00800000E+00  1.00800000E+00  1.60000000E+01  1.00800000E+00
  1.00800000E+00  1.60000000E+01  1.00800000E+00  1.00800000E+00  1.60000000E+01
  1.00800000E+00  1.00800000E+00  1.60000000E+01  1.00800000E+00  1.00800000E+00
  1.60000000E+01  1.00800000E+00  1.00800000E+00  1.60000000E+01  1.00800000E+00
  1.00800000E+00  1.60000000E+01  1.00800000E+00  1.00800000E+00  1.60000000E+01
  1.00800000E+00  1.00800000E+00  1.60000000E+01  1.00800000E+00  1.00800000E+00
  1.60000000E+01  1.00800000E+00  1.00800000E+00  1.60000000E+01  1.00800000E+00
  1.00800000E+00  1.60000000E+01  1.00800000E+00  1.00800000E+00  1.60000000E+01
  1.00800000E+00  1.00800000E+00  1.60000000E+01  1.00800000E+00  1.00800000E+00
  1.60000000E+01  1.00800000E+00  1.00800000E+00  1.60000000E+01  1.00800000E+00
  1.00800000E+00  1.60000000E+01  1.00800000E+00  1.00800000E+00  1.60000000E+01
  1.00800000E+00  1.00800000E+00  1.60000000E+01  1.00800000E+00  1.00800000E+00
  1.60000000E+01  1.00800000E+00  1.00800000E+00  1.60000000E+01  1.00800000E+00
  1.00800000E+00  1.60000000E+01  1.00800000E+00  1.00800000E+00  1.60000000E+01
  1.00800000E+00  1.00800000E+00  1.60000000E+01  1.00800000E+00  1.00800000E+00
  1.60000000E+01  1.00800000E+00  1.00800000E+00  1.60000000E+01  1.00800000E+00
  1.00800000E+00  1.60000000E+01  1.00800000E+00  1.00800000E+00  1.60000000E+01
  1.00800000E+00  1.00800000E+00  1.60000000E+01  1.00800000E+00  1.00800000E+00
  1.60000000E+01  1.00800000E+00  1.00800000E+00  1.60000000E+01  1.00800000E+00
  1.00800000E+00  1.60000000E+01  1.00800000E+00  1.00800000E+00  1.60000000E+01
  1.00800000E+00  1.00800000E+00  1.60000000E+01  1.00800000E+00  1.00800000E+00
  1.60000000E+01  1.00800000E+00  1.00800000E+00  1.60000000E+01  1.00800000E+00
  1.00800000E+00  1.60000000E+01  1.00800000E+00  1.00800000E+00  1.60000000E+01
  1.00800000E+00  1.00800000E+00  1.60000000E+01  1.00800000E+00  1.00800000E+00
  1.60000000E+01  1.00800000E+00  1.00800000E+00  1.60000000E+01  1.00800000E+00
  1.00800000E+00  1.60000000E+01  1.00800000E+00  1.00800000E+00  1.60000000E+01
  1.00800000E+00  1.00800000E+00  1.60000000E+01  1.00800000E+00  1.00800000E+00
  1.60000000E+01  1.00800000E+00  1.00800000E+00  1.60000000E+01  1.00800000E+00
  1.00800000E+00  1.60000000E+01  1.00800000E+00  1.00800000E+00  1.60000000E+01
  1.00800000E+00  1.00800000E+00  1.60000000E+01  1.00800000E+00  1.00800000E+00
  1.60000000E+01  1.00800000E+00  1.00800000E+00  1.60000000E+01  1.00800000E+00
  1.00800000E+00  1.60000000E+01  1.00800000E+00  1.00800000E+00  1.60000000E+01
  1.00800000E+00  1.00800000E+00  1.60000000E+01  1.00800000E+00  1.00800000E+00
  1.60000000E+01  1.00800000E+00  1.00800000E+00  1.60000000E+01  1.00800000E+00
  1.00800000E+00  1.60000000E+01  1.00800000E+00  1.00800000E+00  1.60000000E+01
  1.00800000E+00  1.00800000E+00  1.60000000E+01  1.00800000E+00  1.00800000E+00
  1.60000000E+01  1.00800000E+00  1.00800000E+00  1.60000000E+01  1.00800000E+00
  1.00800000E+00  1.60000000E+01  1.00800000E+00  1.00800000E+00  1.60000000E+01
  1.00800000E+00  1.00800000E+00  1.60000000E+01  1.00800000E+00  1.00800000E+00
  1.60000000E+01  1.00800000E+00  1.00800000E+00  1.60000000E+01  1.00800000E+00
  1.00800000E+00  1.60000000E+01  1.00800000E+00  1.00800000E+00  1.60000000E+01
  1.00800000E+00  1.00800000E+00  1.60000000E+01  1.00800000E+00  1.00800000E+00
  1.60000000E+01  1.00800000E+00  1.00800000E+00  1.60000000E+01  1.00800000E+00
  1.00800000E+00  1.60000000E+01  1.00800000E+00  1.00800000E+00  1.60000000E+01
  1.00800000E+00  1.00800000E+00  1.60000000E+01  1.00800000E+00  1.00800000E+00
  1.60000000E+01  1.00800000E+00  1.00800000E+00  1.60000000E+01  1.00800000E+00
  1.00800000E+00  1.60000000E+01  1.00800000E+00  1.00800000E+00  1.60000000E+01
  1.00800000E+00  1.00800000E+00  1.60000000E+01  1.00800000E+00  1.00800000E+00
  1.60000000E+01  1.00800000E+00  1.00800000E+00  1.60000000E+01  1.00800000E+00
  1.00800000E+00  1.60000000E+01  1.00800000E+00  1.00800000E+00  1.60000000E+01
  1.00800000E+00  1.00800000E+00  1.60000000E+01  1.00800000E+00  1.00800000E+00
  1.60000000E+01  1.00800000E+00  1.00800000E+00  1.60000000E+01  1.00800000E+00
  1.00800000E+00  1.60000000E+01  1.00800000E+00  1.00800000E+00  1.60000000E+01
  1.00800000E+00  1.00800000E+00  1.60000000E+01  1.00800000E+00  1.00800000E+00
  1.60000000E+01  1.00800000E+00  1.00800000E+00  1.60000000E+01  1.00800000E+00
  1.00800000E+00  1.60000000E+01  1.00800000E+00  1.00800000E+00  1.60000000E+01
  1.00800000E+00  1.00800000E+00  1.60000000E+01  1.00800000E+00  1.00800000E+00
  1.60000000E+01  1.00800000E+00  1.00800000E+00  1.60000000E+01  1.00800000E+00
  1.00800000E+00  1.60000000E+01  1.00800000E+00  1.00800000E+00  1.60000000E+01
  1.00800000E+00  1.00800000E+00  1.60000000E+01  1.00800000E+00  1.00800000E+00
  1.60000000E+01  1.00800000E+00  1.00800000E+00  1.60000000E+01  1.00800000E+00
  1.00800000E+00  1.60000000E+01  1.00800000E+00  1.00800000E+00  1.60000000E+01
  1.00800000E+00  1.00800000E+00  1.60000000E+01  1.00800000E+00  1.00800000E+00
  1.60000000E+01  1.00800000E+00  1.00800000E+00  1.60000000E+01  1.00800000E+00
  1.00800000E+00  1.60000000E+01  1.00800000E+00  1.00800000E+00  1.60000000E+01
  1.00800000E+00  1.00800000E+00  1.60000000E+01  1.00800000E+00  1.00800000E+00
  1.60000000E+01  1.00800000E+00  1.00800000E+00  1.60000000E+01  1.00800000E+00
  1.00800000E+00  1.60000000E+01  1.00800000E+00  1.00800000E+00  1.60000000E+01
  1.00800000E+00  1.00800000E+00  1.60000000E+01  1.00800000E+00  1.00800000E+00
  1.60000000E+01  1.00800000E+00  1.00800000E+00  1.60000000E+01  1.00800000E+00
  1.00800000E+00  1.60000000E+01  1.00800000E+00  1.00800000E+00  1.60000000E+01
  1.00800000E+00  1.00800000E+00  1.60000000E+01  1.00800000E+00  1.00800000E+00
  1.60000000E+01  1.00800000E+00  1.00800000E+00  1.60000000E+01  1.00800000E+00
  1.00800000E+00  1.60000000E+01  1.00800000E+00  1.00800000E+00  1.60000000E+01
  1.00800000E+00  1.00800000E+00  1.60000000E+01  1.00800000E+00  1.00800000E+00
  1.60000000E+01  1.00800000E+00  1.00800000E+00  1.60000000E+01  1.00800000E+00
  1.00800000E+00  1.60000000E+01  1.00800000E+00  1.00800000E+00  1.60000000E+01
  1.00800000E+00  1.00800000E+00  1.60000000E+01  1.00800000E+00  1.00800000E+00
  1.60000000E+01  1.00800000E+00  1.00800000E+00  1.60000000E+01  1.00800000E+00
  1.00800000E+00  1.60000000E+01  1.00800000E+00  1.00800000E+00  1.60000000E+01
  1.00800000E+00  1.00800000E+00  1.60000000E+01  1.00800000E+00  1.00800000E+00
  1.60000000E+01  1.00800000E+00  1.00800000E+00  1.60000000E+01  1.00800000E+00
  1.00800000E+00  1.60000000E+01  1.00800000E+00  1.00800000E+00  1.60000000E+01
  1.00800000E+00  1.00800000E+00  1.60000000E+01  1.00800000E+00  1.00800000E+00
  1.60000000E+01  1.00800000E+00  1.00800000E+00  1.60000000E+01  1.00800000E+00
  1.00800000E+00  1.60000000E+01  1.00800000E+00  1.00800000E+00  1.60000000E+01
  1.00800000E+00  1.00800000E+00  1.60000000E+01  1.00800000E+00  1.00800000E+00
  1.60000000E+01  1.00800000E+00  1.00800000E+00  1.60000000E+01  1.00800000E+00
  1.00800000E+00  1.60000000E+01  1.00800000E+00  1.00800000E+00  1.60000000E+01
  1.00800000E+00  1.00800000E+00  1.60000000E+01  1.00800000E+00  1.00800000E+00
  1.60000000E+01  1.00800000E+00  1.00800000E+00  1.60000000E+01  1.00800000E+00
  1.00800000E+00  1.60000000E+01  1.00800000E+00  1.00800000E+00  1.60000000E+01
  1.00800000E+00  1.00800000E+00  1.60000000E+01  1.00800000E+00  1.00800000E+00
  1.60000000E+01  1.00800000E+00  1.00800000E+00  1.60000000E+01  1.00800000E+00
  1.00800000E+00  1.60000000E+01  1.00800000E+00  1.00800000E+00  1.60000000E+01
  1.00800000E+00  1.00800000E+00  1.60000000E+01  1.00800000E+00  1.00800000E+00
  1.60000000E+01  1.00800000E+00  1.00800000E+00  1.60000000E+01  1.00800000E+00
  1.00800000E+00  1.60000000E+01  1.00800000E+00  1.00800000E+00  1.60000000E+01
  1.00800000E+00  1.00800000E+00  1.60000000E+01  1.00800000E+00  1.00800000E+00
  1.60000000E+01  1.00800000E+00  1.00800000E+00  1.60000000E+01  1.00800000E+00
  1.00800000E+00  1.60000000E+01  1.00800000E+00  1.00800000E+00  1.60000000E+01
  1.00800000E+00  1.00800000E+00  1.60000000E+01  1.00800000E+00  1.00800000E+00
  1.60000000E+01  1.00800000E+00  1.00800000E+00  1.60000000E+01  1.00800000E+00
  1.00800000E+00  1.60000000E+01  1.00800000E+00  1.00800000E+00  1.60000000E+01
  1.00800000E+00  1.00800000E+00  1.60000000E+01  1.00800000E+00  1.00800000E+00
  1.60000000E+01  1.00800000E+00  1.00800000E+00  1.60000000E+01  1.00800000E+00
  1.00800000E+00  1.60000000E+01  1.00800000E+00  1.00800000E+00  1.60000000E+01
  1.00800000E+00  1.00800000E+00  1.60000000E+01  1.00800000E+00  1.00800000E+00
  1.60000000E+01  1.00800000E+00  1.00800000E+00  1.60000000E+01  1.00800000E+00
  1.00800000E+00  1.60000000E+01  1.00800000E+00  1.00800000E+00  1.60000000E+01
  1.00800000E+00  1.00800000E+00  1.60000000E+01  1.00800000E+00  1.00800000E+00
  1.60000000E+01  1.00800000E+00  1.00800000E+00  1.60000000E+01  1.00800000E+00
  1.00800000E+00  1.60000000E+01  1.00800000E+00  1.00800000E+00  1.60000000E+01
  1.00800000E+00  1.00800000E+00  1.60000000E+01  1.00800000E+00  1.00800000E+00
  1.60000000E+01  1.00800000E+00  1.00800000E+00  1.60000000E+01  1.00800000E+00
  1.00800000E+00  1.60000000E+01  1.00800000E+00  1.00800000E+00  1.60000000E+01
  1.00800000E+00  1.00800000E+00  1.60000000E+01  1.00800000E+00  1.00800000E+00
  1.60000000E+01  1.00800000E+00  1.00800000E+00  1.60000000E+01  1.00800000E+00
  1.00800000E+00  1.60000000E+01  1.00800000E+00  1.00800000E+00  1.60000000E+01
  1.00800000E+00  1.00800000E+00  1.60000000E+01  1.00800000E+00  1.00800000E+00
  1.60000000E+01  1.00800000E+00  1.00800000E+00  1.60000000E+01  1.00800000E+00
  1.00800000E+00  1.60000000E+01  1.00800000E+00  1.00800000E+00  1.60000000E+01
  1.00800000E+00  1.00800000E+00  1.60000000E+01  1.00800000E+00  1.00800000E+00
  1.60000000E+01  1.00800000E+00  1.00800000E+00  1.60000000E+01  1.00800000E+00
  1.00800000E+00  1.60000000E+01  1.00800000E+00  1.00800000E+00  1.60000000E+01
  1.00800000E+00  1.00800000E+00  1.60000000E+01  1.00800000E+00  1.00800000E+00
  1.60000000E+01  1.00800000E+00  1.00800000E+00  1.60000000E+01  1.00800000E+00
  1.00800000E+00  1.60000000E+01  1.00800000E+00  1.00800000E+00  1.60000000E+01
  1.00800000E+00  1.00800000E+00  1.60000000E+01  1.00800000E+00  1.00800000E+00
  1.60000000E+01  1.00800000E+00  1.00800000E+00  1.60000000E+01  1.00800000E+00
  1.00800000E+00  1.60000000E+01  1.00800000E+00  1.00800000E+00  1.60000000E+01
  1.00800000E+00  1.00800000E+00  1.60000000E+01  1.00800000E+00  1.00800000E+00
  1.60000000E+01  1.00800000E+00  1.00800000E+00  1.60000000E+01  1.00800000E+00
  1.00800000E+00  1.60000000E+01  1.00800000E+00  1.00800000E+00  1.60000000E+01
  1.00800000E+00  1.00800000E+00  1.60000000E+01  1.00800000E+00  1.00800000E+00
  1.60000000E+01  1.00800000E+00  1.00800000E+00  1.60000000E+01  1.00800000E+00
  1.00800000E+00  1.60000000E+01  1.00800000E+00  1.00800000E+00  1.60000000E+01
  1.00800000E+00  1.00800000E+00  1.60000000E+01  1.00800000E+00  1.00800000E+00
  1.60000000E+01  1.00800000E+00  1.00800000E+00  1.60000000E+01  1.00800000E+00
  1.00800000E+00  1.60000000E+01  1.00800000E+00  1.00800000E+00  1.60000000E+01
  1.00800000E+00  1.00800000E+00  1.60000000E+01  1.00800000E+00  1.00800000E+00
  1.60000000E+01  1.00800000E+00  1.00800000E+00  1.60000000E+01  1.00800000E+00
  1.00800000E+00  1.60000000E+01  1.00800000E+00  1.00800000E+00  1.60000000E+01
  1.00800000E+00  1.00800000E+00  1.60000000E+01  1.00800000E+00  1.00800000E+00
  1.60000000E+01  1.00800000E+00  1.00800000E+00  1.60000000E+01  1.00800000E+00
  1.00800000E+00  1.60000000E+01  1.00800000E+00  1.00800000E+00  1.60000000E+01
  1.00800000E+00  1.00800000E+00  1.60000000E+01  1.00800000E+00  1.00800000E+00
  1.60000000E+01  1.00800000E+00  1.00800000E+00  1.60000000E+01  1.00800000E+00
  1.00800000E+00  1.60000000E+01  1.00800000E+00  1.00800000E+00  1.60000000E+01
  1.00800000E+00  1.00800000E+00  1.60000000E+01  1.00800000E+00  1.00800000E+00
  1.60000000E+01  1.00800000E+00  1.00800000E+00  1.60000000E+01  1.00800000E+00
  1.00800000E+00  1.60000000E+01  1.00800000E+00  1.00800000E+00  1.60000000E+01
  1.00800000E+00  1.00800000E+00  1.60000000E+01  1.00800000E+00  1.00800000E+00
  1.60000000E+01  1.00800000E+00  1.00800000E+00  1.60000000E+01  1.00800000E+00
  1.00800000E+00  1.60000000E+01  1.00800000E+00  1.00800000E+00  1.60000000E+01
  1.00800000E+00  1.00800000E+00  1.60000000E+01  1.00800000E+00  1.00800000E+00
  1.60000000E+01  1.00800000E+00  1.00800000E+00  1.60000000E+01  1.00800000E+00
  1.00800000E+00  1.60000000E+01  1.00800000E+00  1.00800000E+00  1.60000000E+01
  1.00800000E+00  1.00800000E+00  1.60000000E+01  1.00800000E+00  1.00800000E+00
  1.60000000E+01  1.00800000E+00  1.00800000E+00  1.60000000E+01  1.00800000E+00
  1.00800000E+00  1.60000000E+01  1.00800000E+00  1.00800000E+00  1.60000000E+01
  1.00800000E+00  1.00800000E+00  1.60000000E+01  1.00800000E+00  1.00800000E+00
  1.60000000E+01  1.00800000E+00  1.00800000E+00  1.60000000E+01  1.00800000E+00
  1.00800000E+00  1.60000000E+01  1.00800000E+00  1.00800000E+00  1.60000000E+01
  1.00800000E+00  1.00800000E+00  1.60000000E+01  1.00800000E+00  1.00800000E+00
  1.60000000E+01  1.00800000E+00  1.00800000E+00  1.60000000E+01  1.00800000E+00
  1.00800000E+00  1.60000000E+01  1.00800000E+00  1.00800000E+00  1.60000000E+01
  1.00800000E+00  1.00800000E+00  1.60000000E+01  1.00800000E+00  1.00800000E+00
  1.60000000E+01  1.00800000E+00  1.00800000E+00  1.60000000E+01  1.00800000E+00
  1.00800000E+00  1.60000000E+01  1.00800000E+00  1.00800000E+00  1.60000000E+01
  1.00800000E+00  1.00800000E+00  1.60000000E+01  1.00800000E+00  1.00800000E+00
  1.60000000E+01  1.00800000E+00  1.00800000E+00  1.60000000E+01  1.00800000E+00
  1.00800000E+00  1.60000000E+01  1.00800000E+00  1.00800000E+00  1.60000000E+01
  1.00800000E+00  1.00800000E+00  1.60000000E+01  1.00800000E+00  1.00800000E+00
  1.60000000E+01  1.00800000E+00  1.00800000E+00  1.60000000E+01  1.00800000E+00
  1.00800000E+00  1.60000000E+01  1.00800000E+00  1.00800000E+00  1.60000000E+01
  1.00800000E+00  1.00800000E+00  1.60000000E+01  1.00800000E+00  1.00800000E+00
  1.60000000E+01  1.00800000E+00  1.00800000E+00  1.60000000E+01  1.00800000E+00
  1.00800000E+00  1.60000000E+01  1.00800000E+00  1.00800000E+00  1.60000000E+01
  1.00800000E+00  1.00800000E+00  1.60000000E+01  1.00800000E+00  1.00800000E+00
  1.60000000E+01  1.00800000E+00  1.00800000E+00  1.60000000E+01  1.00800000E+00
  1.00800000E+00  1.60000000E+01  1.00800000E+00  1.00800000E+00  1.60000000E+01
  1.00800000E+00  1.00800000E+00  1.60000000E+01  1.00800000E+00  1.00800000E+00
  1.60000000E+01  1.00800000E+00  1.00800000E+00  1.60000000E+01  1.00800000E+00
  1.00800000E+00  1.60000000E+01  1.00800000E+00  1.00800000E+00  1.60000000E+01
  1.00800000E+00  1.00800000E+00  1.60000000E+01  1.00800000E+00  1.00800000E+00
  1.60000000E+01  1.00800000E+00  1.00800000E+00  1.60000000E+01  1.00800000E+00
  1.00800000E+00  1.60000000E+01  1.00800000E+00  1.00800000E+00  1.60000000E+01
  1.00800000E+00  1.00800000E+00  1.60000000E+01  1.00800000E+00  1.00800000E+00
  1.60000000E+01  1.00800000E+00  1.00800000E+00  1.60000000E+01  1.00800000E+00
  1.00800000E+00  1.60000000E+01  1.00800000E+00  1.00800000E+00  1.60000000E+01
  1.00800000E+00  1.00800000E+00  1.60000000E+01  1.00800000E+00  1.00800000E+00
  1.60000000E+01  1.00800000E+00  1.00800000E+00  1.60000000E+01  1.00800000E+00
  1.00800000E+00  1.60000000E+01  1.00800000E+00  1.00800000E+00  1.60000000E+01
  1.00800000E+00  1.00800000E+00  1.60000000E+01  1.00800000E+00  1.00800000E+00
  1.60000000E+01  1.00800000E+00  1.00800000E+00  1.60000000E+01  1.00800000E+00
  1.00800000E+00  1.60000000E+01  1.00800000E+00  1.00800000E+00  1.60000000E+01
  1.00800000E+00  1.00800000E+00  1.60000000E+01  1.00800000E+00  1.00800000E+00
  1.60000000E+01  1.00800000E+00  1.00800000E+00  1.60000000E+01  1.00800000E+00
  1.00800000E+00  1.60000000E+01  1.00800000E+00  1.00800000E+00  1.60000000E+01
  1.00800000E+00  1.00800000E+00  1.60000000E+01  1.00800000E+00  1.00800000E+00
  1.60000000E+01  1.00800000E+00  1.00800000E+00  1.60000000E+01  1.00800000E+00
  1.00800000E+00  1.60000000E+01  1.00800000E+00  1.00800000E+00  1.60000000E+01
  1.00800000E+00  1.00800000E+00  1.60000000E+01  1.00800000E+00  1.00800000E+00
  1.60000000E+01  1.00800000E+00  1.00800000E+00  1.60000000E+01  1.00800000E+00
  1.00800000E+00  1.60000000E+01  1.00800000E+00  1.00800000E+00  1.60000000E+01
  1.00800000E+00  1.00800000E+00  1.60000000E+01  1.00800000E+00  1.00800000E+00
  1.60000000E+01  1.00800000E+00  1.00800000E+00  1.60000000E+01  1.00800000E+00
  1.00800000E+00  1.60000000E+01  1.00800000E+00  1.00800000E+00  1.60000000E+01
  1.00800000E+00  1.00800000E+00  1.60000000E+01  1.00800000E+00  1.00800000E+00
  1.60000000E+01  1.00800000E+00  1.00800000E+00  1.60000000E+01  1.00800000E+00
  1.00800000E+00  1.60000000E+01  1.00800000E+00  1.00800000E+00  1.60000000E+01
  1.00800000E+00  1.00800000E+00  1.60000000E+01  1.00800000E+00  1.00800000E+00
  1.60000000E+01  1.00800000E+00  1.00800000E+00  1.60000000E+01  1.00800000E+00
  1.00800000E+00  1.60000000E+01  1.00800000E+00  1.00800000E+00  1.60000000E+01
  1.00800000E+00  1.00800000E+00  1.60000000E+01  1.00800000E+00  1.00800000E+00
  1.60000000E+01  1.00800000E+00  1.00800000E+00  1.60000000E+01  1.00800000E+00
  1.00800000E+00  1.60000000E+01  1.00800000E+00  1.00800000E+00  1.60000000E+01
  1.00800000E+00  1.00800000E+00  1.60000000E+01  1.00800000E+00  1.00800000E+00
  1.60000000E+01  1.00800000E+00  1.00800000E+00  1.60000000E+01  1.00800000E+00
  1.00800000E+00  1.60000000E+01  1.00800000E+00  1.00800000E+00  1.60000000E+01
  1.00800000E+00  1.00800000E+00  1.60000000E+01  1.00800000E+00  1.00800000E+00
  1.60000000E+01  1.00800000E+00  1.00800000E+00  1.60000000E+01  1.00800000E+00
  1.00800000E+00  1.60000000E+01  1.00800000E+00  1.00800000E+00  1.60000000E+01
  1.00800000E+00  1.00800000E+00  1.60000000E+01  1.00800000E+00  1.00800000E+00
  1.60000000E+01  1.00800000E+00  1.00800000E+00  1.60000000E+01  1.00800000E+00
  1.00800000E+00  1.60000000E+01  1.00800000E+00  1.00800000E+00  1.60000000E+01
  1.00800000E+00  1.00800000E+00  1.60000000E+01  1.00800000E+00  1.00800000E+00
  1.60000000E+01  1.00800000E+00  1.00800000E+00  1.60000000E+01  1.00800000E+00
  1.00800000E+00  1.60000000E+01  1.00800000E+00  1.00800000E+00  1.60000000E+01
  1.00800000E+00  1.00800000E+00  1.60000000E+01  1.00800000E+00  1.00800000E+00
  1.60000000E+01  1.00800000E+00  1.00800000E+00  1.60000000E+01  1.00800000E+00
  1.00800000E+00  1.60000000E+01  1.00800000E+00  1.00800000E+00  1.60000000E+01
  1.00800000E+00  1.00800000E+00  1.60000000E+01  1.00800000E+00  1.00800000E+00
  1.60000000E+01  1.00800000E+00  1.00800000E+00  1.60000000E+01  1.00800000E+00
  1.00800000E+00  1.60000000E+01  1.00800000E+00  1.00800000E+00  1.60000000E+01
  1.00800000E+00  1.00800000E+00  1.60000000E+01  1.00800000E+00  1.00800000E+00
  1.60000000E+01  1.00800000E+00  1.00800000E+00  1.60000000E+01  1.00800000E+00
  1.00800000E+00  1.60000000E+01  1.00800000E+00  1.00800000E+00  1.60000000E+01
  1.00800000E+00  1.00800000E+00  1.60000000E+01  1.00800000E+00  1.00800000E+00
  1.60000000E+01  1.00800000E+00  1.00800000E+00  1.60000000E+01  1.00800000E+00
  1.00800000E+00  1.60000000E+01  1.00800000E+00  1.00800000E+00  1.60000000E+01
  1.00800000E+00  1.00800000E+00  1.60000000E+01  1.00800000E+00  1.00800000E+00
  1.60000000E+01  1.00800000E+00  1.00800000E+00  1.60000000E+01  1.00800000E+00
  1.00800000E+00  1.60000000E+01  1.00800000E+00  1.00800000E+00  1.60000000E+01
  1.00800000E+00  1.00800000E+00  1.60000000E+01  1.00800000E+00  1.00800000E+00
  1.60000000E+01  1.00800000E+00  1.00800000E+00  1.60000000E+01  1.00800000E+00
  1.00800000E+00  1.60000000E+01  1.00800000E+00  1.00800000E+00  1.60000000E+01
  1.00800000E+00  1.00800000E+00  1.60000000E+01  1.00800000E+00  1.00800000E+00
  1.60000000E+01  1.00800000E+00  1.00800000E+00  1.60000000E+01  1.00800000E+00
  1.00800000E+00  1.60000000E+01  1.00800000E+00  1.00800000E+00  1.60000000E+01
  1.00800000E+00  1.00800000E+00  1.60000000E+01  1.00800000E+00  1.00800000E+00
  1.60000000E+01  1.00800000E+00  1.00800000E+00  1.60000000E+01  1.00800000E+00
  1.00800000E+00  1.60000000E+01  1.00800000E+00  1.00800000E+00  1.60000000E+01
  1.00800000E+00  1.00800000E+00  1.60000000E+01  1.00800000E+00  1.00800000E+00
  1.60000000E+01  1.00800000E+00  1.00800000E+00  1.60000000E+01  1.00800000E+00
  1.00800000E+00  1.60000000E+01  1.00800000E+00  1.00800000E+00  1.60000000E+01
  1.00800000E+00  1.00800000E+00  1.60000000E+01  1.00800000E+00  1.00800000E+00
  1.60000000E+01  1.00800000E+00  1.00800000E+00  1.60000000E+01  1.00800000E+00
  1.00800000E+00  1.60000000E+01  1.00800000E+00  1.00800000E+00  1.60000000E+01
  1.00800000E+00  1.00800000E+00  1.60000000E+01  1.00800000E+00  1.00800000E+00
  1.60000000E+01  1.00800000E+00  1.00800000E+00  1.60000000E+01  1.00800000E+00
  1.00800000E+00  1.60000000E+01  1.00800000E+00  1.00800000E+00  1.60000000E+01
  1.00800000E+00  1.00800000E+00  1.60000000E+01  1.00800000E+00  1.00800000E+00
  1.60000000E+01  1.00800000E+00  1.00800000E+00  1.60000000E+01  1.00800000E+00
  1.00800000E+00  1.60000000E+01  1.00800000E+00  1.00800000E+00  1.60000000E+01
  1.00800000E+00  1.00800000E+00  1.60000000E+01  1.00800000E+00  1.00800000E+00
  1.60000000E+01  1.00800000E+00  1.00800000E+00  1.60000000E+01  1.00800000E+00
  1.00800000E+00  1.60000000E+01  1.00800000E+00  1.00800000E+00  1.60000000E+01
  1.00800000E+00  1.00800000E+00  1.60000000E+01  1.00800000E+00  1.00800000E+00
  1.60000000E+01  1.00800000E+00  1.00800000E+00  1.60000000E+01  1.00800000E+00
  1.00800000E+00  1.60000000E+01  1.00800000E+00  1.00800000E+00  1.60000000E+01
  1.00800000E+00  1.00800000E+00  1.60000000E+01  1.00800000E+00  1.00800000E+00
  1.60000000E+01  1.00800000E+00  1.00800000E+00  1.60000000E+01  1.00800000E+00
  1.00800000E+00  1.60000000E+01  1.00800000E+00  1.00800000E+00  1.60000000E+01
  1.00800000E+00  1.00800000E+00  1.60000000E+01  1.00800000E+00  1.00800000E+00
  1.60000000E+01  1.00800000E+00  1.00800000E+00  1.60000000E+01  1.00800000E+00
  1.00800000E+00  1.60000000E+01  1.00800000E+00  1.00800000E+00  1.60000000E+01
  1.00800000E+00  1.00800000E+00  1.60000000E+01  1.00800000E+00  1.00800000E+00
  1.60000000E+01  1.00800000E+00  1.00800000E+00  1.60000000E+01  1.00800000E+00
  1.00800000E+00  1.60000000E+01  1.00800000E+00  1.00800000E+00  1.60000000E+01
  1.00800000E+00  1.00800000E+00  1.60000000E+01  1.00800000E+00  1.00800000E+00
  1.60000000E+01  1.00800000E+00  1.00800000E+00  1.60000000E+01  1.00800000E+00
  1.00800000E+00  1.60000000E+01  1.00800000E+00  1.00800000E+00  1.60000000E+01
  1.00800000E+00  1.00800000E+00  1.60000000E+01  1.00800000E+00  1.00800000E+00
  1.60000000E+01  1.00800000E+00  1.00800000E+00  1.60000000E+01  1.00800000E+00
  1.00800000E+00  1.60000000E+01  1.00800000E+00  1.00800000E+00  1.60000000E+01
  1.00800000E+00  1.00800000E+00  1.60000000E+01  1.00800000E+00  1.00800000E+00
  1.60000000E+01  1.00800000E+00  1.00800000E+00  1.60000000E+01  1.00800000E+00
  1.00800000E+00  1.60000000E+01  1.00800000E+00  1.00800000E+00  1.60000000E+01
  1.00800000E+00  1.00800000E+00  1.60000000E+01  1.00800000E+00  1.00800000E+00
  1.60000000E+01  1.00800000E+00  1.00800000E+00  1.60000000E+01  1.00800000E+00
  1.00800000E+00  1.60000000E+01  1.00800000E+00  1.00800000E+00  1.60000000E+01
  1.00800000E+00  1.00800000E+00  1.60000000E+01  1.00800000E+00  1.00800000E+00
  1.60000000E+01  1.00800000E+00  1.00800000E+00  1.60000000E+01  1.00800000E+00
  1.00800000E+00  1.60000000E+01  1.00800000E+00  1.00800000E+00  1.60000000E+01
  1.00800000E+00  1.00800000E+00  1.60000000E+01  1.00800000E+00  1.00800000E+00
  1.60000000E+01  1.00800000E+00  1.00800000E+00  1.60000000E+01  1.00800000E+00
  1.00800000E+00  1.60000000E+01  1.00800000E+00  1.00800000E+00  1.60000000E+01
  1.00800000E+00  1.00800000E+00  1.60000000E+01  1.00800000E+00  1.00800000E+00
  1.60000000E+01  1.00800000E+00  1.00800000E+00  1.60000000E+01  1.00800000E+00
  1.00800000E+00  1.60000000E+01  1.00800000E+00  1.00800000E+00  1.60000000E+01
  1.00800000E+00  1.00800000E+00  1.60000000E+01  1.00800000E+00  1.00800000E+00
  1.60000000E+01  1.00800000E+00  1.00800000E+00  1.60000000E+01  1.00800000E+00
  1.00800000E+00  1.60000000E+01  1.00800000E+00  1.00800000E+00  1.60000000E+01
  1.00800000E+00  1.00800000E+00  1.60000000E+01  1.00800000E+00  1.00800000E+00
  1.60000000E+01  1.00800000E+00  1.00800000E+00  1.60000000E+01  1.00800000E+00
  1.00800000E+00  1.60000000E+01  1.00800000E+00  1.00800000E+00  1.60000000E+01
  1.00800000E+00  1.00800000E+00  1.60000000E+01  1.00800000E+00  1.00800000E+00
  1.60000000E+01  1.00800000E+00  1.00800000E+00  1.60000000E+01  1.00800000E+00
  1.00800000E+00  1.60000000E+01  1.00800000E+00  1.00800000E+00  1.60000000E+01
  1.00800000E+00  1.00800000E+00  1.60000000E+01  1.00800000E+00  1.00800000E+00
  1.60000000E+01  1.00800000E+00  1.00800000E+00  1.60000000E+01  1.00800000E+00
  1.00800000E+00  1.60000000E+01  1.00800000E+00  1.00800000E+00  1.60000000E+01
  1.00800000E+00  1.00800000E+00  1.60000000E+01  1.00800000E+00  1.00800000E+00
  1.60000000E+01  1.00800000E+00  1.00800000E+00  1.60000000E+01  1.00800000E+00
  1.00800000E+00  1.60000000E+01  1.00800000E+00  1.00800000E+00  1.60000000E+01
  1.00800000E+00  1.00800000E+00  1.60000000E+01  1.00800000E+00  1.00800000E+00
  1.60000000E+01  1.00800000E+00  1.00800000E+00  1.60000000E+01  1.00800000E+00
  1.00800000E+00  1.60000000E+01  1.00800000E+00  1.00800000E+00  1.60000000E+01
  1.00800000E+00  1.00800000E+00  1.60000000E+01  1.00800000E+00  1.00800000E+00
  1.60000000E+01  1.00800000E+00  1.00800000E+00  1.60000000E+01  1.00800000E+00
  1.00800000E+00  1.60000000E+01  1.00800000E+00  1.00800000E+00  1.60000000E+01
  1.00800000E+00  1.00800000E+00  1.60000000E+01  1.00800000E+00  1.00800000E+00
  1.60000000E+01  1.00800000E+00  1.00800000E+00  1.60000000E+01  1.00800000E+00
  1.00800000E+00  1.60000000E+01  1.00800000E+00  1.00800000E+00  1.60000000E+01
  1.00800000E+00  1.00800000E+00  1.60000000E+01  1.00800000E+00  1.00800000E+00
  1.60000000E+01  1.00800000E+00  1.00800000E+00  1.60000000E+01  1.00800000E+00
  1.00800000E+00  1.60000000E+01  1.00800000E+00  1.00800000E+00  1.60000000E+01
  1.00800000E+00  1.00800000E+00  1.60000000E+01  1.00800000E+00  1.00800000E+00
  1.60000000E+01  1.00800000E+00  1.00800000E+00  1.60000000E+01  1.00800000E+00
  1.00800000E+00  1.60000000E+01  1.00800000E+00  1.00800000E+00  1.60000000E+01
  1.00800000E+00  1.00800000E+00  1.60000000E+01  1.00800000E+00  1.00800000E+00
  1.60000000E+01  1.00800000E+00  1.00800000E+00  1.60000000E+01  1.00800000E+00
  1.00800000E+00  1.60000000E+01  1.00800000E+00  1.00800000E+00  1.60000000E+01
  1.00800000E+00  1.00800000E+00  1.60000000E+01  1.00800000E+00  1.00800000E+00
  1.60000000E+01  1.00800000E+00  1.00800000E+00  1.60000000E+01  1.00800000E+00
  1.00800000E+00  1.60000000E+01  1.00800000E+00  1.00800000E+00  1.60000000E+01
  1.00800000E+00  1.00800000E+00  1.60000000E+01  1.00800000E+00  1.00800000E+00
  1.60000000E+01  1.00800000E+00  1.00800000E+00  1.60000000E+01  1.00800000E+00
  1.00800000E+00  1.60000000E+01  1.00800000E+00  1.00800000E+00  1.60000000E+01
  1.00800000E+00  1.00800000E+00  1.60000000E+01  1.00800000E+00  1.00800000E+00
  1.60000000E+01  1.00800000E+00  1.00800000E+00  1.60000000E+01  1.00800000E+00
  1.00800000E+00  1.60000000E+01  1.00800000E+00  1.00800000E+00  1.60000000E+01
  1.00800000E+00  1.00800000E+00  1.60000000E+01  1.00800000E+00  1.00800000E+00
  1.60000000E+01  1.00800000E+00  1.00800000E+00  1.60000000E+01  1.00800000E+00
  1.00800000E+00  1.60000000E+01  1.00800000E+00  1.00800000E+00  1.60000000E+01
  1.00800000E+00  1.00800000E+00  1.60000000E+01  1.00800000E+00  1.00800000E+00
  1.60000000E+01  1.00800000E+00  1.00800000E+00  1.60000000E+01  1.00800000E+00
  1.00800000E+00  1.60000000E+01  1.00800000E+00  1.00800000E+00  1.60000000E+01
  1.00800000E+00  1.00800000E+00  1.60000000E+01  1.00800000E+00  1.00800000E+00
  1.60000000E+01  1.00800000E+00  1.00800000E+00  1.60000000E+01  1.00800000E+00
  1.00800000E+00  1.60000000E+01  1.00800000E+00  1.00800000E+00  1.60000000E+01
  1.00800000E+00  1.00800000E+00  1.60000000E+01  1.00800000E+00  1.00800000E+00
  1.60000000E+01  1.00800000E+00  1.00800000E+00  1.60000000E+01  1.00800000E+00
  1.00800000E+00  1.60000000E+01  1.00800000E+00  1.00800000E+00  1.60000000E+01
  1.00800000E+00  1.00800000E+00  1.60000000E+01  1.00800000E+00  1.00800000E+00
  1.60000000E+01  1.00800000E+00  1.00800000E+00  1.60000000E+01  1.00800000E+00
  1.00800000E+00  1.60000000E+01  1.00800000E+00  1.00800000E+00  1.60000000E+01
  1.00800000E+00  1.00800000E+00  1.60000000E+01  1.00800000E+00  1.00800000E+00
  1.60000000E+01  1.00800000E+00  1.00800000E+00  1.60000000E+01  1.00800000E+00
  1.00800000E+00  1.60000000E+01  1.00800000E+00  1.00800000E+00  1.60000000E+01
  1.00800000E+00  1.00800000E+00  1.60000000E+01  1.00800000E+00  1.00800000E+00
  1.60000000E+01  1.00800000E+00  1.00800000E+00  1.60000000E+01  1.00800000E+00
  1.00800000E+00  1.60000000E+01  1.00800000E+00  1.00800000E+00  1.60000000E+01
  1.00800000E+00  1.00800000E+00  1.60000000E+01  1.00800000E+00  1.00800000E+00
  1.60000000E+01  1.00800000E+00  1.00800000E+00  1.60000000E+01  1.00800000E+00
  1.00800000E+00  1.60000000E+01  1.00800000E+00  1.00800000E+00  1.60000000E+01
  1.00800000E+00  1.00800000E+00  1.60000000E+01  1.00800000E+00  1.00800000E+00
  1.60000000E+01  1.00800000E+00  1.00800000E+00  1.60000000E+01  1.00800000E+00
  1.00800000E+00  1.60000000E+01  1.00800000E+00  1.00800000E+00  1.60000000E+01
  1.00800000E+00  1.00800000E+00  1.60000000E+01  1.00800000E+00  1.00800000E+00
  1.60000000E+01  1.00800000E+00  1.00800000E+00  1.60000000E+01  1.00800000E+00
  1.00800000E+00  1.60000000E+01  1.00800000E+00  1.00800000E+00  1.60000000E+01
  1.00800000E+00  1.00800000E+00  1.60000000E+01  1.00800000E+00  1.00800000E+00
  1.60000000E+01  1.00800000E+00  1.00800000E+00  1.60000000E+01  1.00800000E+00
  1.00800000E+00  1.60000000E+01  1.00800000E+00  1.00800000E+00  1.60000000E+01
  1.00800000E+00  1.00800000E+00  1.60000000E+01  1.00800000E+00  1.00800000E+00
  1.60000000E+01  1.00800000E+00  1.00800000E+00  1.60000000E+01  1.00800000E+00
  1.00800000E+00  1.60000000E+01  1.00800000E+00  1.00800000E+00  1.60000000E+01
  1.00800000E+00  1.00800000E+00  1.60000000E+01  1.00800000E+00  1.00800000E+00
  1.60000000E+01  1.00800000E+00  1.00800000E+00  1.60000000E+01  1.00800000E+00
  1.00800000E+00  1.60000000E+01  1.00800000E+00  1.00800000E+00  1.60000000E+01
  1.00800000E+00  1.00800000E+00  1.60000000E+01  1.00800000E+00  1.00800000E+00
  1.60000000E+01  1.00800000E+00  1.00800000E+00  1.60000000E+01  1.00800000E+00
  1.00800000E+00  1.60000000E+01  1.00800000E+00  1.00800000E+00  1.60000000E+01
  1.00800000E+00  1.00800000E+00  1.60000000E+01  1.00800000E+00  1.00800000E+00
  1.60000000E+01  1.00800000E+00  1.00800000E+00  1.60000000E+01  1.00800000E+00
  1.00800000E+00  1.60000000E+01  1.00800000E+00  1.00800000E+00  1.60000000E+01
  1.00800000E+00  1.00800000E+00  1.60000000E+01  1.00800000E+00  1.00800000E+00
  1.60000000E+01  1.00800000E+00  1.00800000E+00  1.60000000E+01  1.00800000E+00
  1.00800000E+00  1.60000000E+01  1.00800000E+00  1.00800000E+00  1.60000000E+01
  1.00800000E+00  1.00800000E+00  1.60000000E+01  1.00800000E+00  1.00800000E+00
  1.60000000E+01  1.00800000E+00  1.00800000E+00  1.60000000E+01  1.00800000E+00
  1.00800000E+00  1.60000000E+01  1.00800000E+00  1.00800000E+00  1.60000000E+01
  1.00800000E+00  1.00800000E+00  1.60000000E+01  1.00800000E+00  1.00800000E+00
  1.60000000E+01  1.00800000E+00  1.00800000E+00  1.60000000E+01  1.00800000E+00
  1.00800000E+00  1.60000000E+01  1.00800000E+00  1.00800000E+00  1.60000000E+01
  1.00800000E+00  1.00800000E+00  1.60000000E+01  1.00800000E+00  1.00800000E+00
  1.60000000E+01  1.00800000E+00  1.00800000E+00  1.60000000E+01  1.00800000E+00
  1.00800000E+00  1.60000000E+01  1.00800000E+00  1.00800000E+00  1.60000000E+01
  1.00800000E+00  1.00800000E+00  1.60000000E+01  1.00800000E+00  1.00800000E+00
  1.60000000E+01  1.00800000E+00  1.00800000E+00  1.60000000E+01  1.00800000E+00
  1.00800000E+00  1.60000000E+01  1.00800000E+00  1.00800000E+00  1.60000000E+01
  1.00800000E+00  1.00800000E+00  1.60000000E+01  1.00800000E+00  1.00800000E+00
  1.60000000E+01  1.00800000E+00  1.00800000E+00  1.60000000E+01  1.00800000E+00
  1.00800000E+00  1.60000000E+01  1.00800000E+00  1.00800000E+00  1.60000000E+01
  1.00800000E+00  1.00800000E+00  1.60000000E+01  1.00800000E+00  1.00800000E+00
  1.60000000E+01  1.00800000E+00  1.00800000E+00  1.60000000E+01  1.00800000E+00
  1.00800000E+00  1.60000000E+01  1.00800000E+00  1.00800000E+00  1.60000000E+01
  1.00800000E+00  1.00800000E+00  1.60000000E+01  1.00800000E+00  1.00800000E+00
  1.60000000E+01  1.00800000E+00  1.00800000E+00  1.60000000E+01  1.00800000E+00
  1.00800000E+00  1.60000000E+01  1.00800000E+00  1.00800000E+00  1.60000000E+01
  1.00800000E+00  1.00800000E+00  1.60000000E+01  1.00800000E+00  1.00800000E+00
  1.60000000E+01  1.00800000E+00  1.00800000E+00  1.60000000E+01  1.00800000E+00
  1.00800000E+00  1.60000000E+01  1.00800000E+00  1.00800000E+00  1.60000000E+01
  1.00800000E+00  1.00800000E+00  1.60000000E+01  1.00800000E+00  1.00800000E+00
  1.60000000E+01  1.00800000E+00  1.00800000E+00  1.60000000E+01  1.00800000E+00
  1.00800000E+00  1.60000000E+01  1.00800000E+00  1.00800000E+00  1.60000000E+01
  1.00800000E+00  1.00800000E+00  1.60000000E+01  1.00800000E+00  1.00800000E+00
  1.60000000E+01  1.00800000E+00  1.00800000E+00  1.60000000E+01  1.00800000E+00
  1.00800000E+00  1.60000000E+01  1.00800000E+00  1.00800000E+00  1.60000000E+01
  1.00800000E+00  1.00800000E+00  1.60000000E+01  1.00800000E+00  1.00800000E+00
  1.60000000E+01  1.00800000E+00  1.00800000E+00  1.60000000E+01  1.00800000E+00
  1.00800000E+00  1.60000000E+01  1.00800000E+00  1.00800000E+00  1.60000000E+01
  1.00800000E+00  1.00800000E+00  1.60000000E+01  1.00800000E+00  1.00800000E+00
  1.60000000E+01  1.00800000E+00  1.00800000E+00  1.60000000E+01  1.00800000E+00
  1.00800000E+00  1.60000000E+01  1.00800000E+00  1.00800000E+00  1.60000000E+01
  1.00800000E+00  1.00800000E+00  1.60000000E+01  1.00800000E+00  1.00800000E+00
  1.60000000E+01  1.00800000E+00  1.00800000E+00  1.60000000E+01  1.00800000E+00
  1.00800000E+00  1.60000000E+01  1.00800000E+00  1.00800000E+00  1.60000000E+01
  1.00800000E+00  1.00800000E+00  1.60000000E+01  1.00800000E+00  1.00800000E+00
  1.60000000E+01  1.00800000E+00  1.00800000E+00  1.60000000E+01  1.00800000E+00
  1.00800000E+00  1.60000000E+01  1.00800000E+00  1.00800000E+00  1.60000000E+01
  1.00800000E+00  1.00800000E+00  1.60000000E+01  1.00800000E+00  1.00800000E+00
  1.60000000E+01  1.00800000E+00  1.00800000E+00  1.60000000E+01  1.00800000E+00
  1.00800000E+00  1.60000000E+01  1.00800000E+00  1.00800000E+00  1.60000000E+01
  1.00800000E+00  1.00800000E+00  1.60000000E+01  1.00800000E+00  1.00800000E+00
  1.60000000E+01  1.00800000E+00  1.00800000E+00  1.60000000E+01  1.00800000E+00
  1.00800000E+00  1.60000000E+01  1.00800000E+00  1.00800000E+00  1.60000000E+01
  1.00800000E+00  1.00800000E+00  1.60000000E+01  1.00800000E+00  1.00800000E+00
  1.60000000E+01  1.00800000E+00  1.00800000E+00  1.60000000E+01  1.00800000E+00
  1.00800000E+00  1.60000000E+01  1.00800000E+00  1.00800000E+00  1.60000000E+01
  1.00800000E+00  1.00800000E+00  1.60000000E+01  1.00800000E+00  1.00800000E+00
  1.60000000E+01  1.00800000E+00  1.00800000E+00  1.60000000E+01  1.00800000E+00
  1.00800000E+00  1.60000000E+01  1.00800000E+00  1.00800000E+00  1.60000000E+01
  1.00800000E+00  1.00800000E+00  1.60000000E+01  1.00800000E+00  1.00800000E+00
  1.60000000E+01  1.00800000E+00  1.00800000E+00  1.60000000E+01  1.00800000E+00
  1.00800000E+00  1.60000000E+01  1.00800000E+00  1.00800000E+00  1.60000000E+01
  1.00800000E+00  1.00800000E+00  1.60000000E+01  1.00800000E+00  1.00800000E+00
  1.60000000E+01  1.00800000E+00  1.00800000E+00  1.60000000E+01  1.00800000E+00
  1.00800000E+00  1.60000000E+01  1.00800000E+00  1.00800000E+00  1.60000000E+01
  1.00800000E+00  1.00800000E+00  1.60000000E+01  1.00800000E+00  1.00800000E+00
  1.60000000E+01  1.00800000E+00  1.00800000E+00  1.60000000E+01  1.00800000E+00
  1.00800000E+00  1.60000000E+01  1.00800000E+00  1.00800000E+00  1.60000000E+01
  1.00800000E+00  1.00800000E+00  1.60000000E+01  1.00800000E+00  1.00800000E+00
  1.60000000E+01  1.00800000E+00  1.00800000E+00  1.60000000E+01  1.00800000E+00
  1.00800000E+00  1.60000000E+01  1.00800000E+00  1.00800000E+00  1.60000000E+01
  1.00800000E+00  1.00800000E+00  1.60000000E+01  1.00800000E+00  1.00800000E+00
  1.60000000E+01  1.00800000E+00  1.00800000E+00  1.60000000E+01  1.00800000E+00
  1.00800000E+00  1.60000000E+01  1.00800000E+00  1.00800000E+00  1.60000000E+01
  1.00800000E+00  1.00800000E+00  1.60000000E+01  1.00800000E+00  1.00800000E+00
  1.60000000E+01  1.00800000E+00  1.00800000E+00  1.60000000E+01  1.00800000E+00
  1.00800000E+00  1.60000000E+01  1.00800000E+00  1.00800000E+00  1.60000000E+01
  1.00800000E+00  1.00800000E+00  1.60000000E+01  1.00800000E+00  1.00800000E+00
  1.60000000E+01  1.00800000E+00  1.00800000E+00  1.60000000E+01  1.00800000E+00
  1.00800000E+00  1.60000000E+01  1.00800000E+00  1.00800000E+00  1.60000000E+01
  1.00800000E+00  1.00800000E+00  1.60000000E+01  1.00800000E+00  1.00800000E+00
  1.60000000E+01  1.00800000E+00  1.00800000E+00  1.60000000E+01  1.00800000E+00
  1.00800000E+00  1.60000000E+01  1.00800000E+00  1.00800000E+00  1.60000000E+01
  1.00800000E+00  1.00800000E+00  1.60000000E+01  1.00800000E+00  1.00800000E+00
  1.60000000E+01  1.00800000E+00  1.00800000E+00  1.60000000E+01  1.00800000E+00
  1.00800000E+00  1.60000000E+01  1.00800000E+00  1.00800000E+00  1.60000000E+01
  1.00800000E+00  1.00800000E+00  1.60000000E+01  1.00800000E+00  1.00800000E+00
  1.60000000E+01  1.00800000E+00  1.00800000E+00  1.60000000E+01  1.00800000E+00
  1.00800000E+00  1.60000000E+01  1.00800000E+00  1.00800000E+00  1.60000000E+01
  1.00800000E+00  1.00800000E+00  1.60000000E+01  1.00800000E+00  1.00800000E+00
  1.60000000E+01  1.00800000E+00  1.00800000E+00  1.60000000E+01  1.00800000E+00
  1.00800000E+00  1.60000000E+01  1.00800000E+00  1.00800000E+00  1.60000000E+01
  1.00800000E+00  1.00800000E+00  1.60000000E+01  1.00800000E+00  1.00800000E+00
  1.60000000E+01  1.00800000E+00  1.00800000E+00  1.60000000E+01  1.00800000E+00
  1.00800000E+00  1.60000000E+01  1.00800000E+00  1.00800000E+00  1.60000000E+01
  1.00800000E+00  1.00800000E+00  1.60000000E+01  1.00800000E+00  1.00800000E+00
  1.60000000E+01  1.00800000E+00  1.00800000E+00  1.60000000E+01  1.00800000E+00
  1.00800000E+00  1.60000000E+01  1.00800000E+00  1.00800000E+00  1.60000000E+01
  1.00800000E+00  1.00800000E+00  1.60000000E+01  1.00800000E+00  1.00800000E+00
  1.60000000E+01  1.00800000E+00  1.00800000E+00  1.60000000E+01  1.00800000E+00
  1.00800000E+00  1.60000000E+01  1.00800000E+00  1.00800000E+00  1.60000000E+01
  1.00800000E+00  1.00800000E+00  1.60000000E+01  1.00800000E+00  1.00800000E+00
  1.60000000E+01  1.00800000E+00  1.00800000E+00  1.60000000E+01  1.00800000E+00
  1.00800000E+00  1.60000000E+01  1.00800000E+00  1.00800000E+00  1.60000000E+01
  1.00800000E+00  1.00800000E+00  1.60000000E+01  1.00800000E+00  1.00800000E+00
  1.60000000E+01  1.00800000E+00  1.00800000E+00  1.60000000E+01  1.00800000E+00
  1.00800000E+00  1.60000000E+01  1.00800000E+00  1.00800000E+00  1.60000000E+01
  1.00800000E+00  1.00800000E+00  1.60000000E+01  1.00800000E+00  1.00800000E+00
  1.60000000E+01  1.00800000E+00  1.00800000E+00  1.60000000E+01  1.00800000E+00
  1.00800000E+00  1.60000000E+01  1.00800000E+00  1.00800000E+00  1.60000000E+01
  1.00800000E+00  1.00800000E+00  1.60000000E+01  1.00800000E+00  1.00800000E+00
  1.60000000E+01  1.00800000E+00  1.00800000E+00  1.60000000E+01  1.00800000E+00
  1.00800000E+00  1.60000000E+01  1.00800000E+00  1.00800000E+00  1.60000000E+01
  1.00800000E+00  1.00800000E+00  1.60000000E+01  1.00800000E+00  1.00800000E+00
  1.60000000E+01  1.00800000E+00  1.00800000E+00  1.60000000E+01  1.00800000E+00
  1.00800000E+00  1.60000000E+01  1.00800000E+00  1.00800000E+00  1.60000000E+01
  1.00800000E+00  1.00800000E+00  1.60000000E+01  1.00800000E+00  1.00800000E+00
  1.60000000E+01  1.00800000E+00  1.00800000E+00  1.60000000E+01  1.00800000E+00
  1.00800000E+00  1.60000000E+01  1.00800000E+00  1.00800000E+00  1.60000000E+01
  1.00800000E+00  1.00800000E+00  1.60000000E+01  1.00800000E+00  1.00800000E+00
  1.60000000E+01  1.00800000E+00  1.00800000E+00  1.60000000E+01  1.00800000E+00
  1.00800000E+00  1.60000000E+01  1.00800000E+00  1.00800000E+00  1.60000000E+01
  1.00800000E+00  1.00800000E+00  1.60000000E+01  1.00800000E+00  1.00800000E+00
  1.60000000E+01  1.00800000E+00  1.00800000E+00  1.60000000E+01  1.00800000E+00
  1.00800000E+00  1.60000000E+01  1.00800000E+00  1.00800000E+00  1.60000000E+01
  1.00800000E+00  1.00800000E+00  1.60000000E+01  1.00800000E+00  1.00800000E+00
  1.60000000E+01  1.00800000E+00  1.00800000E+00  1.60000000E+01  1.00800000E+00
  1.00800000E+00  1.60000000E+01  1.00800000E+00  1.00800000E+00  1.60000000E+01
  1.00800000E+00  1.00800000E+00  1.60000000E+01  1.00800000E+00  1.00800000E+00
  1.60000000E+01  1.00800000E+00  1.00800000E+00  1.60000000E+01  1.00800000E+00
  1.00800000E+00  1.60000000E+01  1.00800000E+00  1.00800000E+00  1.60000000E+01
  1.00800000E+00  1.00800000E+00  1.60000000E+01  1.00800000E+00  1.00800000E+00
  1.60000000E+01  1.00800000E+00  1.00800000E+00  1.60000000E+01  1.00800000E+00
  1.00800000E+00  1.60000000E+01  1.00800000E+00  1.00800000E+00  1.60000000E+01
  1.00800000E+00  1.00800000E+00  1.60000000E+01  1.00800000E+00  1.00800000E+00
  1.60000000E+01  1.00800000E+00  1.00800000E+00  1.60000000E+01  1.00800000E+00
  1.00800000E+00  1.60000000E+01  1.00800000E+00  1.00800000E+00  1.60000000E+01
  1.00800000E+00  1.00800000E+00  1.60000000E+01  1.00800000E+00  1.00800000E+00
  1.60000000E+01  1.00800000E+00  1.00800000E+00  1.60000000E+01  1.00800000E+00
  1.00800000E+00  1.60000000E+01  1.00800000E+00  1.00800000E+00  1.60000000E+01
  1.00800000E+00  1.00800000E+00  1.60000000E+01  1.00800000E+00  1.00800000E+00
  1.60000000E+01  1.00800000E+00  1.00800000E+00  1.60000000E+01  1.00800000E+00
  1.00800000E+00  1.60000000E+01  1.00800000E+00  1.00800000E+00  1.60000000E+01
  1.00800000E+00  1.00800000E+00  1.60000000E+01  1.00800000E+00  1.00800000E+00
  1.60000000E+01  1.00800000E+00  1.00800000E+00  1.60000000E+01  1.00800000E+00
  1.00800000E+00  1.60000000E+01  1.00800000E+00  1.00800000E+00  1.60000000E+01
  1.00800000E+00  1.00800000E+00  1.60000000E+01  1.00800000E+00  1.00800000E+00
  1.60000000E+01  1.00800000E+00  1.00800000E+00  1.60000000E+01  1.00800000E+00
  1.00800000E+00  1.60000000E+01  1.00800000E+00  1.00800000E+00  1.60000000E+01
  1.00800000E+00  1.00800000E+00  1.60000000E+01  1.00800000E+00  1.00800000E+00
  1.60000000E+01  1.00800000E+00  1.00800000E+00  1.60000000E+01  1.00800000E+00
  1.00800000E+00  1.60000000E+01  1.00800000E+00  1.00800000E+00  1.60000000E+01
  1.00800000E+00  1.00800000E+00  1.60000000E+01  1.00800000E+00  1.00800000E+00
  1.60000000E+01  1.00800000E+00  1.00800000E+00  1.60000000E+01  1.00800000E+00
  1.00800000E+00  1.60000000E+01  1.00800000E+00  1.00800000E+00  1.60000000E+01
  1.00800000E+00  1.00800000E+00  1.60000000E+01  1.00800000E+00  1.00800000E+00
  1.60000000E+01  1.00800000E+00  1.00800000E+00  1.60000000E+01  1.00800000E+00
  1.00800000E+00  1.60000000E+01  1.00800000E+00  1.00800000E+00  1.60000000E+01
  1.00800000E+00  1.00800000E+00  1.60000000E+01  1.00800000E+00  1.00800000E+00
  1.60000000E+01  1.00800000E+00  1.00800000E+00  1.60000000E+01  1.00800000E+00
  1.00800000E+00  1.60000000E+01  1.00800000E+00  1.00800000E+00  1.60000000E+01
  1.00800000E+00  1.00800000E+00  1.60000000E+01  1.00800000E+00  1.00800000E+00
  1.60000000E+01  1.00800000E+00  1.00800000E+00  1.60000000E+01  1.00800000E+00
  1.00800000E+00  1.60000000E+01  1.00800000E+00  1.00800000E+00  1.60000000E+01
  1.00800000E+00  1.00800000E+00  1.60000000E+01  1.00800000E+00  1.00800000E+00
  1.60000000E+01  1.00800000E+00  1.00800000E+00  1.60000000E+01  1.00800000E+00
  1.00800000E+00  1.60000000E+01  1.00800000E+00  1.00800000E+00  1.60000000E+01
  1.00800000E+00  1.00800000E+00  1.60000000E+01  1.00800000E+00  1.00800000E+00
  1.60000000E+01  1.00800000E+00  1.00800000E+00  1.60000000E+01  1.00800000E+00
  1.00800000E+00  1.60000000E+01  1.00800000E+00  1.00800000E+00  1.60000000E+01
  1.00800000E+00  1.00800000E+00  1.60000000E+01  1.00800000E+00  1.00800000E+00
  1.60000000E+01  1.00800000E+00  1.00800000E+00  1.60000000E+01  1.00800000E+00
  1.00800000E+00  1.60000000E+01  1.00800000E+00  1.00800000E+00  1.60000000E+01
  1.00800000E+00  1.00800000E+00  1.60000000E+01  1.00800000E+00  1.00800000E+00
  1.60000000E+01  1.00800000E+00  1.00800000E+00  1.60000000E+01  1.00800000E+00
  1.00800000E+00  1.60000000E+01  1.00800000E+00  1.00800000E+00  1.60000000E+01
  1.00800000E+00  1.00800000E+00  1.60000000E+01  1.00800000E+00  1.00800000E+00
  1.60000000E+01  1.00800000E+00  1.00800000E+00  1.60000000E+01  1.00800000E+00
  1.00800000E+00  1.60000000E+01  1.00800000E+00  1.00800000E+00  1.60000000E+01
  1.00800000E+00  1.00800000E+00  1.60000000E+01  1.00800000E+00  1.00800000E+00
  1.60000000E+01  1.00800000E+00  1.00800000E+00  1.60000000E+01  1.00800000E+00
  1.00800000E+00  1.60000000E+01  1.00800000E+00  1.00800000E+00  1.60000000E+01
  1.00800000E+00  1.00800000E+00  1.60000000E+01  1.00800000E+00  1.00800000E+00
  1.60000000E+01  1.00800000E+00  1.00800000E+00  1.60000000E+01  1.00800000E+00
  1.00800000E+00  1.60000000E+01  1.00800000E+00  1.00800000E+00  1.60000000E+01
  1.00800000E+00  1.00800000E+00  1.60000000E+01  1.00800000E+00  1.00800000E+00
  1.60000000E+01  1.00800000E+00  1.00800000E+00  1.60000000E+01  1.00800000E+00
  1.00800000E+00  1.60000000E+01  1.00800000E+00  1.00800000E+00  1.60000000E+01
  1.00800000E+00  1.00800000E+00  1.60000000E+01  1.00800000E+00  1.00800000E+00
  1.60000000E+01  1.00800000E+00  1.00800000E+00  1.60000000E+01  1.00800000E+00
  1.00800000E+00  1.60000000E+01  1.00800000E+00  1.00800000E+00  1.60000000E+01
  1.00800000E+00  1.00800000E+00  1.60000000E+01  1.00800000E+00  1.00800000E+00
  1.60000000E+01  1.00800000E+00  1.00800000E+00  1.60000000E+01  1.00800000E+00
  1.00800000E+00  1.60000000E+01  1.00800000E+00  1.00800000E+00  1.60000000E+01
  1.00800000E+00  1.00800000E+00  1.60000000E+01  1.00800000E+00  1.00800000E+00
  1.60000000E+01  1.00800000E+00  1.00800000E+00  1.60000000E+01  1.00800000E+00
  1.00800000E+00  1.60000000E+01  1.00800000E+00  1.00800000E+00  1.60000000E+01
  1.00800000E+00  1.00800000E+00  1.60000000E+01  1.00800000E+00  1.00800000E+00
  1.60000000E+01  1.00800000E+00  1.00800000E+00  1.60000000E+01  1.00800000E+00
  1.00800000E+00  1.60000000E+01  1.00800000E+00  1.00800000E+00  1.60000000E+01
  1.00800000E+00  1.00800000E+00  1.60000000E+01  1.00800000E+00  1.00800000E+00
  1.60000000E+01  1.00800000E+00  1.00800000E+00  1.60000000E+01  1.00800000E+00
  1.00800000E+00  1.60000000E+01  1.00800000E+00  1.00800000E+00  1.60000000E+01
  1.00800000E+00  1.00800000E+00  1.60000000E+01  1.00800000E+00  1.00800000E+00
  1.60000000E+01  1.00800000E+00  1.00800000E+00  1.60000000E+01  1.00800000E+00
  1.00800000E+00  1.60000000E+01  1.00800000E+00  1.00800000E+00  1.60000000E+01
  1.00800000E+00  1.00800000E+00  1.60000000E+01  1.00800000E+00  1.00800000E+00
  1.60000000E+01  1.00800000E+00  1.00800000E+00  1.60000000E+01  1.00800000E+00
  1.00800000E+00  1.60000000E+01  1.00800000E+00  1.00800000E+00  1.60000000E+01
  1.00800000E+00  1.00800000E+00  1.60000000E+01  1.00800000E+00  1.00800000E+00
  1.60000000E+01  1.00800000E+00  1.00800000E+00  1.60000000E+01  1.00800000E+00
  1.00800000E+00  1.60000000E+01  1.00800000E+00  1.00800000E+00  1.60000000E+01
  1.00800000E+00  1.00800000E+00  1.60000000E+01  1.00800000E+00  1.00800000E+00
  1.60000000E+01  1.00800000E+00  1.00800000E+00  1.60000000E+01  1.00800000E+00
  1.00800000E+00  1.60000000E+01  1.00800000E+00  1.00800000E+00  1.60000000E+01
  1.00800000E+00  1.00800000E+00  1.60000000E+01  1.00800000E+00  1.00800000E+00
  1.60000000E+01  1.00800000E+00  1.00800000E+00  1.60000000E+01  1.00800000E+00
  1.00800000E+00  1.60000000E+01  1.00800000E+00  1.00800000E+00  1.60000000E+01
  1.00800000E+00  1.00800000E+00  1.60000000E+01  1.00800000E+00  1.00800000E+00
  1.60000000E+01  1.00800000E+00  1.00800000E+00  1.60000000E+01  1.00800000E+00
  1.00800000E+00  1.60000000E+01  1.00800000E+00  1.00800000E+00  1.60000000E+01
  1.00800000E+00  1.00800000E+00  1.60000000E+01  1.00800000E+00  1.00800000E+00
  1.60000000E+01  1.00800000E+00  1.00800000E+00  1.60000000E+01  1.00800000E+00
  1.00800000E+00  1.60000000E+01  1.00800000E+00  1.00800000E+00  1.60000000E+01
  1.00800000E+00  1.00800000E+00  1.60000000E+01  1.00800000E+00  1.00800000E+00
  1.60000000E+01  1.00800000E+00  1.00800000E+00  1.60000000E+01  1.00800000E+00
  1.00800000E+00  1.60000000E+01  1.00800000E+00  1.00800000E+00  1.60000000E+01
  1.00800000E+00  1.00800000E+00  1.60000000E+01  1.00800000E+00  1.00800000E+00
  1.60000000E+01  1.00800000E+00  1.00800000E+00  1.60000000E+01  1.00800000E+00
  1.00800000E+00  1.60000000E+01  1.00800000E+00  1.00800000E+00  1.60000000E+01
  1.00800000E+00  1.00800000E+00  1.60000000E+01  1.00800000E+00  1.00800000E+00
  1.60000000E+01  1.00800000E+00  1.00800000E+00  1.60000000E+01  1.00800000E+00
  1.00800000E+00  1.60000000E+01  1.00800000E+00  1.00800000E+00  1.60000000E+01
  1.00800000E+00  1.00800000E+00  1.60000000E+01  1.00800000E+00  1.00800000E+00
  1.60000000E+01  1.00800000E+00  1.00800000E+00  1.60000000E+01  1.00800000E+00
  1.00800000E+00  1.60000000E+01  1.00800000E+00  1.00800000E+00  1.60000000E+01
  1.00800000E+00  1.00800000E+00  1.60000000E+01  1.00800000E+00  1.00800000E+00
  1.60000000E+01  1.00800000E+00  1.00800000E+00  1.60000000E+01  1.00800000E+00
  1.00800000E+00  1.60000000E+01  1.00800000E+00  1.00800000E+00  1.60000000E+01
  1.00800000E+00  1.00800000E+00  1.60000000E+01  1.00800000E+00  1.00800000E+00
  1.60000000E+01  1.00800000E+00  1.00800000E+00  1.60000000E+01  1.00800000E+00
  1.00800000E+00  1.60000000E+01  1.00800000E+00  1.00800000E+00  1.60000000E+01
  1.00800000E+00  1.00800000E+00  1.60000000E+01  1.00800000E+00  1.00800000E+00
  1.60000000E+01  1.00800000E+00  1.00800000E+00  1.60000000E+01  1.00800000E+00
  1.00800000E+00  1.60000000E+01  1.00800000E+00  1.00800000E+00  1.60000000E+01
  1.00800000E+00  1.00800000E+00  1.60000000E+01  1.00800000E+00  1.00800000E+00
  1.60000000E+01  1.00800000E+00  1.00800000E+00  1.60000000E+01  1.00800000E+00
  1.00800000E+00  1.60000000E+01  1.00800000E+00  1.00800000E+00  1.60000000E+01
  1.00800000E+00  1.00800000E+00  1.60000000E+01  1.00800000E+00  1.00800000E+00
  1.60000000E+01  1.00800000E+00  1.00800000E+00  1.60000000E+01  1.00800000E+00
  1.00800000E+00  1.60000000E+01  1.00800000E+00  1.00800000E+00  1.60000000E+01
  1.00800000E+00  1.00800000E+00  1.60000000E+01  1.00800000E+00  1.00800000E+00
  1.60000000E+01  1.00800000E+00  1.00800000E+00  1.60000000E+01  1.00800000E+00
  1.00800000E+00  1.60000000E+01  1.00800000E+00  1.00800000E+00  1.60000000E+01
  1.00800000E+00  1.00800000E+00  1.60000000E+01  1.00800000E+00  1.00800000E+00
  1.60000000E+01  1.00800000E+00  1.00800000E+00  1.60000000E+01  1.00800000E+00
  1.00800000E+00  1.60000000E+01  1.00800000E+00  1.00800000E+00  1.60000000E+01
  1.00800000E+00  1.00800000E+00  1.60000000E+01  1.00800000E+00  1.00800000E+00
  1.60000000E+01  1.00800000E+00  1.00800000E+00  1.60000000E+01  1.00800000E+00
  1.00800000E+00  1.60000000E+01  1.00800000E+00  1.00800000E+00  1.60000000E+01
  1.00800000E+00  1.00800000E+00  1.60000000E+01  1.00800000E+00  1.00800000E+00
  1.60000000E+01  1.00800000E+00  1.00800000E+00  1.60000000E+01  1.00800000E+00
  1.00800000E+00  1.60000000E+01  1.00800000E+00  1.00800000E+00  1.60000000E+01
  1.00800000E+00  1.00800000E+00  1.60000000E+01  1.00800000E+00  1.00800000E+00
  1.60000000E+01  1.00800000E+00  1.00800000E+00  1.60000000E+01  1.00800000E+00
  1.00800000E+00  1.60000000E+01  1.00800000E+00  1.00800000E+00  1.60000000E+01
  1.00800000E+00  1.00800000E+00  1.60000000E+01  1.00800000E+00  1.00800000E+00
  1.60000000E+01  1.00800000E+00  1.00800000E+00  1.60000000E+01  1.00800000E+00
  1.00800000E+00  1.60000000E+01  1.00800000E+00  1.00800000E+00  1.60000000E+01
  1.00800000E+00  1.00800000E+00  1.60000000E+01  1.00800000E+00  1.00800000E+00
  1.60000000E+01  1.00800000E+00  1.00800000E+00  1.60000000E+01  1.00800000E+00
  1.00800000E+00  1.60000000E+01  1.00800000E+00  1.00800000E+00  1.60000000E+01
  1.00800000E+00  1.00800000E+00  1.60000000E+01  1.00800000E+00  1.00800000E+00
  1.60000000E+01  1.00800000E+00  1.00800000E+00  1.60000000E+01  1.00800000E+00
  1.00800000E+00  1.60000000E+01  1.00800000E+00  1.00800000E+00  1.60000000E+01
  1.00800000E+00  1.00800000E+00  1.60000000E+01  1.00800000E+00  1.00800000E+00
  1.60000000E+01  1.00800000E+00  1.00800000E+00  1.60000000E+01  1.00800000E+00
  1.00800000E+00  1.60000000E+01  1.00800000E+00  1.00800000E+00  1.60000000E+01
  1.00800000E+00  1.00800000E+00  1.60000000E+01  1.00800000E+00  1.00800000E+00
  1.60000000E+01  1.00800000E+00  1.00800000E+00  1.60000000E+01  1.00800000E+00
  1.00800000E+00  1.60000000E+01  1.00800000E+00  1.00800000E+00  1.60000000E+01
  1.00800000E+00  1.00800000E+00  1.60000000E+01  1.00800000E+00  1.00800000E+00
  1.60000000E+01  1.00800000E+00  1.00800000E+00  1.60000000E+01  1.00800000E+00
  1.00800000E+00  1.60000000E+01  1.00800000E+00  1.00800000E+00  1.60000000E+01
  1.00800000E+00  1.00800000E+00  1.60000000E+01  1.00800000E+00  1.00800000E+00
  1.60000000E+01  1.00800000E+00  1.00800000E+00  1.60000000E+01  1.00800000E+00
  1.00800000E+00  1.60000000E+01  1.00800000E+00  1.00800000E+00  1.60000000E+01
  1.00800000E+00  1.00800000E+00  1.60000000E+01  1.00800000E+00  1.00800000E+00
  1.60000000E+01  1.00800000E+00  1.00800000E+00  1.60000000E+01  1.00800000E+00
  1.00800000E+00  1.60000000E+01  1.00800000E+00  1.00800000E+00  1.60000000E+01
  1.00800000E+00  1.00800000E+00  1.60000000E+01  1.00800000E+00  1.00800000E+00
  1.60000000E+01  1.00800000E+00  1.00800000E+00  1.60000000E+01  1.00800000E+00
  1.00800000E+00  1.60000000E+01  1.00800000E+00  1.00800000E+00  1.60000000E+01
  1.00800000E+00  1.00800000E+00  1.60000000E+01  1.00800000E+00  1.00800000E+00
  1.60000000E+01  1.00800000E+00  1.00800000E+00  1.60000000E+01  1.00800000E+00
  1.00800000E+00  1.60000000E+01  1.00800000E+00  1.00800000E+00  1.60000000E+01
  1.00800000E+00  1.00800000E+00  1.60000000E+01  1.00800000E+00  1.00800000E+00
  1.60000000E+01  1.00800000E+00  1.00800000E+00  1.60000000E+01  1.00800000E+00
  1.00800000E+00  1.60000000E+01  1.00800000E+00  1.00800000E+00  1.60000000E+01
  1.00800000E+00  1.00800000E+00  1.60000000E+01  1.00800000E+00  1.00800000E+00
  1.60000000E+01  1.00800000E+00  1.00800000E+00  1.60000000E+01  1.00800000E+00
  1.00800000E+00  1.60000000E+01  1.00800000E+00  1.00800000E+00  1.60000000E+01
  1.00800000E+00  1.00800000E+00  1.60000000E+01  1.00800000E+00  1.00800000E+00
  1.60000000E+01  1.00800000E+00  1.00800000E+00  1.60000000E+01  1.00800000E+00
  1.00800000E+00  1.60000000E+01  1.00800000E+00  1.00800000E+00  1.60000000E+01
  1.00800000E+00  1.00800000E+00  1.60000000E+01  1.00800000E+00  1.00800000E+00
  1.60000000E+01  1.00800000E+00  1.00800000E+00  1.60000000E+01  1.00800000E+00
  1.00800000E+00  1.60000000E+01  1.00800000E+00  1.00800000E+00  1.60000000E+01
  1.00800000E+00  1.00800000E+00  1.60000000E+01  1.00800000E+00  1.00800000E+00
  1.60000000E+01  1.00800000E+00  1.00800000E+00  1.60000000E+01  1.00800000E+00
  1.00800000E+00  1.60000000E+01  1.00800000E+00  1.00800000E+00  1.60000000E+01
  1.00800000E+00  1.00800000E+00  1.60000000E+01  1.00800000E+00  1.00800000E+00
  1.60000000E+01  1.00800000E+00  1.00800000E+00  1.60000000E+01  1.00800000E+00
  1.00800000E+00  1.60000000E+01  1.00800000E+00  1.00800000E+00  1.60000000E+01
  1.00800000E+00  1.00800000E+00  1.60000000E+01  1.00800000E+00  1.00800000E+00
  1.60000000E+01  1.00800000E+00  1.00800000E+00  1.60000000E+01  1.00800000E+00
  1.00800000E+00  1.60000000E+01  1.00800000E+00  1.00800000E+00  1.60000000E+01
  1.00800000E+00  1.00800000E+00  1.60000000E+01  1.00800000E+00  1.00800000E+00
  1.60000000E+01  1.00800000E+00  1.00800000E+00  1.60000000E+01  1.00800000E+00
  1.00800000E+00  1.60000000E+01  1.00800000E+00  1.00800000E+00  1.60000000E+01
  1.00800000E+00  1.00800000E+00  1.60000000E+01  1.00800000E+00  1.00800000E+00
  1.60000000E+01  1.00800000E+00  1.00800000E+00  1.60000000E+01  1.00800000E+00
  1.00800000E+00  1.60000000E+01  1.00800000E+00  1.00800000E+00  1.60000000E+01
  1.00800000E+00  1.00800000E+00  1.60000000E+01  1.00800000E+00  1.00800000E+00
  1.60000000E+01  1.00800000E+00  1.00800000E+00  1.60000000E+01  1.00800000E+00
  1.00800000E+00  1.60000000E+01  1.00800000E+00  1.00800000E+00  1.60000000E+01
  1.00800000E+00  1.00800000E+00  1.60000000E+01  1.00800000E+00  1.00800000E+00
  1.60000000E+01  1.00800000E+00  1.00800000E+00  1.60000000E+01  1.00800000E+00
  1.00800000E+00  1.60000000E+01  1.00800000E+00  1.00800000E+00  1.60000000E+01
  1.00800000E+00  1.00800000E+00  1.60000000E+01  1.00800000E+00  1.00800000E+00
  1.60000000E+01  1.00800000E+00  1.00800000E+00  1.60000000E+01  1.00800000E+00
  1.00800000E+00  1.60000000E+01  1.00800000E+00  1.00800000E+00  1.60000000E+01
  1.00800000E+00  1.00800000E+00  1.60000000E+01  1.00800000E+00  1.00800000E+00
  1.60000000E+01  1.00800000E+00  1.00800000E+00  1.60000000E+01  1.00800000E+00
  1.00800000E+00  1.60000000E+01  1.00800000E+00  1.00800000E+00  1.60000000E+01
  1.00800000E+00  1.00800000E+00  1.60000000E+01  1.00800000E+00  1.00800000E+00
  1.60000000E+01  1.00800000E+00  1.00800000E+00  1.60000000E+01  1.00800000E+00
  1.00800000E+00  1.60000000E+01  1.00800000E+00  1.00800000E+00  1.60000000E+01
  1.00800000E+00  1.00800000E+00  1.60000000E+01  1.00800000E+00  1.00800000E+00
  1.60000000E+01  1.00800000E+00  1.00800000E+00  1.60000000E+01  1.00800000E+00
  1.00800000E+00  1.60000000E+01  1.00800000E+00  1.00800000E+00  1.60000000E+01
  1.00800000E+00  1.00800000E+00  1.60000000E+01  1.00800000E+00  1.00800000E+00
  1.60000000E+01  1.00800000E+00  1.00800000E+00  1.60000000E+01  1.00800000E+00
  1.00800000E+00  1.60000000E+01  1.00800000E+00  1.00800000E+00  1.60000000E+01
  1.00800000E+00  1.00800000E+00  1.60000000E+01  1.00800000E+00  1.00800000E+00
  1.60000000E+01  1.00800000E+00  1.00800000E+00  1.60000000E+01  1.00800000E+00
  1.00800000E+00  1.60000000E+01  1.00800000E+00  1.00800000E+00  1.60000000E+01
  1.00800000E+00  1.00800000E+00  1.60000000E+01  1.00800000E+00  1.00800000E+00
  1.60000000E+01  1.00800000E+00  1.00800000E+00  1.60000000E+01  1.00800000E+00
  1.00800000E+00  1.60000000E+01  1.00800000E+00  1.00800000E+00  1.60000000E+01
  1.00800000E+00  1.00800000E+00  1.60000000E+01  1.00800000E+00  1.00800000E+00
  1.60000000E+01  1.00800000E+00  1.00800000E+00  1.60000000E+01  1.00800000E+00
  1.00800000E+00  1.60000000E+01  1.00800000E+00  1.00800000E+00  1.60000000E+01
  1.00800000E+00  1.00800000E+00  1.60000000E+01  1.00800000E+00  1.00800000E+00
  1.60000000E+01  1.00800000E+00  1.00800000E+00  1.60000000E+01  1.00800000E+00
  1.00800000E+00  1.60000000E+01  1.00800000E+00  1.00800000E+00  1.60000000E+01
  1.00800000E+00  1.00800000E+00  1.60000000E+01  1.00800000E+00  1.00800000E+00
  1.60000000E+01  1.00800000E+00  1.00800000E+00  1.60000000E+01  1.00800000E+00
  1.00800000E+00  1.60000000E+01  1.00800000E+00  1.00800000E+00  1.60000000E+01
  1.00800000E+00  1.00800000E+00  1.60000000E+01  1.00800000E+00  1.00800000E+00
  1.60000000E+01  1.00800000E+00  1.00800000E+00  1.60000000E+01  1.00800000E+00
  1.00800000E+00  1.60000000E+01  1.00800000E+00  1.00800000E+00  1.60000000E+01
  1.00800000E+00  1.00800000E+00  1.60000000E+01  1.00800000E+00  1.00800000E+00
  1.60000000E+01  1.00800000E+00  1.00800000E+00  1.60000000E+01  1.00800000E+00
  1.00800000E+00  1.60000000E+01  1.00800000E+00  1.00800000E+00  1.60000000E+01
  1.00800000E+00  1.00800000E+00  1.60000000E+01  1.00800000E+00  1.00800000E+00
  1.60000000E+01  1.00800000E+00  1.00800000E+00  1.60000000E+01  1.00800000E+00
  1.00800000E+00  1.60000000E+01  1.00800000E+00  1.00800000E+00  1.60000000E+01
  1.00800000E+00  1.00800000E+00  1.60000000E+01  1.00800000E+00  1.00800000E+00
  1.60000000E+01  1.00800000E+00  1.00800000E+00  1.60000000E+01  1.00800000E+00
  1.00800000E+00  1.60000000E+01  1.00800000E+00  1.00800000E+00  1.60000000E+01
  1.00800000E+00  1.00800000E+00  1.60000000E+01  1.00800000E+00  1.00800000E+00
  1.60000000E+01  1.00800000E+00  1.00800000E+00  1.60000000E+01  1.00800000E+00
  1.00800000E+00  1.60000000E+01  1.00800000E+00  1.00800000E+00  1.60000000E+01
  1.00800000E+00  1.00800000E+00  1.60000000E+01  1.00800000E+00  1.00800000E+00
  1.60000000E+01  1.00800000E+00  1.00800000E+00  1.60000000E+01  1.00800000E+00
  1.00800000E+00  1.60000000E+01  1.00800000E+00  1.00800000E+00  1.60000000E+01
  1.00800000E+00  1.00800000E+00  1.60000000E+01  1.00800000E+00  1.00800000E+00
  1.60000000E+01  1.00800000E+00  1.00800000E+00  1.60000000E+01  1.00800000E+00
  1.00800000E+00  1.60000000E+01  1.00800000E+00  1.00800000E+00  1.60000000E+01
  1.00800000E+00  1.00800000E+00  1.60000000E+01  1.00800000E+00  1.00800000E+00
  1.60000000E+01  1.00800000E+00  1.00800000E+00  1.60000000E+01  1.00800000E+00
  1.00800000E+00  1.60000000E+01  1.00800000E+00  1.00800000E+00  1.60000000E+01
  1.00800000E+00  1.00800000E+00  1.60000000E+01  1.00800000E+00  1.00800000E+00
  1.60000000E+01  1.00800000E+00  1.00800000E+00  1.60000000E+01  1.00800000E+00
  1.00800000E+00  1.60000000E+01  1.00800000E+00  1.00800000E+00  1.60000000E+01
  1.00800000E+00  1.00800000E+00  1.60000000E+01  1.00800000E+00  1.00800000E+00
  1.60000000E+01  1.00800000E+00  1.00800000E+00  1.60000000E+01  1.00800000E+00
  1.00800000E+00  1.60000000E+01  1.00800000E+00  1.00800000E+00  1.60000000E+01
  1.00800000E+00  1.00800000E+00  1.60000000E+01  1.00800000E+00  1.00800000E+00
  1.60000000E+01  1.00800000E+00  1.00800000E+00  1.60000000E+01  1.00800000E+00
  1.00800000E+00  1.60000000E+01  1.00800000E+00  1.00800000E+00  1.60000000E+01
  1.00800000E+00  1.00800000E+00  1.60000000E+01  1.00800000E+00  1.00800000E+00
  1.60000000E+01  1.00800000E+00  1.00800000E+00  1.60000000E+01  1.00800000E+00
  1.00800000E+00  1.60000000E+01  1.00800000E+00  1.00800000E+00  1.60000000E+01
  1.00800000E+00  1.00800000E+00  1.60000000E+01  1.00800000E+00  1.00800000E+00
  1.60000000E+01  1.00800000E+00  1.00800000E+00  1.60000000E+01  1.00800000E+00
  1.00800000E+00  1.60000000E+01  1.00800000E+00  1.00800000E+00  1.60000000E+01
  1.00800000E+00  1.00800000E+00  1.60000000E+01  1.00800000E+00  1.00800000E+00
  1.60000000E+01  1.00800000E+00  1.00800000E+00  1.60000000E+01  1.00800000E+00
  1.00800000E+00  1.60000000E+01  1.00800000E+00  1.00800000E+00  1.60000000E+01
  1.00800000E+00  1.00800000E+00  1.60000000E+01  1.00800000E+00  1.00800000E+00
  1.60000000E+01  1.00800000E+00  1.00800000E+00  1.60000000E+01  1.00800000E+00
  1.00800000E+00  1.60000000E+01  1.00800000E+00  1.00800000E+00  1.60000000E+01
  1.00800000E+00  1.00800000E+00  1.60000000E+01  1.00800000E+00  1.00800000E+00
  1.60000000E+01  1.00800000E+00  1.00800000E+00  1.60000000E+01  1.00800000E+00
  1.00800000E+00  1.60000000E+01  1.00800000E+00  1.00800000E+00  1.60000000E+01
  1.00800000E+00  1.00800000E+00  1.60000000E+01  1.00800000E+00  1.00800000E+00
  1.60000000E+01  1.00800000E+00  1.00800000E+00  1.60000000E+01  1.00800000E+00
  1.00800000E+00  1.60000000E+01  1.00800000E+00  1.00800000E+00  1.60000000E+01
  1.00800000E+00  1.00800000E+00  1.60000000E+01  1.00800000E+00  1.00800000E+00
  1.60000000E+01  1.00800000E+00  1.00800000E+00  1.60000000E+01  1.00800000E+00
  1.00800000E+00  1.60000000E+01  1.00800000E+00  1.00800000E+00  1.60000000E+01
  1.00800000E+00  1.00800000E+00  1.60000000E+01  1.00800000E+00  1.00800000E+00
  1.60000000E+01  1.00800000E+00  1.00800000E+00  1.60000000E+01  1.00800000E+00
  1.00800000E+00  1.60000000E+01  1.00800000E+00  1.00800000E+00  1.60000000E+01
  1.00800000E+00  1.00800000E+00  1.60000000E+01  1.00800000E+00  1.00800000E+00
  1.60000000E+01  1.00800000E+00  1.00800000E+00  1.60000000E+01  1.00800000E+00
  1.00800000E+00  1.60000000E+01  1.00800000E+00  1.00800000E+00  1.60000000E+01
  1.00800000E+00  1.00800000E+00  1.60000000E+01  1.00800000E+00  1.00800000E+00
  1.60000000E+01  1.00800000E+00  1.00800000E+00  1.60000000E+01  1.00800000E+00
  1.00800000E+00  1.60000000E+01  1.00800000E+00  1.00800000E+00  1.60000000E+01
  1.00800000E+00  1.00800000E+00  1.60000000E+01  1.00800000E+00  1.00800000E+00
  1.60000000E+01  1.00800000E+00  1.00800000E+00  1.60000000E+01  1.00800000E+00
  1.00800000E+00  1.60000000E+01  1.00800000E+00  1.00800000E+00  1.60000000E+01
  1.00800000E+00  1.00800000E+00  1.60000000E+01  1.00800000E+00  1.00800000E+00
  1.60000000E+01  1.00800000E+00  1.00800000E+00  1.60000000E+01  1.00800000E+00
  1.00800000E+00  1.60000000E+01  1.00800000E+00  1.00800000E+00  1.60000000E+01
  1.00800000E+00  1.00800000E+00  1.60000000E+01  1.00800000E+00  1.00800000E+00
  1.60000000E+01  1.00800000E+00  1.00800000E+00  1.60000000E+01  1.00800000E+00
  1.00800000E+00  1.60000000E+01  1.00800000E+00  1.00800000E+00  1.60000000E+01
  1.00800000E+00  1.00800000E+00  1.60000000E+01  1.00800000E+00  1.00800000E+00
  1.60000000E+01  1.00800000E+00  1.00800000E+00  1.60000000E+01  1.00800000E+00
  1.00800000E+00  1.60000000E+01  1.00800000E+00  1.00800000E+00  1.60000000E+01
  1.00800000E+00  1.00800000E+00  1.60000000E+01  1.00800000E+00  1.00800000E+00
  1.60000000E+01  1.00800000E+00  1.00800000E+00  1.60000000E+01  1.00800000E+00
  1.00800000E+00  1.60000000E+01  1.00800000E+00  1.00800000E+00  1.60000000E+01
  1.00800000E+00  1.00800000E+00  1.60000000E+01  1.00800000E+00  1.00800000E+00
  1.60000000E+01  1.00800000E+00  1.00800000E+00  1.60000000E+01  1.00800000E+00
  1.00800000E+00  1.60000000E+01  1.00800000E+00  1.00800000E+00  1.60000000E+01
  1.00800000E+00  1.00800000E+00  1.60000000E+01  1.00800000E+00  1.00800000E+00
  1.60000000E+01  1.00800000E+00  1.00800000E+00  1.60000000E+01  1.00800000E+00
  1.00800000E+00  1.60000000E+01  1.00800000E+00  1.00800000E+00  1.60000000E+01
  1.00800000E+00  1.00800000E+00  1.60000000E+01  1.00800000E+00  1.00800000E+00
  1.60000000E+01  1.00800000E+00  1.00800000E+00  1.60000000E+01  1.00800000E+00
  1.00800000E+00  1.60000000E+01  1.00800000E+00  1.00800000E+00  1.60000000E+01
  1.00800000E+00  1.00800000E+00  1.60000000E+01  1.00800000E+00  1.00800000E+00
  1.60000000E+01  1.00800000E+00  1.00800000E+00  1.60000000E+01  1.00800000E+00
  1.00800000E+00  1.60000000E+01  1.00800000E+00  1.00800000E+00  1.60000000E+01
  1.00800000E+00  1.00800000E+00  1.60000000E+01  1.00800000E+00  1.00800000E+00
  1.60000000E+01  1.00800000E+00  1.00800000E+00  1.60000000E+01  1.00800000E+00
  1.00800000E+00  1.60000000E+01  1.00800000E+00  1.00800000E+00  1.60000000E+01
  1.00800000E+00  1.00800000E+00  1.60000000E+01  1.00800000E+00  1.00800000E+00
  1.60000000E+01  1.00800000E+00  1.00800000E+00  1.60000000E+01  1.00800000E+00
  1.00800000E+00  1.60000000E+01  1.00800000E+00  1.00800000E+00  1.60000000E+01
  1.00800000E+00  1.00800000E+00  1.60000000E+01  1.00800000E+00  1.00800000E+00
  1.60000000E+01  1.00800000E+00  1.00800000E+00  1.60000000E+01  1.00800000E+00
  1.00800000E+00  1.60000000E+01  1.00800000E+00  1.00800000E+00  1.60000000E+01
  1.00800000E+00  1.00800000E+00  1.60000000E+01  1.00800000E+00  1.00800000E+00
  1.60000000E+01  1.00800000E+00  1.00800000E+00  1.60000000E+01  1.00800000E+00
  1.00800000E+00  1.60000000E+01  1.00800000E+00  1.00800000E+00  1.60000000E+01
  1.00800000E+00  1.00800000E+00  1.60000000E+01  1.00800000E+00  1.00800000E+00
  1.60000000E+01  1.00800000E+00  1.00800000E+00  1.60000000E+01  1.00800000E+00
  1.00800000E+00  1.60000000E+01  1.00800000E+00  1.00800000E+00  1.60000000E+01
  1.00800000E+00  1.00800000E+00  1.60000000E+01  1.00800000E+00  1.00800000E+00
  1.60000000E+01  1.00800000E+00  1.00800000E+00  1.60000000E+01  1.00800000E+00
  1.00800000E+00  1.60000000E+01  1.00800000E+00  1.00800000E+00  1.60000000E+01
  1.00800000E+00  1.00800000E+00  1.60000000E+01  1.00800000E+00  1.00800000E+00
  1.60000000E+01  1.00800000E+00  1.00800000E+00  1.60000000E+01  1.00800000E+00
  1.00800000E+00  1.60000000E+01  1.00800000E+00  1.00800000E+00  1.60000000E+01
  1.00800000E+00  1.00800000E+00  1.60000000E+01  1.00800000E+00  1.00800000E+00
  1.60000000E+01  1.00800000E+00  1.00800000E+00  1.60000000E+01  1.00800000E+00
  1.00800000E+00  1.60000000E+01  1.00800000E+00  1.00800000E+00  1.60000000E+01
  1.00800000E+00  1.00800000E+00  1.60000000E+01  1.00800000E+00  1.00800000E+00
  1.60000000E+01  1.00800000E+00  1.00800000E+00  1.60000000E+01  1.00800000E+00
  1.00800000E+00  1.60000000E+01  1.00800000E+00  1.00800000E+00  1.60000000E+01
  1.00800000E+00  1.00800000E+00  1.60000000E+01  1.00800000E+00  1.00800000E+00
  1.60000000E+01  1.00800000E+00  1.00800000E+00  1.60000000E+01  1.00800000E+00
  1.00800000E+00  1.60000000E+01  1.00800000E+00  1.00800000E+00  1.60000000E+01
  1.00800000E+00  1.00800000E+00  1.60000000E+01  1.00800000E+00  1.00800000E+00
  1.60000000E+01  1.00800000E+00  1.00800000E+00  1.60000000E+01  1.00800000E+00
  1.00800000E+00  1.60000000E+01  1.00800000E+00  1.00800000E+00  1.60000000E+01
  1.00800000E+00  1.00800000E+00  1.60000000E+01  1.00800000E+00  1.00800000E+00
  1.60000000E+01  1.00800000E+00  1.00800000E+00  1.60000000E+01  1.00800000E+00
  1.00800000E+00  1.60000000E+01  1.00800000E+00  1.00800000E+00  1.60000000E+01
  1.00800000E+00  1.00800000E+00  1.60000000E+01  1.00800000E+00  1.00800000E+00
  1.60000000E+01  1.00800000E+00  1.00800000E+00  1.60000000E+01  1.00800000E+00
  1.00800000E+00  1.60000000E+01  1.00800000E+00  1.00800000E+00  1.60000000E+01
  1.00800000E+00  1.00800000E+00  1.60000000E+01  1.00800000E+00  1.00800000E+00
  1.60000000E+01  1.00800000E+00  1.00800000E+00  1.60000000E+01  1.00800000E+00
  1.00800000E+00  1.60000000E+01  1.00800000E+00  1.00800000E+00  1.60000000E+01
  1.00800000E+00  1.00800000E+00  1.60000000E+01  1.00800000E+00  1.00800000E+00
  1.60000000E+01  1.00800000E+00  1.00800000E+00  1.60000000E+01  1.00800000E+00
  1.00800000E+00  1.60000000E+01  1.00800000E+00  1.00800000E+00  1.60000000E+01
  1.00800000E+00  1.00800000E+00  1.60000000E+01  1.00800000E+00  1.00800000E+00
  1.60000000E+01  1.00800000E+00  1.00800000E+00  1.60000000E+01  1.00800000E+00
  1.00800000E+00  1.60000000E+01  1.00800000E+00  1.00800000E+00  1.60000000E+01
  1.00800000E+00  1.00800000E+00  1.60000000E+01  1.00800000E+00  1.00800000E+00
  1.60000000E+01  1.00800000E+00  1.00800000E+00  1.60000000E+01  1.00800000E+00
  1.00800000E+00  1.60000000E+01  1.00800000E+00  1.00800000E+00  1.60000000E+01
  1.00800000E+00  1.00800000E+00  1.60000000E+01  1.00800000E+00  1.00800000E+00
  1.60000000E+01  1.00800000E+00  1.00800000E+00  1.60000000E+01  1.00800000E+00
  1.00800000E+00  1.60000000E+01  1.00800000E+00  1.00800000E+00  1.60000000E+01
  1.00800000E+00  1.00800000E+00  1.60000000E+01  1.00800000E+00  1.00800000E+00
  1.60000000E+01  1.00800000E+00  1.00800000E+00  1.60000000E+01  1.00800000E+00
  1.00800000E+00  1.60000000E+01  1.00800000E+00  1.00800000E+00  1.60000000E+01
  1.00800000E+00  1.00800000E+00  1.60000000E+01  1.00800000E+00  1.00800000E+00
  1.60000000E+01  1.00800000E+00  1.00800000E+00  1.60000000E+01  1.00800000E+00
  1.00800000E+00  1.60000000E+01  1.00800000E+00  1.00800000E+00  1.60000000E+01
  1.00800000E+00  1.00800000E+00  1.60000000E+01  1.00800000E+00  1.00800000E+00
  1.60000000E+01  1.00800000E+00  1.00800000E+00  1.60000000E+01  1.00800000E+00
  1.00800000E+00  1.60000000E+01  1.00800000E+00  1.00800000E+00  1.60000000E+01
  1.00800000E+00  1.00800000E+00  1.60000000E+01  1.00800000E+00  1.00800000E+00
  1.60000000E+01  1.00800000E+00  1.00800000E+00  1.60000000E+01  1.00800000E+00
  1.00800000E+00  1.60000000E+01  1.00800000E+00  1.00800000E+00  1.60000000E+01
  1.00800000E+00  1.00800000E+00  1.60000000E+01  1.00800000E+00  1.00800000E+00
  1.60000000E+01  1.00800000E+00  1.00800000E+00  1.60000000E+01  1.00800000E+00
  1.00800000E+00  1.60000000E+01  1.00800000E+00  1.00800000E+00  1.60000000E+01
  1.00800000E+00  1.00800000E+00  1.60000000E+01  1.00800000E+00  1.00800000E+00
  1.60000000E+01  1.00800000E+00  1.00800000E+00  1.60000000E+01  1.00800000E+00
  1.00800000E+00  1.60000000E+01  1.00800000E+00  1.00800000E+00  1.60000000E+01
  1.00800000E+00  1.00800000E+00  1.60000000E+01  1.00800000E+00  1.00800000E+00
  1.60000000E+01  1.00800000E+00  1.00800000E+00  1.60000000E+01  1.00800000E+00
  1.00800000E+00  1.60000000E+01  1.00800000E+00  1.00800000E+00  1.60000000E+01
  1.00800000E+00  1.00800000E+00  1.60000000E+01  1.00800000E+00  1.00800000E+00
  1.60000000E+01  1.00800000E+00  1.00800000E+00  1.60000000E+01  1.00800000E+00
  1.00800000E+00  1.60000000E+01  1.00800000E+00  1.00800000E+00  1.60000000E+01
  1.00800000E+00  1.00800000E+00  1.60000000E+01  1.00800000E+00  1.00800000E+00
  1.60000000E+01  1.00800000E+00  1.00800000E+00  1.60000000E+01  1.00800000E+00
  1.00800000E+00  1.60000000E+01  1.00800000E+00  1.00800000E+00  1.60000000E+01
  1.00800000E+00  1.00800000E+00  1.60000000E+01  1.00800000E+00  1.00800000E+00
  1.60000000E+01  1.00800000E+00  1.00800000E+00  1.60000000E+01  1.00800000E+00
  1.00800000E+00  1.60000000E+01  1.00800000E+00  1.00800000E+00  1.60000000E+01
  1.00800000E+00  1.00800000E+00  1.60000000E+01  1.00800000E+00  1.00800000E+00
  1.60000000E+01  1.00800000E+00  1.00800000E+00  1.60000000E+01  1.00800000E+00
  1.00800000E+00  1.60000000E+01  1.00800000E+00  1.00800000E+00  1.60000000E+01
  1.00800000E+00  1.00800000E+00  1.60000000E+01  1.00800000E+00  1.00800000E+00
  1.60000000E+01  1.00800000E+00  1.00800000E+00  1.60000000E+01  1.00800000E+00
  1.00800000E+00  1.60000000E+01  1.00800000E+00  1.00800000E+00  1.60000000E+01
  1.00800000E+00  1.00800000E+00  1.60000000E+01  1.00800000E+00  1.00800000E+00
  1.60000000E+01  1.00800000E+00  1.00800000E+00  1.60000000E+01  1.00800000E+00
  1.00800000E+00  1.60000000E+01  1.00800000E+00  1.00800000E+00  1.60000000E+01
  1.00800000E+00  1.00800000E+00  1.60000000E+01  1.00800000E+00  1.00800000E+00
  1.60000000E+01  1.00800000E+00  1.00800000E+00  1.60000000E+01  1.00800000E+00
  1.00800000E+00  1.60000000E+01  1.00800000E+00  1.00800000E+00  1.60000000E+01
  1.00800000E+00  1.00800000E+00  1.60000000E+01  1.00800000E+00  1.00800000E+00
  1.60000000E+01  1.00800000E+00  1.00800000E+00  1.60000000E+01  1.00800000E+00
  1.00800000E+00  1.60000000E+01  1.00800000E+00  1.00800000E+00  1.60000000E+01
  1.00800000E+00  1.00800000E+00  1.60000000E+01  1.00800000E+00  1.00800000E+00
  1.60000000E+01  1.00800000E+00  1.00800000E+00  1.60000000E+01  1.00800000E+00
  1.00800000E+00  1.60000000E+01  1.00800000E+00  1.00800000E+00  1.60000000E+01
  1.00800000E+00  1.00800000E+00  1.60000000E+01  1.00800000E+00  1.00800000E+00
  1.60000000E+01  1.00800000E+00  1.00800000E+00  1.60000000E+01  1.00800000E+00
  1.00800000E+00  1.60000000E+01  1.00800000E+00  1.00800000E+00  1.60000000E+01
  1.00800000E+00  1.00800000E+00  1.60000000E+01  1.00800000E+00  1.00800000E+00
  1.60000000E+01  1.00800000E+00  1.00800000E+00  1.60000000E+01  1.00800000E+00
  1.00800000E+00  1.60000000E+01  1.00800000E+00  1.00800000E+00  1.60000000E+01
  1.00800000E+00  1.00800000E+00  1.60000000E+01  1.00800000E+00  1.00800000E+00
  1.60000000E+01  1.00800000E+00  1.00800000E+00  1.60000000E+01  1.00800000E+00
  1.00800000E+00  1.60000000E+01  1.00800000E+00  1.00800000E+00  1.60000000E+01
  1.00800000E+00  1.00800000E+00  1.60000000E+01  1.00800000E+00  1.00800000E+00
  1.60000000E+01  1.00800000E+00  1.00800000E+00  1.60000000E+01  1.00800000E+00
  1.00800000E+00  1.60000000E+01  1.00800000E+00  1.00800000E+00  1.60000000E+01
  1.00800000E+00  1.00800000E+00  1.60000000E+01  1.00800000E+00  1.00800000E+00
  1.60000000E+01  1.00800000E+00  1.00800000E+00  1.60000000E+01  1.00800000E+00
  1.00800000E+00  1.60000000E+01  1.00800000E+00  1.00800000E+00  1.60000000E+01
  1.00800000E+00  1.00800000E+00  1.60000000E+01  1.00800000E+00  1.00800000E+00
  1.60000000E+01  1.00800000E+00  1.00800000E+00  1.60000000E+01  1.00800000E+00
  1.00800000E+00  1.60000000E+01  1.00800000E+00  1.00800000E+00  1.60000000E+01
  1.00800000E+00  1.00800000E+00  1.60000000E+01  1.00800000E+00  1.00800000E+00
  1.60000000E+01  1.00800000E+00  1.00800000E+00  1.60000000E+01  1.00800000E+00
  1.00800000E+00  1.60000000E+01  1.00800000E+00  1.00800000E+00  1.60000000E+01
  1.00800000E+00  1.00800000E+00  1.60000000E+01  1.00800000E+00  1.00800000E+00
  1.60000000E+01  1.00800000E+00  1.00800000E+00  1.60000000E+01  1.00800000E+00
  1.00800000E+00  1.60000000E+01  1.00800000E+00  1.00800000E+00  1.60000000E+01
  1.00800000E+00  1.00800000E+00  1.60000000E+01  1.00800000E+00  1.00800000E+00
  1.60000000E+01  1.00800000E+00  1.00800000E+00  1.60000000E+01  1.00800000E+00
  1.00800000E+00  1.60000000E+01  1.00800000E+00  1.00800000E+00  1.60000000E+01
  1.00800000E+00  1.00800000E+00  1.60000000E+01  1.00800000E+00  1.00800000E+00
  1.60000000E+01  1.00800000E+00  1.00800000E+00  1.60000000E+01  1.00800000E+00
  1.00800000E+00  1.60000000E+01  1.00800000E+00  1.00800000E+00  1.60000000E+01
  1.00800000E+00  1.00800000E+00  1.60000000E+01  1.00800000E+00  1.00800000E+00
  1.60000000E+01  1.00800000E+00  1.00800000E+00  1.60000000E+01  1.00800000E+00
  1.00800000E+00  1.60000000E+01  1.00800000E+00  1.00800000E+00  1.60000000E+01
  1.00800000E+00  1.00800000E+00  1.60000000E+01  1.00800000E+00  1.00800000E+00
  1.60000000E+01  1.00800000E+00  1.00800000E+00  1.60000000E+01  1.00800000E+00
  1.00800000E+00  1.60000000E+01  1.00800000E+00  1.00800000E+00  1.60000000E+01
  1.00800000E+00  1.00800000E+00  1.60000000E+01  1.00800000E+00  1.00800000E+00
  1.60000000E+01  1.00800000E+00  1.00800000E+00  1.60000000E+01  1.00800000E+00
  1.00800000E+00  1.60000000E+01  1.00800000E+00  1.00800000E+00  1.60000000E+01
  1.00800000E+00  1.00800000E+00  1.60000000E+01  1.00800000E+00  1.00800000E+00
  1.60000000E+01  1.00800000E+00  1.00800000E+00  1.60000000E+01  1.00800000E+00
  1.00800000E+00  1.60000000E+01  1.00800000E+00  1.00800000E+00  1.60000000E+01
  1.00800000E+00  1.00800000E+00  1.60000000E+01  1.00800000E+00  1.00800000E+00
  1.60000000E+01  1.00800000E+00  1.00800000E+00  1.60000000E+01  1.00800000E+00
  1.00800000E+00  1.60000000E+01  1.00800000E+00  1.00800000E+00  1.60000000E+01
  1.00800000E+00  1.00800000E+00  1.60000000E+01  1.00800000E+00  1.00800000E+00
  1.60000000E+01  1.00800000E+00  1.00800000E+00  1.60000000E+01  1.00800000E+00
  1.00800000E+00  1.60000000E+01  1.00800000E+00  1.00800000E+00  1.60000000E+01
  1.00800000E+00  1.00800000E+00  1.60000000E+01  1.00800000E+00  1.00800000E+00
  1.60000000E+01  1.00800000E+00  1.00800000E+00  1.60000000E+01  1.00800000E+00
  1.00800000E+00  1.60000000E+01  1.00800000E+00  1.00800000E+00  1.60000000E+01
  1.00800000E+00  1.00800000E+00  1.60000000E+01  1.00800000E+00  1.00800000E+00
  1.60000000E+01  1.00800000E+00  1.00800000E+00  1.60000000E+01  1.00800000E+00
  1.00800000E+00  1.60000000E+01  1.00800000E+00  1.00800000E+00  1.60000000E+01
  1.00800000E+00  1.00800000E+00  1.60000000E+01  1.00800000E+00  1.00800000E+00
  1.60000000E+01  1.00800000E+00  1.00800000E+00  1.60000000E+01  1.00800000E+00
  1.00800000E+00  1.60000000E+01  1.00800000E+00  1.00800000E+00  1.60000000E+01
  1.00800000E+00  1.00800000E+00  1.60000000E+01  1.00800000E+00  1.00800000E+00
  1.60000000E+01  1.00800000E+00  1.00800000E+00  1.60000000E+01  1.00800000E+00
  1.00800000E+00  1.60000000E+01  1.00800000E+00  1.00800000E+00  1.60000000E+01
  1.00800000E+00  1.00800000E+00  1.60000000E+01  1.00800000E+00  1.00800000E+00
  1.60000000E+01  1.00800000E+00  1.00800000E+00  1.60000000E+01  1.00800000E+00
  1.00800000E+00  1.60000000E+01  1.00800000E+00  1.00800000E+00  1.60000000E+01
  1.00800000E+00  1.00800000E+00  1.60000000E+01  1.00800000E+00  1.00800000E+00
  1.60000000E+01  1.00800000E+00  1.00800000E+00  1.60000000E+01  1.00800000E+00
  1.00800000E+00  1.60000000E+01  1.00800000E+00  1.00800000E+00  1.60000000E+01
  1.00800000E+00  1.00800000E+00  1.60000000E+01  1.00800000E+00  1.00800000E+00
  1.60000000E+01  1.00800000E+00  1.00800000E+00  1.60000000E+01  1.00800000E+00
  1.00800000E+00  1.60000000E+01  1.00800000E+00  1.00800000E+00  1.60000000E+01
  1.00800000E+00  1.00800000E+00  1.60000000E+01  1.00800000E+00  1.00800000E+00
  1.60000000E+01  1.00800000E+00  1.00800000E+00  1.60000000E+01  1.00800000E+00
  1.00800000E+00  1.60000000E+01  1.00800000E+00  1.00800000E+00  1.60000000E+01
  1.00800000E+00  1.00800000E+00  1.60000000E+01  1.00800000E+00  1.00800000E+00
  1.60000000E+01  1.00800000E+00  1.00800000E+00  1.60000000E+01  1.00800000E+00
  1.00800000E+00  1.60000000E+01  1.00800000E+00  1.00800000E+00  1.60000000E+01
  1.00800000E+00  1.00800000E+00  1.60000000E+01  1.00800000E+00  1.00800000E+00
  1.60000000E+01  1.00800000E+00  1.00800000E+00  1.60000000E+01  1.00800000E+00
  1.00800000E+00  1.60000000E+01  1.00800000E+00  1.00800000E+00  1.60000000E+01
  1.00800000E+00  1.00800000E+00  1.60000000E+01  1.00800000E+00  1.00800000E+00
  1.60000000E+01  1.00800000E+00  1.00800000E+00  1.60000000E+01  1.00800000E+00
  1.00800000E+00  1.60000000E+01  1.00800000E+00  1.00800000E+00  1.60000000E+01
  1.00800000E+00  1.00800000E+00  1.60000000E+01  1.00800000E+00  1.00800000E+00
  1.60000000E+01  1.00800000E+00  1.00800000E+00  1.60000000E+01  1.00800000E+00
  1.00800000E+00  1.60000000E+01  1.00800000E+00  1.00800000E+00  1.60000000E+01
  1.00800000E+00  1.00800000E+00  1.60000000E+01  1.00800000E+00  1.00800000E+00
  1.60000000E+01  1.00800000E+00  1.00800000E+00  1.60000000E+01  1.00800000E+00
  1.00800000E+00  1.60000000E+01  1.00800000E+00  1.00800000E+00  1.60000000E+01
  1.00800000E+00  1.00800000E+00  1.60000000E+01  1.00800000E+00  1.00800000E+00
  1.60000000E+01  1.00800000E+00  1.00800000E+00  1.60000000E+01  1.00800000E+00
  1.00800000E+00  1.60000000E+01  1.00800000E+00  1.00800000E+00  1.60000000E+01
  1.00800000E+00  1.00800000E+00  1.60000000E+01  1.00800000E+00  1.00800000E+00
  1.60000000E+01  1.00800000E+00  1.00800000E+00  1.60000000E+01  1.00800000E+00
  1.00800000E+00  1.60000000E+01  1.00800000E+00  1.00800000E+00  1.60000000E+01
  1.00800000E+00  1.00800000E+00  1.60000000E+01  1.00800000E+00  1.00800000E+00
  1.60000000E+01  1.00800000E+00  1.00800000E+00  1.60000000E+01  1.00800000E+00
  1.00800000E+00  1.60000000E+01  1.00800000E+00  1.00800000E+00  1.60000000E+01
  1.00800000E+00  1.00800000E+00  1.60000000E+01  1.00800000E+00  1.00800000E+00
  1.60000000E+01  1.00800000E+00  1.00800000E+00  1.60000000E+01  1.00800000E+00
  1.00800000E+00  1.60000000E+01  1.00800000E+00  1.00800000E+00  1.60000000E+01
  1.00800000E+00  1.00800000E+00  1.60000000E+01  1.00800000E+00  1.00800000E+00
  1.60000000E+01  1.00800000E+00  1.00800000E+00  1.60000000E+01  1.00800000E+00
  1.00800000E+00  1.60000000E+01  1.00800000E+00  1.00800000E+00  1.60000000E+01
  1.00800000E+00  1.00800000E+00  1.60000000E+01  1.00800000E+00  1.00800000E+00
  1.60000000E+01  1.00800000E+00  1.00800000E+00  1.60000000E+01  1.00800000E+00
  1.00800000E+00  1.60000000E+01  1.00800000E+00  1.00800000E+00  1.60000000E+01
  1.00800000E+00  1.00800000E+00  1.60000000E+01  1.00800000E+00  1.00800000E+00
  1.60000000E+01  1.00800000E+00  1.00800000E+00  1.60000000E+01  1.00800000E+00
  1.00800000E+00  1.60000000E+01  1.00800000E+00  1.00800000E+00  1.60000000E+01
  1.00800000E+00  1.00800000E+00  1.60000000E+01  1.00800000E+00  1.00800000E+00
  1.60000000E+01  1.00800000E+00  1.00800000E+00  1.60000000E+01  1.00800000E+00
  1.00800000E+00  1.60000000E+01  1.00800000E+00  1.00800000E+00  1.60000000E+01
  1.00800000E+00  1.00800000E+00  1.60000000E+01  1.00800000E+00  1.00800000E+00
  1.60000000E+01  1.00800000E+00  1.00800000E+00  1.60000000E+01  1.00800000E+00
  1.00800000E+00  1.60000000E+01  1.00800000E+00  1.00800000E+00  1.60000000E+01
  1.00800000E+00  1.00800000E+00  1.60000000E+01  1.00800000E+00  1.00800000E+00
  1.60000000E+01  1.00800000E+00  1.00800000E+00  1.60000000E+01  1.00800000E+00
  1.00800000E+00  1.60000000E+01  1.00800000E+00  1.00800000E+00  1.60000000E+01
  1.00800000E+00  1.00800000E+00  1.60000000E+01  1.00800000E+00  1.00800000E+00
  1.60000000E+01  1.00800000E+00  1.00800000E+00  1.60000000E+01  1.00800000E+00
  1.00800000E+00  1.60000000E+01  1.00800000E+00  1.00800000E+00  1.60000000E+01
  1.00800000E+00  1.00800000E+00  1.60000000E+01  1.00800000E+00  1.00800000E+00
  1.60000000E+01  1.00800000E+00  1.00800000E+00  1.60000000E+01  1.00800000E+00
  1.00800000E+00  1.60000000E+01  1.00800000E+00  1.00800000E+00  1.60000000E+01
  1.00800000E+00  1.00800000E+00  1.60000000E+01  1.00800000E+00  1.00800000E+00
  1.60000000E+01  1.00800000E+00  1.00800000E+00  1.60000000E+01  1.00800000E+00
  1.00800000E+00  1.60000000E+01  1.00800000E+00  1.00800000E+00  1.60000000E+01
  1.00800000E+00  1.00800000E+00  1.60000000E+01  1.00800000E+00  1.00800000E+00
  1.60000000E+01  1.00800000E+00  1.00800000E+00  1.60000000E+01  1.00800000E+00
  1.00800000E+00  1.60000000E+01  1.00800000E+00  1.00800000E+00  1.60000000E+01
  1.00800000E+00  1.00800000E+00  1.60000000E+01  1.00800000E+00  1.00800000E+00
  1.60000000E+01  1.00800000E+00  1.00800000E+00  1.60000000E+01  1.00800000E+00
  1.00800000E+00  1.60000000E+01  1.00800000E+00  1.00800000E+00  1.60000000E+01
  1.00800000E+00  1.00800000E+00  1.60000000E+01  1.00800000E+00  1.00800000E+00
  1.60000000E+01  1.00800000E+00  1.00800000E+00  1.60000000E+01  1.00800000E+00
  1.00800000E+00  1.60000000E+01  1.00800000E+00  1.00800000E+00  1.60000000E+01
  1.00800000E+00  1.00800000E+00  1.60000000E+01  1.00800000E+00  1.00800000E+00
  1.60000000E+01  1.00800000E+00  1.00800000E+00  1.60000000E+01  1.00800000E+00
  1.00800000E+00  1.60000000E+01  1.00800000E+00  1.00800000E+00  1.60000000E+01
  1.00800000E+00  1.00800000E+00  1.60000000E+01  1.00800000E+00  1.00800000E+00
  1.60000000E+01  1.00800000E+00  1.00800000E+00  1.60000000E+01  1.00800000E+00
  1.00800000E+00  1.60000000E+01  1.00800000E+00  1.00800000E+00  1.60000000E+01
  1.00800000E+00  1.00800000E+00  1.60000000E+01  1.00800000E+00  1.00800000E+00
  1.60000000E+01  1.00800000E+00  1.00800000E+00  1.60000000E+01  1.00800000E+00
  1.00800000E+00  1.60000000E+01  1.00800000E+00  1.00800000E+00  1.60000000E+01
  1.00800000E+00  1.00800000E+00  1.60000000E+01  1.00800000E+00  1.00800000E+00
  1.60000000E+01  1.00800000E+00  1.00800000E+00  1.60000000E+01  1.00800000E+00
  1.00800000E+00  1.60000000E+01  1.00800000E+00  1.00800000E+00  1.60000000E+01
  1.00800000E+00  1.00800000E+00  1.60000000E+01  1.00800000E+00  1.00800000E+00
  1.60000000E+01  1.00800000E+00  1.00800000E+00  1.60000000E+01  1.00800000E+00
  1.00800000E+00  1.60000000E+01  1.00800000E+00  1.00800000E+00  1.60000000E+01
  1.00800000E+00  1.00800000E+00  1.60000000E+01  1.00800000E+00  1.00800000E+00
  1.60000000E+01  1.00800000E+00  1.00800000E+00  1.60000000E+01  1.00800000E+00
  1.00800000E+00  1.60000000E+01  1.00800000E+00  1.00800000E+00  1.60000000E+01
  1.00800000E+00  1.00800000E+00  1.60000000E+01  1.00800000E+00  1.00800000E+00
  1.60000000E+01  1.00800000E+00  1.00800000E+00  1.60000000E+01  1.00800000E+00
  1.00800000E+00  1.60000000E+01  1.00800000E+00  1.00800000E+00  1.60000000E+01
  1.00800000E+00  1.00800000E+00  1.60000000E+01  1.00800000E+00  1.00800000E+00
  1.60000000E+01  1.00800000E+00  1.00800000E+00  1.60000000E+01  1.00800000E+00
  1.00800000E+00  1.60000000E+01  1.00800000E+00  1.00800000E+00  1.60000000E+01
  1.00800000E+00  1.00800000E+00  1.60000000E+01  1.00800000E+00  1.00800000E+00
  1.60000000E+01  1.00800000E+00  1.00800000E+00  1.60000000E+01  1.00800000E+00
  1.00800000E+00  1.60000000E+01  1.00800000E+00  1.00800000E+00  1.60000000E+01
  1.00800000E+00  1.00800000E+00  1.60000000E+01  1.00800000E+00  1.00800000E+00
  1.60000000E+01  1.00800000E+00  1.00800000E+00  1.60000000E+01  1.00800000E+00
  1.00800000E+00  1.60000000E+01  1.00800000E+00  1.00800000E+00  1.60000000E+01
  1.00800000E+00  1.00800000E+00  1.60000000E+01  1.00800000E+00  1.00800000E+00
  1.60000000E+01  1.00800000E+00  1.00800000E+00  1.60000000E+01  1.00800000E+00
  1.00800000E+00  1.60000000E+01  1.00800000E+00  1.00800000E+00  1.60000000E+01
  1.00800000E+00  1.00800000E+00  1.60000000E+01  1.00800000E+00  1.00800000E+00
  1.60000000E+01  1.00800000E+00  1.00800000E+00  1.60000000E+01  1.00800000E+00
  1.00800000E+00  1.60000000E+01  1.00800000E+00  1.00800000E+00  1.60000000E+01
  1.00800000E+00  1.00800000E+00  1.60000000E+01  1.00800000E+00  1.00800000E+00
  1.60000000E+01  1.00800000E+00  1.00800000E+00  1.60000000E+01  1.00800000E+00
  1.00800000E+00  1.60000000E+01  1.00800000E+00  1.00800000E+00  1.60000000E+01
  1.00800000E+00  1.00800000E+00  1.60000000E+01  1.00800000E+00  1.00800000E+00
  1.60000000E+01  1.00800000E+00  1.00800000E+00  1.60000000E+01  1.00800000E+00
  1.00800000E+00  1.60000000E+01  1.00800000E+00  1.00800000E+00  1.60000000E+01
  1.00800000E+00  1.00800000E+00  1.60000000E+01  1.00800000E+00  1.00800000E+00
  1.60000000E+01  1.00800000E+00  1.00800000E+00  1.60000000E+01  1.00800000E+00
  1.00800000E+00  1.60000000E+01  1.00800000E+00  1.00800000E+00  1.60000000E+01
  1.00800000E+00  1.00800000E+00  1.60000000E+01  1.00800000E+00  1.00800000E+00
  1.60000000E+01  1.00800000E+00  1.00800000E+00  1.60000000E+01  1.00800000E+00
  1.00800000E+00  1.60000000E+01  1.00800000E+00  1.00800000E+00  1.60000000E+01
  1.00800000E+00  1.00800000E+00  1.60000000E+01  1.00800000E+00  1.00800000E+00
  1.60000000E+01  1.00800000E+00  1.00800000E+00  1.60000000E+01  1.00800000E+00
  1.00800000E+00  1.60000000E+01  1.00800000E+00  1.00800000E+00  1.60000000E+01
  1.00800000E+00  1.00800000E+00  1.60000000E+01  1.00800000E+00  1.00800000E+00
  1.60000000E+01  1.00800000E+00  1.00800000E+00  1.60000000E+01  1.00800000E+00
  1.00800000E+00  1.60000000E+01  1.00800000E+00  1.00800000E+00  1.60000000E+01
  1.00800000E+00  1.00800000E+00  1.60000000E+01  1.00800000E+00  1.00800000E+00
  1.60000000E+01  1.00800000E+00  1.00800000E+00  1.60000000E+01  1.00800000E+00
  1.00800000E+00  1.60000000E+01  1.00800000E+00  1.00800000E+00  1.60000000E+01
  1.00800000E+00  1.00800000E+00  1.60000000E+01  1.00800000E+00  1.00800000E+00
  1.60000000E+01  1.00800000E+00  1.00800000E+00  1.60000000E+01  1.00800000E+00
  1.00800000E+00  1.60000000E+01  1.00800000E+00  1.00800000E+00  1.60000000E+01
  1.00800000E+00  1.00800000E+00  1.60000000E+01  1.00800000E+00  1.00800000E+00
  1.60000000E+01  1.00800000E+00  1.00800000E+00  1.60000000E+01  1.00800000E+00
  1.00800000E+00  1.60000000E+01  1.00800000E+00  1.00800000E+00  1.60000000E+01
  1.00800000E+00  1.00800000E+00  1.60000000E+01  1.00800000E+00  1.00800000E+00
  1.60000000E+01  1.00800000E+00  1.00800000E+00  1.60000000E+01  1.00800000E+00
  1.00800000E+00  1.60000000E+01  1.00800000E+00  1.00800000E+00  1.60000000E+01
  1.00800000E+00  1.00800000E+00  1.60000000E+01  1.00800000E+00  1.00800000E+00
  1.60000000E+01  1.00800000E+00  1.00800000E+00  1.60000000E+01  1.00800000E+00
  1.00800000E+00  1.60000000E+01  1.00800000E+00  1.00800000E+00  1.60000000E+01
  1.00800000E+00  1.00800000E+00  1.60000000E+01  1.00800000E+00  1.00800000E+00
  1.60000000E+01  1.00800000E+00  1.00800000E+00  1.60000000E+01  1.00800000E+00
  1.00800000E+00  1.60000000E+01  1.00800000E+00  1.00800000E+00  1.60000000E+01
  1.00800000E+00  1.00800000E+00  1.60000000E+01  1.00800000E+00  1.00800000E+00
  1.60000000E+01  1.00800000E+00  1.00800000E+00  1.60000000E+01  1.00800000E+00
  1.00800000E+00  1.60000000E+01  1.00800000E+00  1.00800000E+00  1.60000000E+01
  1.00800000E+00  1.00800000E+00  1.60000000E+01  1.00800000E+00  1.00800000E+00
  1.60000000E+01  1.00800000E+00  1.00800000E+00  1.60000000E+01  1.00800000E+00
  1.00800000E+00  1.60000000E+01  1.00800000E+00  1.00800000E+00  1.60000000E+01
  1.00800000E+00  1.00800000E+00  1.60000000E+01  1.00800000E+00  1.00800000E+00
  1.60000000E+01  1.00800000E+00  1.00800000E+00  1.60000000E+01  1.00800000E+00
  1.00800000E+00  1.60000000E+01  1.00800000E+00  1.00800000E+00  1.60000000E+01
  1.00800000E+00  1.00800000E+00  1.60000000E+01  1.00800000E+00  1.00800000E+00
  1.60000000E+01  1.00800000E+00  1.00800000E+00  1.60000000E+01  1.00800000E+00
  1.00800000E+00  1.60000000E+01  1.00800000E+00  1.00800000E+00  1.60000000E+01
  1.00800000E+00  1.00800000E+00  1.60000000E+01  1.00800000E+00  1.00800000E+00
  1.60000000E+01  1.00800000E+00  1.00800000E+00  1.60000000E+01  1.00800000E+00
  1.00800000E+00  1.60000000E+01  1.00800000E+00  1.00800000E+00  1.60000000E+01
  1.00800000E+00  1.00800000E+00  1.60000000E+01  1.00800000E+00  1.00800000E+00
  1.60000000E+01  1.00800000E+00  1.00800000E+00  1.60000000E+01  1.00800000E+00
  1.00800000E+00  1.60000000E+01  1.00800000E+00  1.00800000E+00  1.60000000E+01
  1.00800000E+00  1.00800000E+00  1.60000000E+01  1.00800000E+00  1.00800000E+00
  1.60000000E+01  1.00800000E+00  1.00800000E+00  1.60000000E+01  1.00800000E+00
  1.00800000E+00  1.60000000E+01  1.00800000E+00  1.00800000E+00  1.60000000E+01
  1.00800000E+00  1.00800000E+00  1.60000000E+01  1.00800000E+00  1.00800000E+00
  1.60000000E+01  1.00800000E+00  1.00800000E+00  1.60000000E+01  1.00800000E+00
  1.00800000E+00  1.60000000E+01  1.00800000E+00  1.00800000E+00  1.60000000E+01
  1.00800000E+00  1.00800000E+00  1.60000000E+01  1.00800000E+00  1.00800000E+00
  1.60000000E+01  1.00800000E+00  1.00800000E+00  1.60000000E+01  1.00800000E+00
  1.00800000E+00  1.60000000E+01  1.00800000E+00  1.00800000E+00  1.60000000E+01
  1.00800000E+00  1.00800000E+00  1.60000000E+01  1.00800000E+00  1.00800000E+00
  1.60000000E+01  1.00800000E+00  1.00800000E+00  1.60000000E+01  1.00800000E+00
  1.00800000E+00  1.60000000E+01  1.00800000E+00  1.00800000E+00  1.60000000E+01
  1.00800000E+00  1.00800000E+00  1.60000000E+01  1.00800000E+00  1.00800000E+00
  1.60000000E+01  1.00800000E+00  1.00800000E+00  1.60000000E+01  1.00800000E+00
  1.00800000E+00  1.60000000E+01  1.00800000E+00  1.00800000E+00  1.60000000E+01
  1.00800000E+00  1.00800000E+00  1.60000000E+01  1.00800000E+00  1.00800000E+00
  1.60000000E+01  1.00800000E+00  1.00800000E+00  1.60000000E+01  1.00800000E+00
  1.00800000E+00  1.60000000E+01  1.00800000E+00  1.00800000E+00  1.60000000E+01
  1.00800000E+00  1.00800000E+00  1.60000000E+01  1.00800000E+00  1.00800000E+00
  1.60000000E+01  1.00800000E+00  1.00800000E+00  1.60000000E+01  1.00800000E+00
  1.00800000E+00  1.60000000E+01  1.00800000E+00  1.00800000E+00  1.60000000E+01
  1.00800000E+00  1.00800000E+00  1.60000000E+01  1.00800000E+00  1.00800000E+00
  1.60000000E+01  1.00800000E+00  1.00800000E+00  1.60000000E+01  1.00800000E+00
  1.00800000E+00  1.60000000E+01  1.00800000E+00  1.00800000E+00  1.60000000E+01
  1.00800000E+00  1.00800000E+00  1.60000000E+01  1.00800000E+00  1.00800000E+00
  1.60000000E+01  1.00800000E+00  1.00800000E+00  1.60000000E+01  1.00800000E+00
  1.00800000E+00  1.60000000E+01  1.00800000E+00  1.00800000E+00  1.60000000E+01
  1.00800000E+00  1.00800000E+00  1.60000000E+01  1.00800000E+00  1.00800000E+00
  1.60000000E+01  1.00800000E+00  1.00800000E+00  1.60000000E+01  1.00800000E+00
  1.00800000E+00  1.60000000E+01  1.00800000E+00  1.00800000E+00  1.60000000E+01
  1.00800000E+00  1.00800000E+00  1.60000000E+01  1.00800000E+00  1.00800000E+00
  1.60000000E+01  1.00800000E+00  1.00800000E+00  1.60000000E+01  1.00800000E+00
  1.00800000E+00  1.60000000E+01  1.00800000E+00  1.00800000E+00  1.60000000E+01
  1.00800000E+00  1.00800000E+00  1.60000000E+01  1.00800000E+00  1.00800000E+00
  1.60000000E+01  1.00800000E+00  1.00800000E+00  1.60000000E+01  1.00800000E+00
  1.00800000E+00  1.60000000E+01  1.00800000E+00  1.00800000E+00  1.60000000E+01
  1.00800000E+00  1.00800000E+00  1.60000000E+01  1.00800000E+00  1.00800000E+00
  1.60000000E+01  1.00800000E+00  1.00800000E+00  1.60000000E+01  1.00800000E+00
  1.00800000E+00  1.60000000E+01  1.00800000E+00  1.00800000E+00  1.60000000E+01
  1.00800000E+00  1.00800000E+00  1.60000000E+01  1.00800000E+00  1.00800000E+00
  1.60000000E+01  1.00800000E+00  1.00800000E+00  1.60000000E+01  1.00800000E+00
  1.00800000E+00  1.60000000E+01  1.00800000E+00  1.00800000E+00  1.60000000E+01
  1.00800000E+00  1.00800000E+00  1.60000000E+01  1.00800000E+00  1.00800000E+00
  1.60000000E+01  1.00800000E+00  1.00800000E+00  1.60000000E+01  1.00800000E+00
  1.00800000E+00  1.60000000E+01  1.00800000E+00  1.00800000E+00  1.60000000E+01
  1.00800000E+00  1.00800000E+00  1.60000000E+01  1.00800000E+00  1.00800000E+00
  1.60000000E+01  1.00800000E+00  1.00800000E+00  1.60000000E+01  1.00800000E+00
  1.00800000E+00  1.60000000E+01  1.00800000E+00  1.00800000E+00  1.60000000E+01
  1.00800000E+00  1.00800000E+00  1.60000000E+01  1.00800000E+00  1.00800000E+00
  1.60000000E+01  1.00800000E+00  1.00800000E+00  1.60000000E+01  1.00800000E+00
  1.00800000E+00  1.60000000E+01  1.00800000E+00  1.00800000E+00  1.60000000E+01
  1.00800000E+00  1.00800000E+00  1.60000000E+01  1.00800000E+00  1.00800000E+00
  1.60000000E+01  1.00800000E+00  1.00800000E+00  1.60000000E+01  1.00800000E+00
  1.00800000E+00  1.60000000E+01  1.00800000E+00  1.00800000E+00  1.60000000E+01
  1.00800000E+00  1.00800000E+00  1.60000000E+01  1.00800000E+00  1.00800000E+00
  1.60000000E+01  1.00800000E+00  1.00800000E+00  1.60000000E+01  1.00800000E+00
  1.00800000E+00  1.60000000E+01  1.00800000E+00  1.00800000E+00  1.60000000E+01
  1.00800000E+00  1.00800000E+00  1.60000000E+01  1.00800000E+00  1.00800000E+00
  1.60000000E+01  1.00800000E+00  1.00800000E+00  1.60000000E+01  1.00800000E+00
  1.00800000E+00  1.60000000E+01  1.00800000E+00  1.00800000E+00  1.60000000E+01
  1.00800000E+00  1.00800000E+00  1.60000000E+01  1.00800000E+00  1.00800000E+00
  1.60000000E+01  1.00800000E+00  1.00800000E+00  1.60000000E+01  1.00800000E+00
  1.00800000E+00  1.60000000E+01  1.00800000E+00  1.00800000E+00  1.60000000E+01
  1.00800000E+00  1.00800000E+00  1.60000000E+01  1.00800000E+00  1.00800000E+00
  1.60000000E+01  1.00800000E+00  1.00800000E+00  1.60000000E+01  1.00800000E+00
  1.00800000E+00  1.60000000E+01  1.00800000E+00  1.00800000E+00  1.60000000E+01
  1.00800000E+00  1.00800000E+00  1.60000000E+01  1.00800000E+00  1.00800000E+00
  1.60000000E+01  1.00800000E+00  1.00800000E+00  1.60000000E+01  1.00800000E+00
  1.00800000E+00  1.60000000E+01  1.00800000E+00  1.00800000E+00  1.60000000E+01
  1.00800000E+00  1.00800000E+00  1.60000000E+01  1.00800000E+00  1.00800000E+00
  1.60000000E+01  1.00800000E+00  1.00800000E+00  1.60000000E+01  1.00800000E+00
  1.00800000E+00  1.60000000E+01  1.00800000E+00  1.00800000E+00  1.60000000E+01
  1.00800000E+00  1.00800000E+00  1.60000000E+01  1.00800000E+00  1.00800000E+00
  1.60000000E+01  1.00800000E+00  1.00800000E+00  1.60000000E+01  1.00800000E+00
  1.00800000E+00  1.60000000E+01  1.00800000E+00  1.00800000E+00  1.60000000E+01
  1.00800000E+00  1.00800000E+00  1.60000000E+01  1.00800000E+00  1.00800000E+00
  1.60000000E+01  1.00800000E+00  1.00800000E+00  1.60000000E+01  1.00800000E+00
  1.00800000E+00  1.60000000E+01  1.00800000E+00  1.00800000E+00  1.60000000E+01
  1.00800000E+00  1.00800000E+00  1.60000000E+01  1.00800000E+00  1.00800000E+00
  1.60000000E+01  1.00800000E+00  1.00800000E+00  1.60000000E+01  1.00800000E+00
  1.00800000E+00  1.60000000E+01  1.00800000E+00  1.00800000E+00  1.60000000E+01
  1.00800000E+00  1.00800000E+00  1.60000000E+01  1.00800000E+00  1.00800000E+00
  1.60000000E+01  1.00800000E+00  1.00800000E+00  1.60000000E+01  1.00800000E+00
  1.00800000E+00  1.60000000E+01  1.00800000E+00  1.00800000E+00  1.60000000E+01
  1.00800000E+00  1.00800000E+00  1.60000000E+01  1.00800000E+00  1.00800000E+00
  1.60000000E+01  1.00800000E+00  1.00800000E+00  1.60000000E+01  1.00800000E+00
  1.00800000E+00  1.60000000E+01  1.00800000E+00  1.00800000E+00  1.60000000E+01
  1.00800000E+00  1.00800000E+00  1.60000000E+01  1.00800000E+00  1.00800000E+00
  1.60000000E+01  1.00800000E+00  1.00800000E+00  1.60000000E+01  1.00800000E+00
  1.00800000E+00  1.60000000E+01  1.00800000E+00  1.00800000E+00  1.60000000E+01
  1.00800000E+00  1.00800000E+00  1.60000000E+01  1.00800000E+00  1.00800000E+00
  1.60000000E+01  1.00800000E+00  1.00800000E+00  1.60000000E+01  1.00800000E+00
  1.00800000E+00  1.60000000E+01  1.00800000E+00  1.00800000E+00  1.60000000E+01
  1.00800000E+00  1.00800000E+00  1.60000000E+01  1.00800000E+00  1.00800000E+00
  1.60000000E+01  1.00800000E+00  1.00800000E+00  1.60000000E+01  1.00800000E+00
  1.00800000E+00  1.60000000E+01  1.00800000E+00  1.00800000E+00  1.60000000E+01
  1.00800000E+00  1.00800000E+00  1.60000000E+01  1.00800000E+00  1.00800000E+00
  1.60000000E+01  1.00800000E+00  1.00800000E+00  1.60000000E+01  1.00800000E+00
  1.00800000E+00  1.60000000E+01  1.00800000E+00  1.00800000E+00  1.60000000E+01
  1.00800000E+00  1.00800000E+00  1.60000000E+01  1.00800000E+00  1.00800000E+00
  1.60000000E+01  1.00800000E+00  1.00800000E+00  1.60000000E+01  1.00800000E+00
  1.00800000E+00  1.60000000E+01  1.00800000E+00  1.00800000E+00  1.60000000E+01
  1.00800000E+00  1.00800000E+00  1.60000000E+01  1.00800000E+00  1.00800000E+00
  1.60000000E+01  1.00800000E+00  1.00800000E+00  1.60000000E+01  1.00800000E+00
  1.00800000E+00  1.60000000E+01  1.00800000E+00  1.00800000E+00  1.60000000E+01
  1.00800000E+00  1.00800000E+00  1.60000000E+01  1.00800000E+00  1.00800000E+00
  1.60000000E+01  1.00800000E+00  1.00800000E+00  1.60000000E+01  1.00800000E+00
  1.00800000E+00  1.60000000E+01  1.00800000E+00  1.00800000E+00  1.60000000E+01
  1.00800000E+00  1.00800000E+00  1.60000000E+01  1.00800000E+00  1.00800000E+00
  1.60000000E+01  1.00800000E+00  1.00800000E+00  1.60000000E+01  1.00800000E+00
  1.00800000E+00  1.60000000E+01  1.00800000E+00  1.00800000E+00  1.60000000E+01
  1.00800000E+00  1.00800000E+00  1.60000000E+01  1.00800000E+00  1.00800000E+00
  1.60000000E+01  1.00800000E+00  1.00800000E+00  1.60000000E+01  1.00800000E+00
  1.00800000E+00  1.60000000E+01  1.00800000E+00  1.00800000E+00  1.60000000E+01
  1.00800000E+00  1.00800000E+00  1.60000000E+01  1.00800000E+00  1.00800000E+00
  1.60000000E+01  1.00800000E+00  1.00800000E+00  1.60000000E+01  1.00800000E+00
  1.00800000E+00  1.60000000E+01  1.00800000E+00  1.00800000E+00  1.60000000E+01
  1.00800000E+00  1.00800000E+00  1.60000000E+01  1.00800000E+00  1.00800000E+00
  1.60000000E+01  1.00800000E+00  1.00800000E+00  1.60000000E+01  1.00800000E+00
  1.00800000E+00  1.60000000E+01  1.00800000E+00  1.00800000E+00  1.60000000E+01
  1.00800000E+00  1.00800000E+00  1.60000000E+01  1.00800000E+00  1.00800000E+00
  1.60000000E+01  1.00800000E+00  1.00800000E+00  1.60000000E+01  1.00800000E+00
  1.00800000E+00  1.60000000E+01  1.00800000E+00  1.00800000E+00  1.60000000E+01
  1.00800000E+00  1.00800000E+00  1.60000000E+01  1.00800000E+00  1.00800000E+00
  1.60000000E+01  1.00800000E+00  1.00800000E+00  1.60000000E+01  1.00800000E+00
  1.00800000E+00  1.60000000E+01  1.00800000E+00  1.00800000E+00  1.60000000E+01
  1.00800000E+00  1.00800000E+00  1.60000000E+01  1.00800000E+00  1.00800000E+00
  1.60000000E+01  1.00800000E+00  1.00800000E+00  1.60000000E+01  1.00800000E+00
  1.00800000E+00  1.60000000E+01  1.00800000E+00  1.00800000E+00  1.60000000E+01
  1.00800000E+00  1.00800000E+00  1.60000000E+01  1.00800000E+00  1.00800000E+00
  1.60000000E+01  1.00800000E+00  1.00800000E+00  1.60000000E+01  1.00800000E+00
  1.00800000E+00  1.60000000E+01  1.00800000E+00  1.00800000E+00  1.60000000E+01
  1.00800000E+00  1.00800000E+00  1.60000000E+01  1.00800000E+00  1.00800000E+00
  1.60000000E+01  1.00800000E+00  1.00800000E+00  1.60000000E+01  1.00800000E+00
  1.00800000E+00  1.60000000E+01  1.00800000E+00  1.00800000E+00  1.60000000E+01
  1.00800000E+00  1.00800000E+00  1.60000000E+01  1.00800000E+00  1.00800000E+00
  1.60000000E+01  1.00800000E+00  1.00800000E+00  1.60000000E+01  1.00800000E+00
  1.00800000E+00  1.60000000E+01  1.00800000E+00  1.00800000E+00  1.60000000E+01
  1.00800000E+00  1.00800000E+00  1.60000000E+01  1.00800000E+00  1.00800000E+00
  1.60000000E+01  1.00800000E+00  1.00800000E+00  1.60000000E+01  1.00800000E+00
  1.00800000E+00  1.60000000E+01  1.00800000E+00  1.00800000E+00  1.60000000E+01
  1.00800000E+00  1.00800000E+00  1.60000000E+01  1.00800000E+00  1.00800000E+00
  1.60000000E+01  1.00800000E+00  1.00800000E+00  1.60000000E+01  1.00800000E+00
  1.00800000E+00  1.60000000E+01  1.00800000E+00  1.00800000E+00  1.60000000E+01
  1.00800000E+00  1.00800000E+00  1.60000000E+01  1.00800000E+00  1.00800000E+00
  1.60000000E+01  1.00800000E+00  1.00800000E+00  1.60000000E+01  1.00800000E+00
  1.00800000E+00  1.60000000E+01  1.00800000E+00  1.00800000E+00  1.60000000E+01
  1.00800000E+00  1.00800000E+00  1.60000000E+01  1.00800000E+00  1.00800000E+00
  1.60000000E+01  1.00800000E+00  1.00800000E+00  1.60000000E+01  1.00800000E+00
  1.00800000E+00  1.60000000E+01  1.00800000E+00  1.00800000E+00  1.60000000E+01
  1.00800000E+00  1.00800000E+00  1.60000000E+01  1.00800000E+00  1.00800000E+00
  1.60000000E+01  1.00800000E+00  1.00800000E+00  1.60000000E+01  1.00800000E+00
  1.00800000E+00  1.60000000E+01  1.00800000E+00  1.00800000E+00  1.60000000E+01
  1.00800000E+00  1.00800000E+00  1.60000000E+01  1.00800000E+00  1.00800000E+00
  1.60000000E+01  1.00800000E+00  1.00800000E+00  1.60000000E+01  1.00800000E+00
  1.00800000E+00  1.60000000E+01  1.00800000E+00  1.00800000E+00  1.60000000E+01
  1.00800000E+00  1.00800000E+00  1.60000000E+01  1.00800000E+00  1.00800000E+00
  1.60000000E+01  1.00800000E+00  1.00800000E+00  1.60000000E+01  1.00800000E+00
  1.00800000E+00  1.60000000E+01  1.00800000E+00  1.00800000E+00  1.60000000E+01
  1.00800000E+00  1.00800000E+00  1.60000000E+01  1.00800000E+00  1.00800000E+00
  1.60000000E+01  1.00800000E+00  1.00800000E+00  1.60000000E+01  1.00800000E+00
  1.00800000E+00  1.60000000E+01  1.00800000E+00  1.00800000E+00  1.60000000E+01
  1.00800000E+00  1.00800000E+00  1.60000000E+01  1.00800000E+00  1.00800000E+00
  1.60000000E+01  1.00800000E+00  1.00800000E+00  1.60000000E+01  1.00800000E+00
  1.00800000E+00  1.60000000E+01  1.00800000E+00  1.00800000E+00  1.60000000E+01
  1.00800000E+00  1.00800000E+00  1.60000000E+01  1.00800000E+00  1.00800000E+00
  1.60000000E+01  1.00800000E+00  1.00800000E+00  1.60000000E+01  1.00800000E+00
  1.00800000E+00  1.60000000E+01  1.00800000E+00  1.00800000E+00  1.60000000E+01
  1.00800000E+00  1.00800000E+00  1.60000000E+01  1.00800000E+00  1.00800000E+00
  1.60000000E+01  1.00800000E+00  1.00800000E+00  1.60000000E+01  1.00800000E+00
  1.00800000E+00  1.60000000E+01  1.00800000E+00  1.00800000E+00  1.60000000E+01
  1.00800000E+00  1.00800000E+00  1.60000000E+01  1.00800000E+00  1.00800000E+00
  1.60000000E+01  1.00800000E+00  1.00800000E+00  1.60000000E+01  1.00800000E+00
  1.00800000E+00  1.60000000E+01  1.00800000E+00  1.00800000E+00  1.60000000E+01
  1.00800000E+00  1.00800000E+00  1.60000000E+01  1.00800000E+00  1.00800000E+00
  1.60000000E+01  1.00800000E+00  1.00800000E+00  1.60000000E+01  1.00800000E+00
  1.00800000E+00  1.60000000E+01  1.00800000E+00  1.00800000E+00  1.60000000E+01
  1.00800000E+00  1.00800000E+00  1.60000000E+01  1.00800000E+00  1.00800000E+00
  1.60000000E+01  1.00800000E+00  1.00800000E+00  1.60000000E+01  1.00800000E+00
  1.00800000E+00  1.60000000E+01  1.00800000E+00  1.00800000E+00  1.60000000E+01
  1.00800000E+00  1.00800000E+00  1.60000000E+01  1.00800000E+00  1.00800000E+00
  1.60000000E+01  1.00800000E+00  1.00800000E+00  1.60000000E+01  1.00800000E+00
  1.00800000E+00  1.60000000E+01  1.00800000E+00  1.00800000E+00  1.60000000E+01
  1.00800000E+00  1.00800000E+00  1.60000000E+01  1.00800000E+00  1.00800000E+00
  1.60000000E+01  1.00800000E+00  1.00800000E+00  1.60000000E+01  1.00800000E+00
  1.00800000E+00  1.60000000E+01  1.00800000E+00  1.00800000E+00  1.60000000E+01
  1.00800000E+00  1.00800000E+00  1.60000000E+01  1.00800000E+00  1.00800000E+00
  1.60000000E+01  1.00800000E+00  1.00800000E+00  1.60000000E+01  1.00800000E+00
  1.00800000E+00  1.60000000E+01  1.00800000E+00  1.00800000E+00  1.60000000E+01
  1.00800000E+00  1.00800000E+00  1.60000000E+01  1.00800000E+00  1.00800000E+00
  1.60000000E+01  1.00800000E+00  1.00800000E+00  1.60000000E+01  1.00800000E+00
  1.00800000E+00  1.60000000E+01  1.00800000E+00  1.00800000E+00  1.60000000E+01
  1.00800000E+00  1.00800000E+00  1.60000000E+01  1.00800000E+00  1.00800000E+00
  1.60000000E+01  1.00800000E+00  1.00800000E+00  1.60000000E+01  1.00800000E+00
  1.00800000E+00  1.60000000E+01  1.00800000E+00  1.00800000E+00  1.60000000E+01
  1.00800000E+00  1.00800000E+00  1.60000000E+01  1.00800000E+00  1.00800000E+00
  1.60000000E+01  1.00800000E+00  1.00800000E+00  1.60000000E+01  1.00800000E+00
  1.00800000E+00  1.60000000E+01  1.00800000E+00  1.00800000E+00  1.60000000E+01
  1.00800000E+00  1.00800000E+00  1.60000000E+01  1.00800000E+00  1.00800000E+00
  1.60000000E+01  1.00800000E+00  1.00800000E+00  1.60000000E+01  1.00800000E+00
  1.00800000E+00  1.60000000E+01  1.00800000E+00  1.00800000E+00  1.60000000E+01
  1.00800000E+00  1.00800000E+00  1.60000000E+01  1.00800000E+00  1.00800000E+00
  1.60000000E+01  1.00800000E+00  1.00800000E+00  1.60000000E+01  1.00800000E+00
  1.00800000E+00  1.60000000E+01  1.00800000E+00  1.00800000E+00  1.60000000E+01
  1.00800000E+00  1.00800000E+00  1.60000000E+01  1.00800000E+00  1.00800000E+00
  1.60000000E+01  1.00800000E+00  1.00800000E+00  1.60000000E+01  1.00800000E+00
  1.00800000E+00  1.60000000E+01  1.00800000E+00  1.00800000E+00  1.60000000E+01
  1.00800000E+00  1.00800000E+00  1.60000000E+01  1.00800000E+00  1.00800000E+00
  1.60000000E+01  1.00800000E+00  1.00800000E+00  1.60000000E+01  1.00800000E+00
  1.00800000E+00  1.60000000E+01  1.00800000E+00  1.00800000E+00  1.60000000E+01
  1.00800000E+00  1.00800000E+00  1.60000000E+01  1.00800000E+00  1.00800000E+00
  1.60000000E+01  1.00800000E+00  1.00800000E+00  1.60000000E+01  1.00800000E+00
  1.00800000E+00  1.60000000E+01  1.00800000E+00  1.00800000E+00  1.60000000E+01
  1.00800000E+00  1.00800000E+00  1.60000000E+01  1.00800000E+00  1.00800000E+00
  1.60000000E+01  1.00800000E+00  1.00800000E+00  1.60000000E+01  1.00800000E+00
  1.00800000E+00  1.60000000E+01  1.00800000E+00  1.00800000E+00  1.60000000E+01
  1.00800000E+00  1.00800000E+00  1.60000000E+01  1.00800000E+00  1.00800000E+00
  1.60000000E+01  1.00800000E+00  1.00800000E+00  1.60000000E+01  1.00800000E+00
  1.00800000E+00  1.60000000E+01  1.00800000E+00  1.00800000E+00  1.60000000E+01
  1.00800000E+00  1.00800000E+00  1.60000000E+01  1.00800000E+00  1.00800000E+00
  1.60000000E+01  1.00800000E+00  1.00800000E+00  1.60000000E+01  1.00800000E+00
  1.00800000E+00  1.60000000E+01  1.00800000E+00  1.00800000E+00  1.60000000E+01
  1.00800000E+00  1.00800000E+00  1.60000000E+01  1.00800000E+00  1.00800000E+00
  1.60000000E+01  1.00800000E+00  1.00800000E+00  1.60000000E+01  1.00800000E+00
  1.00800000E+00  1.60000000E+01  1.00800000E+00  1.00800000E+00  1.60000000E+01
  1.00800000E+00  1.00800000E+00  1.60000000E+01  1.00800000E+00  1.00800000E+00
  1.60000000E+01  1.00800000E+00  1.00800000E+00  1.60000000E+01  1.00800000E+00
  1.00800000E+00  1.60000000E+01  1.00800000E+00  1.00800000E+00  1.60000000E+01
  1.00800000E+00  1.00800000E+00  1.60000000E+01  1.00800000E+00  1.00800000E+00
  1.60000000E+01  1.00800000E+00  1.00800000E+00  1.60000000E+01  1.00800000E+00
  1.00800000E+00  1.60000000E+01  1.00800000E+00  1.00800000E+00  1.60000000E+01
  1.00800000E+00  1.00800000E+00  1.60000000E+01  1.00800000E+00  1.00800000E+00
  1.60000000E+01  1.00800000E+00  1.00800000E+00  1.60000000E+01  1.00800000E+00
  1.00800000E+00  1.60000000E+01  1.00800000E+00  1.00800000E+00  1.60000000E+01
  1.00800000E+00  1.00800000E+00  1.60000000E+01  1.00800000E+00  1.00800000E+00
  1.60000000E+01  1.00800000E+00  1.00800000E+00  1.60000000E+01  1.00800000E+00
  1.00800000E+00  1.60000000E+01  1.00800000E+00  1.00800000E+00  1.60000000E+01
  1.00800000E+00  1.00800000E+00  1.60000000E+01  1.00800000E+00  1.00800000E+00
  1.60000000E+01  1.00800000E+00  1.00800000E+00  1.60000000E+01  1.00800000E+00
  1.00800000E+00  1.60000000E+01  1.00800000E+00  1.00800000E+00  1.60000000E+01
  1.00800000E+00  1.00800000E+00  1.60000000E+01  1.00800000E+00  1.00800000E+00
  1.60000000E+01  1.00800000E+00  1.00800000E+00  1.60000000E+01  1.00800000E+00
  1.00800000E+00  1.60000000E+01  1.00800000E+00  1.00800000E+00  1.60000000E+01
  1.00800000E+00  1.00800000E+00  1.60000000E+01  1.00800000E+00  1.00800000E+00
  1.60000000E+01  1.00800000E+00  1.00800000E+00  1.60000000E+01  1.00800000E+00
  1.00800000E+00  1.60000000E+01  1.00800000E+00  1.00800000E+00  1.60000000E+01
  1.00800000E+00  1.00800000E+00  1.60000000E+01  1.00800000E+00  1.00800000E+00
  1.60000000E+01  1.00800000E+00  1.00800000E+00  1.60000000E+01  1.00800000E+00
  1.00800000E+00  1.60000000E+01  1.00800000E+00  1.00800000E+00  1.60000000E+01
  1.00800000E+00  1.00800000E+00  1.60000000E+01  1.00800000E+00  1.00800000E+00
  1.60000000E+01  1.00800000E+00  1.00800000E+00  1.60000000E+01  1.00800000E+00
  1.00800000E+00  1.60000000E+01  1.00800000E+00  1.00800000E+00  1.60000000E+01
  1.00800000E+00  1.00800000E+00  1.60000000E+01  1.00800000E+00  1.00800000E+00
  1.60000000E+01  1.00800000E+00  1.00800000E+00  1.60000000E+01  1.00800000E+00
  1.00800000E+00  1.60000000E+01  1.00800000E+00  1.00800000E+00  1.60000000E+01
  1.00800000E+00  1.00800000E+00  1.60000000E+01  1.00800000E+00  1.00800000E+00
  1.60000000E+01  1.00800000E+00  1.00800000E+00  1.60000000E+01  1.00800000E+00
  1.00800000E+00  1.60000000E+01  1.00800000E+00  1.00800000E+00  1.60000000E+01
  1.00800000E+00  1.00800000E+00  1.60000000E+01  1.00800000E+00  1.00800000E+00
  1.60000000E+01  1.00800000E+00  1.00800000E+00  1.60000000E+01  1.00800000E+00
  1.00800000E+00  1.60000000E+01  1.00800000E+00  1.00800000E+00  1.60000000E+01
  1.00800000E+00  1.00800000E+00  1.60000000E+01  1.00800000E+00  1.00800000E+00
  1.60000000E+01  1.00800000E+00  1.00800000E+00  1.60000000E+01  1.00800000E+00
  1.00800000E+00  1.60000000E+01  1.00800000E+00  1.00800000E+00  1.60000000E+01
  1.00800000E+00  1.00800000E+00  1.60000000E+01  1.00800000E+00  1.00800000E+00
  1.60000000E+01  1.00800000E+00  1.00800000E+00  1.60000000E+01  1.00800000E+00
  1.00800000E+00  1.60000000E+01  1.00800000E+00  1.00800000E+00  1.60000000E+01
  1.00800000E+00  1.00800000E+00  1.60000000E+01  1.00800000E+00  1.00800000E+00
  1.60000000E+01  1.00800000E+00  1.00800000E+00  1.60000000E+01  1.00800000E+00
  1.00800000E+00  1.60000000E+01  1.00800000E+00  1.00800000E+00  1.60000000E+01
  1.00800000E+00  1.00800000E+00  1.60000000E+01  1.00800000E+00  1.00800000E+00
  1.60000000E+01  1.00800000E+00  1.00800000E+00  1.60000000E+01  1.00800000E+00
  1.00800000E+00  1.60000000E+01  1.00800000E+00  1.00800000E+00  1.60000000E+01
  1.00800000E+00  1.00800000E+00  1.60000000E+01  1.00800000E+00  1.00800000E+00
  1.60000000E+01  1.00800000E+00  1.00800000E+00  1.60000000E+01  1.00800000E+00
  1.00800000E+00  1.60000000E+01  1.00800000E+00  1.00800000E+00  1.60000000E+01
  1.00800000E+00  1.00800000E+00  1.60000000E+01  1.00800000E+00  1.00800000E+00
  1.60000000E+01  1.00800000E+00  1.00800000E+00  1.60000000E+01  1.00800000E+00
  1.00800000E+00  1.60000000E+01  1.00800000E+00  1.00800000E+00  1.60000000E+01
  1.00800000E+00  1.00800000E+00  1.60000000E+01  1.00800000E+00  1.00800000E+00
  1.60000000E+01  1.00800000E+00  1.00800000E+00  1.60000000E+01  1.00800000E+00
  1.00800000E+00  1.60000000E+01  1.00800000E+00  1.00800000E+00  1.60000000E+01
  1.00800000E+00  1.00800000E+00  1.60000000E+01  1.00800000E+00  1.00800000E+00
  1.60000000E+01  1.00800000E+00  1.00800000E+00  1.60000000E+01  1.00800000E+00
  1.00800000E+00  1.60000000E+01  1.00800000E+00  1.00800000E+00  1.60000000E+01
  1.00800000E+00  1.00800000E+00  1.60000000E+01  1.00800000E+00  1.00800000E+00
  1.60000000E+01  1.00800000E+00  1.00800000E+00  1.60000000E+01  1.00800000E+00
  1.00800000E+00  1.60000000E+01  1.00800000E+00  1.00800000E+00  1.60000000E+01
  1.00800000E+00  1.00800000E+00  1.60000000E+01  1.00800000E+00  1.00800000E+00
  1.60000000E+01  1.00800000E+00  1.00800000E+00  1.60000000E+01  1.00800000E+00
  1.00800000E+00  1.60000000E+01  1.00800000E+00  1.00800000E+00  1.60000000E+01
  1.00800000E+00  1.00800000E+00  1.60000000E+01  1.00800000E+00  1.00800000E+00
  1.60000000E+01  1.00800000E+00  1.00800000E+00  1.60000000E+01  1.00800000E+00
  1.00800000E+00  1.60000000E+01  1.00800000E+00  1.00800000E+00  1.60000000E+01
  1.00800000E+00  1.00800000E+00  1.60000000E+01  1.00800000E+00  1.00800000E+00
  1.60000000E+01  1.00800000E+00  1.00800000E+00  1.60000000E+01  1.00800000E+00
  1.00800000E+00  1.60000000E+01  1.00800000E+00  1.00800000E+00  1.60000000E+01
  1.00800000E+00  1.00800000E+00  1.60000000E+01  1.00800000E+00  1.00800000E+00
  1.60000000E+01  1.00800000E+00  1.00800000E+00  1.60000000E+01  1.00800000E+00
  1.00800000E+00  1.60000000E+01  1.00800000E+00  1.00800000E+00  1.60000000E+01
  1.00800000E+00  1.00800000E+00  1.60000000E+01  1.00800000E+00  1.00800000E+00
  1.60000000E+01  1.00800000E+00  1.00800000E+00  1.60000000E+01  1.00800000E+00
  1.00800000E+00  1.60000000E+01  1.00800000E+00  1.00800000E+00  1.60000000E+01
  1.00800000E+00  1.00800000E+00  1.60000000E+01  1.00800000E+00  1.00800000E+00
  1.60000000E+01  1.00800000E+00  1.00800000E+00  1.60000000E+01  1.00800000E+00
  1.00800000E+00  1.60000000E+01  1.00800000E+00  1.00800000E+00  1.60000000E+01
  1.00800000E+00  1.00800000E+00  1.60000000E+01  1.00800000E+00  1.00800000E+00
  1.60000000E+01  1.00800000E+00  1.00800000E+00  1.60000000E+01  1.00800000E+00
  1.00800000E+00  1.60000000E+01  1.00800000E+00  1.00800000E+00  1.60000000E+01
  1.00800000E+00  1.00800000E+00  1.60000000E+01  1.00800000E+00  1.00800000E+00
  1.60000000E+01  1.00800000E+00  1.00800000E+00  1.60000000E+01  1.00800000E+00
  1.00800000E+00  1.60000000E+01  1.00800000E+00  1.00800000E+00  1.60000000E+01
  1.00800000E+00  1.00800000E+00  1.60000000E+01  1.00800000E+00  1.00800000E+00
  1.60000000E+01  1.00800000E+00  1.00800000E+00  1.60000000E+01  1.00800000E+00
  1.00800000E+00  1.60000000E+01  1.00800000E+00  1.00800000E+00  1.60000000E+01
  1.00800000E+00  1.00800000E+00  1.60000000E+01  1.00800000E+00  1.00800000E+00
  1.60000000E+01  1.00800000E+00  1.00800000E+00  1.60000000E+01  1.00800000E+00
  1.00800000E+00  1.60000000E+01  1.00800000E+00  1.00800000E+00  1.60000000E+01
  1.00800000E+00  1.00800000E+00  1.60000000E+01  1.00800000E+00  1.00800000E+00
  1.60000000E+01  1.00800000E+00  1.00800000E+00  1.60000000E+01  1.00800000E+00
  1.00800000E+00  1.60000000E+01  1.00800000E+00  1.00800000E+00  1.60000000E+01
  1.00800000E+00  1.00800000E+00  1.60000000E+01  1.00800000E+00  1.00800000E+00
  1.60000000E+01  1.00800000E+00  1.00800000E+00  1.60000000E+01  1.00800000E+00
  1.00800000E+00  1.60000000E+01  1.00800000E+00  1.00800000E+00  1.60000000E+01
  1.00800000E+00  1.00800000E+00  1.60000000E+01  1.00800000E+00  1.00800000E+00
  1.60000000E+01  1.00800000E+00  1.00800000E+00  1.60000000E+01  1.00800000E+00
  1.00800000E+00  1.60000000E+01  1.00800000E+00  1.00800000E+00  1.60000000E+01
  1.00800000E+00  1.00800000E+00  1.60000000E+01  1.00800000E+00  1.00800000E+00
  1.60000000E+01  1.00800000E+00  1.00800000E+00  1.60000000E+01  1.00800000E+00
  1.00800000E+00  1.60000000E+01  1.00800000E+00  1.00800000E+00  1.60000000E+01
  1.00800000E+00  1.00800000E+00  1.60000000E+01  1.00800000E+00  1.00800000E+00
  1.60000000E+01  1.00800000E+00  1.00800000E+00  1.60000000E+01  1.00800000E+00
  1.00800000E+00  1.60000000E+01  1.00800000E+00  1.00800000E+00  1.60000000E+01
  1.00800000E+00  1.00800000E+00  1.60000000E+01  1.00800000E+00  1.00800000E+00
  1.60000000E+01  1.00800000E+00  1.00800000E+00  1.60000000E+01  1.00800000E+00
  1.00800000E+00  1.60000000E+01  1.00800000E+00  1.00800000E+00  1.60000000E+01
  1.00800000E+00  1.00800000E+00  1.60000000E+01  1.00800000E+00  1.00800000E+00
  1.60000000E+01  1.00800000E+00  1.00800000E+00  1.60000000E+01  1.00800000E+00
  1.00800000E+00  1.60000000E+01  1.00800000E+00  1.00800000E+00  1.60000000E+01
  1.00800000E+00  1.00800000E+00  1.60000000E+01  1.00800000E+00  1.00800000E+00
  1.60000000E+01  1.00800000E+00  1.00800000E+00  1.60000000E+01  1.00800000E+00
  1.00800000E+00  1.60000000E+01  1.00800000E+00  1.00800000E+00  1.60000000E+01
  1.00800000E+00  1.00800000E+00  1.60000000E+01  1.00800000E+00  1.00800000E+00
  1.60000000E+01  1.00800000E+00  1.00800000E+00  1.60000000E+01  1.00800000E+00
  1.00800000E+00  1.60000000E+01  1.00800000E+00  1.00800000E+00  1.60000000E+01
  1.00800000E+00  1.00800000E+00  1.60000000E+01  1.00800000E+00  1.00800000E+00
  1.60000000E+01  1.00800000E+00  1.00800000E+00  1.60000000E+01  1.00800000E+00
  1.00800000E+00  1.60000000E+01  1.00800000E+00  1.00800000E+00  1.60000000E+01
  1.00800000E+00  1.00800000E+00  1.60000000E+01  1.00800000E+00  1.00800000E+00
  1.60000000E+01  1.00800000E+00  1.00800000E+00  1.60000000E+01  1.00800000E+00
  1.00800000E+00  1.60000000E+01  1.00800000E+00  1.00800000E+00  1.60000000E+01
  1.00800000E+00  1.00800000E+00  1.60000000E+01  1.00800000E+00  1.00800000E+00
  1.60000000E+01  1.00800000E+00  1.00800000E+00  1.60000000E+01  1.00800000E+00
  1.00800000E+00  1.60000000E+01  1.00800000E+00  1.00800000E+00  1.60000000E+01
  1.00800000E+00  1.00800000E+00  1.60000000E+01  1.00800000E+00  1.00800000E+00
  1.60000000E+01  1.00800000E+00  1.00800000E+00  1.60000000E+01  1.00800000E+00
  1.00800000E+00  1.60000000E+01  1.00800000E+00  1.00800000E+00  1.60000000E+01
  1.00800000E+00  1.00800000E+00  1.60000000E+01  1.00800000E+00  1.00800000E+00
  1.60000000E+01  1.00800000E+00  1.00800000E+00  1.60000000E+01  1.00800000E+00
  1.00800000E+00  1.60000000E+01  1.00800000E+00  1.00800000E+00  1.60000000E+01
  1.00800000E+00  1.00800000E+00  1.60000000E+01  1.00800000E+00  1.00800000E+00
  1.60000000E+01  1.00800000E+00  1.00800000E+00  1.60000000E+01  1.00800000E+00
  1.00800000E+00  1.60000000E+01  1.00800000E+00  1.00800000E+00  1.60000000E+01
  1.00800000E+00  1.00800000E+00  1.60000000E+01  1.00800000E+00  1.00800000E+00
  1.60000000E+01  1.00800000E+00  1.00800000E+00  1.60000000E+01  1.00800000E+00
  1.00800000E+00  1.60000000E+01  1.00800000E+00  1.00800000E+00  1.60000000E+01
  1.00800000E+00  1.00800000E+00  1.60000000E+01  1.00800000E+00  1.00800000E+00
  1.60000000E+01  1.00800000E+00  1.00800000E+00  1.60000000E+01  1.00800000E+00
  1.00800000E+00  1.60000000E+01  1.00800000E+00  1.00800000E+00  1.60000000E+01
  1.00800000E+00  1.00800000E+00  1.60000000E+01  1.00800000E+00  1.00800000E+00
  1.60000000E+01  1.00800000E+00  1.00800000E+00  1.60000000E+01  1.00800000E+00
  1.00800000E+00  1.60000000E+01  1.00800000E+00  1.00800000E+00  1.60000000E+01
  1.00800000E+00  1.00800000E+00  1.60000000E+01  1.00800000E+00  1.00800000E+00
  1.60000000E+01  1.00800000E+00  1.00800000E+00  1.60000000E+01  1.00800000E+00
  1.00800000E+00  1.60000000E+01  1.00800000E+00  1.00800000E+00  1.60000000E+01
  1.00800000E+00  1.00800000E+00  1.60000000E+01  1.00800000E+00  1.00800000E+00
  1.60000000E+01  1.00800000E+00  1.00800000E+00  1.60000000E+01  1.00800000E+00
  1.00800000E+00  1.60000000E+01  1.00800000E+00  1.00800000E+00  1.60000000E+01
  1.00800000E+00  1.00800000E+00  1.60000000E+01  1.00800000E+00  1.00800000E+00
  1.60000000E+01  1.00800000E+00  1.00800000E+00  1.60000000E+01  1.00800000E+00
  1.00800000E+00  1.60000000E+01  1.00800000E+00  1.00800000E+00  1.60000000E+01
  1.00800000E+00  1.00800000E+00  1.60000000E+01  1.00800000E+00  1.00800000E+00
  1.60000000E+01  1.00800000E+00  1.00800000E+00  1.60000000E+01  1.00800000E+00
  1.00800000E+00  1.60000000E+01  1.00800000E+00  1.00800000E+00  1.60000000E+01
  1.00800000E+00  1.00800000E+00  1.60000000E+01  1.00800000E+00  1.00800000E+00
  1.60000000E+01  1.00800000E+00  1.00800000E+00  1.60000000E+01  1.00800000E+00
  1.00800000E+00  1.60000000E+01  1.00800000E+00  1.00800000E+00  1.60000000E+01
  1.00800000E+00  1.00800000E+00  1.60000000E+01  1.00800000E+00  1.00800000E+00
  1.60000000E+01  1.00800000E+00  1.00800000E+00  1.60000000E+01  1.00800000E+00
  1.00800000E+00  1.60000000E+01  1.00800000E+00  1.00800000E+00  1.60000000E+01
  1.00800000E+00  1.00800000E+00  1.60000000E+01  1.00800000E+00  1.00800000E+00
  1.60000000E+01  1.00800000E+00  1.00800000E+00  1.60000000E+01  1.00800000E+00
  1.00800000E+00  1.60000000E+01  1.00800000E+00  1.00800000E+00  1.60000000E+01
  1.00800000E+00  1.00800000E+00  1.60000000E+01  1.00800000E+00  1.00800000E+00
  1.60000000E+01  1.00800000E+00  1.00800000E+00  1.60000000E+01  1.00800000E+00
  1.00800000E+00  1.60000000E+01  1.00800000E+00  1.00800000E+00  1.60000000E+01
  1.00800000E+00  1.00800000E+00  1.60000000E+01  1.00800000E+00  1.00800000E+00
  1.60000000E+01  1.00800000E+00  1.00800000E+00  1.60000000E+01  1.00800000E+00
  1.00800000E+00  1.60000000E+01  1.00800000E+00  1.00800000E+00  1.60000000E+01
  1.00800000E+00  1.00800000E+00  1.60000000E+01  1.00800000E+00  1.00800000E+00
  1.60000000E+01  1.00800000E+00  1.00800000E+00  1.60000000E+01  1.00800000E+00
  1.00800000E+00  1.60000000E+01  1.00800000E+00  1.00800000E+00  1.60000000E+01
  1.00800000E+00  1.00800000E+00  1.60000000E+01  1.00800000E+00  1.00800000E+00
  1.60000000E+01  1.00800000E+00  1.00800000E+00  1.60000000E+01  1.00800000E+00
  1.00800000E+00  1.60000000E+01  1.00800000E+00  1.00800000E+00  1.60000000E+01
  1.00800000E+00  1.00800000E+00  1.60000000E+01  1.00800000E+00  1.00800000E+00
  1.60000000E+01  1.00800000E+00  1.00800000E+00  1.60000000E+01  1.00800000E+00
  1.00800000E+00  1.60000000E+01  1.00800000E+00  1.00800000E+00  1.60000000E+01
  1.00800000E+00  1.00800000E+00  1.60000000E+01  1.00800000E+00  1.00800000E+00
  1.60000000E+01  1.00800000E+00  1.00800000E+00  1.60000000E+01  1.00800000E+00
  1.00800000E+00  1.60000000E+01  1.00800000E+00  1.00800000E+00  1.60000000E+01
  1.00800000E+00  1.00800000E+00  1.60000000E+01  1.00800000E+00  1.00800000E+00
  1.60000000E+01  1.00800000E+00  1.00800000E+00  1.60000000E+01  1.00800000E+00
  1.00800000E+00  1.60000000E+01  1.00800000E+00  1.00800000E+00  1.60000000E+01
  1.00800000E+00  1.00800000E+00  1.60000000E+01  1.00800000E+00  1.00800000E+00
  1.60000000E+01  1.00800000E+00  1.00800000E+00  1.60000000E+01  1.00800000E+00
  1.00800000E+00  1.60000000E+01  1.00800000E+00  1.00800000E+00  1.60000000E+01
  1.00800000E+00  1.00800000E+00  1.60000000E+01  1.00800000E+00  1.00800000E+00
  1.60000000E+01  1.00800000E+00  1.00800000E+00  1.60000000E+01  1.00800000E+00
  1.00800000E+00  1.60000000E+01  1.00800000E+00  1.00800000E+00  1.60000000E+01
  1.00800000E+00  1.00800000E+00  1.60000000E+01  1.00800000E+00  1.00800000E+00
  1.60000000E+01  1.00800000E+00  1.00800000E+00  1.60000000E+01  1.00800000E+00
  1.00800000E+00  1.60000000E+01  1.00800000E+00  1.00800000E+00  1.60000000E+01
  1.00800000E+00  1.00800000E+00  1.60000000E+01  1.00800000E+00  1.00800000E+00
  1.60000000E+01  1.00800000E+00  1.00800000E+00  1.60000000E+01  1.00800000E+00
  1.00800000E+00  1.60000000E+01  1.00800000E+00  1.00800000E+00  1.60000000E+01
  1.00800000E+00  1.00800000E+00  1.60000000E+01  1.00800000E+00  1.00800000E+00
  1.60000000E+01  1.00800000E+00  1.00800000E+00  1.60000000E+01  1.00800000E+00
  1.00800000E+00  1.60000000E+01  1.00800000E+00  1.00800000E+00  1.60000000E+01
  1.00800000E+00  1.00800000E+00  1.60000000E+01  1.00800000E+00  1.00800000E+00
  1.60000000E+01  1.00800000E+00  1.00800000E+00  1.60000000E+01  1.00800000E+00
  1.00800000E+00  1.60000000E+01  1.00800000E+00  1.00800000E+00  1.60000000E+01
  1.00800000E+00  1.00800000E+00  1.60000000E+01  1.00800000E+00  1.00800000E+00
  1.60000000E+01  1.00800000E+00  1.00800000E+00  1.60000000E+01  1.00800000E+00
  1.00800000E+00  1.60000000E+01  1.00800000E+00  1.00800000E+00  1.60000000E+01
  1.00800000E+00  1.00800000E+00  1.60000000E+01  1.00800000E+00  1.00800000E+00
  1.60000000E+01  1.00800000E+00  1.00800000E+00  1.60000000E+01  1.00800000E+00
  1.00800000E+00  1.60000000E+01  1.00800000E+00  1.00800000E+00  1.60000000E+01
  1.00800000E+00  1.00800000E+00  1.60000000E+01  1.00800000E+00  1.00800000E+00
  1.60000000E+01  1.00800000E+00  1.00800000E+00  1.60000000E+01  1.00800000E+00
  1.00800000E+00  1.60000000E+01  1.00800000E+00  1.00800000E+00  1.60000000E+01
  1.00800000E+00  1.00800000E+00  1.60000000E+01  1.00800000E+00  1.00800000E+00
  1.60000000E+01  1.00800000E+00  1.00800000E+00  1.60000000E+01  1.00800000E+00
  1.00800000E+00  1.60000000E+01  1.00800000E+00  1.00800000E+00  1.60000000E+01
  1.00800000E+00  1.00800000E+00  1.60000000E+01  1.00800000E+00  1.00800000E+00
  1.60000000E+01  1.00800000E+00  1.00800000E+00  1.60000000E+01  1.00800000E+00
  1.00800000E+00  1.60000000E+01  1.00800000E+00  1.00800000E+00  1.60000000E+01
  1.00800000E+00  1.00800000E+00  1.60000000E+01  1.00800000E+00  1.00800000E+00
  1.60000000E+01  1.00800000E+00  1.00800000E+00  1.60000000E+01  1.00800000E+00
  1.00800000E+00  1.60000000E+01  1.00800000E+00  1.00800000E+00  1.60000000E+01
  1.00800000E+00  1.00800000E+00  1.60000000E+01  1.00800000E+00  1.00800000E+00
  1.60000000E+01  1.00800000E+00  1.00800000E+00  1.60000000E+01  1.00800000E+00
  1.00800000E+00  1.60000000E+01  1.00800000E+00  1.00800000E+00  1.60000000E+01
  1.00800000E+00  1.00800000E+00  1.60000000E+01  1.00800000E+00  1.00800000E+00
  1.60000000E+01  1.00800000E+00  1.00800000E+00  1.60000000E+01  1.00800000E+00
  1.00800000E+00  1.60000000E+01  1.00800000E+00  1.00800000E+00  1.60000000E+01
  1.00800000E+00  1.00800000E+00  1.60000000E+01  1.00800000E+00  1.00800000E+00
  1.60000000E+01  1.00800000E+00  1.00800000E+00  1.60000000E+01  1.00800000E+00
  1.00800000E+00  1.60000000E+01  1.00800000E+00  1.00800000E+00  1.60000000E+01
  1.00800000E+00  1.00800000E+00  1.60000000E+01  1.00800000E+00  1.00800000E+00
  1.60000000E+01  1.00800000E+00  1.00800000E+00  1.60000000E+01  1.00800000E+00
  1.00800000E+00  1.60000000E+01  1.00800000E+00  1.00800000E+00  1.60000000E+01
  1.00800000E+00  1.00800000E+00  1.60000000E+01  1.00800000E+00  1.00800000E+00
  1.60000000E+01  1.00800000E+00  1.00800000E+00  1.60000000E+01  1.00800000E+00
  1.00800000E+00  1.60000000E+01  1.00800000E+00  1.00800000E+00  1.60000000E+01
  1.00800000E+00  1.00800000E+00  1.60000000E+01  1.00800000E+00  1.00800000E+00
  1.60000000E+01  1.00800000E+00  1.00800000E+00  1.60000000E+01  1.00800000E+00
  1.00800000E+00  1.60000000E+01  1.00800000E+00  1.00800000E+00  1.60000000E+01
  1.00800000E+00  1.00800000E+00  1.60000000E+01  1.00800000E+00  1.00800000E+00
  1.60000000E+01  1.00800000E+00  1.00800000E+00  1.60000000E+01  1.00800000E+00
  1.00800000E+00  1.60000000E+01  1.00800000E+00  1.00800000E+00  1.60000000E+01
  1.00800000E+00  1.00800000E+00  1.60000000E+01  1.00800000E+00  1.00800000E+00
  1.60000000E+01  1.00800000E+00  1.00800000E+00  1.60000000E+01  1.00800000E+00
  1.00800000E+00  1.60000000E+01  1.00800000E+00  1.00800000E+00  1.60000000E+01
  1.00800000E+00  1.00800000E+00  1.60000000E+01  1.00800000E+00  1.00800000E+00
  1.60000000E+01  1.00800000E+00  1.00800000E+00  1.60000000E+01  1.00800000E+00
  1.00800000E+00  1.60000000E+01  1.00800000E+00  1.00800000E+00  1.60000000E+01
  1.00800000E+00  1.00800000E+00  1.60000000E+01  1.00800000E+00  1.00800000E+00
  1.60000000E+01  1.00800000E+00  1.00800000E+00  1.60000000E+01  1.00800000E+00
  1.00800000E+00  1.60000000E+01  1.00800000E+00  1.00800000E+00  1.60000000E+01
  1.00800000E+00  1.00800000E+00  1.60000000E+01  1.00800000E+00  1.00800000E+00
  1.60000000E+01  1.00800000E+00  1.00800000E+00  1.60000000E+01  1.00800000E+00
  1.00800000E+00  1.60000000E+01  1.00800000E+00  1.00800000E+00  1.60000000E+01
  1.00800000E+00  1.00800000E+00  1.60000000E+01  1.00800000E+00  1.00800000E+00
  1.60000000E+01  1.00800000E+00  1.00800000E+00  1.60000000E+01  1.00800000E+00
  1.00800000E+00  1.60000000E+01  1.00800000E+00  1.00800000E+00  1.60000000E+01
  1.00800000E+00  1.00800000E+00  1.60000000E+01  1.00800000E+00  1.00800000E+00
  1.60000000E+01  1.00800000E+00  1.00800000E+00  1.60000000E+01  1.00800000E+00
  1.00800000E+00  1.60000000E+01  1.00800000E+00  1.00800000E+00  1.60000000E+01
  1.00800000E+00  1.00800000E+00  1.60000000E+01  1.00800000E+00  1.00800000E+00
  1.60000000E+01  1.00800000E+00  1.00800000E+00  1.60000000E+01  1.00800000E+00
  1.00800000E+00  1.60000000E+01  1.00800000E+00  1.00800000E+00  1.60000000E+01
  1.00800000E+00  1.00800000E+00  1.60000000E+01  1.00800000E+00  1.00800000E+00
  1.60000000E+01  1.00800000E+00  1.00800000E+00  1.60000000E+01  1.00800000E+00
  1.00800000E+00  1.60000000E+01  1.00800000E+00  1.00800000E+00  1.60000000E+01
  1.00800000E+00  1.00800000E+00  1.60000000E+01  1.00800000E+00  1.00800000E+00
  1.60000000E+01  1.00800000E+00  1.00800000E+00  1.60000000E+01  1.00800000E+00
  1.00800000E+00  1.60000000E+01  1.00800000E+00  1.00800000E+00  1.60000000E+01
  1.00800000E+00  1.00800000E+00  1.60000000E+01  1.00800000E+00  1.00800000E+00
  1.60000000E+01  1.00800000E+00  1.00800000E+00  1.60000000E+01  1.00800000E+00
  1.00800000E+00  1.60000000E+01  1.00800000E+00  1.00800000E+00  1.60000000E+01
  1.00800000E+00  1.00800000E+00  1.60000000E+01  1.00800000E+00  1.00800000E+00
  1.60000000E+01  1.00800000E+00  1.00800000E+00  1.60000000E+01  1.00800000E+00
  1.00800000E+00  1.60000000E+01  1.00800000E+00  1.00800000E+00  1.60000000E+01
  1.00800000E+00  1.00800000E+00  1.60000000E+01  1.00800000E+00  1.00800000E+00
  1.60000000E+01  1.00800000E+00  1.00800000E+00  1.60000000E+01  1.00800000E+00
  1.00800000E+00  1.60000000E+01  1.00800000E+00  1.00800000E+00  1.60000000E+01
  1.00800000E+00  1.00800000E+00  1.60000000E+01  1.00800000E+00  1.00800000E+00
  1.60000000E+01  1.00800000E+00  1.00800000E+00  1.60000000E+01  1.00800000E+00
  1.00800000E+00  1.60000000E+01  1.00800000E+00  1.00800000E+00  1.60000000E+01
  1.00800000E+00  1.00800000E+00  1.60000000E+01  1.00800000E+00  1.00800000E+00
  1.60000000E+01  1.00800000E+00  1.00800000E+00  1.60000000E+01  1.00800000E+00
  1.00800000E+00  1.60000000E+01  1.00800000E+00  1.00800000E+00  1.60000000E+01
  1.00800000E+00  1.00800000E+00  1.60000000E+01  1.00800000E+00  1.00800000E+00
  1.60000000E+01  1.00800000E+00  1.00800000E+00  1.60000000E+01  1.00800000E+00
  1.00800000E+00  1.60000000E+01  1.00800000E+00  1.00800000E+00  1.60000000E+01
  1.00800000E+00  1.00800000E+00  1.60000000E+01  1.00800000E+00  1.00800000E+00
  1.60000000E+01  1.00800000E+00  1.00800000E+00  1.60000000E+01  1.00800000E+00
  1.00800000E+00  1.60000000E+01  1.00800000E+00  1.00800000E+00  1.60000000E+01
  1.00800000E+00  1.00800000E+00  1.60000000E+01  1.00800000E+00  1.00800000E+00
  1.60000000E+01  1.00800000E+00  1.00800000E+00  1.60000000E+01  1.00800000E+00
  1.00800000E+00  1.60000000E+01  1.00800000E+00  1.00800000E+00  1.60000000E+01
  1.00800000E+00  1.00800000E+00  1.60000000E+01  1.00800000E+00  1.00800000E+00
  1.60000000E+01  1.00800000E+00  1.00800000E+00  1.60000000E+01  1.00800000E+00
  1.00800000E+00  1.60000000E+01  1.00800000E+00  1.00800000E+00  1.60000000E+01
  1.00800000E+00  1.00800000E+00  1.60000000E+01  1.00800000E+00  1.00800000E+00
  1.60000000E+01  1.00800000E+00  1.00800000E+00  1.60000000E+01  1.00800000E+00
  1.00800000E+00  1.60000000E+01  1.00800000E+00  1.00800000E+00  1.60000000E+01
  1.00800000E+00  1.00800000E+00  1.60000000E+01  1.00800000E+00  1.00800000E+00
  1.60000000E+01  1.00800000E+00  1.00800000E+00  1.60000000E+01  1.00800000E+00
  1.00800000E+00  1.60000000E+01  1.00800000E+00  1.00800000E+00  1.60000000E+01
  1.00800000E+00  1.00800000E+00  1.60000000E+01  1.00800000E+00  1.00800000E+00
  1.60000000E+01  1.00800000E+00  1.00800000E+00  1.60000000E+01  1.00800000E+00
  1.00800000E+00  1.60000000E+01  1.00800000E+00  1.00800000E+00  1.60000000E+01
  1.00800000E+00  1.00800000E+00  1.60000000E+01  1.00800000E+00  1.00800000E+00
  1.60000000E+01  1.00800000E+00  1.00800000E+00  1.60000000E+01  1.00800000E+00
  1.00800000E+00  1.60000000E+01  1.00800000E+00  1.00800000E+00  1.60000000E+01
  1.00800000E+00  1.00800000E+00  1.60000000E+01  1.00800000E+00  1.00800000E+00
  1.60000000E+01  1.00800000E+00  1.00800000E+00  1.60000000E+01  1.00800000E+00
  1.00800000E+00  1.60000000E+01  1.00800000E+00  1.00800000E+00  1.60000000E+01
  1.00800000E+00  1.00800000E+00  1.60000000E+01  1.00800000E+00  1.00800000E+00
  1.60000000E+01  1.00800000E+00  1.00800000E+00  1.60000000E+01  1.00800000E+00
  1.00800000E+00  1.60000000E+01  1.00800000E+00  1.00800000E+00  1.60000000E+01
  1.00800000E+00  1.00800000E+00  1.60000000E+01  1.00800000E+00  1.00800000E+00
  1.60000000E+01  1.00800000E+00  1.00800000E+00  1.60000000E+01  1.00800000E+00
  1.00800000E+00  1.60000000E+01  1.00800000E+00  1.00800000E+00  1.60000000E+01
  1.00800000E+00  1.00800000E+00  1.60000000E+01  1.00800000E+00  1.00800000E+00
  1.60000000E+01  1.00800000E+00  1.00800000E+00  1.60000000E+01  1.00800000E+00
  1.00800000E+00  1.60000000E+01  1.00800000E+00  1.00800000E+00  1.60000000E+01
  1.00800000E+00  1.00800000E+00  1.60000000E+01  1.00800000E+00  1.00800000E+00
  1.60000000E+01  1.00800000E+00  1.00800000E+00  1.60000000E+01  1.00800000E+00
  1.00800000E+00  1.60000000E+01  1.00800000E+00  1.00800000E+00  1.60000000E+01
  1.00800000E+00  1.00800000E+00  1.60000000E+01  1.00800000E+00  1.00800000E+00
  1.60000000E+01  1.00800000E+00  1.00800000E+00  1.60000000E+01  1.00800000E+00
  1.00800000E+00  1.60000000E+01  1.00800000E+00  1.00800000E+00  1.60000000E+01
  1.00800000E+00  1.00800000E+00  1.60000000E+01  1.00800000E+00  1.00800000E+00
  1.60000000E+01  1.00800000E+00  1.00800000E+00  1.60000000E+01  1.00800000E+00
  1.00800000E+00  1.60000000E+01  1.00800000E+00  1.00800000E+00  1.60000000E+01
  1.00800000E+00  1.00800000E+00  1.60000000E+01  1.00800000E+00  1.00800000E+00
  1.60000000E+01  1.00800000E+00  1.00800000E+00  1.60000000E+01  1.00800000E+00
  1.00800000E+00  1.60000000E+01  1.00800000E+00  1.00800000E+00  1.60000000E+01
  1.00800000E+00  1.00800000E+00  1.60000000E+01  1.00800000E+00  1.00800000E+00
  1.60000000E+01  1.00800000E+00  1.00800000E+00  1.60000000E+01  1.00800000E+00
  1.00800000E+00  1.60000000E+01  1.00800000E+00  1.00800000E+00  1.60000000E+01
  1.00800000E+00  1.00800000E+00  1.60000000E+01  1.00800000E+00  1.00800000E+00
  1.60000000E+01  1.00800000E+00  1.00800000E+00  1.60000000E+01  1.00800000E+00
  1.00800000E+00  1.60000000E+01  1.00800000E+00  1.00800000E+00  1.60000000E+01
  1.00800000E+00  1.00800000E+00  1.60000000E+01  1.00800000E+00  1.00800000E+00
  1.60000000E+01  1.00800000E+00  1.00800000E+00  1.60000000E+01  1.00800000E+00
  1.00800000E+00  1.60000000E+01  1.00800000E+00  1.00800000E+00  1.60000000E+01
  1.00800000E+00  1.00800000E+00  1.60000000E+01  1.00800000E+00  1.00800000E+00
  1.60000000E+01  1.00800000E+00  1.00800000E+00  1.60000000E+01  1.00800000E+00
  1.00800000E+00  1.60000000E+01  1.00800000E+00  1.00800000E+00  1.60000000E+01
  1.00800000E+00  1.00800000E+00  1.60000000E+01  1.00800000E+00  1.00800000E+00
  1.60000000E+01  1.00800000E+00  1.00800000E+00  1.60000000E+01  1.00800000E+00
  1.00800000E+00  1.60000000E+01  1.00800000E+00  1.00800000E+00  1.60000000E+01
  1.00800000E+00  1.00800000E+00  1.60000000E+01  1.00800000E+00  1.00800000E+00
  1.60000000E+01  1.00800000E+00  1.00800000E+00  1.60000000E+01  1.00800000E+00
  1.00800000E+00  1.60000000E+01  1.00800000E+00  1.00800000E+00  1.60000000E+01
  1.00800000E+00  1.00800000E+00  1.60000000E+01  1.00800000E+00  1.00800000E+00
  1.60000000E+01  1.00800000E+00  1.00800000E+00  1.60000000E+01  1.00800000E+00
  1.00800000E+00  1.60000000E+01  1.00800000E+00  1.00800000E+00  1.60000000E+01
  1.00800000E+00  1.00800000E+00  1.60000000E+01  1.00800000E+00  1.00800000E+00
  1.60000000E+01  1.00800000E+00  1.00800000E+00  1.60000000E+01  1.00800000E+00
  1.00800000E+00  1.60000000E+01  1.00800000E+00  1.00800000E+00  1.60000000E+01
  1.00800000E+00  1.00800000E+00  1.60000000E+01  1.00800000E+00  1.00800000E+00
  1.60000000E+01  1.00800000E+00  1.00800000E+00  1.60000000E+01  1.00800000E+00
  1.00800000E+00  1.60000000E+01  1.00800000E+00  1.00800000E+00  1.60000000E+01
  1.00800000E+00  1.00800000E+00  1.60000000E+01  1.00800000E+00  1.00800000E+00
  1.60000000E+01  1.00800000E+00  1.00800000E+00  1.60000000E+01  1.00800000E+00
  1.00800000E+00  1.60000000E+01  1.00800000E+00  1.00800000E+00  1.60000000E+01
  1.00800000E+00  1.00800000E+00  1.60000000E+01  1.00800000E+00  1.00800000E+00
  1.60000000E+01  1.00800000E+00  1.00800000E+00  1.60000000E+01  1.00800000E+00
  1.00800000E+00  1.60000000E+01  1.00800000E+00  1.00800000E+00  1.60000000E+01
  1.00800000E+00  1.00800000E+00  1.60000000E+01  1.00800000E+00  1.00800000E+00
  1.60000000E+01  1.00800000E+00  1.00800000E+00  1.60000000E+01  1.00800000E+00
  1.00800000E+00  1.60000000E+01  1.00800000E+00  1.00800000E+00  1.60000000E+01
  1.00800000E+00  1.00800000E+00  1.60000000E+01  1.00800000E+00  1.00800000E+00
  1.60000000E+01  1.00800000E+00  1.00800000E+00  1.60000000E+01  1.00800000E+00
  1.00800000E+00  1.60000000E+01  1.00800000E+00  1.00800000E+00  1.60000000E+01
  1.00800000E+00  1.00800000E+00  1.60000000E+01  1.00800000E+00  1.00800000E+00
  1.60000000E+01  1.00800000E+00  1.00800000E+00  1.60000000E+01  1.00800000E+00
  1.00800000E+00  1.60000000E+01  1.00800000E+00  1.00800000E+00  1.60000000E+01
  1.00800000E+00  1.00800000E+00  1.60000000E+01  1.00800000E+00  1.00800000E+00
  1.60000000E+01  1.00800000E+00  1.00800000E+00  1.60000000E+01  1.00800000E+00
  1.00800000E+00  1.60000000E+01  1.00800000E+00  1.00800000E+00  1.60000000E+01
  1.00800000E+00  1.00800000E+00  1.60000000E+01  1.00800000E+00  1.00800000E+00
  1.60000000E+01  1.00800000E+00  1.00800000E+00  1.60000000E+01  1.00800000E+00
  1.00800000E+00  1.60000000E+01  1.00800000E+00  1.00800000E+00  1.60000000E+01
  1.00800000E+00  1.00800000E+00  1.60000000E+01  1.00800000E+00  1.00800000E+00
  1.60000000E+01  1.00800000E+00  1.00800000E+00  1.60000000E+01  1.00800000E+00
  1.00800000E+00  1.60000000E+01  1.00800000E+00  1.00800000E+00  1.60000000E+01
  1.00800000E+00  1.00800000E+00  1.60000000E+01  1.00800000E+00  1.00800000E+00
  1.60000000E+01  1.00800000E+00  1.00800000E+00  1.60000000E+01  1.00800000E+00
  1.00800000E+00  1.60000000E+01  1.00800000E+00  1.00800000E+00  1.60000000E+01
  1.00800000E+00  1.00800000E+00  1.60000000E+01  1.00800000E+00  1.00800000E+00
  1.60000000E+01  1.00800000E+00  1.00800000E+00  1.60000000E+01  1.00800000E+00
  1.00800000E+00  1.60000000E+01  1.00800000E+00  1.00800000E+00  1.60000000E+01
  1.00800000E+00  1.00800000E+00  1.60000000E+01  1.00800000E+00  1.00800000E+00
  1.60000000E+01  1.00800000E+00  1.00800000E+00  1.60000000E+01  1.00800000E+00
  1.00800000E+00  1.60000000E+01  1.00800000E+00  1.00800000E+00  1.60000000E+01
  1.00800000E+00  1.00800000E+00  1.60000000E+01  1.00800000E+00  1.00800000E+00
  1.60000000E+01  1.00800000E+00  1.00800000E+00  1.60000000E+01  1.00800000E+00
  1.00800000E+00  1.60000000E+01  1.00800000E+00  1.00800000E+00  1.60000000E+01
  1.00800000E+00  1.00800000E+00  1.60000000E+01  1.00800000E+00  1.00800000E+00
  1.60000000E+01  1.00800000E+00  1.00800000E+00  1.60000000E+01  1.00800000E+00
  1.00800000E+00  1.60000000E+01  1.00800000E+00  1.00800000E+00  1.60000000E+01
  1.00800000E+00  1.00800000E+00  1.60000000E+01  1.00800000E+00  1.00800000E+00
  1.60000000E+01  1.00800000E+00  1.00800000E+00  1.60000000E+01  1.00800000E+00
  1.00800000E+00  1.60000000E+01  1.00800000E+00  1.00800000E+00  1.60000000E+01
  1.00800000E+00  1.00800000E+00  1.60000000E+01  1.00800000E+00  1.00800000E+00
  1.60000000E+01  1.00800000E+00  1.00800000E+00  1.60000000E+01  1.00800000E+00
  1.00800000E+00  1.60000000E+01  1.00800000E+00  1.00800000E+00  1.60000000E+01
  1.00800000E+00  1.00800000E+00  1.60000000E+01  1.00800000E+00  1.00800000E+00
  1.60000000E+01  1.00800000E+00  1.00800000E+00  1.60000000E+01  1.00800000E+00
  1.00800000E+00  1.60000000E+01  1.00800000E+00  1.00800000E+00  1.60000000E+01
  1.00800000E+00  1.00800000E+00  1.60000000E+01  1.00800000E+00  1.00800000E+00
  1.60000000E+01  1.00800000E+00  1.00800000E+00  1.60000000E+01  1.00800000E+00
  1.00800000E+00  1.60000000E+01  1.00800000E+00  1.00800000E+00  1.60000000E+01
  1.00800000E+00  1.00800000E+00  1.60000000E+01  1.00800000E+00  1.00800000E+00
  1.60000000E+01  1.00800000E+00  1.00800000E+00  1.60000000E+01  1.00800000E+00
  1.00800000E+00  1.60000000E+01  1.00800000E+00  1.00800000E+00  1.60000000E+01
  1.00800000E+00  1.00800000E+00  1.60000000E+01  1.00800000E+00  1.00800000E+00
  1.60000000E+01  1.00800000E+00  1.00800000E+00  1.60000000E+01  1.00800000E+00
  1.00800000E+00  1.60000000E+01  1.00800000E+00  1.00800000E+00  1.60000000E+01
  1.00800000E+00  1.00800000E+00  1.60000000E+01  1.00800000E+00  1.00800000E+00
  1.60000000E+01  1.00800000E+00  1.00800000E+00  1.60000000E+01  1.00800000E+00
  1.00800000E+00  1.60000000E+01  1.00800000E+00  1.00800000E+00  1.60000000E+01
  1.00800000E+00  1.00800000E+00  1.60000000E+01  1.00800000E+00  1.00800000E+00
  1.60000000E+01  1.00800000E+00  1.00800000E+00  1.60000000E+01  1.00800000E+00
  1.00800000E+00  1.60000000E+01  1.00800000E+00  1.00800000E+00  1.60000000E+01
  1.00800000E+00  1.00800000E+00  1.60000000E+01  1.00800000E+00  1.00800000E+00
  1.60000000E+01  1.00800000E+00  1.00800000E+00  1.60000000E+01  1.00800000E+00
  1.00800000E+00  1.60000000E+01  1.00800000E+00  1.00800000E+00  1.60000000E+01
  1.00800000E+00  1.00800000E+00  1.60000000E+01  1.00800000E+00  1.00800000E+00
  1.60000000E+01  1.00800000E+00  1.00800000E+00  1.60000000E+01  1.00800000E+00
  1.00800000E+00  1.60000000E+01  1.00800000E+00  1.00800000E+00  1.60000000E+01
  1.00800000E+00  1.00800000E+00  1.60000000E+01  1.00800000E+00  1.00800000E+00
  1.60000000E+01  1.00800000E+00  1.00800000E+00  1.60000000E+01  1.00800000E+00
  1.00800000E+00  1.60000000E+01  1.00800000E+00  1.00800000E+00  1.60000000E+01
  1.00800000E+00  1.00800000E+00  1.60000000E+01  1.00800000E+00  1.00800000E+00
  1.60000000E+01  1.00800000E+00  1.00800000E+00  1.60000000E+01  1.00800000E+00
  1.00800000E+00  1.60000000E+01  1.00800000E+00  1.00800000E+00  1.60000000E+01
  1.00800000E+00  1.00800000E+00  1.60000000E+01  1.00800000E+00  1.00800000E+00
  1.60000000E+01  1.00800000E+00  1.00800000E+00  1.60000000E+01  1.00800000E+00
  1.00800000E+00  1.60000000E+01  1.00800000E+00  1.00800000E+00  1.60000000E+01
  1.00800000E+00  1.00800000E+00  1.60000000E+01  1.00800000E+00  1.00800000E+00
  1.60000000E+01  1.00800000E+00  1.00800000E+00  1.60000000E+01  1.00800000E+00
  1.00800000E+00  1.60000000E+01  1.00800000E+00  1.00800000E+00  1.60000000E+01
  1.00800000E+00  1.00800000E+00  1.60000000E+01  1.00800000E+00  1.00800000E+00
  1.60000000E+01  1.00800000E+00  1.00800000E+00  1.60000000E+01  1.00800000E+00
  1.00800000E+00  1.60000000E+01  1.00800000E+00  1.00800000E+00  1.60000000E+01
  1.00800000E+00  1.00800000E+00  1.60000000E+01  1.00800000E+00  1.00800000E+00
  1.60000000E+01  1.00800000E+00  1.00800000E+00  1.60000000E+01  1.00800000E+00
  1.00800000E+00  1.60000000E+01  1.00800000E+00  1.00800000E+00  1.60000000E+01
  1.00800000E+00  1.00800000E+00  1.60000000E+01  1.00800000E+00  1.00800000E+00
  1.60000000E+01  1.00800000E+00  1.00800000E+00  1.60000000E+01  1.00800000E+00
  1.00800000E+00  1.60000000E+01  1.00800000E+00  1.00800000E+00  1.60000000E+01
  1.00800000E+00  1.00800000E+00  1.60000000E+01  1.00800000E+00  1.00800000E+00
  1.60000000E+01  1.00800000E+00  1.00800000E+00  1.60000000E+01  1.00800000E+00
  1.00800000E+00  1.60000000E+01  1.00800000E+00  1.00800000E+00  1.60000000E+01
  1.00800000E+00  1.00800000E+00  1.60000000E+01  1.00800000E+00  1.00800000E+00
  1.60000000E+01  1.00800000E+00  1.00800000E+00  1.60000000E+01  1.00800000E+00
  1.00800000E+00  1.60000000E+01  1.00800000E+00  1.00800000E+00  1.60000000E+01
  1.00800000E+00  1.00800000E+00  1.60000000E+01  1.00800000E+00  1.00800000E+00
  1.60000000E+01  1.00800000E+00  1.00800000E+00  1.60000000E+01  1.00800000E+00
  1.00800000E+00  1.60000000E+01  1.00800000E+00  1.00800000E+00  1.60000000E+01
  1.00800000E+00  1.00800000E+00  1.60000000E+01  1.00800000E+00  1.00800000E+00
  1.60000000E+01  1.00800000E+00  1.00800000E+00  1.60000000E+01  1.00800000E+00
  1.00800000E+00  1.60000000E+01  1.00800000E+00  1.00800000E+00  1.60000000E+01
  1.00800000E+00  1.00800000E+00  1.60000000E+01  1.00800000E+00  1.00800000E+00
  1.60000000E+01  1.00800000E+00  1.00800000E+00  1.60000000E+01  1.00800000E+00
  1.00800000E+00  1.60000000E+01  1.00800000E+00  1.00800000E+00  1.60000000E+01
  1.00800000E+00  1.00800000E+00  1.60000000E+01  1.00800000E+00  1.00800000E+00
  1.60000000E+01  1.00800000E+00  1.00800000E+00  1.60000000E+01  1.00800000E+00
  1.00800000E+00  1.60000000E+01  1.00800000E+00  1.00800000E+00  1.60000000E+01
  1.00800000E+00  1.00800000E+00  1.60000000E+01  1.00800000E+00  1.00800000E+00
  1.60000000E+01  1.00800000E+00  1.00800000E+00  1.60000000E+01  1.00800000E+00
  1.00800000E+00  1.60000000E+01  1.00800000E+00  1.00800000E+00  1.60000000E+01
  1.00800000E+00  1.00800000E+00  1.60000000E+01  1.00800000E+00  1.00800000E+00
  1.60000000E+01  1.00800000E+00  1.00800000E+00  1.60000000E+01  1.00800000E+00
  1.00800000E+00  1.60000000E+01  1.00800000E+00  1.00800000E+00  1.60000000E+01
  1.00800000E+00  1.00800000E+00  1.60000000E+01  1.00800000E+00  1.00800000E+00
  1.60000000E+01  1.00800000E+00  1.00800000E+00  1.60000000E+01  1.00800000E+00
  1.00800000E+00  1.60000000E+01  1.00800000E+00  1.00800000E+00  1.60000000E+01
  1.00800000E+00  1.00800000E+00  1.60000000E+01  1.00800000E+00  1.00800000E+00
  1.60000000E+01  1.00800000E+00  1.00800000E+00  1.60000000E+01  1.00800000E+00
  1.00800000E+00  1.60000000E+01  1.00800000E+00  1.00800000E+00  1.60000000E+01
  1.00800000E+00  1.00800000E+00  1.60000000E+01  1.00800000E+00  1.00800000E+00
  1.60000000E+01  1.00800000E+00  1.00800000E+00  1.60000000E+01  1.00800000E+00
  1.00800000E+00  1.60000000E+01  1.00800000E+00  1.00800000E+00  1.60000000E+01
  1.00800000E+00  1.00800000E+00  1.60000000E+01  1.00800000E+00  1.00800000E+00
  1.60000000E+01  1.00800000E+00  1.00800000E+00  1.60000000E+01  1.00800000E+00
  1.00800000E+00  1.60000000E+01  1.00800000E+00  1.00800000E+00  1.60000000E+01
  1.00800000E+00  1.00800000E+00  1.60000000E+01  1.00800000E+00  1.00800000E+00
  1.60000000E+01  1.00800000E+00  1.00800000E+00  1.60000000E+01  1.00800000E+00
  1.00800000E+00  1.60000000E+01  1.00800000E+00  1.00800000E+00  1.60000000E+01
  1.00800000E+00  1.00800000E+00  1.60000000E+01  1.00800000E+00  1.00800000E+00
  1.60000000E+01  1.00800000E+00  1.00800000E+00  1.60000000E+01  1.00800000E+00
  1.00800000E+00  1.60000000E+01  1.00800000E+00  1.00800000E+00  1.60000000E+01
  1.00800000E+00  1.00800000E+00  1.60000000E+01  1.00800000E+00  1.00800000E+00
  1.60000000E+01  1.00800000E+00  1.00800000E+00  1.60000000E+01  1.00800000E+00
  1.00800000E+00  1.60000000E+01  1.00800000E+00  1.00800000E+00  1.60000000E+01
  1.00800000E+00  1.00800000E+00  1.60000000E+01  1.00800000E+00  1.00800000E+00
  1.60000000E+01  1.00800000E+00  1.00800000E+00  1.60000000E+01  1.00800000E+00
  1.00800000E+00  1.60000000E+01  1.00800000E+00  1.00800000E+00  1.60000000E+01
  1.00800000E+00  1.00800000E+00  1.60000000E+01  1.00800000E+00  1.00800000E+00
  1.60000000E+01  1.00800000E+00  1.00800000E+00  1.60000000E+01  1.00800000E+00
  1.00800000E+00  1.60000000E+01  1.00800000E+00  1.00800000E+00  1.60000000E+01
  1.00800000E+00  1.00800000E+00  1.60000000E+01  1.00800000E+00  1.00800000E+00
  1.60000000E+01  1.00800000E+00  1.00800000E+00  1.60000000E+01  1.00800000E+00
  1.00800000E+00  1.60000000E+01  1.00800000E+00  1.00800000E+00  1.60000000E+01
  1.00800000E+00  1.00800000E+00  1.60000000E+01  1.00800000E+00  1.00800000E+00
  1.60000000E+01  1.00800000E+00  1.00800000E+00  1.60000000E+01  1.00800000E+00
  1.00800000E+00  1.60000000E+01  1.00800000E+00  1.00800000E+00  1.60000000E+01
  1.00800000E+00  1.00800000E+00  1.60000000E+01  1.00800000E+00  1.00800000E+00
  1.60000000E+01  1.00800000E+00  1.00800000E+00  1.60000000E+01  1.00800000E+00
  1.00800000E+00  1.60000000E+01  1.00800000E+00  1.00800000E+00  1.60000000E+01
  1.00800000E+00  1.00800000E+00  1.60000000E+01  1.00800000E+00  1.00800000E+00
  1.60000000E+01  1.00800000E+00  1.00800000E+00  1.60000000E+01  1.00800000E+00
  1.00800000E+00  1.60000000E+01  1.00800000E+00  1.00800000E+00  1.60000000E+01
  1.00800000E+00  1.00800000E+00  1.60000000E+01  1.00800000E+00  1.00800000E+00
  1.60000000E+01  1.00800000E+00  1.00800000E+00  1.60000000E+01  1.00800000E+00
  1.00800000E+00  1.60000000E+01  1.00800000E+00  1.00800000E+00  1.60000000E+01
  1.00800000E+00  1.00800000E+00  1.60000000E+01  1.00800000E+00  1.00800000E+00
  1.60000000E+01  1.00800000E+00  1.00800000E+00  1.60000000E+01  1.00800000E+00
  1.00800000E+00  1.60000000E+01  1.00800000E+00  1.00800000E+00  1.60000000E+01
  1.00800000E+00  1.00800000E+00  1.60000000E+01  1.00800000E+00  1.00800000E+00
  1.60000000E+01  1.00800000E+00  1.00800000E+00  1.60000000E+01  1.00800000E+00
  1.00800000E+00  1.60000000E+01  1.00800000E+00  1.00800000E+00  1.60000000E+01
  1.00800000E+00  1.00800000E+00  1.60000000E+01  1.00800000E+00  1.00800000E+00
  1.60000000E+01  1.00800000E+00  1.00800000E+00  1.60000000E+01  1.00800000E+00
  1.00800000E+00  1.60000000E+01  1.00800000E+00  1.00800000E+00  1.60000000E+01
  1.00800000E+00  1.00800000E+00  1.60000000E+01  1.00800000E+00  1.00800000E+00
  1.60000000E+01  1.00800000E+00  1.00800000E+00  1.60000000E+01  1.00800000E+00
  1.00800000E+00  1.60000000E+01  1.00800000E+00  1.00800000E+00  1.60000000E+01
  1.00800000E+00  1.00800000E+00  1.60000000E+01  1.00800000E+00  1.00800000E+00
  1.60000000E+01  1.00800000E+00  1.00800000E+00  1.60000000E+01  1.00800000E+00
  1.00800000E+00  1.60000000E+01  1.00800000E+00  1.00800000E+00  1.60000000E+01
  1.00800000E+00  1.00800000E+00  1.60000000E+01  1.00800000E+00  1.00800000E+00
  1.60000000E+01  1.00800000E+00  1.00800000E+00  1.60000000E+01  1.00800000E+00
  1.00800000E+00  1.60000000E+01  1.00800000E+00  1.00800000E+00  1.60000000E+01
  1.00800000E+00  1.00800000E+00  1.60000000E+01  1.00800000E+00  1.00800000E+00
  1.60000000E+01  1.00800000E+00  1.00800000E+00  1.60000000E+01  1.00800000E+00
  1.00800000E+00  1.60000000E+01  1.00800000E+00  1.00800000E+00  1.60000000E+01
  1.00800000E+00  1.00800000E+00  1.60000000E+01  1.00800000E+00  1.00800000E+00
  1.60000000E+01  1.00800000E+00  1.00800000E+00  1.60000000E+01  1.00800000E+00
  1.00800000E+00  1.60000000E+01  1.00800000E+00  1.00800000E+00  1.60000000E+01
  1.00800000E+00  1.00800000E+00  1.60000000E+01  1.00800000E+00  1.00800000E+00
  1.60000000E+01  1.00800000E+00  1.00800000E+00  1.60000000E+01  1.00800000E+00
  1.00800000E+00  1.60000000E+01  1.00800000E+00  1.00800000E+00  1.60000000E+01
  1.00800000E+00  1.00800000E+00  1.60000000E+01  1.00800000E+00  1.00800000E+00
  1.60000000E+01  1.00800000E+00  1.00800000E+00  1.60000000E+01  1.00800000E+00
  1.00800000E+00  1.60000000E+01  1.00800000E+00  1.00800000E+00  1.60000000E+01
  1.00800000E+00  1.00800000E+00  1.60000000E+01  1.00800000E+00  1.00800000E+00
  1.60000000E+01  1.00800000E+00  1.00800000E+00  1.60000000E+01  1.00800000E+00
  1.00800000E+00  1.60000000E+01  1.00800000E+00  1.00800000E+00  1.60000000E+01
  1.00800000E+00  1.00800000E+00  1.60000000E+01  1.00800000E+00  1.00800000E+00
  1.60000000E+01  1.00800000E+00  1.00800000E+00  1.60000000E+01  1.00800000E+00
  1.00800000E+00  1.60000000E+01  1.00800000E+00  1.00800000E+00  1.60000000E+01
  1.00800000E+00  1.00800000E+00  1.60000000E+01  1.00800000E+00  1.00800000E+00
  1.60000000E+01  1.00800000E+00  1.00800000E+00  1.60000000E+01  1.00800000E+00
  1.00800000E+00  1.60000000E+01  1.00800000E+00  1.00800000E+00  1.60000000E+01
  1.00800000E+00  1.00800000E+00  1.60000000E+01  1.00800000E+00  1.00800000E+00
  1.60000000E+01  1.00800000E+00  1.00800000E+00  1.60000000E+01  1.00800000E+00
  1.00800000E+00  1.60000000E+01  1.00800000E+00  1.00800000E+00  1.60000000E+01
  1.00800000E+00  1.00800000E+00  1.60000000E+01  1.00800000E+00  1.00800000E+00
  1.60000000E+01  1.00800000E+00  1.00800000E+00  1.60000000E+01  1.00800000E+00
  1.00800000E+00  1.60000000E+01  1.00800000E+00  1.00800000E+00  1.60000000E+01
  1.00800000E+00  1.00800000E+00  1.60000000E+01  1.00800000E+00  1.00800000E+00
  1.60000000E+01  1.00800000E+00  1.00800000E+00  1.60000000E+01  1.00800000E+00
  1.00800000E+00  1.60000000E+01  1.00800000E+00  1.00800000E+00  1.60000000E+01
  1.00800000E+00  1.00800000E+00  1.60000000E+01  1.00800000E+00  1.00800000E+00
  1.60000000E+01  1.00800000E+00  1.00800000E+00  1.60000000E+01  1.00800000E+00
  1.00800000E+00  1.60000000E+01  1.00800000E+00  1.00800000E+00  1.60000000E+01
  1.00800000E+00  1.00800000E+00  1.60000000E+01  1.00800000E+00  1.00800000E+00
  1.60000000E+01  1.00800000E+00  1.00800000E+00  1.60000000E+01  1.00800000E+00
  1.00800000E+00  1.60000000E+01  1.00800000E+00  1.00800000E+00  1.60000000E+01
  1.00800000E+00  1.00800000E+00  1.60000000E+01  1.00800000E+00  1.00800000E+00
  1.60000000E+01  1.00800000E+00  1.00800000E+00  1.60000000E+01  1.00800000E+00
  1.00800000E+00  1.60000000E+01  1.00800000E+00  1.00800000E+00  1.60000000E+01
  1.00800000E+00  1.00800000E+00  1.60000000E+01  1.00800000E+00  1.00800000E+00
  1.60000000E+01  1.00800000E+00  1.00800000E+00  1.60000000E+01  1.00800000E+00
  1.00800000E+00  1.60000000E+01  1.00800000E+00  1.00800000E+00  1.60000000E+01
  1.00800000E+00  1.00800000E+00  1.60000000E+01  1.00800000E+00  1.00800000E+00
  1.60000000E+01  1.00800000E+00  1.00800000E+00  1.60000000E+01  1.00800000E+00
  1.00800000E+00  1.60000000E+01  1.00800000E+00  1.00800000E+00  1.60000000E+01
  1.00800000E+00  1.00800000E+00  1.60000000E+01  1.00800000E+00  1.00800000E+00
  1.60000000E+01  1.00800000E+00  1.00800000E+00  1.60000000E+01  1.00800000E+00
  1.00800000E+00  1.60000000E+01  1.00800000E+00  1.00800000E+00  1.60000000E+01
  1.00800000E+00  1.00800000E+00  1.60000000E+01  1.00800000E+00  1.00800000E+00
  1.60000000E+01  1.00800000E+00  1.00800000E+00  1.60000000E+01  1.00800000E+00
  1.00800000E+00  1.60000000E+01  1.00800000E+00  1.00800000E+00  1.60000000E+01
  1.00800000E+00  1.00800000E+00  1.60000000E+01  1.00800000E+00  1.00800000E+00
  1.60000000E+01  1.00800000E+00  1.00800000E+00  1.60000000E+01  1.00800000E+00
  1.00800000E+00  1.60000000E+01  1.00800000E+00  1.00800000E+00  1.60000000E+01
  1.00800000E+00  1.00800000E+00  1.60000000E+01  1.00800000E+00  1.00800000E+00
  1.60000000E+01  1.00800000E+00  1.00800000E+00  1.60000000E+01  1.00800000E+00
  1.00800000E+00  1.60000000E+01  1.00800000E+00  1.00800000E+00  1.60000000E+01
  1.00800000E+00  1.00800000E+00  1.60000000E+01  1.00800000E+00  1.00800000E+00
  1.60000000E+01  1.00800000E+00  1.00800000E+00  1.60000000E+01  1.00800000E+00
  1.00800000E+00  1.60000000E+01  1.00800000E+00  1.00800000E+00  1.60000000E+01
  1.00800000E+00  1.00800000E+00  1.60000000E+01  1.00800000E+00  1.00800000E+00
  1.60000000E+01  1.00800000E+00  1.00800000E+00  1.60000000E+01  1.00800000E+00
  1.00800000E+00  1.60000000E+01  1.00800000E+00  1.00800000E+00  1.60000000E+01
  1.00800000E+00  1.00800000E+00  1.60000000E+01  1.00800000E+00  1.00800000E+00
  1.60000000E+01  1.00800000E+00  1.00800000E+00  1.60000000E+01  1.00800000E+00
  1.00800000E+00  1.60000000E+01  1.00800000E+00  1.00800000E+00  1.60000000E+01
  1.00800000E+00  1.00800000E+00  1.60000000E+01  1.00800000E+00  1.00800000E+00
  1.60000000E+01  1.00800000E+00  1.00800000E+00  1.60000000E+01  1.00800000E+00
  1.00800000E+00  1.60000000E+01  1.00800000E+00  1.00800000E+00  1.60000000E+01
  1.00800000E+00  1.00800000E+00  1.60000000E+01  1.00800000E+00  1.00800000E+00
  1.60000000E+01  1.00800000E+00  1.00800000E+00  1.60000000E+01  1.00800000E+00
  1.00800000E+00  1.60000000E+01  1.00800000E+00  1.00800000E+00  1.60000000E+01
  1.00800000E+00  1.00800000E+00  1.60000000E+01  1.00800000E+00  1.00800000E+00
  1.60000000E+01  1.00800000E+00  1.00800000E+00  1.60000000E+01  1.00800000E+00
  1.00800000E+00  1.60000000E+01  1.00800000E+00  1.00800000E+00  1.60000000E+01
  1.00800000E+00  1.00800000E+00  1.60000000E+01  1.00800000E+00  1.00800000E+00
  1.60000000E+01  1.00800000E+00  1.00800000E+00  1.60000000E+01  1.00800000E+00
  1.00800000E+00  1.60000000E+01  1.00800000E+00  1.00800000E+00  1.60000000E+01
  1.00800000E+00  1.00800000E+00  1.60000000E+01  1.00800000E+00  1.00800000E+00
  1.60000000E+01  1.00800000E+00  1.00800000E+00  1.60000000E+01  1.00800000E+00
  1.00800000E+00  1.60000000E+01  1.00800000E+00  1.00800000E+00  1.60000000E+01
  1.00800000E+00  1.00800000E+00  1.60000000E+01  1.00800000E+00  1.00800000E+00
  1.60000000E+01  1.00800000E+00  1.00800000E+00  1.60000000E+01  1.00800000E+00
  1.00800000E+00  1.60000000E+01  1.00800000E+00  1.00800000E+00  1.60000000E+01
  1.00800000E+00  1.00800000E+00  1.60000000E+01  1.00800000E+00  1.00800000E+00
  1.60000000E+01  1.00800000E+00  1.00800000E+00  1.60000000E+01  1.00800000E+00
  1.00800000E+00  1.60000000E+01  1.00800000E+00  1.00800000E+00  1.60000000E+01
  1.00800000E+00  1.00800000E+00  1.60000000E+01  1.00800000E+00  1.00800000E+00
  1.60000000E+01  1.00800000E+00  1.00800000E+00  1.60000000E+01  1.00800000E+00
  1.00800000E+00  1.60000000E+01  1.00800000E+00  1.00800000E+00  1.60000000E+01
  1.00800000E+00  1.00800000E+00  1.60000000E+01  1.00800000E+00  1.00800000E+00
  1.60000000E+01  1.00800000E+00  1.00800000E+00  1.60000000E+01  1.00800000E+00
  1.00800000E+00  1.60000000E+01  1.00800000E+00  1.00800000E+00  1.60000000E+01
  1.00800000E+00  1.00800000E+00  1.60000000E+01  1.00800000E+00  1.00800000E+00
  1.60000000E+01  1.00800000E+00  1.00800000E+00  1.60000000E+01  1.00800000E+00
  1.00800000E+00  1.60000000E+01  1.00800000E+00  1.00800000E+00  1.60000000E+01
  1.00800000E+00  1.00800000E+00  1.60000000E+01  1.00800000E+00  1.00800000E+00
  1.60000000E+01  1.00800000E+00  1.00800000E+00  1.60000000E+01  1.00800000E+00
  1.00800000E+00  1.60000000E+01  1.00800000E+00  1.00800000E+00  1.60000000E+01
  1.00800000E+00  1.00800000E+00  1.60000000E+01  1.00800000E+00  1.00800000E+00
  1.60000000E+01  1.00800000E+00  1.00800000E+00  1.60000000E+01  1.00800000E+00
  1.00800000E+00  1.60000000E+01  1.00800000E+00  1.00800000E+00  1.60000000E+01
  1.00800000E+00  1.00800000E+00  1.60000000E+01  1.00800000E+00  1.00800000E+00
  1.60000000E+01  1.00800000E+00  1.00800000E+00  1.60000000E+01  1.00800000E+00
  1.00800000E+00  1.60000000E+01  1.00800000E+00  1.00800000E+00  1.60000000E+01
  1.00800000E+00  1.00800000E+00  1.60000000E+01  1.00800000E+00  1.00800000E+00
  1.60000000E+01  1.00800000E+00  1.00800000E+00  1.60000000E+01  1.00800000E+00
  1.00800000E+00  1.60000000E+01  1.00800000E+00  1.00800000E+00  1.60000000E+01
  1.00800000E+00  1.00800000E+00  1.60000000E+01  1.00800000E+00  1.00800000E+00
  1.60000000E+01  1.00800000E+00  1.00800000E+00  1.60000000E+01  1.00800000E+00
  1.00800000E+00  1.60000000E+01  1.00800000E+00  1.00800000E+00  1.60000000E+01
  1.00800000E+00  1.00800000E+00  1.60000000E+01  1.00800000E+00  1.00800000E+00
  1.60000000E+01  1.00800000E+00  1.00800000E+00  1.60000000E+01  1.00800000E+00
  1.00800000E+00  1.60000000E+01  1.00800000E+00  1.00800000E+00  1.60000000E+01
  1.00800000E+00  1.00800000E+00  1.60000000E+01  1.00800000E+00  1.00800000E+00
  1.60000000E+01  1.00800000E+00  1.00800000E+00  1.60000000E+01  1.00800000E+00
  1.00800000E+00  1.60000000E+01  1.00800000E+00  1.00800000E+00  1.60000000E+01
  1.00800000E+00  1.00800000E+00  1.60000000E+01  1.00800000E+00  1.00800000E+00
  1.60000000E+01  1.00800000E+00  1.00800000E+00  1.60000000E+01  1.00800000E+00
  1.00800000E+00  1.60000000E+01  1.00800000E+00  1.00800000E+00  1.60000000E+01
  1.00800000E+00  1.00800000E+00  1.60000000E+01  1.00800000E+00  1.00800000E+00
  1.60000000E+01  1.00800000E+00  1.00800000E+00  1.60000000E+01  1.00800000E+00
  1.00800000E+00  1.60000000E+01  1.00800000E+00  1.00800000E+00  1.60000000E+01
  1.00800000E+00  1.00800000E+00  1.60000000E+01  1.00800000E+00  1.00800000E+00
  1.60000000E+01  1.00800000E+00  1.00800000E+00  1.60000000E+01  1.00800000E+00
  1.00800000E+00  1.60000000E+01  1.00800000E+00  1.00800000E+00  1.60000000E+01
  1.00800000E+00  1.00800000E+00  1.60000000E+01  1.00800000E+00  1.00800000E+00
  1.60000000E+01  1.00800000E+00  1.00800000E+00  1.60000000E+01  1.00800000E+00
  1.00800000E+00  1.60000000E+01  1.00800000E+00  1.00800000E+00  1.60000000E+01
  1.00800000E+00  1.00800000E+00  1.60000000E+01  1.00800000E+00  1.00800000E+00
  1.60000000E+01  1.00800000E+00  1.00800000E+00  1.60000000E+01  1.00800000E+00
  1.00800000E+00  1.60000000E+01  1.00800000E+00  1.00800000E+00  1.60000000E+01
  1.00800000E+00  1.00800000E+00  1.60000000E+01  1.00800000E+00  1.00800000E+00
  1.60000000E+01  1.00800000E+00  1.00800000E+00  1.60000000E+01  1.00800000E+00
  1.00800000E+00  1.60000000E+01  1.00800000E+00  1.00800000E+00  1.60000000E+01
  1.00800000E+00  1.00800000E+00  1.60000000E+01  1.00800000E+00  1.00800000E+00
  1.60000000E+01  1.00800000E+00  1.00800000E+00  1.60000000E+01  1.00800000E+00
  1.00800000E+00  1.60000000E+01  1.00800000E+00  1.00800000E+00  1.60000000E+01
  1.00800000E+00  1.00800000E+00  1.60000000E+01  1.00800000E+00  1.00800000E+00
  1.60000000E+01  1.00800000E+00  1.00800000E+00  1.60000000E+01  1.00800000E+00
  1.00800000E+00  1.60000000E+01  1.00800000E+00  1.00800000E+00  1.60000000E+01
  1.00800000E+00  1.00800000E+00  1.60000000E+01  1.00800000E+00  1.00800000E+00
  1.60000000E+01  1.00800000E+00  1.00800000E+00  1.60000000E+01  1.00800000E+00
  1.00800000E+00  1.60000000E+01  1.00800000E+00  1.00800000E+00  1.60000000E+01
  1.00800000E+00  1.00800000E+00  1.60000000E+01  1.00800000E+00  1.00800000E+00
  1.60000000E+01  1.00800000E+00  1.00800000E+00  1.60000000E+01  1.00800000E+00
  1.00800000E+00  1.60000000E+01  1.00800000E+00  1.00800000E+00  1.60000000E+01
  1.00800000E+00  1.00800000E+00  1.60000000E+01  1.00800000E+00  1.00800000E+00
  1.60000000E+01  1.00800000E+00  1.00800000E+00  1.60000000E+01  1.00800000E+00
  1.00800000E+00  1.60000000E+01  1.00800000E+00  1.00800000E+00  1.60000000E+01
  1.00800000E+00  1.00800000E+00  1.60000000E+01  1.00800000E+00  1.00800000E+00
  1.60000000E+01  1.00800000E+00  1.00800000E+00  1.60000000E+01  1.00800000E+00
  1.00800000E+00  1.60000000E+01  1.00800000E+00  1.00800000E+00  1.60000000E+01
  1.00800000E+00  1.00800000E+00  1.60000000E+01  1.00800000E+00  1.00800000E+00
  1.60000000E+01  1.00800000E+00  1.00800000E+00  1.60000000E+01  1.00800000E+00
  1.00800000E+00  1.60000000E+01  1.00800000E+00  1.00800000E+00  1.60000000E+01
  1.00800000E+00  1.00800000E+00  1.60000000E+01  1.00800000E+00  1.00800000E+00
  1.60000000E+01  1.00800000E+00  1.00800000E+00  1.60000000E+01  1.00800000E+00
  1.00800000E+00  1.60000000E+01  1.00800000E+00  1.00800000E+00  1.60000000E+01
  1.00800000E+00  1.00800000E+00  1.60000000E+01  1.00800000E+00  1.00800000E+00
  1.60000000E+01  1.00800000E+00  1.00800000E+00  1.60000000E+01  1.00800000E+00
  1.00800000E+00  1.60000000E+01  1.00800000E+00  1.00800000E+00  1.60000000E+01
  1.00800000E+00  1.00800000E+00  1.60000000E+01  1.00800000E+00  1.00800000E+00
  1.60000000E+01  1.00800000E+00  1.00800000E+00  1.60000000E+01  1.00800000E+00
  1.00800000E+00  1.60000000E+01  1.00800000E+00  1.00800000E+00  1.60000000E+01
  1.00800000E+00  1.00800000E+00  1.60000000E+01  1.00800000E+00  1.00800000E+00
  1.60000000E+01  1.00800000E+00  1.00800000E+00  1.60000000E+01  1.00800000E+00
  1.00800000E+00  1.60000000E+01  1.00800000E+00  1.00800000E+00  1.60000000E+01
  1.00800000E+00  1.00800000E+00  1.60000000E+01  1.00800000E+00  1.00800000E+00
  1.60000000E+01  1.00800000E+00  1.00800000E+00  1.60000000E+01  1.00800000E+00
  1.00800000E+00  1.60000000E+01  1.00800000E+00  1.00800000E+00  1.60000000E+01
  1.00800000E+00  1.00800000E+00  1.60000000E+01  1.00800000E+00  1.00800000E+00
  1.60000000E+01  1.00800000E+00  1.00800000E+00  1.60000000E+01  1.00800000E+00
  1.00800000E+00  1.60000000E+01  1.00800000E+00  1.00800000E+00  1.60000000E+01
  1.00800000E+00  1.00800000E+00  1.60000000E+01  1.00800000E+00  1.00800000E+00
  1.60000000E+01  1.00800000E+00  1.00800000E+00  1.60000000E+01  1.00800000E+00
  1.00800000E+00  1.60000000E+01  1.00800000E+00  1.00800000E+00  1.60000000E+01
  1.00800000E+00  1.00800000E+00  1.60000000E+01  1.00800000E+00  1.00800000E+00
  1.60000000E+01  1.00800000E+00  1.00800000E+00  1.60000000E+01  1.00800000E+00
  1.00800000E+00  1.60000000E+01  1.00800000E+00  1.00800000E+00  1.60000000E+01
  1.00800000E+00  1.00800000E+00  1.60000000E+01  1.00800000E+00  1.00800000E+00
  1.60000000E+01  1.00800000E+00  1.00800000E+00  1.60000000E+01  1.00800000E+00
  1.00800000E+00  1.60000000E+01  1.00800000E+00  1.00800000E+00  1.60000000E+01
  1.00800000E+00  1.00800000E+00  1.60000000E+01  1.00800000E+00  1.00800000E+00
  1.60000000E+01  1.00800000E+00  1.00800000E+00  1.60000000E+01  1.00800000E+00
  1.00800000E+00  1.60000000E+01  1.00800000E+00  1.00800000E+00  1.60000000E+01
  1.00800000E+00  1.00800000E+00  1.60000000E+01  1.00800000E+00  1.00800000E+00
  1.60000000E+01  1.00800000E+00  1.00800000E+00  1.60000000E+01  1.00800000E+00
  1.00800000E+00  1.60000000E+01  1.00800000E+00  1.00800000E+00  1.60000000E+01
  1.00800000E+00  1.00800000E+00  1.60000000E+01  1.00800000E+00  1.00800000E+00
  1.60000000E+01  1.00800000E+00  1.00800000E+00  1.60000000E+01  1.00800000E+00
  1.00800000E+00  1.60000000E+01  1.00800000E+00  1.00800000E+00  1.60000000E+01
  1.00800000E+00  1.00800000E+00  1.60000000E+01  1.00800000E+00  1.00800000E+00
  1.60000000E+01  1.00800000E+00  1.00800000E+00  1.60000000E+01  1.00800000E+00
  1.00800000E+00  1.60000000E+01  1.00800000E+00  1.00800000E+00  1.60000000E+01
  1.00800000E+00  1.00800000E+00  1.60000000E+01  1.00800000E+00  1.00800000E+00
  1.60000000E+01  1.00800000E+00  1.00800000E+00  1.60000000E+01  1.00800000E+00
  1.00800000E+00  1.60000000E+01  1.00800000E+00  1.00800000E+00  1.60000000E+01
  1.00800000E+00  1.00800000E+00  1.60000000E+01  1.00800000E+00  1.00800000E+00
  1.60000000E+01  1.00800000E+00  1.00800000E+00  1.60000000E+01  1.00800000E+00
  1.00800000E+00  1.60000000E+01  1.00800000E+00  1.00800000E+00  1.60000000E+01
  1.00800000E+00  1.00800000E+00  1.60000000E+01  1.00800000E+00  1.00800000E+00
  1.60000000E+01  1.00800000E+00  1.00800000E+00  1.60000000E+01  1.00800000E+00
  1.00800000E+00  1.60000000E+01  1.00800000E+00  1.00800000E+00  1.60000000E+01
  1.00800000E+00  1.00800000E+00  1.60000000E+01  1.00800000E+00  1.00800000E+00
  1.60000000E+01  1.00800000E+00  1.00800000E+00  1.60000000E+01  1.00800000E+00
  1.00800000E+00  1.60000000E+01  1.00800000E+00  1.00800000E+00  1.60000000E+01
  1.00800000E+00  1.00800000E+00  1.60000000E+01  1.00800000E+00  1.00800000E+00
  1.60000000E+01  1.00800000E+00  1.00800000E+00  1.60000000E+01  1.00800000E+00
  1.00800000E+00  1.60000000E+01  1.00800000E+00  1.00800000E+00  1.60000000E+01
  1.00800000E+00  1.00800000E+00  1.60000000E+01  1.00800000E+00  1.00800000E+00
  1.60000000E+01  1.00800000E+00  1.00800000E+00  1.60000000E+01  1.00800000E+00
  1.00800000E+00  1.60000000E+01  1.00800000E+00  1.00800000E+00  1.60000000E+01
  1.00800000E+00  1.00800000E+00  1.60000000E+01  1.00800000E+00  1.00800000E+00
  1.60000000E+01  1.00800000E+00  1.00800000E+00  1.60000000E+01  1.00800000E+00
  1.00800000E+00  1.60000000E+01  1.00800000E+00  1.00800000E+00  1.60000000E+01
  1.00800000E+00  1.00800000E+00  1.60000000E+01  1.00800000E+00  1.00800000E+00
  1.60000000E+01  1.00800000E+00  1.00800000E+00  1.60000000E+01  1.00800000E+00
  1.00800000E+00  1.60000000E+01  1.00800000E+00  1.00800000E+00  1.60000000E+01
  1.00800000E+00  1.00800000E+00  1.60000000E+01  1.00800000E+00  1.00800000E+00
  1.60000000E+01  1.00800000E+00  1.00800000E+00  1.60000000E+01  1.00800000E+00
  1.00800000E+00  1.60000000E+01  1.00800000E+00  1.00800000E+00  1.60000000E+01
  1.00800000E+00  1.00800000E+00  1.60000000E+01  1.00800000E+00  1.00800000E+00
  1.60000000E+01  1.00800000E+00  1.00800000E+00  1.60000000E+01  1.00800000E+00
  1.00800000E+00  1.60000000E+01  1.00800000E+00  1.00800000E+00  1.60000000E+01
  1.00800000E+00  1.00800000E+00  1.60000000E+01  1.00800000E+00  1.00800000E+00
  1.60000000E+01  1.00800000E+00  1.00800000E+00  1.60000000E+01  1.00800000E+00
  1.00800000E+00  1.60000000E+01  1.00800000E+00  1.00800000E+00  1.60000000E+01
  1.00800000E+00  1.00800000E+00  1.60000000E+01  1.00800000E+00  1.00800000E+00
  1.60000000E+01  1.00800000E+00  1.00800000E+00  1.60000000E+01  1.00800000E+00
  1.00800000E+00  1.60000000E+01  1.00800000E+00  1.00800000E+00  1.60000000E+01
  1.00800000E+00  1.00800000E+00  1.60000000E+01  1.00800000E+00  1.00800000E+00
  1.60000000E+01  1.00800000E+00  1.00800000E+00  1.60000000E+01  1.00800000E+00
  1.00800000E+00  1.60000000E+01  1.00800000E+00  1.00800000E+00  1.60000000E+01
  1.00800000E+00  1.00800000E+00  1.60000000E+01  1.00800000E+00  1.00800000E+00
  1.60000000E+01  1.00800000E+00  1.00800000E+00  1.60000000E+01  1.00800000E+00
  1.00800000E+00  1.60000000E+01  1.00800000E+00  1.00800000E+00  1.60000000E+01
  1.00800000E+00  1.00800000E+00  1.60000000E+01  1.00800000E+00  1.00800000E+00
  1.60000000E+01  1.00800000E+00  1.00800000E+00  1.60000000E+01  1.00800000E+00
  1.00800000E+00  1.60000000E+01  1.00800000E+00  1.00800000E+00  1.60000000E+01
  1.00800000E+00  1.00800000E+00  1.60000000E+01  1.00800000E+00  1.00800000E+00
  1.60000000E+01  1.00800000E+00  1.00800000E+00  1.60000000E+01  1.00800000E+00
  1.00800000E+00  1.60000000E+01  1.00800000E+00  1.00800000E+00  1.60000000E+01
  1.00800000E+00  1.00800000E+00  1.60000000E+01  1.00800000E+00  1.00800000E+00
  1.60000000E+01  1.00800000E+00  1.00800000E+00  1.60000000E+01  1.00800000E+00
  1.00800000E+00  1.60000000E+01  1.00800000E+00  1.00800000E+00  1.60000000E+01
  1.00800000E+00  1.00800000E+00  1.60000000E+01  1.00800000E+00  1.00800000E+00
  1.60000000E+01  1.00800000E+00  1.00800000E+00  1.60000000E+01  1.00800000E+00
  1.00800000E+00  1.60000000E+01  1.00800000E+00  1.00800000E+00  1.60000000E+01
  1.00800000E+00  1.00800000E+00  1.60000000E+01  1.00800000E+00  1.00800000E+00
  1.60000000E+01  1.00800000E+00  1.00800000E+00  1.60000000E+01  1.00800000E+00
  1.00800000E+00  1.60000000E+01  1.00800000E+00  1.00800000E+00  1.60000000E+01
  1.00800000E+00  1.00800000E+00  1.60000000E+01  1.00800000E+00  1.00800000E+00
  1.60000000E+01  1.00800000E+00  1.00800000E+00  1.60000000E+01  1.00800000E+00
  1.00800000E+00  1.60000000E+01  1.00800000E+00  1.00800000E+00  1.60000000E+01
  1.00800000E+00  1.00800000E+00  1.60000000E+01  1.00800000E+00  1.00800000E+00
  1.60000000E+01  1.00800000E+00  1.00800000E+00  1.60000000E+01  1.00800000E+00
  1.00800000E+00  1.60000000E+01  1.00800000E+00  1.00800000E+00  1.60000000E+01
  1.00800000E+00  1.00800000E+00  1.60000000E+01  1.00800000E+00  1.00800000E+00
  1.60000000E+01  1.00800000E+00  1.00800000E+00  1.60000000E+01  1.00800000E+00
  1.00800000E+00  1.60000000E+01  1.00800000E+00  1.00800000E+00  1.60000000E+01
  1.00800000E+00  1.00800000E+00  1.60000000E+01  1.00800000E+00  1.00800000E+00
  1.60000000E+01  1.00800000E+00  1.00800000E+00  1.60000000E+01  1.00800000E+00
  1.00800000E+00  1.60000000E+01  1.00800000E+00  1.00800000E+00  1.60000000E+01
  1.00800000E+00  1.00800000E+00  1.60000000E+01  1.00800000E+00  1.00800000E+00
  1.60000000E+01  1.00800000E+00  1.00800000E+00  1.60000000E+01  1.00800000E+00
  1.00800000E+00  1.60000000E+01  1.00800000E+00  1.00800000E+00  1.60000000E+01
  1.00800000E+00  1.00800000E+00  1.60000000E+01  1.00800000E+00  1.00800000E+00
  1.60000000E+01  1.00800000E+00  1.00800000E+00  1.60000000E+01  1.00800000E+00
  1.00800000E+00  1.60000000E+01  1.00800000E+00  1.00800000E+00  1.60000000E+01
  1.00800000E+00  1.00800000E+00  1.60000000E+01  1.00800000E+00  1.00800000E+00
  1.60000000E+01  1.00800000E+00  1.00800000E+00  1.60000000E+01  1.00800000E+00
  1.00800000E+00  1.60000000E+01  1.00800000E+00  1.00800000E+00  1.60000000E+01
  1.00800000E+00  1.00800000E+00  1.60000000E+01  1.00800000E+00  1.00800000E+00
  1.60000000E+01  1.00800000E+00  1.00800000E+00  1.60000000E+01  1.00800000E+00
  1.00800000E+00  1.60000000E+01  1.00800000E+00  1.00800000E+00  1.60000000E+01
  1.00800000E+00  1.00800000E+00  1.60000000E+01  1.00800000E+00  1.00800000E+00
  1.60000000E+01  1.00800000E+00  1.00800000E+00  1.60000000E+01  1.00800000E+00
  1.00800000E+00  1.60000000E+01  1.00800000E+00  1.00800000E+00  1.60000000E+01
  1.00800000E+00  1.00800000E+00  1.60000000E+01  1.00800000E+00  1.00800000E+00
  1.60000000E+01  1.00800000E+00  1.00800000E+00  1.60000000E+01  1.00800000E+00
  1.00800000E+00  1.60000000E+01  1.00800000E+00  1.00800000E+00  1.60000000E+01
  1.00800000E+00  1.00800000E+00  1.60000000E+01  1.00800000E+00  1.00800000E+00
  1.60000000E+01  1.00800000E+00  1.00800000E+00  1.60000000E+01  1.00800000E+00
  1.00800000E+00  1.60000000E+01  1.00800000E+00  1.00800000E+00  1.60000000E+01
  1.00800000E+00  1.00800000E+00  1.60000000E+01  1.00800000E+00  1.00800000E+00
  1.60000000E+01  1.00800000E+00  1.00800000E+00  1.60000000E+01  1.00800000E+00
  1.00800000E+00  1.60000000E+01  1.00800000E+00  1.00800000E+00  1.60000000E+01
  1.00800000E+00  1.00800000E+00  1.60000000E+01  1.00800000E+00  1.00800000E+00
  1.60000000E+01  1.00800000E+00  1.00800000E+00  1.60000000E+01  1.00800000E+00
  1.00800000E+00  1.60000000E+01  1.00800000E+00  1.00800000E+00  1.60000000E+01
  1.00800000E+00  1.00800000E+00  1.60000000E+01  1.00800000E+00  1.00800000E+00
  1.60000000E+01  1.00800000E+00  1.00800000E+00  1.60000000E+01  1.00800000E+00
  1.00800000E+00  1.60000000E+01  1.00800000E+00  1.00800000E+00  1.60000000E+01
  1.00800000E+00  1.00800000E+00  1.60000000E+01  1.00800000E+00  1.00800000E+00
  1.60000000E+01  1.00800000E+00  1.00800000E+00  1.60000000E+01  1.00800000E+00
  1.00800000E+00  1.60000000E+01  1.00800000E+00  1.00800000E+00  1.60000000E+01
  1.00800000E+00  1.00800000E+00  1.60000000E+01  1.00800000E+00  1.00800000E+00
  1.60000000E+01  1.00800000E+00  1.00800000E+00  1.60000000E+01  1.00800000E+00
  1.00800000E+00  1.60000000E+01  1.00800000E+00  1.00800000E+00  1.60000000E+01
  1.00800000E+00  1.00800000E+00  1.60000000E+01  1.00800000E+00  1.00800000E+00
  1.60000000E+01  1.00800000E+00  1.00800000E+00  1.60000000E+01  1.00800000E+00
  1.00800000E+00  1.60000000E+01  1.00800000E+00  1.00800000E+00  1.60000000E+01
  1.00800000E+00  1.00800000E+00  1.60000000E+01  1.00800000E+00  1.00800000E+00
  1.60000000E+01  1.00800000E+00  1.00800000E+00  1.60000000E+01  1.00800000E+00
  1.00800000E+00  1.60000000E+01  1.00800000E+00  1.00800000E+00  1.60000000E+01
  1.00800000E+00  1.00800000E+00  1.60000000E+01  1.00800000E+00  1.00800000E+00
  1.60000000E+01  1.00800000E+00  1.00800000E+00  1.60000000E+01  1.00800000E+00
  1.00800000E+00  1.60000000E+01  1.00800000E+00  1.00800000E+00  1.60000000E+01
  1.00800000E+00  1.00800000E+00  1.60000000E+01  1.00800000E+00  1.00800000E+00
  1.60000000E+01  1.00800000E+00  1.00800000E+00  1.60000000E+01  1.00800000E+00
  1.00800000E+00  1.60000000E+01  1.00800000E+00  1.00800000E+00  1.60000000E+01
  1.00800000E+00  1.00800000E+00  1.60000000E+01  1.00800000E+00  1.00800000E+00
  1.60000000E+01  1.00800000E+00  1.00800000E+00  1.60000000E+01  1.00800000E+00
  1.00800000E+00  1.60000000E+01  1.00800000E+00  1.00800000E+00  1.60000000E+01
  1.00800000E+00  1.00800000E+00  1.60000000E+01  1.00800000E+00  1.00800000E+00
  1.60000000E+01  1.00800000E+00  1.00800000E+00  1.60000000E+01  1.00800000E+00
  1.00800000E+00  1.60000000E+01  1.00800000E+00  1.00800000E+00  1.60000000E+01
  1.00800000E+00  1.00800000E+00  1.60000000E+01  1.00800000E+00  1.00800000E+00
  1.60000000E+01  1.00800000E+00  1.00800000E+00  1.60000000E+01  1.00800000E+00
  1.00800000E+00  1.60000000E+01  1.00800000E+00  1.00800000E+00  1.60000000E+01
  1.00800000E+00  1.00800000E+00  1.60000000E+01  1.00800000E+00  1.00800000E+00
  1.60000000E+01  1.00800000E+00  1.00800000E+00  1.60000000E+01  1.00800000E+00
  1.00800000E+00  1.60000000E+01  1.00800000E+00  1.00800000E+00  1.60000000E+01
  1.00800000E+00  1.00800000E+00  1.60000000E+01  1.00800000E+00  1.00800000E+00
  1.60000000E+01  1.00800000E+00  1.00800000E+00  1.60000000E+01  1.00800000E+00
  1.00800000E+00  1.60000000E+01  1.00800000E+00  1.00800000E+00  1.60000000E+01
  1.00800000E+00  1.00800000E+00  1.60000000E+01  1.00800000E+00  1.00800000E+00
  1.60000000E+01  1.00800000E+00  1.00800000E+00  1.60000000E+01  1.00800000E+00
  1.00800000E+00  1.60000000E+01  1.00800000E+00  1.00800000E+00  1.60000000E+01
  1.00800000E+00  1.00800000E+00  1.60000000E+01  1.00800000E+00  1.00800000E+00
  1.60000000E+01  1.00800000E+00  1.00800000E+00  1.60000000E+01  1.00800000E+00
  1.00800000E+00  1.60000000E+01  1.00800000E+00  1.00800000E+00  1.60000000E+01
  1.00800000E+00  1.00800000E+00  1.60000000E+01  1.00800000E+00  1.00800000E+00
  1.60000000E+01  1.00800000E+00  1.00800000E+00  1.60000000E+01  1.00800000E+00
  1.00800000E+00  1.60000000E+01  1.00800000E+00  1.00800000E+00  1.60000000E+01
  1.00800000E+00  1.00800000E+00  1.60000000E+01  1.00800000E+00  1.00800000E+00
  1.60000000E+01  1.00800000E+00  1.00800000E+00  1.60000000E+01  1.00800000E+00
  1.00800000E+00  1.60000000E+01  1.00800000E+00  1.00800000E+00  1.60000000E+01
  1.00800000E+00  1.00800000E+00  1.60000000E+01  1.00800000E+00  1.00800000E+00
  1.60000000E+01  1.00800000E+00  1.00800000E+00  1.60000000E+01  1.00800000E+00
  1.00800000E+00  1.60000000E+01  1.00800000E+00  1.00800000E+00  1.60000000E+01
  1.00800000E+00  1.00800000E+00  1.60000000E+01  1.00800000E+00  1.00800000E+00
  1.60000000E+01  1.00800000E+00  1.00800000E+00  1.60000000E+01  1.00800000E+00
  1.00800000E+00  1.60000000E+01  1.00800000E+00  1.00800000E+00  1.60000000E+01
  1.00800000E+00  1.00800000E+00  1.60000000E+01  1.00800000E+00  1.00800000E+00
  1.60000000E+01  1.00800000E+00  1.00800000E+00  1.60000000E+01  1.00800000E+00
  1.00800000E+00  1.60000000E+01  1.00800000E+00  1.00800000E+00  1.60000000E+01
  1.00800000E+00  1.00800000E+00  1.60000000E+01  1.00800000E+00  1.00800000E+00
  1.60000000E+01  1.00800000E+00  1.00800000E+00  1.60000000E+01  1.00800000E+00
  1.00800000E+00  1.60000000E+01  1.00800000E+00  1.00800000E+00  1.60000000E+01
  1.00800000E+00  1.00800000E+00  1.60000000E+01  1.00800000E+00  1.00800000E+00
  1.60000000E+01  1.00800000E+00  1.00800000E+00  1.60000000E+01  1.00800000E+00
  1.00800000E+00  1.60000000E+01  1.00800000E+00  1.00800000E+00  1.60000000E+01
  1.00800000E+00  1.00800000E+00  1.60000000E+01  1.00800000E+00  1.00800000E+00
  1.60000000E+01  1.00800000E+00  1.00800000E+00  1.60000000E+01  1.00800000E+00
  1.00800000E+00  1.60000000E+01  1.00800000E+00  1.00800000E+00  1.60000000E+01
  1.00800000E+00  1.00800000E+00  1.60000000E+01  1.00800000E+00  1.00800000E+00
  1.60000000E+01  1.00800000E+00  1.00800000E+00  1.60000000E+01  1.00800000E+00
  1.00800000E+00  1.60000000E+01  1.00800000E+00  1.00800000E+00  1.60000000E+01
  1.00800000E+00  1.00800000E+00  1.60000000E+01  1.00800000E+00  1.00800000E+00
  1.60000000E+01  1.00800000E+00  1.00800000E+00  1.60000000E+01  1.00800000E+00
  1.00800000E+00  1.60000000E+01  1.00800000E+00  1.00800000E+00  1.60000000E+01
  1.00800000E+00  1.00800000E+00  1.60000000E+01  1.00800000E+00  1.00800000E+00
  1.60000000E+01  1.00800000E+00  1.00800000E+00  1.60000000E+01  1.00800000E+00
  1.00800000E+00  1.60000000E+01  1.00800000E+00  1.00800000E+00  1.60000000E+01
  1.00800000E+00  1.00800000E+00  1.60000000E+01  1.00800000E+00  1.00800000E+00
  1.60000000E+01  1.00800000E+00  1.00800000E+00  1.60000000E+01  1.00800000E+00
  1.00800000E+00  1.60000000E+01  1.00800000E+00  1.00800000E+00  1.60000000E+01
  1.00800000E+00  1.00800000E+00  1.60000000E+01  1.00800000E+00  1.00800000E+00
  1.60000000E+01  1.00800000E+00  1.00800000E+00  1.60000000E+01  1.00800000E+00
  1.00800000E+00  1.60000000E+01  1.00800000E+00  1.00800000E+00  1.60000000E+01
  1.00800000E+00  1.00800000E+00  1.60000000E+01  1.00800000E+00  1.00800000E+00
  1.60000000E+01  1.00800000E+00  1.00800000E+00  1.60000000E+01  1.00800000E+00
  1.00800000E+00  1.60000000E+01  1.00800000E+00  1.00800000E+00  1.60000000E+01
  1.00800000E+00  1.00800000E+00  1.60000000E+01  1.00800000E+00  1.00800000E+00
  1.60000000E+01  1.00800000E+00  1.00800000E+00  1.60000000E+01  1.00800000E+00
  1.00800000E+00  1.60000000E+01  1.00800000E+00  1.00800000E+00  1.60000000E+01
  1.00800000E+00  1.00800000E+00  1.60000000E+01  1.00800000E+00  1.00800000E+00
  1.60000000E+01  1.00800000E+00  1.00800000E+00  1.60000000E+01  1.00800000E+00
  1.00800000E+00  1.60000000E+01  1.00800000E+00  1.00800000E+00  1.60000000E+01
  1.00800000E+00  1.00800000E+00  1.60000000E+01  1.00800000E+00  1.00800000E+00
  1.60000000E+01  1.00800000E+00  1.00800000E+00  1.60000000E+01  1.00800000E+00
  1.00800000E+00  1.60000000E+01  1.00800000E+00  1.00800000E+00  1.60000000E+01
  1.00800000E+00  1.00800000E+00  1.60000000E+01  1.00800000E+00  1.00800000E+00
  1.60000000E+01  1.00800000E+00  1.00800000E+00  1.60000000E+01  1.00800000E+00
  1.00800000E+00  1.60000000E+01  1.00800000E+00  1.00800000E+00  1.60000000E+01
  1.00800000E+00  1.00800000E+00  1.60000000E+01  1.00800000E+00  1.00800000E+00
  1.60000000E+01  1.00800000E+00  1.00800000E+00  1.60000000E+01  1.00800000E+00
  1.00800000E+00  1.60000000E+01  1.00800000E+00  1.00800000E+00  1.60000000E+01
  1.00800000E+00  1.00800000E+00  1.60000000E+01  1.00800000E+00  1.00800000E+00
  1.60000000E+01  1.00800000E+00  1.00800000E+00  1.60000000E+01  1.00800000E+00
  1.00800000E+00  1.60000000E+01  1.00800000E+00  1.00800000E+00  1.60000000E+01
  1.00800000E+00  1.00800000E+00  1.60000000E+01  1.00800000E+00  1.00800000E+00
  1.60000000E+01  1.00800000E+00  1.00800000E+00  1.60000000E+01  1.00800000E+00
  1.00800000E+00  1.60000000E+01  1.00800000E+00  1.00800000E+00  1.60000000E+01
  1.00800000E+00  1.00800000E+00  1.60000000E+01  1.00800000E+00  1.00800000E+00
  1.60000000E+01  1.00800000E+00  1.00800000E+00  1.60000000E+01  1.00800000E+00
  1.00800000E+00  1.60000000E+01  1.00800000E+00  1.00800000E+00  1.60000000E+01
  1.00800000E+00  1.00800000E+00  1.60000000E+01  1.00800000E+00  1.00800000E+00
  1.60000000E+01  1.00800000E+00  1.00800000E+00  1.60000000E+01  1.00800000E+00
  1.00800000E+00  1.60000000E+01  1.00800000E+00  1.00800000E+00  1.60000000E+01
  1.00800000E+00  1.00800000E+00  1.60000000E+01  1.00800000E+00  1.00800000E+00
  1.60000000E+01  1.00800000E+00  1.00800000E+00  1.60000000E+01  1.00800000E+00
  1.00800000E+00  1.60000000E+01  1.00800000E+00  1.00800000E+00  1.60000000E+01
  1.00800000E+00  1.00800000E+00  1.60000000E+01  1.00800000E+00  1.00800000E+00
  1.60000000E+01  1.00800000E+00  1.00800000E+00  1.60000000E+01  1.00800000E+00
  1.00800000E+00  1.60000000E+01  1.00800000E+00  1.00800000E+00  1.60000000E+01
  1.00800000E+00  1.00800000E+00  1.60000000E+01  1.00800000E+00  1.00800000E+00
  1.60000000E+01  1.00800000E+00  1.00800000E+00  1.60000000E+01  1.00800000E+00
  1.00800000E+00  1.60000000E+01  1.00800000E+00  1.00800000E+00  1.60000000E+01
  1.00800000E+00  1.00800000E+00  1.60000000E+01  1.00800000E+00  1.00800000E+00
  1.60000000E+01  1.00800000E+00  1.00800000E+00  1.60000000E+01  1.00800000E+00
  1.00800000E+00  1.60000000E+01  1.00800000E+00  1.00800000E+00  1.60000000E+01
  1.00800000E+00  1.00800000E+00  1.60000000E+01  1.00800000E+00  1.00800000E+00
  1.60000000E+01  1.00800000E+00  1.00800000E+00  1.60000000E+01  1.00800000E+00
  1.00800000E+00  1.60000000E+01  1.00800000E+00  1.00800000E+00  1.60000000E+01
  1.00800000E+00  1.00800000E+00  1.60000000E+01  1.00800000E+00  1.00800000E+00
  1.60000000E+01  1.00800000E+00  1.00800000E+00  1.60000000E+01  1.00800000E+00
  1.00800000E+00  1.60000000E+01  1.00800000E+00  1.00800000E+00  1.60000000E+01
  1.00800000E+00  1.00800000E+00  1.60000000E+01  1.00800000E+00  1.00800000E+00
  1.60000000E+01  1.00800000E+00  1.00800000E+00  1.60000000E+01  1.00800000E+00
  1.00800000E+00  1.60000000E+01  1.00800000E+00  1.00800000E+00  1.60000000E+01
  1.00800000E+00  1.00800000E+00  1.60000000E+01  1.00800000E+00  1.00800000E+00
  1.60000000E+01  1.00800000E+00  1.00800000E+00  1.60000000E+01  1.00800000E+00
  1.00800000E+00  1.60000000E+01  1.00800000E+00  1.00800000E+00  1.60000000E+01
  1.00800000E+00  1.00800000E+00  1.60000000E+01  1.00800000E+00  1.00800000E+00
  1.60000000E+01  1.00800000E+00  1.00800000E+00  1.60000000E+01  1.00800000E+00
  1.00800000E+00  1.60000000E+01  1.00800000E+00  1.00800000E+00  1.60000000E+01
  1.00800000E+00  1.00800000E+00  1.60000000E+01  1.00800000E+00  1.00800000E+00
  1.60000000E+01  1.00800000E+00  1.00800000E+00  1.60000000E+01  1.00800000E+00
  1.00800000E+00  1.60000000E+01  1.00800000E+00  1.00800000E+00  1.60000000E+01
  1.00800000E+00  1.00800000E+00  1.60000000E+01  1.00800000E+00  1.00800000E+00
  1.60000000E+01  1.00800000E+00  1.00800000E+00  1.60000000E+01  1.00800000E+00
  1.00800000E+00  1.60000000E+01  1.00800000E+00  1.00800000E+00  1.60000000E+01
  1.00800000E+00  1.00800000E+00  1.60000000E+01  1.00800000E+00  1.00800000E+00
  1.60000000E+01  1.00800000E+00  1.00800000E+00  1.60000000E+01  1.00800000E+00
  1.00800000E+00  1.60000000E+01  1.00800000E+00  1.00800000E+00  1.60000000E+01
  1.00800000E+00  1.00800000E+00  1.60000000E+01  1.00800000E+00  1.00800000E+00
  1.60000000E+01  1.00800000E+00  1.00800000E+00  1.60000000E+01  1.00800000E+00
  1.00800000E+00  1.60000000E+01  1.00800000E+00  1.00800000E+00  1.60000000E+01
  1.00800000E+00  1.00800000E+00  1.60000000E+01  1.00800000E+00  1.00800000E+00
  1.60000000E+01  1.00800000E+00  1.00800000E+00  1.60000000E+01  1.00800000E+00
  1.00800000E+00  1.60000000E+01  1.00800000E+00  1.00800000E+00  1.60000000E+01
  1.00800000E+00  1.00800000E+00  1.60000000E+01  1.00800000E+00  1.00800000E+00
  1.60000000E+01  1.00800000E+00  1.00800000E+00  1.60000000E+01  1.00800000E+00
  1.00800000E+00  1.60000000E+01  1.00800000E+00  1.00800000E+00  1.60000000E+01
  1.00800000E+00  1.00800000E+00  1.60000000E+01  1.00800000E+00  1.00800000E+00
  1.60000000E+01  1.00800000E+00  1.00800000E+00  1.60000000E+01  1.00800000E+00
  1.00800000E+00  1.60000000E+01  1.00800000E+00  1.00800000E+00  1.60000000E+01
  1.00800000E+00  1.00800000E+00  1.60000000E+01  1.00800000E+00  1.00800000E+00
  1.60000000E+01  1.00800000E+00  1.00800000E+00  1.60000000E+01  1.00800000E+00
  1.00800000E+00  1.60000000E+01  1.00800000E+00  1.00800000E+00  1.60000000E+01
  1.00800000E+00  1.00800000E+00  1.60000000E+01  1.00800000E+00  1.00800000E+00
  1.60000000E+01  1.00800000E+00  1.00800000E+00  1.60000000E+01  1.00800000E+00
  1.00800000E+00  1.60000000E+01  1.00800000E+00  1.00800000E+00  1.60000000E+01
  1.00800000E+00  1.00800000E+00  1.60000000E+01  1.00800000E+00  1.00800000E+00
  1.60000000E+01  1.00800000E+00  1.00800000E+00  1.60000000E+01  1.00800000E+00
  1.00800000E+00  1.60000000E+01  1.00800000E+00  1.00800000E+00  1.60000000E+01
  1.00800000E+00  1.00800000E+00  1.60000000E+01  1.00800000E+00  1.00800000E+00
  1.60000000E+01  1.00800000E+00  1.00800000E+00  1.60000000E+01  1.00800000E+00
  1.00800000E+00  1.60000000E+01  1.00800000E+00  1.00800000E+00  1.60000000E+01
  1.00800000E+00  1.00800000E+00  1.60000000E+01  1.00800000E+00  1.00800000E+00
  1.60000000E+01  1.00800000E+00  1.00800000E+00  1.60000000E+01  1.00800000E+00
  1.00800000E+00  1.60000000E+01  1.00800000E+00  1.00800000E+00  1.60000000E+01
  1.00800000E+00  1.00800000E+00  1.60000000E+01  1.00800000E+00  1.00800000E+00
  1.60000000E+01  1.00800000E+00  1.00800000E+00  1.60000000E+01  1.00800000E+00
  1.00800000E+00  1.60000000E+01  1.00800000E+00  1.00800000E+00  1.60000000E+01
  1.00800000E+00  1.00800000E+00  1.60000000E+01  1.00800000E+00  1.00800000E+00
  1.60000000E+01  1.00800000E+00  1.00800000E+00  1.60000000E+01  1.00800000E+00
  1.00800000E+00  1.60000000E+01  1.00800000E+00  1.00800000E+00  1.60000000E+01
  1.00800000E+00  1.00800000E+00  1.60000000E+01  1.00800000E+00  1.00800000E+00
  1.60000000E+01  1.00800000E+00  1.00800000E+00  1.60000000E+01  1.00800000E+00
  1.00800000E+00  1.60000000E+01  1.00800000E+00  1.00800000E+00  1.60000000E+01
  1.00800000E+00  1.00800000E+00  1.60000000E+01  1.00800000E+00  1.00800000E+00
  1.60000000E+01  1.00800000E+00  1.00800000E+00  1.60000000E+01  1.00800000E+00
  1.00800000E+00  1.60000000E+01  1.00800000E+00  1.00800000E+00  1.60000000E+01
  1.00800000E+00  1.00800000E+00  1.60000000E+01  1.00800000E+00  1.00800000E+00
  1.60000000E+01  1.00800000E+00  1.00800000E+00  1.60000000E+01  1.00800000E+00
  1.00800000E+00  1.60000000E+01  1.00800000E+00  1.00800000E+00  1.60000000E+01
  1.00800000E+00  1.00800000E+00  1.60000000E+01  1.00800000E+00  1.00800000E+00
  1.60000000E+01  1.00800000E+00  1.00800000E+00  1.60000000E+01  1.00800000E+00
  1.00800000E+00  1.60000000E+01  1.00800000E+00  1.00800000E+00  1.60000000E+01
  1.00800000E+00  1.00800000E+00  1.60000000E+01  1.00800000E+00  1.00800000E+00
  1.60000000E+01  1.00800000E+00  1.00800000E+00  1.60000000E+01  1.00800000E+00
  1.00800000E+00  1.60000000E+01  1.00800000E+00  1.00800000E+00  1.60000000E+01
  1.00800000E+00  1.00800000E+00  1.60000000E+01  1.00800000E+00  1.00800000E+00
  1.60000000E+01  1.00800000E+00  1.00800000E+00  1.60000000E+01  1.00800000E+00
  1.00800000E+00  1.60000000E+01  1.00800000E+00  1.00800000E+00  1.60000000E+01
  1.00800000E+00  1.00800000E+00  1.60000000E+01  1.00800000E+00  1.00800000E+00
  1.60000000E+01  1.00800000E+00  1.00800000E+00  1.60000000E+01  1.00800000E+00
  1.00800000E+00  1.60000000E+01  1.00800000E+00  1.00800000E+00  1.60000000E+01
  1.00800000E+00  1.00800000E+00  1.60000000E+01  1.00800000E+00  1.00800000E+00
  1.60000000E+01  1.00800000E+00  1.00800000E+00  1.60000000E+01  1.00800000E+00
  1.00800000E+00  1.60000000E+01  1.00800000E+00  1.00800000E+00  1.60000000E+01
  1.00800000E+00  1.00800000E+00  1.60000000E+01  1.00800000E+00  1.00800000E+00
  1.60000000E+01  1.00800000E+00  1.00800000E+00  1.60000000E+01  1.00800000E+00
  1.00800000E+00  1.60000000E+01  1.00800000E+00  1.00800000E+00  1.60000000E+01
  1.00800000E+00  1.00800000E+00  1.60000000E+01  1.00800000E+00  1.00800000E+00
  1.60000000E+01  1.00800000E+00  1.00800000E+00  1.60000000E+01  1.00800000E+00
  1.00800000E+00  1.60000000E+01  1.00800000E+00  1.00800000E+00  1.60000000E+01
  1.00800000E+00  1.00800000E+00  1.60000000E+01  1.00800000E+00  1.00800000E+00
  1.60000000E+01  1.00800000E+00  1.00800000E+00  1.60000000E+01  1.00800000E+00
  1.00800000E+00  1.60000000E+01  1.00800000E+00  1.00800000E+00  1.60000000E+01
  1.00800000E+00  1.00800000E+00  1.60000000E+01  1.00800000E+00  1.00800000E+00
  1.60000000E+01  1.00800000E+00  1.00800000E+00  1.60000000E+01  1.00800000E+00
  1.00800000E+00  1.60000000E+01  1.00800000E+00  1.00800000E+00  1.60000000E+01
  1.00800000E+00  1.00800000E+00  1.60000000E+01  1.00800000E+00  1.00800000E+00
  1.60000000E+01  1.00800000E+00  1.00800000E+00  1.60000000E+01  1.00800000E+00
  1.00800000E+00  1.60000000E+01  1.00800000E+00  1.00800000E+00  1.60000000E+01
  1.00800000E+00  1.00800000E+00  1.60000000E+01  1.00800000E+00  1.00800000E+00
  1.60000000E+01  1.00800000E+00  1.00800000E+00  1.60000000E+01  1.00800000E+00
  1.00800000E+00  1.60000000E+01  1.00800000E+00  1.00800000E+00  1.60000000E+01
  1.00800000E+00  1.00800000E+00  1.60000000E+01  1.00800000E+00  1.00800000E+00
  1.60000000E+01  1.00800000E+00  1.00800000E+00  1.60000000E+01  1.00800000E+00
  1.00800000E+00  1.60000000E+01  1.00800000E+00  1.00800000E+00  1.60000000E+01
  1.00800000E+00  1.00800000E+00  1.60000000E+01  1.00800000E+00  1.00800000E+00
  1.60000000E+01  1.00800000E+00  1.00800000E+00  1.60000000E+01  1.00800000E+00
  1.00800000E+00  1.60000000E+01  1.00800000E+00  1.00800000E+00  1.60000000E+01
  1.00800000E+00  1.00800000E+00  1.60000000E+01  1.00800000E+00  1.00800000E+00
  1.60000000E+01  1.00800000E+00  1.00800000E+00  1.60000000E+01  1.00800000E+00
  1.00800000E+00  1.60000000E+01  1.00800000E+00  1.00800000E+00  1.60000000E+01
  1.00800000E+00  1.00800000E+00  1.60000000E+01  1.00800000E+00  1.00800000E+00
  1.60000000E+01  1.00800000E+00  1.00800000E+00  1.60000000E+01  1.00800000E+00
  1.00800000E+00  1.60000000E+01  1.00800000E+00  1.00800000E+00  1.60000000E+01
  1.00800000E+00  1.00800000E+00  1.60000000E+01  1.00800000E+00  1.00800000E+00
  1.60000000E+01  1.00800000E+00  1.00800000E+00  1.60000000E+01  1.00800000E+00
  1.00800000E+00  1.60000000E+01  1.00800000E+00  1.00800000E+00  1.60000000E+01
  1.00800000E+00  1.00800000E+00  1.60000000E+01  1.00800000E+00  1.00800000E+00
  1.60000000E+01  1.00800000E+00  1.00800000E+00  1.60000000E+01  1.00800000E+00
  1.00800000E+00  1.60000000E+01  1.00800000E+00  1.00800000E+00  1.60000000E+01
  1.00800000E+00  1.00800000E+00  1.60000000E+01  1.00800000E+00  1.00800000E+00
  1.60000000E+01  1.00800000E+00  1.00800000E+00  1.60000000E+01  1.00800000E+00
  1.00800000E+00  1.60000000E+01  1.00800000E+00  1.00800000E+00  1.60000000E+01
  1.00800000E+00  1.00800000E+00  1.60000000E+01  1.00800000E+00  1.00800000E+00
  1.60000000E+01  1.00800000E+00  1.00800000E+00  1.60000000E+01  1.00800000E+00
  1.00800000E+00  1.60000000E+01  1.00800000E+00  1.00800000E+00  1.60000000E+01
  1.00800000E+00  1.00800000E+00  1.60000000E+01  1.00800000E+00  1.00800000E+00
  1.60000000E+01  1.00800000E+00  1.00800000E+00  1.60000000E+01  1.00800000E+00
  1.00800000E+00  1.60000000E+01  1.00800000E+00  1.00800000E+00  1.60000000E+01
  1.00800000E+00  1.00800000E+00  1.60000000E+01  1.00800000E+00  1.00800000E+00
  1.60000000E+01  1.00800000E+00  1.00800000E+00  1.60000000E+01  1.00800000E+00
  1.00800000E+00  1.60000000E+01  1.00800000E+00  1.00800000E+00  1.60000000E+01
  1.00800000E+00  1.00800000E+00  1.60000000E+01  1.00800000E+00  1.00800000E+00
  1.60000000E+01  1.00800000E+00  1.00800000E+00  1.60000000E+01  1.00800000E+00
  1.00800000E+00  1.60000000E+01  1.00800000E+00  1.00800000E+00  1.60000000E+01
  1.00800000E+00  1.00800000E+00  1.60000000E+01  1.00800000E+00  1.00800000E+00
  1.60000000E+01  1.00800000E+00  1.00800000E+00  1.60000000E+01  1.00800000E+00
  1.00800000E+00  1.60000000E+01  1.00800000E+00  1.00800000E+00  1.60000000E+01
  1.00800000E+00  1.00800000E+00  1.60000000E+01  1.00800000E+00  1.00800000E+00
  1.60000000E+01  1.00800000E+00  1.00800000E+00  1.60000000E+01  1.00800000E+00
  1.00800000E+00  1.60000000E+01  1.00800000E+00  1.00800000E+00  1.60000000E+01
  1.00800000E+00  1.00800000E+00  1.60000000E+01  1.00800000E+00  1.00800000E+00
  1.60000000E+01  1.00800000E+00  1.00800000E+00  1.60000000E+01  1.00800000E+00
  1.00800000E+00  1.60000000E+01  1.00800000E+00  1.00800000E+00  1.60000000E+01
  1.00800000E+00  1.00800000E+00  1.60000000E+01  1.00800000E+00  1.00800000E+00
  1.60000000E+01  1.00800000E+00  1.00800000E+00  1.60000000E+01  1.00800000E+00
  1.00800000E+00  1.60000000E+01  1.00800000E+00  1.00800000E+00  1.60000000E+01
  1.00800000E+00  1.00800000E+00  1.60000000E+01  1.00800000E+00  1.00800000E+00
  1.60000000E+01  1.00800000E+00  1.00800000E+00  1.60000000E+01  1.00800000E+00
  1.00800000E+00  1.60000000E+01  1.00800000E+00  1.00800000E+00  1.60000000E+01
  1.00800000E+00  1.00800000E+00  1.60000000E+01  1.00800000E+00  1.00800000E+00
  1.60000000E+01  1.00800000E+00  1.00800000E+00  1.60000000E+01  1.00800000E+00
  1.00800000E+00  1.60000000E+01  1.00800000E+00  1.00800000E+00  1.60000000E+01
  1.00800000E+00  1.00800000E+00  1.60000000E+01  1.00800000E+00  1.00800000E+00
  1.60000000E+01  1.00800000E+00  1.00800000E+00  1.60000000E+01  1.00800000E+00
  1.00800000E+00  1.60000000E+01  1.00800000E+00  1.00800000E+00  1.60000000E+01
  1.00800000E+00  1.00800000E+00  1.60000000E+01  1.00800000E+00  1.00800000E+00
  1.60000000E+01  1.00800000E+00  1.00800000E+00  1.60000000E+01  1.00800000E+00
  1.00800000E+00  1.60000000E+01  1.00800000E+00  1.00800000E+00  1.60000000E+01
  1.00800000E+00  1.00800000E+00  1.60000000E+01  1.00800000E+00  1.00800000E+00
  1.60000000E+01  1.00800000E+00  1.00800000E+00  1.60000000E+01  1.00800000E+00
  1.00800000E+00  1.60000000E+01  1.00800000E+00  1.00800000E+00  1.60000000E+01
  1.00800000E+00  1.00800000E+00  1.60000000E+01  1.00800000E+00  1.00800000E+00
  1.60000000E+01  1.00800000E+00  1.00800000E+00  1.60000000E+01  1.00800000E+00
  1.00800000E+00  1.60000000E+01  1.00800000E+00  1.00800000E+00  1.60000000E+01
  1.00800000E+00  1.00800000E+00  1.60000000E+01  1.00800000E+00  1.00800000E+00
  1.60000000E+01  1.00800000E+00  1.00800000E+00  1.60000000E+01  1.00800000E+00
  1.00800000E+00  1.60000000E+01  1.00800000E+00  1.00800000E+00  1.60000000E+01
  1.00800000E+00  1.00800000E+00  1.60000000E+01  1.00800000E+00  1.00800000E+00
  1.60000000E+01  1.00800000E+00  1.00800000E+00  1.60000000E+01  1.00800000E+00
  1.00800000E+00  1.60000000E+01  1.00800000E+00  1.00800000E+00  1.60000000E+01
  1.00800000E+00  1.00800000E+00  1.60000000E+01  1.00800000E+00  1.00800000E+00
  1.60000000E+01  1.00800000E+00  1.00800000E+00  1.60000000E+01  1.00800000E+00
  1.00800000E+00  1.60000000E+01  1.00800000E+00  1.00800000E+00  1.60000000E+01
  1.00800000E+00  1.00800000E+00  1.60000000E+01  1.00800000E+00  1.00800000E+00
  1.60000000E+01  1.00800000E+00  1.00800000E+00  1.60000000E+01  1.00800000E+00
  1.00800000E+00  1.60000000E+01  1.00800000E+00  1.00800000E+00  1.60000000E+01
  1.00800000E+00  1.00800000E+00  1.60000000E+01  1.00800000E+00  1.00800000E+00
  1.60000000E+01  1.00800000E+00  1.00800000E+00  1.60000000E+01  1.00800000E+00
  1.00800000E+00  1.60000000E+01  1.00800000E+00  1.00800000E+00  1.60000000E+01
  1.00800000E+00  1.00800000E+00  1.60000000E+01  1.00800000E+00  1.00800000E+00
  1.60000000E+01  1.00800000E+00  1.00800000E+00  1.60000000E+01  1.00800000E+00
  1.00800000E+00  1.60000000E+01  1.00800000E+00  1.00800000E+00  1.60000000E+01
  1.00800000E+00  1.00800000E+00  1.60000000E+01  1.00800000E+00  1.00800000E+00
  1.60000000E+01  1.00800000E+00  1.00800000E+00  1.60000000E+01  1.00800000E+00
  1.00800000E+00  1.60000000E+01  1.00800000E+00  1.00800000E+00  1.60000000E+01
  1.00800000E+00  1.00800000E+00  1.60000000E+01  1.00800000E+00  1.00800000E+00
  1.60000000E+01  1.00800000E+00  1.00800000E+00  1.60000000E+01  1.00800000E+00
  1.00800000E+00  1.60000000E+01  1.00800000E+00  1.00800000E+00  1.60000000E+01
  1.00800000E+00  1.00800000E+00  1.60000000E+01  1.00800000E+00  1.00800000E+00
  1.60000000E+01  1.00800000E+00  1.00800000E+00  1.60000000E+01  1.00800000E+00
  1.00800000E+00  1.60000000E+01  1.00800000E+00  1.00800000E+00  1.60000000E+01
  1.00800000E+00  1.00800000E+00  1.60000000E+01  1.00800000E+00  1.00800000E+00
  1.60000000E+01  1.00800000E+00  1.00800000E+00  1.60000000E+01  1.00800000E+00
  1.00800000E+00  1.60000000E+01  1.00800000E+00  1.00800000E+00  1.60000000E+01
  1.00800000E+00  1.00800000E+00  1.60000000E+01  1.00800000E+00  1.00800000E+00
  1.60000000E+01  1.00800000E+00  1.00800000E+00  1.60000000E+01  1.00800000E+00
  1.00800000E+00  1.60000000E+01  1.00800000E+00  1.00800000E+00  1.60000000E+01
  1.00800000E+00  1.00800000E+00  1.60000000E+01  1.00800000E+00  1.00800000E+00
  1.60000000E+01  1.00800000E+00  1.00800000E+00  1.60000000E+01  1.00800000E+00
  1.00800000E+00  1.60000000E+01  1.00800000E+00  1.00800000E+00  1.60000000E+01
  1.00800000E+00  1.00800000E+00  1.60000000E+01  1.00800000E+00  1.00800000E+00
  1.60000000E+01  1.00800000E+00  1.00800000E+00  1.60000000E+01  1.00800000E+00
  1.00800000E+00  1.60000000E+01  1.00800000E+00  1.00800000E+00  1.60000000E+01
  1.00800000E+00  1.00800000E+00  1.60000000E+01  1.00800000E+00  1.00800000E+00
  1.60000000E+01  1.00800000E+00  1.00800000E+00  1.60000000E+01  1.00800000E+00
  1.00800000E+00  1.60000000E+01  1.00800000E+00  1.00800000E+00  1.60000000E+01
  1.00800000E+00  1.00800000E+00  1.60000000E+01  1.00800000E+00  1.00800000E+00
  1.60000000E+01  1.00800000E+00  1.00800000E+00  1.60000000E+01  1.00800000E+00
  1.00800000E+00  1.60000000E+01  1.00800000E+00  1.00800000E+00  1.60000000E+01
  1.00800000E+00  1.00800000E+00  1.60000000E+01  1.00800000E+00  1.00800000E+00
  1.60000000E+01  1.00800000E+00  1.00800000E+00  1.60000000E+01  1.00800000E+00
  1.00800000E+00  1.60000000E+01  1.00800000E+00  1.00800000E+00  1.60000000E+01
  1.00800000E+00  1.00800000E+00  1.60000000E+01  1.00800000E+00  1.00800000E+00
  1.60000000E+01  1.00800000E+00  1.00800000E+00  1.60000000E+01  1.00800000E+00
  1.00800000E+00  1.60000000E+01  1.00800000E+00  1.00800000E+00  1.60000000E+01
  1.00800000E+00  1.00800000E+00  1.60000000E+01  1.00800000E+00  1.00800000E+00
  1.60000000E+01  1.00800000E+00  1.00800000E+00  1.60000000E+01  1.00800000E+00
  1.00800000E+00  1.60000000E+01  1.00800000E+00  1.00800000E+00  1.60000000E+01
  1.00800000E+00  1.00800000E+00  1.60000000E+01  1.00800000E+00  1.00800000E+00
  1.60000000E+01  1.00800000E+00  1.00800000E+00  1.60000000E+01  1.00800000E+00
  1.00800000E+00  1.60000000E+01  1.00800000E+00  1.00800000E+00  1.60000000E+01
  1.00800000E+00  1.00800000E+00  1.60000000E+01  1.00800000E+00  1.00800000E+00
  1.60000000E+01  1.00800000E+00  1.00800000E+00  1.60000000E+01  1.00800000E+00
  1.00800000E+00  1.60000000E+01  1.00800000E+00  1.00800000E+00  1.60000000E+01
  1.00800000E+00  1.00800000E+00  1.60000000E+01  1.00800000E+00  1.00800000E+00
  1.60000000E+01  1.00800000E+00  1.00800000E+00  1.60000000E+01  1.00800000E+00
  1.00800000E+00  1.60000000E+01  1.00800000E+00  1.00800000E+00  1.60000000E+01
  1.00800000E+00  1.00800000E+00  1.60000000E+01  1.00800000E+00  1.00800000E+00
  1.60000000E+01  1.00800000E+00  1.00800000E+00  1.60000000E+01  1.00800000E+00
  1.00800000E+00  1.60000000E+01  1.00800000E+00  1.00800000E+00  1.60000000E+01
  1.00800000E+00  1.00800000E+00  1.60000000E+01  1.00800000E+00  1.00800000E+00
  1.60000000E+01  1.00800000E+00  1.00800000E+00  1.60000000E+01  1.00800000E+00
  1.00800000E+00  1.60000000E+01  1.00800000E+00  1.00800000E+00  1.60000000E+01
  1.00800000E+00  1.00800000E+00  1.60000000E+01  1.00800000E+00  1.00800000E+00
  1.60000000E+01  1.00800000E+00  1.00800000E+00  1.60000000E+01  1.00800000E+00
  1.00800000E+00  1.60000000E+01  1.00800000E+00  1.00800000E+00  1.60000000E+01
  1.00800000E+00  1.00800000E+00  1.60000000E+01  1.00800000E+00  1.00800000E+00
  1.60000000E+01  1.00800000E+00  1.00800000E+00  1.60000000E+01  1.00800000E+00
  1.00800000E+00  1.60000000E+01  1.00800000E+00  1.00800000E+00  1.60000000E+01
  1.00800000E+00  1.00800000E+00  1.60000000E+01  1.00800000E+00  1.00800000E+00
  1.60000000E+01  1.00800000E+00  1.00800000E+00  1.60000000E+01  1.00800000E+00
  1.00800000E+00  1.60000000E+01  1.00800000E+00  1.00800000E+00  1.60000000E+01
  1.00800000E+00  1.00800000E+00  1.60000000E+01  1.00800000E+00  1.00800000E+00
  1.60000000E+01  1.00800000E+00  1.00800000E+00  1.60000000E+01  1.00800000E+00
  1.00800000E+00  1.60000000E+01  1.00800000E+00  1.00800000E+00  1.60000000E+01
  1.00800000E+00  1.00800000E+00  1.60000000E+01  1.00800000E+00  1.00800000E+00
  1.60000000E+01  1.00800000E+00  1.00800000E+00  1.60000000E+01  1.00800000E+00
  1.00800000E+00  1.60000000E+01  1.00800000E+00  1.00800000E+00  1.60000000E+01
  1.00800000E+00  1.00800000E+00  1.60000000E+01  1.00800000E+00  1.00800000E+00
  1.60000000E+01  1.00800000E+00  1.00800000E+00  1.60000000E+01  1.00800000E+00
  1.00800000E+00  1.60000000E+01  1.00800000E+00  1.00800000E+00  1.60000000E+01
  1.00800000E+00  1.00800000E+00  1.60000000E+01  1.00800000E+00  1.00800000E+00
  1.60000000E+01  1.00800000E+00  1.00800000E+00  1.60000000E+01  1.00800000E+00
  1.00800000E+00  1.60000000E+01  1.00800000E+00  1.00800000E+00  1.60000000E+01
  1.00800000E+00  1.00800000E+00  1.60000000E+01  1.00800000E+00  1.00800000E+00
  1.60000000E+01  1.00800000E+00  1.00800000E+00  1.60000000E+01  1.00800000E+00
  1.00800000E+00  1.60000000E+01  1.00800000E+00  1.00800000E+00  1.60000000E+01
  1.00800000E+00  1.00800000E+00  1.60000000E+01  1.00800000E+00  1.00800000E+00
  1.60000000E+01  1.00800000E+00  1.00800000E+00  1.60000000E+01  1.00800000E+00
  1.00800000E+00  1.60000000E+01  1.00800000E+00  1.00800000E+00  1.60000000E+01
  1.00800000E+00  1.00800000E+00  1.60000000E+01  1.00800000E+00  1.00800000E+00
  1.60000000E+01  1.00800000E+00  1.00800000E+00  1.60000000E+01  1.00800000E+00
  1.00800000E+00  1.60000000E+01  1.00800000E+00  1.00800000E+00  1.60000000E+01
  1.00800000E+00  1.00800000E+00  1.60000000E+01  1.00800000E+00  1.00800000E+00
  1.60000000E+01  1.00800000E+00  1.00800000E+00  1.60000000E+01  1.00800000E+00
  1.00800000E+00  1.60000000E+01  1.00800000E+00  1.00800000E+00  1.60000000E+01
  1.00800000E+00  1.00800000E+00  1.60000000E+01  1.00800000E+00  1.00800000E+00
  1.60000000E+01  1.00800000E+00  1.00800000E+00  1.60000000E+01  1.00800000E+00
  1.00800000E+00  1.60000000E+01  1.00800000E+00  1.00800000E+00  1.60000000E+01
  1.00800000E+00  1.00800000E+00  1.60000000E+01  1.00800000E+00  1.00800000E+00
  1.60000000E+01  1.00800000E+00  1.00800000E+00  1.60000000E+01  1.00800000E+00
  1.00800000E+00  1.60000000E+01  1.00800000E+00  1.00800000E+00  1.60000000E+01
  1.00800000E+00  1.00800000E+00  1.60000000E+01  1.00800000E+00  1.00800000E+00
  1.60000000E+01  1.00800000E+00  1.00800000E+00  1.60000000E+01  1.00800000E+00
  1.00800000E+00  1.60000000E+01  1.00800000E+00  1.00800000E+00  1.60000000E+01
  1.00800000E+00  1.00800000E+00  1.60000000E+01  1.00800000E+00  1.00800000E+00
  1.60000000E+01  1.00800000E+00  1.00800000E+00  1.60000000E+01  1.00800000E+00
  1.00800000E+00  1.60000000E+01  1.00800000E+00  1.00800000E+00  1.60000000E+01
  1.00800000E+00  1.00800000E+00  1.60000000E+01  1.00800000E+00  1.00800000E+00
  1.60000000E+01  1.00800000E+00  1.00800000E+00  1.60000000E+01  1.00800000E+00
  1.00800000E+00  1.60000000E+01  1.00800000E+00  1.00800000E+00  1.60000000E+01
  1.00800000E+00  1.00800000E+00  1.60000000E+01  1.00800000E+00  1.00800000E+00
  1.60000000E+01  1.00800000E+00  1.00800000E+00  1.60000000E+01  1.00800000E+00
  1.00800000E+00  1.60000000E+01  1.00800000E+00  1.00800000E+00  1.60000000E+01
  1.00800000E+00  1.00800000E+00  1.60000000E+01  1.00800000E+00  1.00800000E+00
  1.60000000E+01  1.00800000E+00  1.00800000E+00  1.60000000E+01  1.00800000E+00
  1.00800000E+00  1.60000000E+01  1.00800000E+00  1.00800000E+00  1.60000000E+01
  1.00800000E+00  1.00800000E+00  1.60000000E+01  1.00800000E+00  1.00800000E+00
  1.60000000E+01  1.00800000E+00  1.00800000E+00  1.60000000E+01  1.00800000E+00
  1.00800000E+00  1.60000000E+01  1.00800000E+00  1.00800000E+00  1.60000000E+01
  1.00800000E+00  1.00800000E+00  1.60000000E+01  1.00800000E+00  1.00800000E+00
  1.60000000E+01  1.00800000E+00  1.00800000E+00  1.60000000E+01  1.00800000E+00
  1.00800000E+00  1.60000000E+01  1.00800000E+00  1.00800000E+00  1.60000000E+01
  1.00800000E+00  1.00800000E+00  1.60000000E+01  1.00800000E+00  1.00800000E+00
  1.60000000E+01  1.00800000E+00  1.00800000E+00  1.60000000E+01  1.00800000E+00
  1.00800000E+00  1.60000000E+01  1.00800000E+00  1.00800000E+00  1.60000000E+01
  1.00800000E+00  1.00800000E+00  1.60000000E+01  1.00800000E+00  1.00800000E+00
  1.60000000E+01  1.00800000E+00  1.00800000E+00  1.60000000E+01  1.00800000E+00
  1.00800000E+00  1.60000000E+01  1.00800000E+00  1.00800000E+00  1.60000000E+01
  1.00800000E+00  1.00800000E+00  1.60000000E+01  1.00800000E+00  1.00800000E+00
  1.60000000E+01  1.00800000E+00  1.00800000E+00  1.60000000E+01  1.00800000E+00
  1.00800000E+00  1.60000000E+01  1.00800000E+00  1.00800000E+00  1.60000000E+01
  1.00800000E+00  1.00800000E+00  1.60000000E+01  1.00800000E+00  1.00800000E+00
  1.60000000E+01  1.00800000E+00  1.00800000E+00  1.60000000E+01  1.00800000E+00
  1.00800000E+00  1.60000000E+01  1.00800000E+00  1.00800000E+00  1.60000000E+01
  1.00800000E+00  1.00800000E+00  1.60000000E+01  1.00800000E+00  1.00800000E+00
  1.60000000E+01  1.00800000E+00  1.00800000E+00  1.60000000E+01  1.00800000E+00
  1.00800000E+00  1.60000000E+01  1.00800000E+00  1.00800000E+00  1.60000000E+01
  1.00800000E+00  1.00800000E+00  1.60000000E+01  1.00800000E+00  1.00800000E+00
  1.60000000E+01  1.00800000E+00  1.00800000E+00  1.60000000E+01  1.00800000E+00
  1.00800000E+00  1.60000000E+01  1.00800000E+00  1.00800000E+00  1.60000000E+01
  1.00800000E+00  1.00800000E+00  1.60000000E+01  1.00800000E+00  1.00800000E+00
  1.60000000E+01  1.00800000E+00  1.00800000E+00  1.60000000E+01  1.00800000E+00
  1.00800000E+00  1.60000000E+01  1.00800000E+00  1.00800000E+00  1.60000000E+01
  1.00800000E+00  1.00800000E+00  1.60000000E+01  1.00800000E+00  1.00800000E+00
  1.60000000E+01  1.00800000E+00  1.00800000E+00  1.60000000E+01  1.00800000E+00
  1.00800000E+00  1.60000000E+01  1.00800000E+00  1.00800000E+00  1.60000000E+01
  1.00800000E+00  1.00800000E+00  1.60000000E+01  1.00800000E+00  1.00800000E+00
  1.60000000E+01  1.00800000E+00  1.00800000E+00  1.60000000E+01  1.00800000E+00
  1.00800000E+00  1.60000000E+01  1.00800000E+00  1.00800000E+00  1.60000000E+01
  1.00800000E+00  1.00800000E+00  1.60000000E+01  1.00800000E+00  1.00800000E+00
  1.60000000E+01  1.00800000E+00  1.00800000E+00  1.60000000E+01  1.00800000E+00
  1.00800000E+00  1.60000000E+01  1.00800000E+00  1.00800000E+00  1.60000000E+01
  1.00800000E+00  1.00800000E+00  1.60000000E+01  1.00800000E+00  1.00800000E+00
  1.60000000E+01  1.00800000E+00  1.00800000E+00  1.60000000E+01  1.00800000E+00
  1.00800000E+00  1.60000000E+01  1.00800000E+00  1.00800000E+00  1.60000000E+01
  1.00800000E+00  1.00800000E+00  1.60000000E+01  1.00800000E+00  1.00800000E+00
  1.60000000E+01  1.00800000E+00  1.00800000E+00  1.60000000E+01  1.00800000E+00
  1.00800000E+00  1.60000000E+01  1.00800000E+00  1.00800000E+00  1.60000000E+01
  1.00800000E+00  1.00800000E+00  1.60000000E+01  1.00800000E+00  1.00800000E+00
  1.60000000E+01  1.00800000E+00  1.00800000E+00  1.60000000E+01  1.00800000E+00
  1.00800000E+00  1.60000000E+01  1.00800000E+00  1.00800000E+00  1.60000000E+01
  1.00800000E+00  1.00800000E+00  1.60000000E+01  1.00800000E+00  1.00800000E+00
  1.60000000E+01  1.00800000E+00  1.00800000E+00  1.60000000E+01  1.00800000E+00
  1.00800000E+00  1.60000000E+01  1.00800000E+00  1.00800000E+00  1.60000000E+01
  1.00800000E+00  1.00800000E+00  1.60000000E+01  1.00800000E+00  1.00800000E+00
  1.60000000E+01  1.00800000E+00  1.00800000E+00  1.60000000E+01  1.00800000E+00
  1.00800000E+00  1.60000000E+01  1.00800000E+00  1.00800000E+00  1.60000000E+01
  1.00800000E+00  1.00800000E+00  1.60000000E+01  1.00800000E+00  1.00800000E+00
  1.60000000E+01  1.00800000E+00  1.00800000E+00  1.60000000E+01  1.00800000E+00
  1.00800000E+00  1.60000000E+01  1.00800000E+00  1.00800000E+00  1.60000000E+01
  1.00800000E+00  1.00800000E+00  1.60000000E+01  1.00800000E+00  1.00800000E+00
  1.60000000E+01  1.00800000E+00  1.00800000E+00  1.60000000E+01  1.00800000E+00
  1.00800000E+00  1.60000000E+01  1.00800000E+00  1.00800000E+00  1.60000000E+01
  1.00800000E+00  1.00800000E+00  1.60000000E+01  1.00800000E+00  1.00800000E+00
  1.60000000E+01  1.00800000E+00  1.00800000E+00  1.60000000E+01  1.00800000E+00
  1.00800000E+00  1.60000000E+01  1.00800000E+00  1.00800000E+00  1.60000000E+01
  1.00800000E+00  1.00800000E+00  1.60000000E+01  1.00800000E+00  1.00800000E+00
  1.60000000E+01  1.00800000E+00  1.00800000E+00  1.60000000E+01  1.00800000E+00
  1.00800000E+00  1.60000000E+01  1.00800000E+00  1.00800000E+00  1.60000000E+01
  1.00800000E+00  1.00800000E+00  1.60000000E+01  1.00800000E+00  1.00800000E+00
  1.60000000E+01  1.00800000E+00  1.00800000E+00  1.60000000E+01  1.00800000E+00
  1.00800000E+00  1.60000000E+01  1.00800000E+00  1.00800000E+00  1.60000000E+01
  1.00800000E+00  1.00800000E+00  1.60000000E+01  1.00800000E+00  1.00800000E+00
  1.60000000E+01  1.00800000E+00  1.00800000E+00  1.60000000E+01  1.00800000E+00
  1.00800000E+00  1.60000000E+01  1.00800000E+00  1.00800000E+00  1.60000000E+01
  1.00800000E+00  1.00800000E+00  1.60000000E+01  1.00800000E+00  1.00800000E+00
  1.60000000E+01  1.00800000E+00  1.00800000E+00  1.60000000E+01  1.00800000E+00
  1.00800000E+00  1.60000000E+01  1.00800000E+00  1.00800000E+00  1.60000000E+01
  1.00800000E+00  1.00800000E+00  1.60000000E+01  1.00800000E+00  1.00800000E+00
  1.60000000E+01  1.00800000E+00  1.00800000E+00  1.60000000E+01  1.00800000E+00
  1.00800000E+00  1.60000000E+01  1.00800000E+00  1.00800000E+00  1.60000000E+01
  1.00800000E+00  1.00800000E+00  1.60000000E+01  1.00800000E+00  1.00800000E+00
  1.60000000E+01  1.00800000E+00  1.00800000E+00  1.60000000E+01  1.00800000E+00
  1.00800000E+00  1.60000000E+01  1.00800000E+00  1.00800000E+00  1.60000000E+01
  1.00800000E+00  1.00800000E+00  1.60000000E+01  1.00800000E+00  1.00800000E+00
  1.60000000E+01  1.00800000E+00  1.00800000E+00  1.60000000E+01  1.00800000E+00
  1.00800000E+00  1.60000000E+01  1.00800000E+00  1.00800000E+00  1.60000000E+01
  1.00800000E+00  1.00800000E+00  1.60000000E+01  1.00800000E+00  1.00800000E+00
  1.60000000E+01  1.00800000E+00  1.00800000E+00  1.60000000E+01  1.00800000E+00
  1.00800000E+00  1.60000000E+01  1.00800000E+00  1.00800000E+00  1.60000000E+01
  1.00800000E+00  1.00800000E+00  1.60000000E+01  1.00800000E+00  1.00800000E+00
  1.60000000E+01  1.00800000E+00  1.00800000E+00  1.60000000E+01  1.00800000E+00
  1.00800000E+00  1.60000000E+01  1.00800000E+00  1.00800000E+00  1.60000000E+01
  1.00800000E+00  1.00800000E+00  1.60000000E+01  1.00800000E+00  1.00800000E+00
  1.60000000E+01  1.00800000E+00  1.00800000E+00  1.60000000E+01  1.00800000E+00
  1.00800000E+00  1.60000000E+01  1.00800000E+00  1.00800000E+00  1.60000000E+01
  1.00800000E+00  1.00800000E+00  1.60000000E+01  1.00800000E+00  1.00800000E+00
  1.60000000E+01  1.00800000E+00  1.00800000E+00  1.60000000E+01  1.00800000E+00
  1.00800000E+00  1.60000000E+01  1.00800000E+00  1.00800000E+00  1.60000000E+01
  1.00800000E+00  1.00800000E+00  1.60000000E+01  1.00800000E+00  1.00800000E+00
  1.60000000E+01  1.00800000E+00  1.00800000E+00  1.60000000E+01  1.00800000E+00
  1.00800000E+00  1.60000000E+01  1.00800000E+00  1.00800000E+00  1.60000000E+01
  1.00800000E+00  1.00800000E+00  1.60000000E+01  1.00800000E+00  1.00800000E+00
  1.60000000E+01  1.00800000E+00  1.00800000E+00  1.60000000E+01  1.00800000E+00
  1.00800000E+00  1.60000000E+01  1.00800000E+00  1.00800000E+00  1.60000000E+01
  1.00800000E+00  1.00800000E+00  1.60000000E+01  1.00800000E+00  1.00800000E+00
  1.60000000E+01  1.00800000E+00  1.00800000E+00  1.60000000E+01  1.00800000E+00
  1.00800000E+00  1.60000000E+01  1.00800000E+00  1.00800000E+00  1.60000000E+01
  1.00800000E+00  1.00800000E+00  1.60000000E+01  1.00800000E+00  1.00800000E+00
  1.60000000E+01  1.00800000E+00  1.00800000E+00  1.60000000E+01  1.00800000E+00
  1.00800000E+00  1.60000000E+01  1.00800000E+00  1.00800000E+00  1.60000000E+01
  1.00800000E+00  1.00800000E+00  1.60000000E+01  1.00800000E+00  1.00800000E+00
  1.60000000E+01  1.00800000E+00  1.00800000E+00  1.60000000E+01  1.00800000E+00
  1.00800000E+00  1.60000000E+01  1.00800000E+00  1.00800000E+00  1.60000000E+01
  1.00800000E+00  1.00800000E+00  1.60000000E+01  1.00800000E+00  1.00800000E+00
  1.60000000E+01  1.00800000E+00  1.00800000E+00  1.60000000E+01  1.00800000E+00
  1.00800000E+00  1.60000000E+01  1.00800000E+00  1.00800000E+00  1.60000000E+01
  1.00800000E+00  1.00800000E+00  1.60000000E+01  1.00800000E+00  1.00800000E+00
  1.60000000E+01  1.00800000E+00  1.00800000E+00  1.60000000E+01  1.00800000E+00
  1.00800000E+00  1.60000000E+01  1.00800000E+00  1.00800000E+00  1.60000000E+01
  1.00800000E+00  1.00800000E+00  1.60000000E+01  1.00800000E+00  1.00800000E+00
  1.60000000E+01  1.00800000E+00  1.00800000E+00  1.60000000E+01  1.00800000E+00
  1.00800000E+00  1.60000000E+01  1.00800000E+00  1.00800000E+00  1.60000000E+01
  1.00800000E+00  1.00800000E+00  1.60000000E+01  1.00800000E+00  1.00800000E+00
  1.60000000E+01  1.00800000E+00  1.00800000E+00  1.60000000E+01  1.00800000E+00
  1.00800000E+00  1.60000000E+01  1.00800000E+00  1.00800000E+00  1.60000000E+01
  1.00800000E+00  1.00800000E+00  1.60000000E+01  1.00800000E+00  1.00800000E+00
  1.60000000E+01  1.00800000E+00  1.00800000E+00  1.60000000E+01  1.00800000E+00
  1.00800000E+00  1.60000000E+01  1.00800000E+00  1.00800000E+00  1.60000000E+01
  1.00800000E+00  1.00800000E+00  1.60000000E+01  1.00800000E+00  1.00800000E+00
  1.60000000E+01  1.00800000E+00  1.00800000E+00  1.60000000E+01  1.00800000E+00
  1.00800000E+00  1.60000000E+01  1.00800000E+00  1.00800000E+00  1.60000000E+01
  1.00800000E+00  1.00800000E+00  1.60000000E+01  1.00800000E+00  1.00800000E+00
  1.60000000E+01  1.00800000E+00  1.00800000E+00  1.60000000E+01  1.00800000E+00
  1.00800000E+00  1.60000000E+01  1.00800000E+00  1.00800000E+00  1.60000000E+01
  1.00800000E+00  1.00800000E+00  1.60000000E+01  1.00800000E+00  1.00800000E+00
  1.60000000E+01  1.00800000E+00  1.00800000E+00  1.60000000E+01  1.00800000E+00
  1.00800000E+00  1.60000000E+01  1.00800000E+00  1.00800000E+00  1.60000000E+01
  1.00800000E+00  1.00800000E+00  1.60000000E+01  1.00800000E+00  1.00800000E+00
  1.60000000E+01  1.00800000E+00  1.00800000E+00  1.60000000E+01  1.00800000E+00
  1.00800000E+00  1.60000000E+01  1.00800000E+00  1.00800000E+00  1.60000000E+01
  1.00800000E+00  1.00800000E+00  1.60000000E+01  1.00800000E+00  1.00800000E+00
  1.60000000E+01  1.00800000E+00  1.00800000E+00  1.60000000E+01  1.00800000E+00
  1.00800000E+00  1.60000000E+01  1.00800000E+00  1.00800000E+00  1.60000000E+01
  1.00800000E+00  1.00800000E+00  1.60000000E+01  1.00800000E+00  1.00800000E+00
  1.60000000E+01  1.00800000E+00  1.00800000E+00  1.60000000E+01  1.00800000E+00
  1.00800000E+00  1.60000000E+01  1.00800000E+00  1.00800000E+00  1.60000000E+01
  1.00800000E+00  1.00800000E+00  1.60000000E+01  1.00800000E+00  1.00800000E+00
  1.60000000E+01  1.00800000E+00  1.00800000E+00  1.60000000E+01  1.00800000E+00
  1.00800000E+00  1.60000000E+01  1.00800000E+00  1.00800000E+00  1.60000000E+01
  1.00800000E+00  1.00800000E+00  1.60000000E+01  1.00800000E+00  1.00800000E+00
  1.60000000E+01  1.00800000E+00  1.00800000E+00  1.60000000E+01  1.00800000E+00
  1.00800000E+00  1.60000000E+01  1.00800000E+00  1.00800000E+00  1.60000000E+01
  1.00800000E+00  1.00800000E+00  1.60000000E+01  1.00800000E+00  1.00800000E+00
  1.60000000E+01  1.00800000E+00  1.00800000E+00  1.60000000E+01  1.00800000E+00
  1.00800000E+00  1.60000000E+01  1.00800000E+00  1.00800000E+00  1.60000000E+01
  1.00800000E+00  1.00800000E+00  1.60000000E+01  1.00800000E+00  1.00800000E+00
  1.60000000E+01  1.00800000E+00  1.00800000E+00  1.60000000E+01  1.00800000E+00
  1.00800000E+00  1.60000000E+01  1.00800000E+00  1.00800000E+00  1.60000000E+01
  1.00800000E+00  1.00800000E+00  1.60000000E+01  1.00800000E+00  1.00800000E+00
  1.60000000E+01  1.00800000E+00  1.00800000E+00  1.60000000E+01  1.00800000E+00
  1.00800000E+00  1.60000000E+01  1.00800000E+00  1.00800000E+00  1.60000000E+01
  1.00800000E+00  1.00800000E+00  1.60000000E+01  1.00800000E+00  1.00800000E+00
  1.60000000E+01  1.00800000E+00  1.00800000E+00  1.60000000E+01  1.00800000E+00
  1.00800000E+00  1.60000000E+01  1.00800000E+00  1.00800000E+00  1.60000000E+01
  1.00800000E+00  1.00800000E+00  1.60000000E+01  1.00800000E+00  1.00800000E+00
  1.60000000E+01  1.00800000E+00  1.00800000E+00  1.60000000E+01  1.00800000E+00
  1.00800000E+00  1.60000000E+01  1.00800000E+00  1.00800000E+00  1.60000000E+01
  1.00800000E+00  1.00800000E+00  1.60000000E+01  1.00800000E+00  1.00800000E+00
  1.60000000E+01  1.00800000E+00  1.00800000E+00  1.60000000E+01  1.00800000E+00
  1.00800000E+00  1.60000000E+01  1.00800000E+00  1.00800000E+00  1.60000000E+01
  1.00800000E+00  1.00800000E+00  1.60000000E+01  1.00800000E+00  1.00800000E+00
  1.60000000E+01  1.00800000E+00  1.00800000E+00  1.60000000E+01  1.00800000E+00
  1.00800000E+00  1.60000000E+01  1.00800000E+00  1.00800000E+00  1.60000000E+01
  1.00800000E+00  1.00800000E+00  1.60000000E+01  1.00800000E+00  1.00800000E+00
  1.60000000E+01  1.00800000E+00  1.00800000E+00  1.60000000E+01  1.00800000E+00
  1.00800000E+00  1.60000000E+01  1.00800000E+00  1.00800000E+00  1.60000000E+01
  1.00800000E+00  1.00800000E+00  1.60000000E+01  1.00800000E+00  1.00800000E+00
  1.60000000E+01  1.00800000E+00  1.00800000E+00  1.60000000E+01  1.00800000E+00
  1.00800000E+00  1.60000000E+01  1.00800000E+00  1.00800000E+00  1.60000000E+01
  1.00800000E+00  1.00800000E+00  1.60000000E+01  1.00800000E+00  1.00800000E+00
  1.60000000E+01  1.00800000E+00  1.00800000E+00  1.60000000E+01  1.00800000E+00
  1.00800000E+00  1.60000000E+01  1.00800000E+00  1.00800000E+00  1.60000000E+01
  1.00800000E+00  1.00800000E+00  1.60000000E+01  1.00800000E+00  1.00800000E+00
  1.60000000E+01  1.00800000E+00  1.00800000E+00  1.60000000E+01  1.00800000E+00
  1.00800000E+00  1.60000000E+01  1.00800000E+00  1.00800000E+00  1.60000000E+01
  1.00800000E+00  1.00800000E+00  1.60000000E+01  1.00800000E+00  1.00800000E+00
  1.60000000E+01  1.00800000E+00  1.00800000E+00  1.60000000E+01  1.00800000E+00
  1.00800000E+00  1.60000000E+01  1.00800000E+00  1.00800000E+00  1.60000000E+01
  1.00800000E+00  1.00800000E+00  1.60000000E+01  1.00800000E+00  1.00800000E+00
  1.60000000E+01  1.00800000E+00  1.00800000E+00  1.60000000E+01  1.00800000E+00
  1.00800000E+00  1.60000000E+01  1.00800000E+00  1.00800000E+00  1.60000000E+01
  1.00800000E+00  1.00800000E+00  1.60000000E+01  1.00800000E+00  1.00800000E+00
  1.60000000E+01  1.00800000E+00  1.00800000E+00  1.60000000E+01  1.00800000E+00
  1.00800000E+00  1.60000000E+01  1.00800000E+00  1.00800000E+00  1.60000000E+01
  1.00800000E+00  1.00800000E+00  1.60000000E+01  1.00800000E+00  1.00800000E+00
  1.60000000E+01  1.00800000E+00  1.00800000E+00  1.60000000E+01  1.00800000E+00
  1.00800000E+00  1.60000000E+01  1.00800000E+00  1.00800000E+00  1.60000000E+01
  1.00800000E+00  1.00800000E+00  1.60000000E+01  1.00800000E+00  1.00800000E+00
  1.60000000E+01  1.00800000E+00  1.00800000E+00  1.60000000E+01  1.00800000E+00
  1.00800000E+00  1.60000000E+01  1.00800000E+00  1.00800000E+00  1.60000000E+01
  1.00800000E+00  1.00800000E+00  1.60000000E+01  1.00800000E+00  1.00800000E+00
  1.60000000E+01  1.00800000E+00  1.00800000E+00  1.60000000E+01  1.00800000E+00
  1.00800000E+00  1.60000000E+01  1.00800000E+00  1.00800000E+00  1.60000000E+01
  1.00800000E+00  1.00800000E+00  1.60000000E+01  1.00800000E+00  1.00800000E+00
  1.60000000E+01  1.00800000E+00  1.00800000E+00  1.60000000E+01  1.00800000E+00
  1.00800000E+00  1.60000000E+01  1.00800000E+00  1.00800000E+00  1.60000000E+01
  1.00800000E+00  1.00800000E+00  1.60000000E+01  1.00800000E+00  1.00800000E+00
  1.60000000E+01  1.00800000E+00  1.00800000E+00  1.60000000E+01  1.00800000E+00
  1.00800000E+00  1.60000000E+01  1.00800000E+00  1.00800000E+00  1.60000000E+01
  1.00800000E+00  1.00800000E+00  1.60000000E+01  1.00800000E+00  1.00800000E+00
  1.60000000E+01  1.00800000E+00  1.00800000E+00  1.60000000E+01  1.00800000E+00
  1.00800000E+00  1.60000000E+01  1.00800000E+00  1.00800000E+00  1.60000000E+01
  1.00800000E+00  1.00800000E+00  1.60000000E+01  1.00800000E+00  1.00800000E+00
  1.60000000E+01  1.00800000E+00  1.00800000E+00  1.60000000E+01  1.00800000E+00
  1.00800000E+00  1.60000000E+01  1.00800000E+00  1.00800000E+00  1.60000000E+01
  1.00800000E+00  1.00800000E+00  1.60000000E+01  1.00800000E+00  1.00800000E+00
  1.60000000E+01  1.00800000E+00  1.00800000E+00  1.60000000E+01  1.00800000E+00
  1.00800000E+00  1.60000000E+01  1.00800000E+00  1.00800000E+00  1.60000000E+01
  1.00800000E+00  1.00800000E+00  1.60000000E+01  1.00800000E+00  1.00800000E+00
  1.60000000E+01  1.00800000E+00  1.00800000E+00  1.60000000E+01  1.00800000E+00
  1.00800000E+00  1.60000000E+01  1.00800000E+00  1.00800000E+00  1.60000000E+01
  1.00800000E+00  1.00800000E+00  1.60000000E+01  1.00800000E+00  1.00800000E+00
  1.60000000E+01  1.00800000E+00  1.00800000E+00  1.60000000E+01  1.00800000E+00
  1.00800000E+00  1.60000000E+01  1.00800000E+00  1.00800000E+00  1.60000000E+01
  1.00800000E+00  1.00800000E+00  1.60000000E+01  1.00800000E+00  1.00800000E+00
  1.60000000E+01  1.00800000E+00  1.00800000E+00  1.60000000E+01  1.00800000E+00
  1.00800000E+00  1.60000000E+01  1.00800000E+00  1.00800000E+00  1.60000000E+01
  1.00800000E+00  1.00800000E+00  1.60000000E+01  1.00800000E+00  1.00800000E+00
  1.60000000E+01  1.00800000E+00  1.00800000E+00  1.60000000E+01  1.00800000E+00
  1.00800000E+00  1.60000000E+01  1.00800000E+00  1.00800000E+00  1.60000000E+01
  1.00800000E+00  1.00800000E+00  1.60000000E+01  1.00800000E+00  1.00800000E+00
  1.60000000E+01  1.00800000E+00  1.00800000E+00  1.60000000E+01  1.00800000E+00
  1.00800000E+00  1.60000000E+01  1.00800000E+00  1.00800000E+00  1.60000000E+01
  1.00800000E+00  1.00800000E+00  1.60000000E+01  1.00800000E+00  1.00800000E+00
  1.60000000E+01  1.00800000E+00  1.00800000E+00  1.60000000E+01  1.00800000E+00
  1.00800000E+00  1.60000000E+01  1.00800000E+00  1.00800000E+00  1.60000000E+01
  1.00800000E+00  1.00800000E+00  1.60000000E+01  1.00800000E+00  1.00800000E+00
  1.60000000E+01  1.00800000E+00  1.00800000E+00  1.60000000E+01  1.00800000E+00
  1.00800000E+00  1.60000000E+01  1.00800000E+00  1.00800000E+00  1.60000000E+01
  1.00800000E+00  1.00800000E+00  1.60000000E+01  1.00800000E+00  1.00800000E+00
  1.60000000E+01  1.00800000E+00  1.00800000E+00  1.60000000E+01  1.00800000E+00
  1.00800000E+00  1.60000000E+01  1.00800000E+00  1.00800000E+00  1.60000000E+01
  1.00800000E+00  1.00800000E+00  1.60000000E+01  1.00800000E+00  1.00800000E+00
  1.60000000E+01  1.00800000E+00  1.00800000E+00  1.60000000E+01  1.00800000E+00
  1.00800000E+00  1.60000000E+01  1.00800000E+00  1.00800000E+00  1.60000000E+01
  1.00800000E+00  1.00800000E+00  1.60000000E+01  1.00800000E+00  1.00800000E+00
  1.60000000E+01  1.00800000E+00  1.00800000E+00  1.60000000E+01  1.00800000E+00
  1.00800000E+00  1.60000000E+01  1.00800000E+00  1.00800000E+00  1.60000000E+01
  1.00800000E+00  1.00800000E+00  1.60000000E+01  1.00800000E+00  1.00800000E+00
  1.60000000E+01  1.00800000E+00  1.00800000E+00  1.60000000E+01  1.00800000E+00
  1.00800000E+00  1.60000000E+01  1.00800000E+00  1.00800000E+00  1.60000000E+01
  1.00800000E+00  1.00800000E+00  1.60000000E+01  1.00800000E+00  1.00800000E+00
  1.60000000E+01  1.00800000E+00  1.00800000E+00  1.60000000E+01  1.00800000E+00
  1.00800000E+00  1.60000000E+01  1.00800000E+00  1.00800000E+00  1.60000000E+01
  1.00800000E+00  1.00800000E+00  1.60000000E+01  1.00800000E+00  1.00800000E+00
  1.60000000E+01  1.00800000E+00  1.00800000E+00  1.60000000E+01  1.00800000E+00
  1.00800000E+00  1.60000000E+01  1.00800000E+00  1.00800000E+00  1.60000000E+01
  1.00800000E+00  1.00800000E+00  1.60000000E+01  1.00800000E+00  1.00800000E+00
  1.60000000E+01  1.00800000E+00  1.00800000E+00  1.60000000E+01  1.00800000E+00
  1.00800000E+00  1.60000000E+01  1.00800000E+00  1.00800000E+00  1.60000000E+01
  1.00800000E+00  1.00800000E+00  1.60000000E+01  1.00800000E+00  1.00800000E+00
  1.60000000E+01  1.00800000E+00  1.00800000E+00  1.60000000E+01  1.00800000E+00
  1.00800000E+00  1.60000000E+01  1.00800000E+00  1.00800000E+00  1.60000000E+01
  1.00800000E+00  1.00800000E+00  1.60000000E+01  1.00800000E+00  1.00800000E+00
  1.60000000E+01  1.00800000E+00  1.00800000E+00  1.60000000E+01  1.00800000E+00
  1.00800000E+00  1.60000000E+01  1.00800000E+00  1.00800000E+00  1.60000000E+01
  1.00800000E+00  1.00800000E+00  1.60000000E+01  1.00800000E+00  1.00800000E+00
  1.60000000E+01  1.00800000E+00  1.00800000E+00  1.60000000E+01  1.00800000E+00
  1.00800000E+00  1.60000000E+01  1.00800000E+00  1.00800000E+00  1.60000000E+01
  1.00800000E+00  1.00800000E+00  1.60000000E+01  1.00800000E+00  1.00800000E+00
  1.60000000E+01  1.00800000E+00  1.00800000E+00  1.60000000E+01  1.00800000E+00
  1.00800000E+00  1.60000000E+01  1.00800000E+00  1.00800000E+00  1.60000000E+01
  1.00800000E+00  1.00800000E+00  1.60000000E+01  1.00800000E+00  1.00800000E+00
  1.60000000E+01  1.00800000E+00  1.00800000E+00  1.60000000E+01  1.00800000E+00
  1.00800000E+00  1.60000000E+01  1.00800000E+00  1.00800000E+00  1.60000000E+01
  1.00800000E+00  1.00800000E+00  1.60000000E+01  1.00800000E+00  1.00800000E+00
  1.60000000E+01  1.00800000E+00  1.00800000E+00  1.60000000E+01  1.00800000E+00
  1.00800000E+00  1.60000000E+01  1.00800000E+00  1.00800000E+00  1.60000000E+01
  1.00800000E+00  1.00800000E+00  1.60000000E+01  1.00800000E+00  1.00800000E+00
  1.60000000E+01  1.00800000E+00  1.00800000E+00  1.60000000E+01  1.00800000E+00
  1.00800000E+00  1.60000000E+01  1.00800000E+00  1.00800000E+00  1.60000000E+01
  1.00800000E+00  1.00800000E+00  1.60000000E+01  1.00800000E+00  1.00800000E+00
  1.60000000E+01  1.00800000E+00  1.00800000E+00  1.60000000E+01  1.00800000E+00
  1.00800000E+00  1.60000000E+01  1.00800000E+00  1.00800000E+00  1.60000000E+01
  1.00800000E+00  1.00800000E+00  1.60000000E+01  1.00800000E+00  1.00800000E+00
  1.60000000E+01  1.00800000E+00  1.00800000E+00  1.60000000E+01  1.00800000E+00
  1.00800000E+00  1.60000000E+01  1.00800000E+00  1.00800000E+00  1.60000000E+01
  1.00800000E+00  1.00800000E+00  1.60000000E+01  1.00800000E+00  1.00800000E+00
  1.60000000E+01  1.00800000E+00  1.00800000E+00  1.60000000E+01  1.00800000E+00
  1.00800000E+00  1.60000000E+01  1.00800000E+00  1.00800000E+00  1.60000000E+01
  1.00800000E+00  1.00800000E+00  1.60000000E+01  1.00800000E+00  1.00800000E+00
  1.60000000E+01  1.00800000E+00  1.00800000E+00  1.60000000E+01  1.00800000E+00
  1.00800000E+00  1.60000000E+01  1.00800000E+00  1.00800000E+00  1.60000000E+01
  1.00800000E+00  1.00800000E+00  1.60000000E+01  1.00800000E+00  1.00800000E+00
  1.60000000E+01  1.00800000E+00  1.00800000E+00  1.60000000E+01  1.00800000E+00
  1.00800000E+00  1.60000000E+01  1.00800000E+00  1.00800000E+00  1.60000000E+01
  1.00800000E+00  1.00800000E+00  1.60000000E+01  1.00800000E+00  1.00800000E+00
  1.60000000E+01  1.00800000E+00  1.00800000E+00  1.60000000E+01  1.00800000E+00
  1.00800000E+00  1.60000000E+01  1.00800000E+00  1.00800000E+00  1.60000000E+01
  1.00800000E+00  1.00800000E+00  1.60000000E+01  1.00800000E+00  1.00800000E+00
  1.60000000E+01  1.00800000E+00  1.00800000E+00  1.60000000E+01  1.00800000E+00
  1.00800000E+00  1.60000000E+01  1.00800000E+00  1.00800000E+00  1.60000000E+01
  1.00800000E+00  1.00800000E+00  1.60000000E+01  1.00800000E+00  1.00800000E+00
  1.60000000E+01  1.00800000E+00  1.00800000E+00  1.60000000E+01  1.00800000E+00
  1.00800000E+00  1.60000000E+01  1.00800000E+00  1.00800000E+00  1.60000000E+01
  1.00800000E+00  1.00800000E+00  1.60000000E+01  1.00800000E+00  1.00800000E+00
  1.60000000E+01  1.00800000E+00  1.00800000E+00  1.60000000E+01  1.00800000E+00
  1.00800000E+00  1.60000000E+01  1.00800000E+00  1.00800000E+00  1.60000000E+01
  1.00800000E+00  1.00800000E+00  1.60000000E+01  1.00800000E+00  1.00800000E+00
  1.60000000E+01  1.00800000E+00  1.00800000E+00  1.60000000E+01  1.00800000E+00
  1.00800000E+00  1.60000000E+01  1.00800000E+00  1.00800000E+00  1.60000000E+01
  1.00800000E+00  1.00800000E+00  1.60000000E+01  1.00800000E+00  1.00800000E+00
  1.60000000E+01  1.00800000E+00  1.00800000E+00  1.60000000E+01  1.00800000E+00
  1.00800000E+00  1.60000000E+01  1.00800000E+00  1.00800000E+00  1.60000000E+01
  1.00800000E+00  1.00800000E+00  1.60000000E+01  1.00800000E+00  1.00800000E+00
  1.60000000E+01  1.00800000E+00  1.00800000E+00  1.60000000E+01  1.00800000E+00
  1.00800000E+00  1.60000000E+01  1.00800000E+00  1.00800000E+00  1.60000000E+01
  1.00800000E+00  1.00800000E+00  1.60000000E+01  1.00800000E+00  1.00800000E+00
  1.60000000E+01  1.00800000E+00  1.00800000E+00  1.60000000E+01  1.00800000E+00
  1.00800000E+00  1.60000000E+01  1.00800000E+00  1.00800000E+00  1.60000000E+01
  1.00800000E+00  1.00800000E+00  1.60000000E+01  1.00800000E+00  1.00800000E+00
  1.60000000E+01  1.00800000E+00  1.00800000E+00  1.60000000E+01  1.00800000E+00
  1.00800000E+00  1.60000000E+01  1.00800000E+00  1.00800000E+00  1.60000000E+01
  1.00800000E+00  1.00800000E+00  1.60000000E+01  1.00800000E+00  1.00800000E+00
  1.60000000E+01  1.00800000E+00  1.00800000E+00  1.60000000E+01  1.00800000E+00
  1.00800000E+00  1.60000000E+01  1.00800000E+00  1.00800000E+00  1.60000000E+01
  1.00800000E+00  1.00800000E+00  1.60000000E+01  1.00800000E+00  1.00800000E+00
  1.60000000E+01  1.00800000E+00  1.00800000E+00  1.60000000E+01  1.00800000E+00
  1.00800000E+00  1.60000000E+01  1.00800000E+00  1.00800000E+00  1.60000000E+01
  1.00800000E+00  1.00800000E+00  1.60000000E+01  1.00800000E+00  1.00800000E+00
  1.60000000E+01  1.00800000E+00  1.00800000E+00  1.60000000E+01  1.00800000E+00
  1.00800000E+00  1.60000000E+01  1.00800000E+00  1.00800000E+00  1.60000000E+01
  1.00800000E+00  1.00800000E+00  1.60000000E+01  1.00800000E+00  1.00800000E+00
  1.60000000E+01  1.00800000E+00  1.00800000E+00  1.60000000E+01  1.00800000E+00
  1.00800000E+00  1.60000000E+01  1.00800000E+00  1.00800000E+00  1.60000000E+01
  1.00800000E+00  1.00800000E+00  1.60000000E+01  1.00800000E+00  1.00800000E+00
  1.60000000E+01  1.00800000E+00  1.00800000E+00  1.60000000E+01  1.00800000E+00
  1.00800000E+00  1.60000000E+01  1.00800000E+00  1.00800000E+00  1.60000000E+01
  1.00800000E+00  1.00800000E+00  1.60000000E+01  1.00800000E+00  1.00800000E+00
  1.60000000E+01  1.00800000E+00  1.00800000E+00  1.60000000E+01  1.00800000E+00
  1.00800000E+00  1.60000000E+01  1.00800000E+00  1.00800000E+00  1.60000000E+01
  1.00800000E+00  1.00800000E+00  1.60000000E+01  1.00800000E+00  1.00800000E+00
  1.60000000E+01  1.00800000E+00  1.00800000E+00  1.60000000E+01  1.00800000E+00
  1.00800000E+00  1.60000000E+01  1.00800000E+00  1.00800000E+00  1.60000000E+01
  1.00800000E+00  1.00800000E+00  1.60000000E+01  1.00800000E+00  1.00800000E+00
  1.60000000E+01  1.00800000E+00  1.00800000E+00  1.60000000E+01  1.00800000E+00
  1.00800000E+00  1.60000000E+01  1.00800000E+00  1.00800000E+00  1.60000000E+01
  1.00800000E+00  1.00800000E+00  1.60000000E+01  1.00800000E+00  1.00800000E+00
  1.60000000E+01  1.00800000E+00  1.00800000E+00  1.60000000E+01  1.00800000E+00
  1.00800000E+00  1.60000000E+01  1.00800000E+00  1.00800000E+00  1.60000000E+01
  1.00800000E+00  1.00800000E+00  1.60000000E+01  1.00800000E+00  1.00800000E+00
  1.60000000E+01  1.00800000E+00  1.00800000E+00  1.60000000E+01  1.00800000E+00
  1.00800000E+00  1.60000000E+01  1.00800000E+00  1.00800000E+00  1.60000000E+01
  1.00800000E+00  1.00800000E+00  1.60000000E+01  1.00800000E+00  1.00800000E+00
  1.60000000E+01  1.00800000E+00  1.00800000E+00  1.60000000E+01  1.00800000E+00
  1.00800000E+00  1.60000000E+01  1.00800000E+00  1.00800000E+00  1.60000000E+01
  1.00800000E+00  1.00800000E+00  1.60000000E+01  1.00800000E+00  1.00800000E+00
  1.60000000E+01  1.00800000E+00  1.00800000E+00  1.60000000E+01  1.00800000E+00
  1.00800000E+00  1.60000000E+01  1.00800000E+00  1.00800000E+00  1.60000000E+01
  1.00800000E+00  1.00800000E+00  1.60000000E+01  1.00800000E+00  1.00800000E+00
  1.60000000E+01  1.00800000E+00  1.00800000E+00  1.60000000E+01  1.00800000E+00
  1.00800000E+00  1.60000000E+01  1.00800000E+00  1.00800000E+00  1.60000000E+01
  1.00800000E+00  1.00800000E+00  1.60000000E+01  1.00800000E+00  1.00800000E+00
  1.60000000E+01  1.00800000E+00  1.00800000E+00  1.60000000E+01  1.00800000E+00
  1.00800000E+00  1.60000000E+01  1.00800000E+00  1.00800000E+00  1.60000000E+01
  1.00800000E+00  1.00800000E+00  1.60000000E+01  1.00800000E+00  1.00800000E+00
  1.60000000E+01  1.00800000E+00  1.00800000E+00  1.60000000E+01  1.00800000E+00
  1.00800000E+00  1.60000000E+01  1.00800000E+00  1.00800000E+00  1.60000000E+01
  1.00800000E+00  1.00800000E+00  1.60000000E+01  1.00800000E+00  1.00800000E+00
  1.60000000E+01  1.00800000E+00  1.00800000E+00  1.60000000E+01  1.00800000E+00
  1.00800000E+00  1.60000000E+01  1.00800000E+00  1.00800000E+00  1.60000000E+01
  1.00800000E+00  1.00800000E+00  1.60000000E+01  1.00800000E+00  1.00800000E+00
  1.60000000E+01  1.00800000E+00  1.00800000E+00  1.60000000E+01  1.00800000E+00
  1.00800000E+00  1.60000000E+01  1.00800000E+00  1.00800000E+00  1.60000000E+01
  1.00800000E+00  1.00800000E+00  1.60000000E+01  1.00800000E+00  1.00800000E+00
  1.60000000E+01  1.00800000E+00  1.00800000E+00  1.60000000E+01  1.00800000E+00
  1.00800000E+00  1.60000000E+01  1.00800000E+00  1.00800000E+00  1.60000000E+01
  1.00800000E+00  1.00800000E+00  1.60000000E+01  1.00800000E+00  1.00800000E+00
  1.60000000E+01  1.00800000E+00  1.00800000E+00  1.60000000E+01  1.00800000E+00
  1.00800000E+00  1.60000000E+01  1.00800000E+00  1.00800000E+00  1.60000000E+01
  1.00800000E+00  1.00800000E+00  1.60000000E+01  1.00800000E+00  1.00800000E+00
  1.60000000E+01  1.00800000E+00  1.00800000E+00  1.60000000E+01  1.00800000E+00
  1.00800000E+00  1.60000000E+01  1.00800000E+00  1.00800000E+00  1.60000000E+01
  1.00800000E+00  1.00800000E+00  1.60000000E+01  1.00800000E+00  1.00800000E+00
  1.60000000E+01  1.00800000E+00  1.00800000E+00  1.60000000E+01  1.00800000E+00
  1.00800000E+00  1.60000000E+01  1.00800000E+00  1.00800000E+00  1.60000000E+01
  1.00800000E+00  1.00800000E+00  1.60000000E+01  1.00800000E+00  1.00800000E+00
  1.60000000E+01  1.00800000E+00  1.00800000E+00  1.60000000E+01  1.00800000E+00
  1.00800000E+00  1.60000000E+01  1.00800000E+00  1.00800000E+00  1.60000000E+01
  1.00800000E+00  1.00800000E+00  1.60000000E+01  1.00800000E+00  1.00800000E+00
  1.60000000E+01  1.00800000E+00  1.00800000E+00  1.60000000E+01  1.00800000E+00
  1.00800000E+00  1.60000000E+01  1.00800000E+00  1.00800000E+00  1.60000000E+01
  1.00800000E+00  1.00800000E+00  1.60000000E+01  1.00800000E+00  1.00800000E+00
  1.60000000E+01  1.00800000E+00  1.00800000E+00  1.60000000E+01  1.00800000E+00
  1.00800000E+00  1.60000000E+01  1.00800000E+00  1.00800000E+00  1.60000000E+01
  1.00800000E+00  1.00800000E+00  1.60000000E+01  1.00800000E+00  1.00800000E+00
  1.60000000E+01  1.00800000E+00  1.00800000E+00  1.60000000E+01  1.00800000E+00
  1.00800000E+00  1.60000000E+01  1.00800000E+00  1.00800000E+00  1.60000000E+01
  1.00800000E+00  1.00800000E+00  1.60000000E+01  1.00800000E+00  1.00800000E+00
  1.60000000E+01  1.00800000E+00  1.00800000E+00  1.60000000E+01  1.00800000E+00
  1.00800000E+00  1.60000000E+01  1.00800000E+00  1.00800000E+00  1.60000000E+01
  1.00800000E+00  1.00800000E+00  1.60000000E+01  1.00800000E+00  1.00800000E+00
  1.60000000E+01  1.00800000E+00  1.00800000E+00  1.60000000E+01  1.00800000E+00
  1.00800000E+00  1.60000000E+01  1.00800000E+00  1.00800000E+00  1.60000000E+01
  1.00800000E+00  1.00800000E+00  1.60000000E+01  1.00800000E+00  1.00800000E+00
  1.60000000E+01  1.00800000E+00  1.00800000E+00  1.60000000E+01  1.00800000E+00
  1.00800000E+00  1.60000000E+01  1.00800000E+00  1.00800000E+00  1.60000000E+01
  1.00800000E+00  1.00800000E+00  1.60000000E+01  1.00800000E+00  1.00800000E+00
  1.60000000E+01  1.00800000E+00  1.00800000E+00  1.60000000E+01  1.00800000E+00
  1.00800000E+00  1.60000000E+01  1.00800000E+00  1.00800000E+00  1.60000000E+01
  1.00800000E+00  1.00800000E+00  1.60000000E+01  1.00800000E+00  1.00800000E+00
  1.60000000E+01  1.00800000E+00  1.00800000E+00  1.60000000E+01  1.00800000E+00
  1.00800000E+00  1.60000000E+01  1.00800000E+00  1.00800000E+00  1.60000000E+01
  1.00800000E+00  1.00800000E+00  1.60000000E+01  1.00800000E+00  1.00800000E+00
  1.60000000E+01  1.00800000E+00  1.00800000E+00  1.60000000E+01  1.00800000E+00
  1.00800000E+00  1.60000000E+01  1.00800000E+00  1.00800000E+00  1.60000000E+01
  1.00800000E+00  1.00800000E+00  1.60000000E+01  1.00800000E+00  1.00800000E+00
  1.60000000E+01  1.00800000E+00  1.00800000E+00  1.60000000E+01  1.00800000E+00
  1.00800000E+00  1.60000000E+01  1.00800000E+00  1.00800000E+00  1.60000000E+01
  1.00800000E+00  1.00800000E+00  1.60000000E+01  1.00800000E+00  1.00800000E+00
  1.60000000E+01  1.00800000E+00  1.00800000E+00  1.60000000E+01  1.00800000E+00
  1.00800000E+00  1.60000000E+01  1.00800000E+00  1.00800000E+00  1.60000000E+01
  1.00800000E+00  1.00800000E+00  1.60000000E+01  1.00800000E+00  1.00800000E+00
  1.60000000E+01  1.00800000E+00  1.00800000E+00  1.60000000E+01  1.00800000E+00
  1.00800000E+00  1.60000000E+01  1.00800000E+00  1.00800000E+00  1.60000000E+01
  1.00800000E+00  1.00800000E+00  1.60000000E+01  1.00800000E+00  1.00800000E+00
  1.60000000E+01  1.00800000E+00  1.00800000E+00  1.60000000E+01  1.00800000E+00
  1.00800000E+00  1.60000000E+01  1.00800000E+00  1.00800000E+00  1.60000000E+01
  1.00800000E+00  1.00800000E+00  1.60000000E+01  1.00800000E+00  1.00800000E+00
  1.60000000E+01  1.00800000E+00  1.00800000E+00  1.60000000E+01  1.00800000E+00
  1.00800000E+00  1.60000000E+01  1.00800000E+00  1.00800000E+00  1.60000000E+01
  1.00800000E+00  1.00800000E+00  1.60000000E+01  1.00800000E+00  1.00800000E+00
  1.60000000E+01  1.00800000E+00  1.00800000E+00  1.60000000E+01  1.00800000E+00
  1.00800000E+00  1.60000000E+01  1.00800000E+00  1.00800000E+00  1.60000000E+01
  1.00800000E+00  1.00800000E+00  1.60000000E+01  1.00800000E+00  1.00800000E+00
  1.60000000E+01  1.00800000E+00  1.00800000E+00  1.60000000E+01  1.00800000E+00
  1.00800000E+00  1.60000000E+01  1.00800000E+00  1.00800000E+00  1.60000000E+01
  1.00800000E+00  1.00800000E+00  1.60000000E+01  1.00800000E+00  1.00800000E+00
  1.60000000E+01  1.00800000E+00  1.00800000E+00  1.60000000E+01  1.00800000E+00
  1.00800000E+00  1.60000000E+01  1.00800000E+00  1.00800000E+00  1.60000000E+01
  1.00800000E+00  1.00800000E+00  1.60000000E+01  1.00800000E+00  1.00800000E+00
  1.60000000E+01  1.00800000E+00  1.00800000E+00  1.60000000E+01  1.00800000E+00
  1.00800000E+00  1.60000000E+01  1.00800000E+00  1.00800000E+00  1.60000000E+01
  1.00800000E+00  1.00800000E+00  1.60000000E+01  1.00800000E+00  1.00800000E+00
  1.60000000E+01  1.00800000E+00  1.00800000E+00  1.60000000E+01  1.00800000E+00
  1.00800000E+00  1.60000000E+01  1.00800000E+00  1.00800000E+00  1.60000000E+01
  1.00800000E+00  1.00800000E+00  1.60000000E+01  1.00800000E+00  1.00800000E+00
  1.60000000E+01  1.00800000E+00  1.00800000E+00  1.60000000E+01  1.00800000E+00
  1.00800000E+00  1.60000000E+01  1.00800000E+00  1.00800000E+00  1.60000000E+01
  1.00800000E+00  1.00800000E+00  1.60000000E+01  1.00800000E+00  1.00800000E+00
  1.60000000E+01  1.00800000E+00  1.00800000E+00  1.60000000E+01  1.00800000E+00
  1.00800000E+00  1.60000000E+01  1.00800000E+00  1.00800000E+00  1.60000000E+01
  1.00800000E+00  1.00800000E+00  1.60000000E+01  1.00800000E+00  1.00800000E+00
  1.60000000E+01  1.00800000E+00  1.00800000E+00  1.60000000E+01  1.00800000E+00
  1.00800000E+00  1.60000000E+01  1.00800000E+00  1.00800000E+00  1.60000000E+01
  1.00800000E+00  1.00800000E+00  1.60000000E+01  1.00800000E+00  1.00800000E+00
  1.60000000E+01  1.00800000E+00  1.00800000E+00  1.60000000E+01  1.00800000E+00
  1.00800000E+00  1.60000000E+01  1.00800000E+00  1.00800000E+00  1.60000000E+01
  1.00800000E+00  1.00800000E+00  1.60000000E+01  1.00800000E+00  1.00800000E+00
  1.60000000E+01  1.00800000E+00  1.00800000E+00  1.60000000E+01  1.00800000E+00
  1.00800000E+00  1.60000000E+01  1.00800000E+00  1.00800000E+00  1.60000000E+01
  1.00800000E+00  1.00800000E+00  1.60000000E+01  1.00800000E+00  1.00800000E+00
  1.60000000E+01  1.00800000E+00  1.00800000E+00  1.60000000E+01  1.00800000E+00
  1.00800000E+00  1.60000000E+01  1.00800000E+00  1.00800000E+00  1.60000000E+01
  1.00800000E+00  1.00800000E+00  1.60000000E+01  1.00800000E+00  1.00800000E+00
  1.60000000E+01  1.00800000E+00  1.00800000E+00  1.60000000E+01  1.00800000E+00
  1.00800000E+00  1.60000000E+01  1.00800000E+00  1.00800000E+00  1.60000000E+01
  1.00800000E+00  1.00800000E+00  1.60000000E+01  1.00800000E+00  1.00800000E+00
  1.60000000E+01  1.00800000E+00  1.00800000E+00  1.60000000E+01  1.00800000E+00
  1.00800000E+00  1.60000000E+01  1.00800000E+00  1.00800000E+00  1.60000000E+01
  1.00800000E+00  1.00800000E+00  1.60000000E+01  1.00800000E+00  1.00800000E+00
  1.60000000E+01  1.00800000E+00  1.00800000E+00  1.60000000E+01  1.00800000E+00
  1.00800000E+00  1.60000000E+01  1.00800000E+00  1.00800000E+00  1.60000000E+01
  1.00800000E+00  1.00800000E+00  1.60000000E+01  1.00800000E+00  1.00800000E+00
  1.60000000E+01  1.00800000E+00  1.00800000E+00  1.60000000E+01  1.00800000E+00
  1.00800000E+00  1.60000000E+01  1.00800000E+00  1.00800000E+00  1.60000000E+01
  1.00800000E+00  1.00800000E+00  1.60000000E+01  1.00800000E+00  1.00800000E+00
  1.60000000E+01  1.00800000E+00  1.00800000E+00  1.60000000E+01  1.00800000E+00
  1.00800000E+00  1.60000000E+01  1.00800000E+00  1.00800000E+00  1.60000000E+01
  1.00800000E+00  1.00800000E+00  1.60000000E+01  1.00800000E+00  1.00800000E+00
  1.60000000E+01  1.00800000E+00  1.00800000E+00  1.60000000E+01  1.00800000E+00
  1.00800000E+00  1.60000000E+01  1.00800000E+00  1.00800000E+00  1.60000000E+01
  1.00800000E+00  1.00800000E+00  1.60000000E+01  1.00800000E+00  1.00800000E+00
  1.60000000E+01  1.00800000E+00  1.00800000E+00  1.60000000E+01  1.00800000E+00
  1.00800000E+00  1.60000000E+01  1.00800000E+00  1.00800000E+00  1.60000000E+01
  1.00800000E+00  1.00800000E+00  1.60000000E+01  1.00800000E+00  1.00800000E+00
  1.60000000E+01  1.00800000E+00  1.00800000E+00  1.60000000E+01  1.00800000E+00
  1.00800000E+00  1.60000000E+01  1.00800000E+00  1.00800000E+00  1.60000000E+01
  1.00800000E+00  1.00800000E+00  1.60000000E+01  1.00800000E+00  1.00800000E+00
  1.60000000E+01  1.00800000E+00  1.00800000E+00  1.60000000E+01  1.00800000E+00
  1.00800000E+00  1.60000000E+01  1.00800000E+00  1.00800000E+00  1.60000000E+01
  1.00800000E+00  1.00800000E+00  1.60000000E+01  1.00800000E+00  1.00800000E+00
  1.60000000E+01  1.00800000E+00  1.00800000E+00  1.60000000E+01  1.00800000E+00
  1.00800000E+00  1.60000000E+01  1.00800000E+00  1.00800000E+00  1.60000000E+01
  1.00800000E+00  1.00800000E+00  1.60000000E+01  1.00800000E+00  1.00800000E+00
  1.60000000E+01  1.00800000E+00  1.00800000E+00  1.60000000E+01  1.00800000E+00
  1.00800000E+00  1.60000000E+01  1.00800000E+00  1.00800000E+00  1.60000000E+01
  1.00800000E+00  1.00800000E+00  1.60000000E+01  1.00800000E+00  1.00800000E+00
  1.60000000E+01  1.00800000E+00  1.00800000E+00  1.60000000E+01  1.00800000E+00
  1.00800000E+00  1.60000000E+01  1.00800000E+00  1.00800000E+00  1.60000000E+01
  1.00800000E+00  1.00800000E+00  1.60000000E+01  1.00800000E+00  1.00800000E+00
  1.60000000E+01  1.00800000E+00  1.00800000E+00  1.60000000E+01  1.00800000E+00
  1.00800000E+00  1.60000000E+01  1.00800000E+00  1.00800000E+00  1.60000000E+01
  1.00800000E+00  1.00800000E+00  1.60000000E+01  1.00800000E+00  1.00800000E+00
  1.60000000E+01  1.00800000E+00  1.00800000E+00  1.60000000E+01  1.00800000E+00
  1.00800000E+00  1.60000000E+01  1.00800000E+00  1.00800000E+00  1.60000000E+01
  1.00800000E+00  1.00800000E+00  1.60000000E+01  1.00800000E+00  1.00800000E+00
  1.60000000E+01  1.00800000E+00  1.00800000E+00  1.60000000E+01  1.00800000E+00
  1.00800000E+00  1.60000000E+01  1.00800000E+00  1.00800000E+00  1.60000000E+01
  1.00800000E+00  1.00800000E+00  1.60000000E+01  1.00800000E+00  1.00800000E+00
  1.60000000E+01  1.00800000E+00  1.00800000E+00  1.60000000E+01  1.00800000E+00
  1.00800000E+00  1.60000000E+01  1.00800000E+00  1.00800000E+00  1.60000000E+01
  1.00800000E+00  1.00800000E+00  1.60000000E+01  1.00800000E+00  1.00800000E+00
  1.60000000E+01  1.00800000E+00  1.00800000E+00  1.60000000E+01  1.00800000E+00
  1.00800000E+00  1.60000000E+01  1.00800000E+00  1.00800000E+00  1.60000000E+01
  1.00800000E+00  1.00800000E+00  1.60000000E+01  1.00800000E+00  1.00800000E+00
  1.60000000E+01  1.00800000E+00  1.00800000E+00  1.60000000E+01  1.00800000E+00
  1.00800000E+00  1.60000000E+01  1.00800000E+00  1.00800000E+00  1.60000000E+01
  1.00800000E+00  1.00800000E+00  1.60000000E+01  1.00800000E+00  1.00800000E+00
  1.60000000E+01  1.00800000E+00  1.00800000E+00  1.60000000E+01  1.00800000E+00
  1.00800000E+00  1.60000000E+01  1.00800000E+00  1.00800000E+00  1.60000000E+01
  1.00800000E+00  1.00800000E+00  1.60000000E+01  1.00800000E+00  1.00800000E+00
  1.60000000E+01  1.00800000E+00  1.00800000E+00  1.60000000E+01  1.00800000E+00
  1.00800000E+00  1.60000000E+01  1.00800000E+00  1.00800000E+00  1.60000000E+01
  1.00800000E+00  1.00800000E+00  1.60000000E+01  1.00800000E+00  1.00800000E+00
  1.60000000E+01  1.00800000E+00  1.00800000E+00  1.60000000E+01  1.00800000E+00
  1.00800000E+00  1.60000000E+01  1.00800000E+00  1.00800000E+00  1.60000000E+01
  1.00800000E+00  1.00800000E+00  1.60000000E+01  1.00800000E+00  1.00800000E+00
  1.60000000E+01  1.00800000E+00  1.00800000E+00  1.60000000E+01  1.00800000E+00
  1.00800000E+00  1.60000000E+01  1.00800000E+00  1.00800000E+00  1.60000000E+01
  1.00800000E+00  1.00800000E+00  1.60000000E+01  1.00800000E+00  1.00800000E+00
  1.60000000E+01  1.00800000E+00  1.00800000E+00  1.60000000E+01  1.00800000E+00
  1.00800000E+00  1.60000000E+01  1.00800000E+00  1.00800000E+00  1.60000000E+01
  1.00800000E+00  1.00800000E+00  1.60000000E+01  1.00800000E+00  1.00800000E+00
  1.60000000E+01  1.00800000E+00  1.00800000E+00  1.60000000E+01  1.00800000E+00
  1.00800000E+00  1.60000000E+01  1.00800000E+00  1.00800000E+00  1.60000000E+01
  1.00800000E+00  1.00800000E+00  1.60000000E+01  1.00800000E+00  1.00800000E+00
  1.60000000E+01  1.00800000E+00  1.00800000E+00  1.60000000E+01  1.00800000E+00
  1.00800000E+00  1.60000000E+01  1.00800000E+00  1.00800000E+00  1.60000000E+01
  1.00800000E+00  1.00800000E+00  1.60000000E+01  1.00800000E+00  1.00800000E+00
  1.60000000E+01  1.00800000E+00  1.00800000E+00  1.60000000E+01  1.00800000E+00
  1.00800000E+00  1.60000000E+01  1.00800000E+00  1.00800000E+00  1.60000000E+01
  1.00800000E+00  1.00800000E+00  1.60000000E+01  1.00800000E+00  1.00800000E+00
  1.60000000E+01  1.00800000E+00  1.00800000E+00  1.60000000E+01  1.00800000E+00
  1.00800000E+00  1.60000000E+01  1.00800000E+00  1.00800000E+00  1.60000000E+01
  1.00800000E+00  1.00800000E+00  1.60000000E+01  1.00800000E+00  1.00800000E+00
  1.60000000E+01  1.00800000E+00  1.00800000E+00  1.60000000E+01  1.00800000E+00
  1.00800000E+00  1.60000000E+01  1.00800000E+00  1.00800000E+00  1.60000000E+01
  1.00800000E+00  1.00800000E+00  1.60000000E+01  1.00800000E+00  1.00800000E+00
  1.60000000E+01  1.00800000E+00  1.00800000E+00  1.60000000E+01  1.00800000E+00
  1.00800000E+00  1.60000000E+01  1.00800000E+00  1.00800000E+00  1.60000000E+01
  1.00800000E+00  1.00800000E+00  1.60000000E+01  1.00800000E+00  1.00800000E+00
  1.60000000E+01  1.00800000E+00  1.00800000E+00  1.60000000E+01  1.00800000E+00
  1.00800000E+00  1.60000000E+01  1.00800000E+00  1.00800000E+00  1.60000000E+01
  1.00800000E+00  1.00800000E+00  1.60000000E+01  1.00800000E+00  1.00800000E+00
  1.60000000E+01  1.00800000E+00  1.00800000E+00  1.60000000E+01  1.00800000E+00
  1.00800000E+00  1.60000000E+01  1.00800000E+00  1.00800000E+00  1.60000000E+01
  1.00800000E+00  1.00800000E+00  1.60000000E+01  1.00800000E+00  1.00800000E+00
  1.60000000E+01  1.00800000E+00  1.00800000E+00  1.60000000E+01  1.00800000E+00
  1.00800000E+00  1.60000000E+01  1.00800000E+00  1.00800000E+00  1.60000000E+01
  1.00800000E+00  1.00800000E+00  1.60000000E+01  1.00800000E+00  1.00800000E+00
  1.60000000E+01  1.00800000E+00  1.00800000E+00  1.60000000E+01  1.00800000E+00
  1.00800000E+00  1.60000000E+01  1.00800000E+00  1.00800000E+00  1.60000000E+01
  1.00800000E+00  1.00800000E+00  1.60000000E+01  1.00800000E+00  1.00800000E+00
  1.60000000E+01  1.00800000E+00  1.00800000E+00  1.60000000E+01  1.00800000E+00
  1.00800000E+00  1.60000000E+01  1.00800000E+00  1.00800000E+00  1.60000000E+01
  1.00800000E+00  1.00800000E+00  1.60000000E+01  1.00800000E+00  1.00800000E+00
  1.60000000E+01  1.00800000E+00  1.00800000E+00  1.60000000E+01  1.00800000E+00
  1.00800000E+00  1.60000000E+01  1.00800000E+00  1.00800000E+00  1.60000000E+01
  1.00800000E+00  1.00800000E+00  1.60000000E+01  1.00800000E+00  1.00800000E+00
  1.60000000E+01  1.00800000E+00  1.00800000E+00  1.60000000E+01  1.00800000E+00
  1.00800000E+00  1.60000000E+01  1.00800000E+00  1.00800000E+00  1.60000000E+01
  1.00800000E+00  1.00800000E+00  1.60000000E+01  1.00800000E+00  1.00800000E+00
  1.60000000E+01  1.00800000E+00  1.00800000E+00  1.60000000E+01  1.00800000E+00
  1.00800000E+00  1.60000000E+01  1.00800000E+00  1.00800000E+00  1.60000000E+01
  1.00800000E+00  1.00800000E+00  1.60000000E+01  1.00800000E+00  1.00800000E+00
  1.60000000E+01  1.00800000E+00  1.00800000E+00  1.60000000E+01  1.00800000E+00
  1.00800000E+00  1.60000000E+01  1.00800000E+00  1.00800000E+00  1.60000000E+01
  1.00800000E+00  1.00800000E+00  1.60000000E+01  1.00800000E+00  1.00800000E+00
  1.60000000E+01  1.00800000E+00  1.00800000E+00  1.60000000E+01  1.00800000E+00
  1.00800000E+00  1.60000000E+01  1.00800000E+00  1.00800000E+00  1.60000000E+01
  1.00800000E+00  1.00800000E+00  1.60000000E+01  1.00800000E+00  1.00800000E+00
  1.60000000E+01  1.00800000E+00  1.00800000E+00  1.60000000E+01  1.00800000E+00
  1.00800000E+00  1.60000000E+01  1.00800000E+00  1.00800000E+00  1.60000000E+01
  1.00800000E+00  1.00800000E+00  1.60000000E+01  1.00800000E+00  1.00800000E+00
  1.60000000E+01  1.00800000E+00  1.00800000E+00  1.60000000E+01  1.00800000E+00
  1.00800000E+00  1.60000000E+01  1.00800000E+00  1.00800000E+00  1.60000000E+01
  1.00800000E+00  1.00800000E+00  1.60000000E+01  1.00800000E+00  1.00800000E+00
  1.60000000E+01  1.00800000E+00  1.00800000E+00  1.60000000E+01  1.00800000E+00
  1.00800000E+00  1.60000000E+01  1.00800000E+00  1.00800000E+00  1.60000000E+01
  1.00800000E+00  1.00800000E+00  1.60000000E+01  1.00800000E+00  1.00800000E+00
  1.60000000E+01  1.00800000E+00  1.00800000E+00  1.60000000E+01  1.00800000E+00
  1.00800000E+00  1.60000000E+01  1.00800000E+00  1.00800000E+00  1.60000000E+01
  1.00800000E+00  1.00800000E+00  1.60000000E+01  1.00800000E+00  1.00800000E+00
  1.60000000E+01  1.00800000E+00  1.00800000E+00  1.60000000E+01  1.00800000E+00
  1.00800000E+00  1.60000000E+01  1.00800000E+00  1.00800000E+00  1.60000000E+01
  1.00800000E+00  1.00800000E+00  1.60000000E+01  1.00800000E+00  1.00800000E+00
  1.60000000E+01  1.00800000E+00  1.00800000E+00  1.60000000E+01  1.00800000E+00
  1.00800000E+00  1.60000000E+01  1.00800000E+00  1.00800000E+00  1.60000000E+01
  1.00800000E+00  1.00800000E+00  1.60000000E+01  1.00800000E+00  1.00800000E+00
  1.60000000E+01  1.00800000E+00  1.00800000E+00  1.60000000E+01  1.00800000E+00
  1.00800000E+00  1.60000000E+01  1.00800000E+00  1.00800000E+00  1.60000000E+01
  1.00800000E+00  1.00800000E+00  1.60000000E+01  1.00800000E+00  1.00800000E+00
  1.60000000E+01  1.00800000E+00  1.00800000E+00  1.60000000E+01  1.00800000E+00
  1.00800000E+00  1.60000000E+01  1.00800000E+00  1.00800000E+00  1.60000000E+01
  1.00800000E+00  1.00800000E+00  1.60000000E+01  1.00800000E+00  1.00800000E+00
  1.60000000E+01  1.00800000E+00  1.00800000E+00  1.60000000E+01  1.00800000E+00
  1.00800000E+00  1.60000000E+01  1.00800000E+00  1.00800000E+00  1.60000000E+01
  1.00800000E+00  1.00800000E+00  1.60000000E+01  1.00800000E+00  1.00800000E+00
  1.60000000E+01  1.00800000E+00  1.00800000E+00  1.60000000E+01  1.00800000E+00
  1.00800000E+00  1.60000000E+01  1.00800000E+00  1.00800000E+00  1.60000000E+01
  1.00800000E+00  1.00800000E+00  1.60000000E+01  1.00800000E+00  1.00800000E+00
  1.60000000E+01  1.00800000E+00  1.00800000E+00  1.60000000E+01  1.00800000E+00
  1.00800000E+00  1.60000000E+01  1.00800000E+00  1.00800000E+00  1.60000000E+01
  1.00800000E+00  1.00800000E+00  1.60000000E+01  1.00800000E+00  1.00800000E+00
  1.60000000E+01  1.00800000E+00  1.00800000E+00  1.60000000E+01  1.00800000E+00
  1.00800000E+00  1.60000000E+01  1.00800000E+00  1.00800000E+00  1.60000000E+01
  1.00800000E+00  1.00800000E+00  1.60000000E+01  1.00800000E+00  1.00800000E+00
  1.60000000E+01  1.00800000E+00  1.00800000E+00  1.60000000E+01  1.00800000E+00
  1.00800000E+00  1.60000000E+01  1.00800000E+00  1.00800000E+00  1.60000000E+01
  1.00800000E+00  1.00800000E+00  1.60000000E+01  1.00800000E+00  1.00800000E+00
  1.60000000E+01  1.00800000E+00  1.00800000E+00  1.60000000E+01  1.00800000E+00
  1.00800000E+00  1.60000000E+01  1.00800000E+00  1.00800000E+00  1.60000000E+01
  1.00800000E+00  1.00800000E+00  1.60000000E+01  1.00800000E+00  1.00800000E+00
  1.60000000E+01  1.00800000E+00  1.00800000E+00  1.60000000E+01  1.00800000E+00
  1.00800000E+00  1.60000000E+01  1.00800000E+00  1.00800000E+00  1.60000000E+01
  1.00800000E+00  1.00800000E+00  1.60000000E+01  1.00800000E+00  1.00800000E+00
  1.60000000E+01  1.00800000E+00  1.00800000E+00  1.60000000E+01  1.00800000E+00
  1.00800000E+00  1.60000000E+01  1.00800000E+00  1.00800000E+00  1.60000000E+01
  1.00800000E+00  1.00800000E+00  1.60000000E+01  1.00800000E+00  1.00800000E+00
  1.60000000E+01  1.00800000E+00  1.00800000E+00  1.60000000E+01  1.00800000E+00
  1.00800000E+00  1.60000000E+01  1.00800000E+00  1.00800000E+00  1.60000000E+01
  1.00800000E+00  1.00800000E+00  1.60000000E+01  1.00800000E+00  1.00800000E+00
  1.60000000E+01  1.00800000E+00  1.00800000E+00  1.60000000E+01  1.00800000E+00
  1.00800000E+00  1.60000000E+01  1.00800000E+00  1.00800000E+00  1.60000000E+01
  1.00800000E+00  1.00800000E+00  1.60000000E+01  1.00800000E+00  1.00800000E+00
  1.60000000E+01  1.00800000E+00  1.00800000E+00  1.60000000E+01  1.00800000E+00
  1.00800000E+00  1.60000000E+01  1.00800000E+00  1.00800000E+00  1.60000000E+01
  1.00800000E+00  1.00800000E+00  1.60000000E+01  1.00800000E+00  1.00800000E+00
  1.60000000E+01  1.00800000E+00  1.00800000E+00  1.60000000E+01  1.00800000E+00
  1.00800000E+00  1.60000000E+01  1.00800000E+00  1.00800000E+00  1.60000000E+01
  1.00800000E+00  1.00800000E+00  1.60000000E+01  1.00800000E+00  1.00800000E+00
  1.60000000E+01  1.00800000E+00  1.00800000E+00  1.60000000E+01  1.00800000E+00
  1.00800000E+00  1.60000000E+01  1.00800000E+00  1.00800000E+00  1.60000000E+01
  1.00800000E+00  1.00800000E+00  1.60000000E+01  1.00800000E+00  1.00800000E+00
  1.60000000E+01  1.00800000E+00  1.00800000E+00  1.60000000E+01  1.00800000E+00
  1.00800000E+00  1.60000000E+01  1.00800000E+00  1.00800000E+00  1.60000000E+01
  1.00800000E+00  1.00800000E+00  1.60000000E+01  1.00800000E+00  1.00800000E+00
  1.60000000E+01  1.00800000E+00  1.00800000E+00  1.60000000E+01  1.00800000E+00
  1.00800000E+00  1.60000000E+01  1.00800000E+00  1.00800000E+00  1.60000000E+01
  1.00800000E+00  1.00800000E+00  1.60000000E+01  1.00800000E+00  1.00800000E+00
  1.60000000E+01  1.00800000E+00  1.00800000E+00  1.60000000E+01  1.00800000E+00
  1.00800000E+00  1.60000000E+01  1.00800000E+00  1.00800000E+00  1.60000000E+01
  1.00800000E+00  1.00800000E+00  1.60000000E+01  1.00800000E+00  1.00800000E+00
  1.60000000E+01  1.00800000E+00  1.00800000E+00  1.60000000E+01  1.00800000E+00
  1.00800000E+00  1.60000000E+01  1.00800000E+00  1.00800000E+00  1.60000000E+01
  1.00800000E+00  1.00800000E+00  1.60000000E+01  1.00800000E+00  1.00800000E+00
  1.60000000E+01  1.00800000E+00  1.00800000E+00  1.60000000E+01  1.00800000E+00
  1.00800000E+00  1.60000000E+01  1.00800000E+00  1.00800000E+00  1.60000000E+01
  1.00800000E+00  1.00800000E+00  1.60000000E+01  1.00800000E+00  1.00800000E+00
  1.60000000E+01  1.00800000E+00  1.00800000E+00  1.60000000E+01  1.00800000E+00
  1.00800000E+00  1.60000000E+01  1.00800000E+00  1.00800000E+00  1.60000000E+01
  1.00800000E+00  1.00800000E+00  1.60000000E+01  1.00800000E+00  1.00800000E+00
  1.60000000E+01  1.00800000E+00  1.00800000E+00  1.60000000E+01  1.00800000E+00
  1.00800000E+00  1.60000000E+01  1.00800000E+00  1.00800000E+00  1.60000000E+01
  1.00800000E+00  1.00800000E+00  1.60000000E+01  1.00800000E+00  1.00800000E+00
  1.60000000E+01  1.00800000E+00  1.00800000E+00  1.60000000E+01  1.00800000E+00
  1.00800000E+00  1.60000000E+01  1.00800000E+00  1.00800000E+00  1.60000000E+01
  1.00800000E+00  1.00800000E+00  1.60000000E+01  1.00800000E+00  1.00800000E+00
  1.60000000E+01  1.00800000E+00  1.00800000E+00  1.60000000E+01  1.00800000E+00
  1.00800000E+00  1.60000000E+01  1.00800000E+00  1.00800000E+00  1.60000000E+01
  1.00800000E+00  1.00800000E+00  1.60000000E+01  1.00800000E+00  1.00800000E+00
  1.60000000E+01  1.00800000E+00  1.00800000E+00  1.60000000E+01  1.00800000E+00
  1.00800000E+00  1.60000000E+01  1.00800000E+00  1.00800000E+00  1.60000000E+01
  1.00800000E+00  1.00800000E+00  1.60000000E+01  1.00800000E+00  1.00800000E+00
  1.60000000E+01  1.00800000E+00  1.00800000E+00  1.60000000E+01  1.00800000E+00
  1.00800000E+00  1.60000000E+01  1.00800000E+00  1.00800000E+00  1.60000000E+01
  1.00800000E+00  1.00800000E+00  1.60000000E+01  1.00800000E+00  1.00800000E+00
  1.60000000E+01  1.00800000E+00  1.00800000E+00  1.60000000E+01  1.00800000E+00
  1.00800000E+00  1.60000000E+01  1.00800000E+00  1.00800000E+00  1.60000000E+01
  1.00800000E+00  1.00800000E+00  1.60000000E+01  1.00800000E+00  1.00800000E+00
  1.60000000E+01  1.00800000E+00  1.00800000E+00  1.60000000E+01  1.00800000E+00
  1.00800000E+00  1.60000000E+01  1.00800000E+00  1.00800000E+00  1.60000000E+01
  1.00800000E+00  1.00800000E+00  1.60000000E+01  1.00800000E+00  1.00800000E+00
  1.60000000E+01  1.00800000E+00  1.00800000E+00  1.60000000E+01  1.00800000E+00
  1.00800000E+00  1.60000000E+01  1.00800000E+00  1.00800000E+00  1.60000000E+01
  1.00800000E+00  1.00800000E+00  1.60000000E+01  1.00800000E+00  1.00800000E+00
  1.60000000E+01  1.00800000E+00  1.00800000E+00  1.60000000E+01  1.00800000E+00
  1.00800000E+00  1.60000000E+01  1.00800000E+00  1.00800000E+00  1.60000000E+01
  1.00800000E+00  1.00800000E+00  1.60000000E+01  1.00800000E+00  1.00800000E+00
  1.60000000E+01  1.00800000E+00  1.00800000E+00  1.60000000E+01  1.00800000E+00
  1.00800000E+00  1.60000000E+01  1.00800000E+00  1.00800000E+00  1.60000000E+01
  1.00800000E+00  1.00800000E+00  1.60000000E+01  1.00800000E+00  1.00800000E+00
  1.60000000E+01  1.00800000E+00  1.00800000E+00  1.60000000E+01  1.00800000E+00
  1.00800000E+00  1.60000000E+01  1.00800000E+00  1.00800000E+00  1.60000000E+01
  1.00800000E+00  1.00800000E+00  1.60000000E+01  1.00800000E+00  1.00800000E+00
  1.60000000E+01  1.00800000E+00  1.00800000E+00  1.60000000E+01  1.00800000E+00
  1.00800000E+00  1.60000000E+01  1.00800000E+00  1.00800000E+00  1.60000000E+01
  1.00800000E+00  1.00800000E+00  1.60000000E+01  1.00800000E+00  1.00800000E+00
  1.60000000E+01  1.00800000E+00  1.00800000E+00  1.60000000E+01  1.00800000E+00
  1.00800000E+00  1.60000000E+01  1.00800000E+00  1.00800000E+00  1.60000000E+01
  1.00800000E+00  1.00800000E+00  1.60000000E+01  1.00800000E+00  1.00800000E+00
  1.60000000E+01  1.00800000E+00  1.00800000E+00  1.60000000E+01  1.00800000E+00
  1.00800000E+00  1.60000000E+01  1.00800000E+00  1.00800000E+00  1.60000000E+01
  1.00800000E+00  1.00800000E+00  1.60000000E+01  1.00800000E+00  1.00800000E+00
  1.60000000E+01  1.00800000E+00  1.00800000E+00  1.60000000E+01  1.00800000E+00
  1.00800000E+00  1.60000000E+01  1.00800000E+00  1.00800000E+00  1.60000000E+01
  1.00800000E+00  1.00800000E+00  1.60000000E+01  1.00800000E+00  1.00800000E+00
  1.60000000E+01  1.00800000E+00  1.00800000E+00  1.60000000E+01  1.00800000E+00
  1.00800000E+00  1.60000000E+01  1.00800000E+00  1.00800000E+00  1.60000000E+01
  1.00800000E+00  1.00800000E+00  1.60000000E+01  1.00800000E+00  1.00800000E+00
  1.60000000E+01  1.00800000E+00  1.00800000E+00  1.60000000E+01  1.00800000E+00
  1.00800000E+00  1.60000000E+01  1.00800000E+00  1.00800000E+00  1.60000000E+01
  1.00800000E+00  1.00800000E+00  1.60000000E+01  1.00800000E+00  1.00800000E+00
  1.60000000E+01  1.00800000E+00  1.00800000E+00  1.60000000E+01  1.00800000E+00
  1.00800000E+00  1.60000000E+01  1.00800000E+00  1.00800000E+00  1.60000000E+01
  1.00800000E+00  1.00800000E+00  1.60000000E+01  1.00800000E+00  1.00800000E+00
  1.60000000E+01  1.00800000E+00  1.00800000E+00  1.60000000E+01  1.00800000E+00
  1.00800000E+00  1.60000000E+01  1.00800000E+00  1.00800000E+00  1.60000000E+01
  1.00800000E+00  1.00800000E+00  1.60000000E+01  1.00800000E+00  1.00800000E+00
  1.60000000E+01  1.00800000E+00  1.00800000E+00  1.60000000E+01  1.00800000E+00
  1.00800000E+00  1.60000000E+01  1.00800000E+00  1.00800000E+00  1.60000000E+01
  1.00800000E+00  1.00800000E+00  1.60000000E+01  1.00800000E+00  1.00800000E+00
  1.60000000E+01  1.00800000E+00  1.00800000E+00  1.60000000E+01  1.00800000E+00
  1.00800000E+00  1.60000000E+01  1.00800000E+00  1.00800000E+00  1.60000000E+01
  1.00800000E+00  1.00800000E+00  1.60000000E+01  1.00800000E+00  1.00800000E+00
  1.60000000E+01  1.00800000E+00  1.00800000E+00  1.60000000E+01  1.00800000E+00
  1.00800000E+00  1.60000000E+01  1.00800000E+00  1.00800000E+00  1.60000000E+01
  1.00800000E+00  1.00800000E+00  1.60000000E+01  1.00800000E+00  1.00800000E+00
  1.60000000E+01  1.00800000E+00  1.00800000E+00  1.60000000E+01  1.00800000E+00
  1.00800000E+00  1.60000000E+01  1.00800000E+00  1.00800000E+00  1.60000000E+01
  1.00800000E+00  1.00800000E+00  1.60000000E+01  1.00800000E+00  1.00800000E+00
  1.60000000E+01  1.00800000E+00  1.00800000E+00  1.60000000E+01  1.00800000E+00
  1.00800000E+00  1.60000000E+01  1.00800000E+00  1.00800000E+00  1.60000000E+01
  1.00800000E+00  1.00800000E+00  1.60000000E+01  1.00800000E+00  1.00800000E+00
  1.60000000E+01  1.00800000E+00  1.00800000E+00  1.60000000E+01  1.00800000E+00
  1.00800000E+00  1.60000000E+01  1.00800000E+00  1.00800000E+00  1.60000000E+01
  1.00800000E+00  1.00800000E+00  1.60000000E+01  1.00800000E+00  1.00800000E+00
  1.60000000E+01  1.00800000E+00  1.00800000E+00  1.60000000E+01  1.00800000E+00
  1.00800000E+00  1.60000000E+01  1.00800000E+00  1.00800000E+00  1.60000000E+01
  1.00800000E+00  1.00800000E+00  1.60000000E+01  1.00800000E+00  1.00800000E+00
  1.60000000E+01  1.00800000E+00  1.00800000E+00  1.60000000E+01  1.00800000E+00
  1.00800000E+00  1.60000000E+01  1.00800000E+00  1.00800000E+00  1.60000000E+01
  1.00800000E+00  1.00800000E+00  1.60000000E+01  1.00800000E+00  1.00800000E+00
  1.60000000E+01  1.00800000E+00  1.00800000E+00  1.60000000E+01  1.00800000E+00
  1.00800000E+00  1.60000000E+01  1.00800000E+00  1.00800000E+00  1.60000000E+01
  1.00800000E+00  1.00800000E+00  1.60000000E+01  1.00800000E+00  1.00800000E+00
  1.60000000E+01  1.00800000E+00  1.00800000E+00  1.60000000E+01  1.00800000E+00
  1.00800000E+00  1.60000000E+01  1.00800000E+00  1.00800000E+00  1.60000000E+01
  1.00800000E+00  1.00800000E+00  1.60000000E+01  1.00800000E+00  1.00800000E+00
  1.60000000E+01  1.00800000E+00  1.00800000E+00  1.60000000E+01  1.00800000E+00
  1.00800000E+00  1.60000000E+01  1.00800000E+00  1.00800000E+00  1.60000000E+01
  1.00800000E+00  1.00800000E+00  1.60000000E+01  1.00800000E+00  1.00800000E+00
  1.60000000E+01  1.00800000E+00  1.00800000E+00  1.60000000E+01  1.00800000E+00
  1.00800000E+00  1.60000000E+01  1.00800000E+00  1.00800000E+00  1.60000000E+01
  1.00800000E+00  1.00800000E+00  1.60000000E+01  1.00800000E+00  1.00800000E+00
  1.60000000E+01  1.00800000E+00  1.00800000E+00  1.60000000E+01  1.00800000E+00
  1.00800000E+00  1.60000000E+01  1.00800000E+00  1.00800000E+00  1.60000000E+01
  1.00800000E+00  1.00800000E+00  1.60000000E+01  1.00800000E+00  1.00800000E+00
  1.60000000E+01  1.00800000E+00  1.00800000E+00  1.60000000E+01  1.00800000E+00
  1.00800000E+00  1.60000000E+01  1.00800000E+00  1.00800000E+00  1.60000000E+01
  1.00800000E+00  1.00800000E+00  1.60000000E+01  1.00800000E+00  1.00800000E+00
  1.60000000E+01  1.00800000E+00  1.00800000E+00  1.60000000E+01  1.00800000E+00
  1.00800000E+00  1.60000000E+01  1.00800000E+00  1.00800000E+00  1.60000000E+01
  1.00800000E+00  1.00800000E+00  1.60000000E+01  1.00800000E+00  1.00800000E+00
  1.60000000E+01  1.00800000E+00  1.00800000E+00  1.60000000E+01  1.00800000E+00
  1.00800000E+00  1.60000000E+01  1.00800000E+00  1.00800000E+00  1.60000000E+01
  1.00800000E+00  1.00800000E+00  1.60000000E+01  1.00800000E+00  1.00800000E+00
  1.60000000E+01  1.00800000E+00  1.00800000E+00  1.60000000E+01  1.00800000E+00
  1.00800000E+00  1.60000000E+01  1.00800000E+00  1.00800000E+00  1.60000000E+01
  1.00800000E+00  1.00800000E+00  1.60000000E+01  1.00800000E+00  1.00800000E+00
  1.60000000E+01  1.00800000E+00  1.00800000E+00  1.60000000E+01  1.00800000E+00
  1.00800000E+00  1.60000000E+01  1.00800000E+00  1.00800000E+00  1.60000000E+01
  1.00800000E+00  1.00800000E+00  1.60000000E+01  1.00800000E+00  1.00800000E+00
  1.60000000E+01  1.00800000E+00  1.00800000E+00  1.60000000E+01  1.00800000E+00
  1.00800000E+00  1.60000000E+01  1.00800000E+00  1.00800000E+00  1.60000000E+01
  1.00800000E+00  1.00800000E+00  1.60000000E+01  1.00800000E+00  1.00800000E+00
  1.60000000E+01  1.00800000E+00  1.00800000E+00  1.60000000E+01  1.00800000E+00
  1.00800000E+00  1.60000000E+01  1.00800000E+00  1.00800000E+00  1.60000000E+01
  1.00800000E+00  1.00800000E+00  1.60000000E+01  1.00800000E+00  1.00800000E+00
  1.60000000E+01  1.00800000E+00  1.00800000E+00  1.60000000E+01  1.00800000E+00
  1.00800000E+00  1.60000000E+01  1.00800000E+00  1.00800000E+00  1.60000000E+01
  1.00800000E+00  1.00800000E+00  1.60000000E+01  1.00800000E+00  1.00800000E+00
  1.60000000E+01  1.00800000E+00  1.00800000E+00  1.60000000E+01  1.00800000E+00
  1.00800000E+00  1.60000000E+01  1.00800000E+00  1.00800000E+00  1.60000000E+01
  1.00800000E+00  1.00800000E+00  1.60000000E+01  1.00800000E+00  1.00800000E+00
  1.60000000E+01  1.00800000E+00  1.00800000E+00  1.60000000E+01  1.00800000E+00
  1.00800000E+00  1.60000000E+01  1.00800000E+00  1.00800000E+00  1.60000000E+01
  1.00800000E+00  1.00800000E+00  1.60000000E+01  1.00800000E+00  1.00800000E+00
  1.60000000E+01  1.00800000E+00  1.00800000E+00  1.60000000E+01  1.00800000E+00
  1.00800000E+00  1.60000000E+01  1.00800000E+00  1.00800000E+00  1.60000000E+01
  1.00800000E+00  1.00800000E+00  1.60000000E+01  1.00800000E+00  1.00800000E+00
  1.60000000E+01  1.00800000E+00  1.00800000E+00  1.60000000E+01  1.00800000E+00
  1.00800000E+00  1.60000000E+01  1.00800000E+00  1.00800000E+00  1.60000000E+01
  1.00800000E+00  1.00800000E+00  1.60000000E+01  1.00800000E+00  1.00800000E+00
  1.60000000E+01  1.00800000E+00  1.00800000E+00  1.60000000E+01  1.00800000E+00
  1.00800000E+00  1.60000000E+01  1.00800000E+00  1.00800000E+00  1.60000000E+01
  1.00800000E+00  1.00800000E+00  1.60000000E+01  1.00800000E+00  1.00800000E+00
  1.60000000E+01  1.00800000E+00  1.00800000E+00  1.60000000E+01  1.00800000E+00
  1.00800000E+00  1.60000000E+01  1.00800000E+00  1.00800000E+00  1.60000000E+01
  1.00800000E+00  1.00800000E+00  1.60000000E+01  1.00800000E+00  1.00800000E+00
  1.60000000E+01  1.00800000E+00  1.00800000E+00  1.60000000E+01  1.00800000E+00
  1.00800000E+00  1.60000000E+01  1.00800000E+00  1.00800000E+00  1.60000000E+01
  1.00800000E+00  1.00800000E+00  1.60000000E+01  1.00800000E+00  1.00800000E+00
  1.60000000E+01  1.00800000E+00  1.00800000E+00  1.60000000E+01  1.00800000E+00
  1.00800000E+00  1.60000000E+01  1.00800000E+00  1.00800000E+00  1.60000000E+01
  1.00800000E+00  1.00800000E+00  1.60000000E+01  1.00800000E+00  1.00800000E+00
  1.60000000E+01  1.00800000E+00  1.00800000E+00  1.60000000E+01  1.00800000E+00
  1.00800000E+00  1.60000000E+01  1.00800000E+00  1.00800000E+00  1.60000000E+01
  1.00800000E+00  1.00800000E+00  1.60000000E+01  1.00800000E+00  1.00800000E+00
  1.60000000E+01  1.00800000E+00  1.00800000E+00  1.60000000E+01  1.00800000E+00
  1.00800000E+00  1.60000000E+01  1.00800000E+00  1.00800000E+00  1.60000000E+01
  1.00800000E+00  1.00800000E+00  1.60000000E+01  1.00800000E+00  1.00800000E+00
  1.60000000E+01  1.00800000E+00  1.00800000E+00  1.60000000E+01  1.00800000E+00
  1.00800000E+00  1.60000000E+01  1.00800000E+00  1.00800000E+00  1.60000000E+01
  1.00800000E+00  1.00800000E+00  1.60000000E+01  1.00800000E+00  1.00800000E+00
  1.60000000E+01  1.00800000E+00  1.00800000E+00  1.60000000E+01  1.00800000E+00
  1.00800000E+00  1.60000000E+01  1.00800000E+00  1.00800000E+00  1.60000000E+01
  1.00800000E+00  1.00800000E+00  1.60000000E+01  1.00800000E+00  1.00800000E+00
  1.60000000E+01  1.00800000E+00  1.00800000E+00  1.60000000E+01  1.00800000E+00
  1.00800000E+00  1.60000000E+01  1.00800000E+00  1.00800000E+00  1.60000000E+01
  1.00800000E+00  1.00800000E+00  1.60000000E+01  1.00800000E+00  1.00800000E+00
  1.60000000E+01  1.00800000E+00  1.00800000E+00  1.60000000E+01  1.00800000E+00
  1.00800000E+00  1.60000000E+01  1.00800000E+00  1.00800000E+00  1.60000000E+01
  1.00800000E+00  1.00800000E+00  1.60000000E+01  1.00800000E+00  1.00800000E+00
  1.60000000E+01  1.00800000E+00  1.00800000E+00  1.60000000E+01  1.00800000E+00
  1.00800000E+00  1.60000000E+01  1.00800000E+00  1.00800000E+00  1.60000000E+01
  1.00800000E+00  1.00800000E+00  1.60000000E+01  1.00800000E+00  1.00800000E+00
  1.60000000E+01  1.00800000E+00  1.00800000E+00  1.60000000E+01  1.00800000E+00
  1.00800000E+00  1.60000000E+01  1.00800000E+00  1.00800000E+00  1.60000000E+01
  1.00800000E+00  1.00800000E+00  1.60000000E+01  1.00800000E+00  1.00800000E+00
  1.60000000E+01  1.00800000E+00  1.00800000E+00  1.60000000E+01  1.00800000E+00
  1.00800000E+00  1.60000000E+01  1.00800000E+00  1.00800000E+00  1.60000000E+01
  1.00800000E+00  1.00800000E+00  1.60000000E+01  1.00800000E+00  1.00800000E+00
  1.60000000E+01  1.00800000E+00  1.00800000E+00  1.60000000E+01  1.00800000E+00
  1.00800000E+00  1.60000000E+01  1.00800000E+00  1.00800000E+00  1.60000000E+01
  1.00800000E+00  1.00800000E+00  1.60000000E+01  1.00800000E+00  1.00800000E+00
  1.60000000E+01  1.00800000E+00  1.00800000E+00  1.60000000E+01  1.00800000E+00
  1.00800000E+00  1.60000000E+01  1.00800000E+00  1.00800000E+00  1.60000000E+01
  1.00800000E+00  1.00800000E+00  1.60000000E+01  1.00800000E+00  1.00800000E+00
  1.60000000E+01  1.00800000E+00  1.00800000E+00  1.60000000E+01  1.00800000E+00
  1.00800000E+00  1.60000000E+01  1.00800000E+00  1.00800000E+00  1.60000000E+01
  1.00800000E+00  1.00800000E+00  1.60000000E+01  1.00800000E+00  1.00800000E+00
  1.60000000E+01  1.00800000E+00  1.00800000E+00  1.60000000E+01  1.00800000E+00
  1.00800000E+00  1.60000000E+01  1.00800000E+00  1.00800000E+00  1.60000000E+01
  1.00800000E+00  1.00800000E+00  1.60000000E+01  1.00800000E+00  1.00800000E+00
  1.60000000E+01  1.00800000E+00  1.00800000E+00  1.60000000E+01  1.00800000E+00
  1.00800000E+00  1.60000000E+01  1.00800000E+00  1.00800000E+00  1.60000000E+01
  1.00800000E+00  1.00800000E+00  1.60000000E+01  1.00800000E+00  1.00800000E+00
  1.60000000E+01  1.00800000E+00  1.00800000E+00  1.60000000E+01  1.00800000E+00
  1.00800000E+00  1.60000000E+01  1.00800000E+00  1.00800000E+00  1.60000000E+01
  1.00800000E+00  1.00800000E+00  1.60000000E+01  1.00800000E+00  1.00800000E+00
  1.60000000E+01  1.00800000E+00  1.00800000E+00  1.60000000E+01  1.00800000E+00
  1.00800000E+00  1.60000000E+01  1.00800000E+00  1.00800000E+00  1.60000000E+01
  1.00800000E+00  1.00800000E+00  1.60000000E+01  1.00800000E+00  1.00800000E+00
  1.60000000E+01  1.00800000E+00  1.00800000E+00  1.60000000E+01  1.00800000E+00
  1.00800000E+00  1.60000000E+01  1.00800000E+00  1.00800000E+00  1.60000000E+01
  1.00800000E+00  1.00800000E+00  1.60000000E+01  1.00800000E+00  1.00800000E+00
  1.60000000E+01  1.00800000E+00  1.00800000E+00  1.60000000E+01  1.00800000E+00
  1.00800000E+00  1.60000000E+01  1.00800000E+00  1.00800000E+00  1.60000000E+01
  1.00800000E+00  1.00800000E+00  1.60000000E+01  1.00800000E+00  1.00800000E+00
  1.60000000E+01  1.00800000E+00  1.00800000E+00  1.60000000E+01  1.00800000E+00
  1.00800000E+00  1.60000000E+01  1.00800000E+00  1.00800000E+00  1.60000000E+01
  1.00800000E+00  1.00800000E+00  1.60000000E+01  1.00800000E+00  1.00800000E+00
  1.60000000E+01  1.00800000E+00  1.00800000E+00  1.60000000E+01  1.00800000E+00
  1.00800000E+00  1.60000000E+01  1.00800000E+00  1.00800000E+00  1.60000000E+01
  1.00800000E+00  1.00800000E+00  1.60000000E+01  1.00800000E+00  1.00800000E+00
  1.60000000E+01  1.00800000E+00  1.00800000E+00  1.60000000E+01  1.00800000E+00
  1.00800000E+00  1.60000000E+01  1.00800000E+00  1.00800000E+00  1.60000000E+01
  1.00800000E+00  1.00800000E+00  1.60000000E+01  1.00800000E+00  1.00800000E+00
  1.60000000E+01  1.00800000E+00  1.00800000E+00  1.60000000E+01  1.00800000E+00
  1.00800000E+00  1.60000000E+01  1.00800000E+00  1.00800000E+00  1.60000000E+01
  1.00800000E+00  1.00800000E+00  1.60000000E+01  1.00800000E+00  1.00800000E+00
  1.60000000E+01  1.00800000E+00  1.00800000E+00  1.60000000E+01  1.00800000E+00
  1.00800000E+00  1.60000000E+01  1.00800000E+00  1.00800000E+00  1.60000000E+01
  1.00800000E+00  1.00800000E+00  1.60000000E+01  1.00800000E+00  1.00800000E+00
  1.60000000E+01  1.00800000E+00  1.00800000E+00  1.60000000E+01  1.00800000E+00
  1.00800000E+00  1.60000000E+01  1.00800000E+00  1.00800000E+00  1.60000000E+01
  1.00800000E+00  1.00800000E+00  1.60000000E+01  1.00800000E+00  1.00800000E+00
  1.60000000E+01  1.00800000E+00  1.00800000E+00  1.60000000E+01  1.00800000E+00
  1.00800000E+00  1.60000000E+01  1.00800000E+00  1.00800000E+00  1.60000000E+01
  1.00800000E+00  1.00800000E+00  1.60000000E+01  1.00800000E+00  1.00800000E+00
  1.60000000E+01  1.00800000E+00  1.00800000E+00  1.60000000E+01  1.00800000E+00
  1.00800000E+00  1.60000000E+01  1.00800000E+00  1.00800000E+00  1.60000000E+01
  1.00800000E+00  1.00800000E+00  1.60000000E+01  1.00800000E+00  1.00800000E+00
  1.60000000E+01  1.00800000E+00  1.00800000E+00  1.60000000E+01  1.00800000E+00
  1.00800000E+00  1.60000000E+01  1.00800000E+00  1.00800000E+00  1.60000000E+01
  1.00800000E+00  1.00800000E+00  1.60000000E+01  1.00800000E+00  1.00800000E+00
  1.60000000E+01  1.00800000E+00  1.00800000E+00  1.60000000E+01  1.00800000E+00
  1.00800000E+00  1.60000000E+01  1.00800000E+00  1.00800000E+00  1.60000000E+01
  1.00800000E+00  1.00800000E+00  1.60000000E+01  1.00800000E+00  1.00800000E+00
  1.60000000E+01  1.00800000E+00  1.00800000E+00  1.60000000E+01  1.00800000E+00
  1.00800000E+00  1.60000000E+01  1.00800000E+00  1.00800000E+00  1.60000000E+01
  1.00800000E+00  1.00800000E+00  1.60000000E+01  1.00800000E+00  1.00800000E+00
  1.60000000E+01  1.00800000E+00  1.00800000E+00  1.60000000E+01  1.00800000E+00
  1.00800000E+00  1.60000000E+01  1.00800000E+00  1.00800000E+00  1.60000000E+01
  1.00800000E+00  1.00800000E+00  1.60000000E+01  1.00800000E+00  1.00800000E+00
  1.60000000E+01  1.00800000E+00  1.00800000E+00  1.60000000E+01  1.00800000E+00
  1.00800000E+00  1.60000000E+01  1.00800000E+00  1.00800000E+00  1.60000000E+01
  1.00800000E+00  1.00800000E+00  1.60000000E+01  1.00800000E+00  1.00800000E+00
  1.60000000E+01  1.00800000E+00  1.00800000E+00  1.60000000E+01  1.00800000E+00
  1.00800000E+00  1.60000000E+01  1.00800000E+00  1.00800000E+00  1.60000000E+01
  1.00800000E+00  1.00800000E+00  1.60000000E+01  1.00800000E+00  1.00800000E+00
  1.60000000E+01  1.00800000E+00  1.00800000E+00  1.60000000E+01  1.00800000E+00
  1.00800000E+00  1.60000000E+01  1.00800000E+00  1.00800000E+00  1.60000000E+01
  1.00800000E+00  1.00800000E+00  1.60000000E+01  1.00800000E+00  1.00800000E+00
  1.60000000E+01  1.00800000E+00  1.00800000E+00  1.60000000E+01  1.00800000E+00
  1.00800000E+00  1.60000000E+01  1.00800000E+00  1.00800000E+00  1.60000000E+01
  1.00800000E+00  1.00800000E+00  1.60000000E+01  1.00800000E+00  1.00800000E+00
  1.60000000E+01  1.00800000E+00  1.00800000E+00  1.60000000E+01  1.00800000E+00
  1.00800000E+00  1.60000000E+01  1.00800000E+00  1.00800000E+00  1.60000000E+01
  1.00800000E+00  1.00800000E+00  1.60000000E+01  1.00800000E+00  1.00800000E+00
  1.60000000E+01  1.00800000E+00  1.00800000E+00  1.60000000E+01  1.00800000E+00
  1.00800000E+00  1.60000000E+01  1.00800000E+00  1.00800000E+00  1.60000000E+01
  1.00800000E+00  1.00800000E+00  1.60000000E+01  1.00800000E+00  1.00800000E+00
  1.60000000E+01  1.00800000E+00  1.00800000E+00  1.60000000E+01  1.00800000E+00
  1.00800000E+00  1.60000000E+01  1.00800000E+00  1.00800000E+00  1.60000000E+01
  1.00800000E+00  1.00800000E+00  1.60000000E+01  1.00800000E+00  1.00800000E+00
  1.60000000E+01  1.00800000E+00  1.00800000E+00  1.60000000E+01  1.00800000E+00
  1.00800000E+00  1.60000000E+01  1.00800000E+00  1.00800000E+00  1.60000000E+01
  1.00800000E+00  1.00800000E+00  1.60000000E+01  1.00800000E+00  1.00800000E+00
  1.60000000E+01  1.00800000E+00  1.00800000E+00  1.60000000E+01  1.00800000E+00
  1.00800000E+00  1.60000000E+01  1.00800000E+00  1.00800000E+00  1.60000000E+01
  1.00800000E+00  1.00800000E+00  1.60000000E+01  1.00800000E+00  1.00800000E+00
  1.60000000E+01  1.00800000E+00  1.00800000E+00  1.60000000E+01  1.00800000E+00
  1.00800000E+00  1.60000000E+01  1.00800000E+00  1.00800000E+00  1.60000000E+01
  1.00800000E+00  1.00800000E+00  1.60000000E+01  1.00800000E+00  1.00800000E+00
  1.60000000E+01  1.00800000E+00  1.00800000E+00  1.60000000E+01  1.00800000E+00
  1.00800000E+00  1.60000000E+01  1.00800000E+00  1.00800000E+00  1.60000000E+01
  1.00800000E+00  1.00800000E+00  1.60000000E+01  1.00800000E+00  1.00800000E+00
  1.60000000E+01  1.00800000E+00  1.00800000E+00  1.60000000E+01  1.00800000E+00
  1.00800000E+00  1.60000000E+01  1.00800000E+00  1.00800000E+00  1.60000000E+01
  1.00800000E+00  1.00800000E+00  1.60000000E+01  1.00800000E+00  1.00800000E+00
  1.60000000E+01  1.00800000E+00  1.00800000E+00  1.60000000E+01  1.00800000E+00
  1.00800000E+00  1.60000000E+01  1.00800000E+00  1.00800000E+00  1.60000000E+01
  1.00800000E+00  1.00800000E+00  1.60000000E+01  1.00800000E+00  1.00800000E+00
  1.60000000E+01  1.00800000E+00  1.00800000E+00  1.60000000E+01  1.00800000E+00
  1.00800000E+00  1.60000000E+01  1.00800000E+00  1.00800000E+00  1.60000000E+01
  1.00800000E+00  1.00800000E+00  1.60000000E+01  1.00800000E+00  1.00800000E+00
  1.60000000E+01  1.00800000E+00  1.00800000E+00  1.60000000E+01  1.00800000E+00
  1.00800000E+00  1.60000000E+01  1.00800000E+00  1.00800000E+00  1.60000000E+01
  1.00800000E+00  1.00800000E+00  1.60000000E+01  1.00800000E+00  1.00800000E+00
  1.60000000E+01  1.00800000E+00  1.00800000E+00  1.60000000E+01  1.00800000E+00
  1.00800000E+00  1.60000000E+01  1.00800000E+00  1.00800000E+00  1.60000000E+01
  1.00800000E+00  1.00800000E+00  1.60000000E+01  1.00800000E+00  1.00800000E+00
  1.60000000E+01  1.00800000E+00  1.00800000E+00  1.60000000E+01  1.00800000E+00
  1.00800000E+00  1.60000000E+01  1.00800000E+00  1.00800000E+00  1.60000000E+01
  1.00800000E+00  1.00800000E+00  1.60000000E+01  1.00800000E+00  1.00800000E+00
  1.60000000E+01  1.00800000E+00  1.00800000E+00  1.60000000E+01  1.00800000E+00
  1.00800000E+00  1.60000000E+01  1.00800000E+00  1.00800000E+00  1.60000000E+01
  1.00800000E+00  1.00800000E+00  1.60000000E+01  1.00800000E+00  1.00800000E+00
  1.60000000E+01  1.00800000E+00  1.00800000E+00  1.60000000E+01  1.00800000E+00
  1.00800000E+00  1.60000000E+01  1.00800000E+00  1.00800000E+00  1.60000000E+01
  1.00800000E+00  1.00800000E+00  1.60000000E+01  1.00800000E+00  1.00800000E+00
  1.60000000E+01  1.00800000E+00  1.00800000E+00  1.60000000E+01  1.00800000E+00
  1.00800000E+00  1.60000000E+01  1.00800000E+00  1.00800000E+00  1.60000000E+01
  1.00800000E+00  1.00800000E+00  1.60000000E+01  1.00800000E+00  1.00800000E+00
  1.60000000E+01  1.00800000E+00  1.00800000E+00  1.60000000E+01  1.00800000E+00
  1.00800000E+00  1.60000000E+01  1.00800000E+00  1.00800000E+00  1.60000000E+01
  1.00800000E+00  1.00800000E+00  1.60000000E+01  1.00800000E+00  1.00800000E+00
  1.60000000E+01  1.00800000E+00  1.00800000E+00  1.60000000E+01  1.00800000E+00
  1.00800000E+00  1.60000000E+01  1.00800000E+00  1.00800000E+00  1.60000000E+01
  1.00800000E+00  1.00800000E+00  1.60000000E+01  1.00800000E+00  1.00800000E+00
  1.60000000E+01  1.00800000E+00  1.00800000E+00  1.60000000E+01  1.00800000E+00
  1.00800000E+00  1.60000000E+01  1.00800000E+00  1.00800000E+00  1.60000000E+01
  1.00800000E+00  1.00800000E+00  1.60000000E+01  1.00800000E+00  1.00800000E+00
  1.60000000E+01  1.00800000E+00  1.00800000E+00  1.60000000E+01  1.00800000E+00
  1.00800000E+00  1.60000000E+01  1.00800000E+00  1.00800000E+00  1.60000000E+01
  1.00800000E+00  1.00800000E+00  1.60000000E+01  1.00800000E+00  1.00800000E+00
  1.60000000E+01  1.00800000E+00  1.00800000E+00  1.60000000E+01  1.00800000E+00
  1.00800000E+00  1.60000000E+01  1.00800000E+00  1.00800000E+00  1.60000000E+01
  1.00800000E+00  1.00800000E+00  1.60000000E+01  1.00800000E+00  1.00800000E+00
  1.60000000E+01  1.00800000E+00  1.00800000E+00  1.60000000E+01  1.00800000E+00
  1.00800000E+00  1.60000000E+01  1.00800000E+00  1.00800000E+00  1.60000000E+01
  1.00800000E+00  1.00800000E+00  1.60000000E+01  1.00800000E+00  1.00800000E+00
  1.60000000E+01  1.00800000E+00  1.00800000E+00  1.60000000E+01  1.00800000E+00
  1.00800000E+00  1.60000000E+01  1.00800000E+00  1.00800000E+00  1.60000000E+01
  1.00800000E+00  1.00800000E+00  1.60000000E+01  1.00800000E+00  1.00800000E+00
  1.60000000E+01  1.00800000E+00  1.00800000E+00  1.60000000E+01  1.00800000E+00
  1.00800000E+00  1.60000000E+01  1.00800000E+00  1.00800000E+00  1.60000000E+01
  1.00800000E+00  1.00800000E+00  1.60000000E+01  1.00800000E+00  1.00800000E+00
  1.60000000E+01  1.00800000E+00  1.00800000E+00  1.60000000E+01  1.00800000E+00
  1.00800000E+00  1.60000000E+01  1.00800000E+00  1.00800000E+00  1.60000000E+01
  1.00800000E+00  1.00800000E+00  1.60000000E+01  1.00800000E+00  1.00800000E+00
  1.60000000E+01  1.00800000E+00  1.00800000E+00  1.60000000E+01  1.00800000E+00
  1.00800000E+00  1.60000000E+01  1.00800000E+00  1.00800000E+00  1.60000000E+01
  1.00800000E+00  1.00800000E+00  1.60000000E+01  1.00800000E+00  1.00800000E+00
  1.60000000E+01  1.00800000E+00  1.00800000E+00  1.60000000E+01  1.00800000E+00
  1.00800000E+00  1.60000000E+01  1.00800000E+00  1.00800000E+00  1.60000000E+01
  1.00800000E+00  1.00800000E+00  1.60000000E+01  1.00800000E+00  1.00800000E+00
  1.60000000E+01  1.00800000E+00  1.00800000E+00  1.60000000E+01  1.00800000E+00
  1.00800000E+00  1.60000000E+01  1.00800000E+00  1.00800000E+00  1.60000000E+01
  1.00800000E+00  1.00800000E+00  1.60000000E+01  1.00800000E+00  1.00800000E+00
  1.60000000E+01  1.00800000E+00  1.00800000E+00  1.60000000E+01  1.00800000E+00
  1.00800000E+00  1.60000000E+01  1.00800000E+00  1.00800000E+00  1.60000000E+01
  1.00800000E+00  1.00800000E+00  1.60000000E+01  1.00800000E+00  1.00800000E+00
  1.60000000E+01  1.00800000E+00  1.00800000E+00  1.60000000E+01  1.00800000E+00
  1.00800000E+00  1.60000000E+01  1.00800000E+00  1.00800000E+00  1.60000000E+01
  1.00800000E+00  1.00800000E+00  1.60000000E+01  1.00800000E+00  1.00800000E+00
  1.60000000E+01  1.00800000E+00  1.00800000E+00  1.60000000E+01  1.00800000E+00
  1.00800000E+00  1.60000000E+01  1.00800000E+00  1.00800000E+00  1.60000000E+01
  1.00800000E+00  1.00800000E+00  1.60000000E+01  1.00800000E+00  1.00800000E+00
  1.60000000E+01  1.00800000E+00  1.00800000E+00  1.60000000E+01  1.00800000E+00
  1.00800000E+00  1.60000000E+01  1.00800000E+00  1.00800000E+00  1.60000000E+01
  1.00800000E+00  1.00800000E+00  1.60000000E+01  1.00800000E+00  1.00800000E+00
  1.60000000E+01  1.00800000E+00  1.00800000E+00  1.60000000E+01  1.00800000E+00
  1.00800000E+00  1.60000000E+01  1.00800000E+00  1.00800000E+00  1.60000000E+01
  1.00800000E+00  1.00800000E+00  1.60000000E+01  1.00800000E+00  1.00800000E+00
  1.60000000E+01  1.00800000E+00  1.00800000E+00  1.60000000E+01  1.00800000E+00
  1.00800000E+00  1.60000000E+01  1.00800000E+00  1.00800000E+00  1.60000000E+01
  1.00800000E+00  1.00800000E+00  1.60000000E+01  1.00800000E+00  1.00800000E+00
  1.60000000E+01  1.00800000E+00  1.00800000E+00  1.60000000E+01  1.00800000E+00
  1.00800000E+00  1.60000000E+01  1.00800000E+00  1.00800000E+00  1.60000000E+01
  1.00800000E+00  1.00800000E+00  1.60000000E+01  1.00800000E+00  1.00800000E+00
  1.60000000E+01  1.00800000E+00  1.00800000E+00  1.60000000E+01  1.00800000E+00
  1.00800000E+00  1.60000000E+01  1.00800000E+00  1.00800000E+00  1.60000000E+01
  1.00800000E+00  1.00800000E+00  1.60000000E+01  1.00800000E+00  1.00800000E+00
  1.60000000E+01  1.00800000E+00  1.00800000E+00  1.60000000E+01  1.00800000E+00
  1.00800000E+00  1.60000000E+01  1.00800000E+00  1.00800000E+00  1.60000000E+01
  1.00800000E+00  1.00800000E+00  1.60000000E+01  1.00800000E+00  1.00800000E+00
  1.60000000E+01  1.00800000E+00  1.00800000E+00  1.60000000E+01  1.00800000E+00
  1.00800000E+00  1.60000000E+01  1.00800000E+00  1.00800000E+00  1.60000000E+01
  1.00800000E+00  1.00800000E+00  1.60000000E+01  1.00800000E+00  1.00800000E+00
  1.60000000E+01  1.00800000E+00  1.00800000E+00  1.60000000E+01  1.00800000E+00
  1.00800000E+00  1.60000000E+01  1.00800000E+00  1.00800000E+00  1.60000000E+01
  1.00800000E+00  1.00800000E+00  1.60000000E+01  1.00800000E+00  1.00800000E+00
  1.60000000E+01  1.00800000E+00  1.00800000E+00  1.60000000E+01  1.00800000E+00
  1.00800000E+00  1.60000000E+01  1.00800000E+00  1.00800000E+00  1.60000000E+01
  1.00800000E+00  1.00800000E+00  1.60000000E+01  1.00800000E+00  1.00800000E+00
  1.60000000E+01  1.00800000E+00  1.00800000E+00  1.60000000E+01  1.00800000E+00
  1.00800000E+00  1.60000000E+01  1.00800000E+00  1.00800000E+00  1.60000000E+01
  1.00800000E+00  1.00800000E+00  1.60000000E+01  1.00800000E+00  1.00800000E+00
  1.60000000E+01  1.00800000E+00  1.00800000E+00  1.60000000E+01  1.00800000E+00
  1.00800000E+00  1.60000000E+01  1.00800000E+00  1.00800000E+00  1.60000000E+01
  1.00800000E+00  1.00800000E+00  1.60000000E+01  1.00800000E+00  1.00800000E+00
  1.60000000E+01  1.00800000E+00  1.00800000E+00  1.60000000E+01  1.00800000E+00
  1.00800000E+00  1.60000000E+01  1.00800000E+00  1.00800000E+00  1.60000000E+01
  1.00800000E+00  1.00800000E+00  1.60000000E+01  1.00800000E+00  1.00800000E+00
  1.60000000E+01  1.00800000E+00  1.00800000E+00  1.60000000E+01  1.00800000E+00
  1.00800000E+00  1.60000000E+01  1.00800000E+00  1.00800000E+00  1.60000000E+01
  1.00800000E+00  1.00800000E+00  1.60000000E+01  1.00800000E+00  1.00800000E+00
  1.60000000E+01  1.00800000E+00  1.00800000E+00  1.60000000E+01  1.00800000E+00
  1.00800000E+00  1.60000000E+01  1.00800000E+00  1.00800000E+00  1.60000000E+01
  1.00800000E+00  1.00800000E+00  1.60000000E+01  1.00800000E+00  1.00800000E+00
  1.60000000E+01  1.00800000E+00  1.00800000E+00  1.60000000E+01  1.00800000E+00
  1.00800000E+00  1.60000000E+01  1.00800000E+00  1.00800000E+00  1.60000000E+01
  1.00800000E+00  1.00800000E+00  1.60000000E+01  1.00800000E+00  1.00800000E+00
  1.60000000E+01  1.00800000E+00  1.00800000E+00  1.60000000E+01  1.00800000E+00
  1.00800000E+00  1.60000000E+01  1.00800000E+00  1.00800000E+00  1.60000000E+01
  1.00800000E+00  1.00800000E+00  1.60000000E+01  1.00800000E+00  1.00800000E+00
  1.60000000E+01  1.00800000E+00  1.00800000E+00  1.60000000E+01  1.00800000E+00
  1.00800000E+00  1.60000000E+01  1.00800000E+00  1.00800000E+00  1.60000000E+01
  1.00800000E+00  1.00800000E+00  1.60000000E+01  1.00800000E+00  1.00800000E+00
  1.60000000E+01  1.00800000E+00  1.00800000E+00  1.60000000E+01  1.00800000E+00
  1.00800000E+00  1.60000000E+01  1.00800000E+00  1.00800000E+00  1.60000000E+01
  1.00800000E+00  1.00800000E+00  1.60000000E+01  1.00800000E+00  1.00800000E+00
  1.60000000E+01  1.00800000E+00  1.00800000E+00  1.60000000E+01  1.00800000E+00
  1.00800000E+00  1.60000000E+01  1.00800000E+00  1.00800000E+00  1.60000000E+01
  1.00800000E+00  1.00800000E+00  1.60000000E+01  1.00800000E+00  1.00800000E+00
  1.60000000E+01  1.00800000E+00  1.00800000E+00  1.60000000E+01  1.00800000E+00
  1.00800000E+00  1.60000000E+01  1.00800000E+00  1.00800000E+00  1.60000000E+01
  1.00800000E+00  1.00800000E+00  1.60000000E+01  1.00800000E+00  1.00800000E+00
  1.60000000E+01  1.00800000E+00  1.00800000E+00  1.60000000E+01  1.00800000E+00
  1.00800000E+00  1.60000000E+01  1.00800000E+00  1.00800000E+00  1.60000000E+01
  1.00800000E+00  1.00800000E+00  1.60000000E+01  1.00800000E+00  1.00800000E+00
  1.60000000E+01  1.00800000E+00  1.00800000E+00  1.60000000E+01  1.00800000E+00
  1.00800000E+00  1.60000000E+01  1.00800000E+00  1.00800000E+00  1.60000000E+01
  1.00800000E+00  1.00800000E+00  1.60000000E+01  1.00800000E+00  1.00800000E+00
  1.60000000E+01  1.00800000E+00  1.00800000E+00  1.60000000E+01  1.00800000E+00
  1.00800000E+00  1.60000000E+01  1.00800000E+00  1.00800000E+00  1.60000000E+01
  1.00800000E+00  1.00800000E+00  1.60000000E+01  1.00800000E+00  1.00800000E+00
  1.60000000E+01  1.00800000E+00  1.00800000E+00  1.60000000E+01  1.00800000E+00
  1.00800000E+00  1.60000000E+01  1.00800000E+00  1.00800000E+00  1.60000000E+01
  1.00800000E+00  1.00800000E+00  1.60000000E+01  1.00800000E+00  1.00800000E+00
  1.60000000E+01  1.00800000E+00  1.00800000E+00  1.60000000E+01  1.00800000E+00
  1.00800000E+00  1.60000000E+01  1.00800000E+00  1.00800000E+00  1.60000000E+01
  1.00800000E+00  1.00800000E+00  1.60000000E+01  1.00800000E+00  1.00800000E+00
  1.60000000E+01  1.00800000E+00  1.00800000E+00  1.60000000E+01  1.00800000E+00
  1.00800000E+00  1.60000000E+01  1.00800000E+00  1.00800000E+00  1.60000000E+01
  1.00800000E+00  1.00800000E+00  1.60000000E+01  1.00800000E+00  1.00800000E+00
  1.60000000E+01  1.00800000E+00  1.00800000E+00  1.60000000E+01  1.00800000E+00
  1.00800000E+00  1.60000000E+01  1.00800000E+00  1.00800000E+00  1.60000000E+01
  1.00800000E+00  1.00800000E+00  1.60000000E+01  1.00800000E+00  1.00800000E+00
  1.60000000E+01  1.00800000E+00  1.00800000E+00  1.60000000E+01  1.00800000E+00
  1.00800000E+00  1.60000000E+01  1.00800000E+00  1.00800000E+00  1.60000000E+01
  1.00800000E+00  1.00800000E+00  1.60000000E+01  1.00800000E+00  1.00800000E+00
  1.60000000E+01  1.00800000E+00  1.00800000E+00  1.60000000E+01  1.00800000E+00
  1.00800000E+00  1.60000000E+01  1.00800000E+00  1.00800000E+00  1.60000000E+01
  1.00800000E+00  1.00800000E+00  1.60000000E+01  1.00800000E+00  1.00800000E+00
  1.60000000E+01  1.00800000E+00  1.00800000E+00  1.60000000E+01  1.00800000E+00
  1.00800000E+00  1.60000000E+01  1.00800000E+00  1.00800000E+00  1.60000000E+01
  1.00800000E+00  1.00800000E+00  1.60000000E+01  1.00800000E+00  1.00800000E+00
  1.60000000E+01  1.00800000E+00  1.00800000E+00  1.60000000E+01  1.00800000E+00
  1.00800000E+00  1.60000000E+01  1.00800000E+00  1.00800000E+00  1.60000000E+01
  1.00800000E+00  1.00800000E+00  1.60000000E+01  1.00800000E+00  1.00800000E+00
  1.60000000E+01  1.00800000E+00  1.00800000E+00  1.60000000E+01  1.00800000E+00
  1.00800000E+00  1.60000000E+01  1.00800000E+00  1.00800000E+00  1.60000000E+01
  1.00800000E+00  1.00800000E+00  1.60000000E+01  1.00800000E+00  1.00800000E+00
  1.60000000E+01  1.00800000E+00  1.00800000E+00  1.60000000E+01  1.00800000E+00
  1.00800000E+00  1.60000000E+01  1.00800000E+00  1.00800000E+00  1.60000000E+01
  1.00800000E+00  1.00800000E+00  1.60000000E+01  1.00800000E+00  1.00800000E+00
  1.60000000E+01  1.00800000E+00  1.00800000E+00  1.60000000E+01  1.00800000E+00
  1.00800000E+00  1.60000000E+01  1.00800000E+00  1.00800000E+00  1.60000000E+01
  1.00800000E+00  1.00800000E+00  1.60000000E+01  1.00800000E+00  1.00800000E+00
  1.60000000E+01  1.00800000E+00  1.00800000E+00  1.60000000E+01  1.00800000E+00
  1.00800000E+00  1.60000000E+01  1.00800000E+00  1.00800000E+00  1.60000000E+01
  1.00800000E+00  1.00800000E+00  1.60000000E+01  1.00800000E+00  1.00800000E+00
  1.60000000E+01  1.00800000E+00  1.00800000E+00  1.60000000E+01  1.00800000E+00
  1.00800000E+00  1.60000000E+01  1.00800000E+00  1.00800000E+00  1.60000000E+01
  1.00800000E+00  1.00800000E+00  1.60000000E+01  1.00800000E+00  1.00800000E+00
  1.60000000E+01  1.00800000E+00  1.00800000E+00  1.60000000E+01  1.00800000E+00
  1.00800000E+00  1.60000000E+01  1.00800000E+00  1.00800000E+00  1.60000000E+01
  1.00800000E+00  1.00800000E+00  1.60000000E+01  1.00800000E+00  1.00800000E+00
  1.60000000E+01  1.00800000E+00  1.00800000E+00  1.60000000E+01  1.00800000E+00
  1.00800000E+00  1.60000000E+01  1.00800000E+00  1.00800000E+00  1.60000000E+01
  1.00800000E+00  1.00800000E+00  1.60000000E+01  1.00800000E+00  1.00800000E+00
  1.60000000E+01  1.00800000E+00  1.00800000E+00  1.60000000E+01  1.00800000E+00
  1.00800000E+00  1.60000000E+01  1.00800000E+00  1.00800000E+00  1.60000000E+01
  1.00800000E+00  1.00800000E+00  1.60000000E+01  1.00800000E+00  1.00800000E+00
  1.60000000E+01  1.00800000E+00  1.00800000E+00  1.60000000E+01  1.00800000E+00
  1.00800000E+00  1.60000000E+01  1.00800000E+00  1.00800000E+00  1.60000000E+01
  1.00800000E+00  1.00800000E+00  1.60000000E+01  1.00800000E+00  1.00800000E+00
  1.60000000E+01  1.00800000E+00  1.00800000E+00  1.60000000E+01  1.00800000E+00
  1.00800000E+00  1.60000000E+01  1.00800000E+00  1.00800000E+00  1.60000000E+01
  1.00800000E+00  1.00800000E+00  1.60000000E+01  1.00800000E+00  1.00800000E+00
  1.60000000E+01  1.00800000E+00  1.00800000E+00  1.60000000E+01  1.00800000E+00
  1.00800000E+00  1.60000000E+01  1.00800000E+00  1.00800000E+00  1.60000000E+01
  1.00800000E+00  1.00800000E+00  1.60000000E+01  1.00800000E+00  1.00800000E+00
  1.60000000E+01  1.00800000E+00  1.00800000E+00  1.60000000E+01  1.00800000E+00
  1.00800000E+00  1.60000000E+01  1.00800000E+00  1.00800000E+00  1.60000000E+01
  1.00800000E+00  1.00800000E+00  1.60000000E+01  1.00800000E+00  1.00800000E+00
  1.60000000E+01  1.00800000E+00  1.00800000E+00  1.60000000E+01  1.00800000E+00
  1.00800000E+00  1.60000000E+01  1.00800000E+00  1.00800000E+00  1.60000000E+01
  1.00800000E+00  1.00800000E+00  1.60000000E+01  1.00800000E+00  1.00800000E+00
  1.60000000E+01  1.00800000E+00  1.00800000E+00  1.60000000E+01  1.00800000E+00
  1.00800000E+00  1.60000000E+01  1.00800000E+00  1.00800000E+00  1.60000000E+01
  1.00800000E+00  1.00800000E+00  1.60000000E+01  1.00800000E+00  1.00800000E+00
  1.60000000E+01  1.00800000E+00  1.00800000E+00  1.60000000E+01  1.00800000E+00
  1.00800000E+00  1.60000000E+01  1.00800000E+00  1.00800000E+00  1.60000000E+01
  1.00800000E+00  1.00800000E+00  1.60000000E+01  1.00800000E+00  1.00800000E+00
  1.60000000E+01  1.00800000E+00  1.00800000E+00  1.60000000E+01  1.00800000E+00
  1.00800000E+00  1.60000000E+01  1.00800000E+00  1.00800000E+00  1.60000000E+01
  1.00800000E+00  1.00800000E+00  1.60000000E+01  1.00800000E+00  1.00800000E+00
  1.60000000E+01  1.00800000E+00  1.00800000E+00  1.60000000E+01  1.00800000E+00
  1.00800000E+00  1.60000000E+01  1.00800000E+00  1.00800000E+00  1.60000000E+01
  1.00800000E+00  1.00800000E+00  1.60000000E+01  1.00800000E+00  1.00800000E+00
  1.60000000E+01  1.00800000E+00  1.00800000E+00  1.60000000E+01  1.00800000E+00
  1.00800000E+00  1.60000000E+01  1.00800000E+00  1.00800000E+00  1.60000000E+01
  1.00800000E+00  1.00800000E+00  1.60000000E+01  1.00800000E+00  1.00800000E+00
  1.60000000E+01  1.00800000E+00  1.00800000E+00  1.60000000E+01  1.00800000E+00
  1.00800000E+00  1.60000000E+01  1.00800000E+00  1.00800000E+00  1.60000000E+01
  1.00800000E+00  1.00800000E+00  1.60000000E+01  1.00800000E+00  1.00800000E+00
  1.60000000E+01  1.00800000E+00  1.00800000E+00  1.60000000E+01  1.00800000E+00
  1.00800000E+00  1.60000000E+01  1.00800000E+00  1.00800000E+00  1.60000000E+01
  1.00800000E+00  1.00800000E+00  1.60000000E+01  1.00800000E+00  1.00800000E+00
  1.60000000E+01  1.00800000E+00  1.00800000E+00  1.60000000E+01  1.00800000E+00
  1.00800000E+00  1.60000000E+01  1.00800000E+00  1.00800000E+00  1.60000000E+01
  1.00800000E+00  1.00800000E+00  1.60000000E+01  1.00800000E+00  1.00800000E+00
  1.60000000E+01  1.00800000E+00  1.00800000E+00  1.60000000E+01  1.00800000E+00
  1.00800000E+00  1.60000000E+01  1.00800000E+00  1.00800000E+00  1.60000000E+01
  1.00800000E+00  1.00800000E+00  1.60000000E+01  1.00800000E+00  1.00800000E+00
  1.60000000E+01  1.00800000E+00  1.00800000E+00  1.60000000E+01  1.00800000E+00
  1.00800000E+00  1.60000000E+01  1.00800000E+00  1.00800000E+00  1.60000000E+01
  1.00800000E+00  1.00800000E+00  1.60000000E+01  1.00800000E+00  1.00800000E+00
  1.60000000E+01  1.00800000E+00  1.00800000E+00  1.60000000E+01  1.00800000E+00
  1.00800000E+00  1.60000000E+01  1.00800000E+00  1.00800000E+00  1.60000000E+01
  1.00800000E+00  1.00800000E+00  1.60000000E+01  1.00800000E+00  1.00800000E+00
  1.60000000E+01  1.00800000E+00  1.00800000E+00  1.60000000E+01  1.00800000E+00
  1.00800000E+00  1.60000000E+01  1.00800000E+00  1.00800000E+00  1.60000000E+01
  1.00800000E+00  1.00800000E+00  1.60000000E+01  1.00800000E+00  1.00800000E+00
  1.60000000E+01  1.00800000E+00  1.00800000E+00  1.60000000E+01  1.00800000E+00
  1.00800000E+00  1.60000000E+01  1.00800000E+00  1.00800000E+00  1.60000000E+01
  1.00800000E+00  1.00800000E+00  1.60000000E+01  1.00800000E+00  1.00800000E+00
  1.60000000E+01  1.00800000E+00  1.00800000E+00  1.60000000E+01  1.00800000E+00
  1.00800000E+00  1.60000000E+01  1.00800000E+00  1.00800000E+00  1.60000000E+01
  1.00800000E+00  1.00800000E+00  1.60000000E+01  1.00800000E+00  1.00800000E+00
  1.60000000E+01  1.00800000E+00  1.00800000E+00  1.60000000E+01  1.00800000E+00
  1.00800000E+00  1.60000000E+01  1.00800000E+00  1.00800000E+00  1.60000000E+01
  1.00800000E+00  1.00800000E+00  1.60000000E+01  1.00800000E+00  1.00800000E+00
  1.60000000E+01  1.00800000E+00  1.00800000E+00  1.60000000E+01  1.00800000E+00
  1.00800000E+00  1.60000000E+01  1.00800000E+00  1.00800000E+00  1.60000000E+01
  1.00800000E+00  1.00800000E+00  1.60000000E+01  1.00800000E+00  1.00800000E+00
  1.60000000E+01  1.00800000E+00  1.00800000E+00  1.60000000E+01  1.00800000E+00
  1.00800000E+00  1.60000000E+01  1.00800000E+00  1.00800000E+00  1.60000000E+01
  1.00800000E+00  1.00800000E+00  1.60000000E+01  1.00800000E+00  1.00800000E+00
  1.60000000E+01  1.00800000E+00  1.00800000E+00  1.60000000E+01  1.00800000E+00
  1.00800000E+00  1.60000000E+01  1.00800000E+00  1.00800000E+00  1.60000000E+01
  1.00800000E+00  1.00800000E+00  1.60000000E+01  1.00800000E+00  1.00800000E+00
  1.60000000E+01  1.00800000E+00  1.00800000E+00  1.60000000E+01  1.00800000E+00
  1.00800000E+00  1.60000000E+01  1.00800000E+00  1.00800000E+00  1.60000000E+01
  1.00800000E+00  1.00800000E+00  1.60000000E+01  1.00800000E+00  1.00800000E+00
  1.60000000E+01  1.00800000E+00  1.00800000E+00  1.60000000E+01  1.00800000E+00
  1.00800000E+00  1.60000000E+01  1.00800000E+00  1.00800000E+00  1.60000000E+01
  1.00800000E+00  1.00800000E+00  1.60000000E+01  1.00800000E+00  1.00800000E+00
  1.60000000E+01  1.00800000E+00  1.00800000E+00  1.60000000E+01  1.00800000E+00
  1.00800000E+00  1.60000000E+01  1.00800000E+00  1.00800000E+00  1.60000000E+01
  1.00800000E+00  1.00800000E+00  1.60000000E+01  1.00800000E+00  1.00800000E+00
  1.60000000E+01  1.00800000E+00  1.00800000E+00  1.60000000E+01  1.00800000E+00
  1.00800000E+00  1.60000000E+01  1.00800000E+00  1.00800000E+00  1.60000000E+01
  1.00800000E+00  1.00800000E+00  1.60000000E+01  1.00800000E+00  1.00800000E+00
  1.60000000E+01  1.00800000E+00  1.00800000E+00  1.60000000E+01  1.00800000E+00
  1.00800000E+00  1.60000000E+01  1.00800000E+00  1.00800000E+00  1.60000000E+01
  1.00800000E+00  1.00800000E+00  1.60000000E+01  1.00800000E+00  1.00800000E+00
  1.60000000E+01  1.00800000E+00  1.00800000E+00  1.60000000E+01  1.00800000E+00
  1.00800000E+00  1.60000000E+01  1.00800000E+00  1.00800000E+00  1.60000000E+01
  1.00800000E+00  1.00800000E+00  1.60000000E+01  1.00800000E+00  1.00800000E+00
  1.60000000E+01  1.00800000E+00  1.00800000E+00  1.60000000E+01  1.00800000E+00
  1.00800000E+00  1.60000000E+01  1.00800000E+00  1.00800000E+00  1.60000000E+01
  1.00800000E+00  1.00800000E+00  1.60000000E+01  1.00800000E+00  1.00800000E+00
  1.60000000E+01  1.00800000E+00  1.00800000E+00  1.60000000E+01  1.00800000E+00
  1.00800000E+00  1.60000000E+01  1.00800000E+00  1.00800000E+00  1.60000000E+01
  1.00800000E+00  1.00800000E+00  1.60000000E+01  1.00800000E+00  1.00800000E+00
  1.60000000E+01  1.00800000E+00  1.00800000E+00  1.60000000E+01  1.00800000E+00
  1.00800000E+00  1.60000000E+01  1.00800000E+00  1.00800000E+00  1.60000000E+01
  1.00800000E+00  1.00800000E+00  1.60000000E+01  1.00800000E+00  1.00800000E+00
  1.60000000E+01  1.00800000E+00  1.00800000E+00  1.60000000E+01  1.00800000E+00
  1.00800000E+00  1.60000000E+01  1.00800000E+00  1.00800000E+00  1.60000000E+01
  1.00800000E+00  1.00800000E+00  1.60000000E+01  1.00800000E+00  1.00800000E+00
  1.60000000E+01  1.00800000E+00  1.00800000E+00  1.60000000E+01  1.00800000E+00
  1.00800000E+00  1.60000000E+01  1.00800000E+00  1.00800000E+00  1.60000000E+01
  1.00800000E+00  1.00800000E+00  1.60000000E+01  1.00800000E+00  1.00800000E+00
  1.60000000E+01  1.00800000E+00  1.00800000E+00  1.60000000E+01  1.00800000E+00
  1.00800000E+00  1.60000000E+01  1.00800000E+00  1.00800000E+00  1.60000000E+01
  1.00800000E+00  1.00800000E+00  1.60000000E+01  1.00800000E+00  1.00800000E+00
  1.60000000E+01  1.00800000E+00  1.00800000E+00  1.60000000E+01  1.00800000E+00
  1.00800000E+00  1.60000000E+01  1.00800000E+00  1.00800000E+00  1.60000000E+01
  1.00800000E+00  1.00800000E+00  1.60000000E+01  1.00800000E+00  1.00800000E+00
  1.60000000E+01  1.00800000E+00  1.00800000E+00  1.60000000E+01  1.00800000E+00
  1.00800000E+00  1.60000000E+01  1.00800000E+00  1.00800000E+00  1.60000000E+01
  1.00800000E+00  1.00800000E+00  1.60000000E+01  1.00800000E+00  1.00800000E+00
  1.60000000E+01  1.00800000E+00  1.00800000E+00  1.60000000E+01  1.00800000E+00
  1.00800000E+00  1.60000000E+01  1.00800000E+00  1.00800000E+00  1.60000000E+01
  1.00800000E+00  1.00800000E+00  1.60000000E+01  1.00800000E+00  1.00800000E+00
  1.60000000E+01  1.00800000E+00  1.00800000E+00  1.60000000E+01  1.00800000E+00
  1.00800000E+00  1.60000000E+01  1.00800000E+00  1.00800000E+00  1.60000000E+01
  1.00800000E+00  1.00800000E+00  1.60000000E+01  1.00800000E+00  1.00800000E+00
  1.60000000E+01  1.00800000E+00  1.00800000E+00  1.60000000E+01  1.00800000E+00
  1.00800000E+00  1.60000000E+01  1.00800000E+00  1.00800000E+00  1.60000000E+01
  1.00800000E+00  1.00800000E+00  1.60000000E+01  1.00800000E+00  1.00800000E+00
  1.60000000E+01  1.00800000E+00  1.00800000E+00  1.60000000E+01  1.00800000E+00
  1.00800000E+00  1.60000000E+01  1.00800000E+00  1.00800000E+00  1.60000000E+01
  1.00800000E+00  1.00800000E+00  1.60000000E+01  1.00800000E+00  1.00800000E+00
  1.60000000E+01  1.00800000E+00  1.00800000E+00  1.60000000E+01  1.00800000E+00
  1.00800000E+00  1.60000000E+01  1.00800000E+00  1.00800000E+00  1.60000000E+01
  1.00800000E+00  1.00800000E+00  1.60000000E+01  1.00800000E+00  1.00800000E+00
  1.60000000E+01  1.00800000E+00  1.00800000E+00  1.60000000E+01  1.00800000E+00
  1.00800000E+00  1.60000000E+01  1.00800000E+00  1.00800000E+00  1.60000000E+01
  1.00800000E+00  1.00800000E+00  1.60000000E+01  1.00800000E+00  1.00800000E+00
  1.60000000E+01  1.00800000E+00  1.00800000E+00  1.60000000E+01  1.00800000E+00
  1.00800000E+00  1.60000000E+01  1.00800000E+00  1.00800000E+00  1.60000000E+01
  1.00800000E+00  1.00800000E+00  1.60000000E+01  1.00800000E+00  1.00800000E+00
  1.60000000E+01  1.00800000E+00  1.00800000E+00  1.60000000E+01  1.00800000E+00
  1.00800000E+00  1.60000000E+01  1.00800000E+00  1.00800000E+00  1.60000000E+01
  1.00800000E+00  1.00800000E+00  1.60000000E+01  1.00800000E+00  1.00800000E+00
  1.60000000E+01  1.00800000E+00  1.00800000E+00  1.60000000E+01  1.00800000E+00
  1.00800000E+00  1.60000000E+01  1.00800000E+00  1.00800000E+00  1.60000000E+01
  1.00800000E+00  1.00800000E+00  1.60000000E+01  1.00800000E+00  1.00800000E+00
  1.60000000E+01  1.00800000E+00  1.00800000E+00  1.60000000E+01  1.00800000E+00
  1.00800000E+00  1.60000000E+01  1.00800000E+00  1.00800000E+00  1.60000000E+01
  1.00800000E+00  1.00800000E+00  1.60000000E+01  1.00800000E+00  1.00800000E+00
  1.60000000E+01  1.00800000E+00  1.00800000E+00  1.60000000E+01  1.00800000E+00
  1.00800000E+00  1.60000000E+01  1.00800000E+00  1.00800000E+00  1.60000000E+01
  1.00800000E+00  1.00800000E+00  1.60000000E+01  1.00800000E+00  1.00800000E+00
  1.60000000E+01  1.00800000E+00  1.00800000E+00  1.60000000E+01  1.00800000E+00
  1.00800000E+00  1.60000000E+01  1.00800000E+00  1.00800000E+00  1.60000000E+01
  1.00800000E+00  1.00800000E+00  1.60000000E+01  1.00800000E+00  1.00800000E+00
  1.60000000E+01  1.00800000E+00  1.00800000E+00  1.60000000E+01  1.00800000E+00
  1.00800000E+00  1.60000000E+01  1.00800000E+00  1.00800000E+00  1.60000000E+01
  1.00800000E+00  1.00800000E+00  1.60000000E+01  1.00800000E+00  1.00800000E+00
  1.60000000E+01  1.00800000E+00  1.00800000E+00  1.60000000E+01  1.00800000E+00
  1.00800000E+00  1.60000000E+01  1.00800000E+00  1.00800000E+00  1.60000000E+01
  1.00800000E+00  1.00800000E+00  1.60000000E+01  1.00800000E+00  1.00800000E+00
  1.60000000E+01  1.00800000E+00  1.00800000E+00  1.60000000E+01  1.00800000E+00
  1.00800000E+00  1.60000000E+01  1.00800000E+00  1.00800000E+00  1.60000000E+01
  1.00800000E+00  1.00800000E+00  1.60000000E+01  1.00800000E+00  1.00800000E+00
  1.60000000E+01  1.00800000E+00  1.00800000E+00  1.60000000E+01  1.00800000E+00
  1.00800000E+00  1.60000000E+01  1.00800000E+00  1.00800000E+00  1.60000000E+01
  1.00800000E+00  1.00800000E+00  1.60000000E+01  1.00800000E+00  1.00800000E+00
  1.60000000E+01  1.00800000E+00  1.00800000E+00  1.60000000E+01  1.00800000E+00
  1.00800000E+00  1.60000000E+01  1.00800000E+00  1.00800000E+00  1.60000000E+01
  1.00800000E+00  1.00800000E+00  1.60000000E+01  1.00800000E+00  1.00800000E+00
  1.60000000E+01  1.00800000E+00  1.00800000E+00  1.60000000E+01  1.00800000E+00
  1.00800000E+00  1.60000000E+01  1.00800000E+00  1.00800000E+00  1.60000000E+01
  1.00800000E+00  1.00800000E+00  1.60000000E+01  1.00800000E+00  1.00800000E+00
  1.60000000E+01  1.00800000E+00  1.00800000E+00  1.60000000E+01  1.00800000E+00
  1.00800000E+00  1.60000000E+01  1.00800000E+00  1.00800000E+00  1.60000000E+01
  1.00800000E+00  1.00800000E+00  1.60000000E+01  1.00800000E+00  1.00800000E+00
  1.60000000E+01  1.00800000E+00  1.00800000E+00  1.60000000E+01  1.00800000E+00
  1.00800000E+00  1.60000000E+01  1.00800000E+00  1.00800000E+00  1.60000000E+01
  1.00800000E+00  1.00800000E+00  1.60000000E+01  1.00800000E+00  1.00800000E+00
  1.60000000E+01  1.00800000E+00  1.00800000E+00  1.60000000E+01  1.00800000E+00
  1.00800000E+00  1.60000000E+01  1.00800000E+00  1.00800000E+00  1.60000000E+01
  1.00800000E+00  1.00800000E+00  1.60000000E+01  1.00800000E+00  1.00800000E+00
  1.60000000E+01  1.00800000E+00  1.00800000E+00  1.60000000E+01  1.00800000E+00
  1.00800000E+00  1.60000000E+01  1.00800000E+00  1.00800000E+00  1.60000000E+01
  1.00800000E+00  1.00800000E+00  1.60000000E+01  1.00800000E+00  1.00800000E+00
  1.60000000E+01  1.00800000E+00  1.00800000E+00  1.60000000E+01  1.00800000E+00
  1.00800000E+00  1.60000000E+01  1.00800000E+00  1.00800000E+00  1.60000000E+01
  1.00800000E+00  1.00800000E+00  1.60000000E+01  1.00800000E+00  1.00800000E+00
  1.60000000E+01  1.00800000E+00  1.00800000E+00  1.60000000E+01  1.00800000E+00
  1.00800000E+00  1.60000000E+01  1.00800000E+00  1.00800000E+00  1.60000000E+01
  1.00800000E+00  1.00800000E+00  1.60000000E+01  1.00800000E+00  1.00800000E+00
  1.60000000E+01  1.00800000E+00  1.00800000E+00  1.60000000E+01  1.00800000E+00
  1.00800000E+00  1.60000000E+01  1.00800000E+00  1.00800000E+00  1.60000000E+01
  1.00800000E+00  1.00800000E+00  1.60000000E+01  1.00800000E+00  1.00800000E+00
  1.60000000E+01  1.00800000E+00  1.00800000E+00  1.60000000E+01  1.00800000E+00
  1.00800000E+00  1.60000000E+01  1.00800000E+00  1.00800000E+00  1.60000000E+01
  1.00800000E+00  1.00800000E+00  1.60000000E+01  1.00800000E+00  1.00800000E+00
  1.60000000E+01  1.00800000E+00  1.00800000E+00  1.60000000E+01  1.00800000E+00
  1.00800000E+00  1.60000000E+01  1.00800000E+00  1.00800000E+00  1.60000000E+01
  1.00800000E+00  1.00800000E+00  1.60000000E+01  1.00800000E+00  1.00800000E+00
  1.60000000E+01  1.00800000E+00  1.00800000E+00  1.60000000E+01  1.00800000E+00
  1.00800000E+00  1.60000000E+01  1.00800000E+00  1.00800000E+00  1.60000000E+01
  1.00800000E+00  1.00800000E+00  1.60000000E+01  1.00800000E+00  1.00800000E+00
  1.60000000E+01  1.00800000E+00  1.00800000E+00  1.60000000E+01  1.00800000E+00
  1.00800000E+00  1.60000000E+01  1.00800000E+00  1.00800000E+00  1.60000000E+01
  1.00800000E+00  1.00800000E+00  1.60000000E+01  1.00800000E+00  1.00800000E+00
  1.60000000E+01  1.00800000E+00  1.00800000E+00  1.60000000E+01  1.00800000E+00
  1.00800000E+00  1.60000000E+01  1.00800000E+00  1.00800000E+00  1.60000000E+01
  1.00800000E+00  1.00800000E+00  1.60000000E+01  1.00800000E+00  1.00800000E+00
  1.60000000E+01  1.00800000E+00  1.00800000E+00  1.60000000E+01  1.00800000E+00
  1.00800000E+00  1.60000000E+01  1.00800000E+00  1.00800000E+00  1.60000000E+01
  1.00800000E+00  1.00800000E+00  1.60000000E+01  1.00800000E+00  1.00800000E+00
  1.60000000E+01  1.00800000E+00  1.00800000E+00  1.60000000E+01  1.00800000E+00
  1.00800000E+00  1.60000000E+01  1.00800000E+00  1.00800000E+00  1.60000000E+01
  1.00800000E+00  1.00800000E+00  1.60000000E+01  1.00800000E+00  1.00800000E+00
  1.60000000E+01  1.00800000E+00  1.00800000E+00  1.60000000E+01  1.00800000E+00
  1.00800000E+00  1.60000000E+01  1.00800000E+00  1.00800000E+00  1.60000000E+01
  1.00800000E+00  1.00800000E+00  1.60000000E+01  1.00800000E+00  1.00800000E+00
  1.60000000E+01  1.00800000E+00  1.00800000E+00  1.60000000E+01  1.00800000E+00
  1.00800000E+00  1.60000000E+01  1.00800000E+00  1.00800000E+00  1.60000000E+01
  1.00800000E+00  1.00800000E+00  1.60000000E+01  1.00800000E+00  1.00800000E+00
  1.60000000E+01  1.00800000E+00  1.00800000E+00  1.60000000E+01  1.00800000E+00
  1.00800000E+00  1.60000000E+01  1.00800000E+00  1.00800000E+00  1.60000000E+01
  1.00800000E+00  1.00800000E+00  1.60000000E+01  1.00800000E+00  1.00800000E+00
  1.60000000E+01  1.00800000E+00  1.00800000E+00  1.60000000E+01  1.00800000E+00
  1.00800000E+00  1.60000000E+01  1.00800000E+00  1.00800000E+00  1.60000000E+01
  1.00800000E+00  1.00800000E+00  1.60000000E+01  1.00800000E+00  1.00800000E+00
  1.60000000E+01  1.00800000E+00  1.00800000E+00  1.60000000E+01  1.00800000E+00
  1.00800000E+00  1.60000000E+01  1.00800000E+00  1.00800000E+00  1.60000000E+01
  1.00800000E+00  1.00800000E+00  1.60000000E+01  1.00800000E+00  1.00800000E+00
  1.60000000E+01  1.00800000E+00  1.00800000E+00  1.60000000E+01  1.00800000E+00
  1.00800000E+00  1.60000000E+01  1.00800000E+00  1.00800000E+00  1.60000000E+01
  1.00800000E+00  1.00800000E+00  1.60000000E+01  1.00800000E+00  1.00800000E+00
  1.60000000E+01  1.00800000E+00  1.00800000E+00  1.60000000E+01  1.00800000E+00
  1.00800000E+00  1.60000000E+01  1.00800000E+00  1.00800000E+00  1.60000000E+01
  1.00800000E+00  1.00800000E+00  1.60000000E+01  1.00800000E+00  1.00800000E+00
  1.60000000E+01  1.00800000E+00  1.00800000E+00  1.60000000E+01  1.00800000E+00
  1.00800000E+00  1.60000000E+01  1.00800000E+00  1.00800000E+00  1.60000000E+01
  1.00800000E+00  1.00800000E+00  1.60000000E+01  1.00800000E+00  1.00800000E+00
  1.60000000E+01  1.00800000E+00  1.00800000E+00  1.60000000E+01  1.00800000E+00
  1.00800000E+00  1.60000000E+01  1.00800000E+00  1.00800000E+00  1.60000000E+01
  1.00800000E+00  1.00800000E+00  1.60000000E+01  1.00800000E+00  1.00800000E+00
  1.60000000E+01  1.00800000E+00  1.00800000E+00  1.60000000E+01  1.00800000E+00
  1.00800000E+00  1.60000000E+01  1.00800000E+00  1.00800000E+00  1.60000000E+01
  1.00800000E+00  1.00800000E+00  1.60000000E+01  1.00800000E+00  1.00800000E+00
  1.60000000E+01  1.00800000E+00  1.00800000E+00  1.60000000E+01  1.00800000E+00
  1.00800000E+00  1.60000000E+01  1.00800000E+00  1.00800000E+00  1.60000000E+01
  1.00800000E+00  1.00800000E+00  1.60000000E+01  1.00800000E+00  1.00800000E+00
  1.60000000E+01  1.00800000E+00  1.00800000E+00  1.60000000E+01  1.00800000E+00
  1.00800000E+00  1.60000000E+01  1.00800000E+00  1.00800000E+00  1.60000000E+01
  1.00800000E+00  1.00800000E+00  1.60000000E+01  1.00800000E+00  1.00800000E+00
  1.60000000E+01  1.00800000E+00  1.00800000E+00  1.60000000E+01  1.00800000E+00
  1.00800000E+00  1.60000000E+01  1.00800000E+00  1.00800000E+00  1.60000000E+01
  1.00800000E+00  1.00800000E+00  1.60000000E+01  1.00800000E+00  1.00800000E+00
  1.60000000E+01  1.00800000E+00  1.00800000E+00  1.60000000E+01  1.00800000E+00
  1.00800000E+00  1.60000000E+01  1.00800000E+00  1.00800000E+00  1.60000000E+01
  1.00800000E+00  1.00800000E+00  1.60000000E+01  1.00800000E+00  1.00800000E+00
  1.60000000E+01  1.00800000E+00  1.00800000E+00  1.60000000E+01  1.00800000E+00
  1.00800000E+00  1.60000000E+01  1.00800000E+00  1.00800000E+00  1.60000000E+01
  1.00800000E+00  1.00800000E+00  1.60000000E+01  1.00800000E+00  1.00800000E+00
  1.60000000E+01  1.00800000E+00  1.00800000E+00  1.60000000E+01  1.00800000E+00
  1.00800000E+00  1.60000000E+01  1.00800000E+00  1.00800000E+00  1.60000000E+01
  1.00800000E+00  1.00800000E+00  1.60000000E+01  1.00800000E+00  1.00800000E+00
  1.60000000E+01  1.00800000E+00  1.00800000E+00  1.60000000E+01  1.00800000E+00
  1.00800000E+00  1.60000000E+01  1.00800000E+00  1.00800000E+00  1.60000000E+01
  1.00800000E+00  1.00800000E+00  1.60000000E+01  1.00800000E+00  1.00800000E+00
  1.60000000E+01  1.00800000E+00  1.00800000E+00  1.60000000E+01  1.00800000E+00
  1.00800000E+00  1.60000000E+01  1.00800000E+00  1.00800000E+00  1.60000000E+01
  1.00800000E+00  1.00800000E+00  1.60000000E+01  1.00800000E+00  1.00800000E+00
  1.60000000E+01  1.00800000E+00  1.00800000E+00  1.60000000E+01  1.00800000E+00
  1.00800000E+00  1.60000000E+01  1.00800000E+00  1.00800000E+00  1.60000000E+01
  1.00800000E+00  1.00800000E+00  1.60000000E+01  1.00800000E+00  1.00800000E+00
  1.60000000E+01  1.00800000E+00  1.00800000E+00  1.60000000E+01  1.00800000E+00
  1.00800000E+00  1.60000000E+01  1.00800000E+00  1.00800000E+00  1.60000000E+01
  1.00800000E+00  1.00800000E+00  1.60000000E+01  1.00800000E+00  1.00800000E+00
  1.60000000E+01  1.00800000E+00  1.00800000E+00  1.60000000E+01  1.00800000E+00
  1.00800000E+00  1.60000000E+01  1.00800000E+00  1.00800000E+00  1.60000000E+01
  1.00800000E+00  1.00800000E+00  1.60000000E+01  1.00800000E+00  1.00800000E+00
  1.60000000E+01  1.00800000E+00  1.00800000E+00  1.60000000E+01  1.00800000E+00
  1.00800000E+00  1.60000000E+01  1.00800000E+00  1.00800000E+00  1.60000000E+01
  1.00800000E+00  1.00800000E+00  1.60000000E+01  1.00800000E+00  1.00800000E+00
  1.60000000E+01  1.00800000E+00  1.00800000E+00  1.60000000E+01  1.00800000E+00
  1.00800000E+00  1.60000000E+01  1.00800000E+00  1.00800000E+00  1.60000000E+01
  1.00800000E+00  1.00800000E+00  1.60000000E+01  1.00800000E+00  1.00800000E+00
  1.60000000E+01  1.00800000E+00  1.00800000E+00  1.60000000E+01  1.00800000E+00
  1.00800000E+00  1.60000000E+01  1.00800000E+00  1.00800000E+00  1.60000000E+01
  1.00800000E+00  1.00800000E+00  1.60000000E+01  1.00800000E+00  1.00800000E+00
  1.60000000E+01  1.00800000E+00  1.00800000E+00  1.60000000E+01  1.00800000E+00
  1.00800000E+00  1.60000000E+01  1.00800000E+00  1.00800000E+00  1.60000000E+01
  1.00800000E+00  1.00800000E+00  1.60000000E+01  1.00800000E+00  1.00800000E+00
  1.60000000E+01  1.00800000E+00  1.00800000E+00  1.60000000E+01  1.00800000E+00
  1.00800000E+00  1.60000000E+01  1.00800000E+00  1.00800000E+00  1.60000000E+01
  1.00800000E+00  1.00800000E+00  1.60000000E+01  1.00800000E+00  1.00800000E+00
  1.60000000E+01  1.00800000E+00  1.00800000E+00  1.60000000E+01  1.00800000E+00
  1.00800000E+00  1.60000000E+01  1.00800000E+00  1.00800000E+00  1.60000000E+01
  1.00800000E+00  1.00800000E+00  1.60000000E+01  1.00800000E+00  1.00800000E+00
  1.60000000E+01  1.00800000E+00  1.00800000E+00  1.60000000E+01  1.00800000E+00
  1.00800000E+00  1.60000000E+01  1.00800000E+00  1.00800000E+00  1.60000000E+01
  1.00800000E+00  1.00800000E+00  1.60000000E+01  1.00800000E+00  1.00800000E+00
  1.60000000E+01  1.00800000E+00  1.00800000E+00  1.60000000E+01  1.00800000E+00
  1.00800000E+00  1.60000000E+01  1.00800000E+00  1.00800000E+00  1.60000000E+01
  1.00800000E+00  1.00800000E+00  1.60000000E+01  1.00800000E+00  1.00800000E+00
  1.60000000E+01  1.00800000E+00  1.00800000E+00  1.60000000E+01  1.00800000E+00
  1.00800000E+00  1.60000000E+01  1.00800000E+00  1.00800000E+00  1.60000000E+01
  1.00800000E+00  1.00800000E+00  1.60000000E+01  1.00800000E+00  1.00800000E+00
  1.60000000E+01  1.00800000E+00  1.00800000E+00  1.60000000E+01  1.00800000E+00
  1.00800000E+00  1.60000000E+01  1.00800000E+00  1.00800000E+00  1.60000000E+01
  1.00800000E+00  1.00800000E+00  1.60000000E+01  1.00800000E+00  1.00800000E+00
  1.60000000E+01  1.00800000E+00  1.00800000E+00  1.60000000E+01  1.00800000E+00
  1.00800000E+00  1.60000000E+01  1.00800000E+00  1.00800000E+00  1.60000000E+01
  1.00800000E+00  1.00800000E+00  1.60000000E+01  1.00800000E+00  1.00800000E+00
  1.60000000E+01  1.00800000E+00  1.00800000E+00  1.60000000E+01  1.00800000E+00
  1.00800000E+00  1.60000000E+01  1.00800000E+00  1.00800000E+00  1.60000000E+01
  1.00800000E+00  1.00800000E+00  1.60000000E+01  1.00800000E+00  1.00800000E+00
  1.60000000E+01  1.00800000E+00  1.00800000E+00  1.60000000E+01  1.00800000E+00
  1.00800000E+00  1.60000000E+01  1.00800000E+00  1.00800000E+00  1.60000000E+01
  1.00800000E+00  1.00800000E+00  1.60000000E+01  1.00800000E+00  1.00800000E+00
  1.60000000E+01  1.00800000E+00  1.00800000E+00  1.60000000E+01  1.00800000E+00
  1.00800000E+00  1.60000000E+01  1.00800000E+00  1.00800000E+00  1.60000000E+01
  1.00800000E+00  1.00800000E+00  1.60000000E+01  1.00800000E+00  1.00800000E+00
  1.60000000E+01  1.00800000E+00  1.00800000E+00  1.60000000E+01  1.00800000E+00
  1.00800000E+00  1.60000000E+01  1.00800000E+00  1.00800000E+00  1.60000000E+01
  1.00800000E+00  1.00800000E+00  1.60000000E+01  1.00800000E+00  1.00800000E+00
  1.60000000E+01  1.00800000E+00  1.00800000E+00  1.60000000E+01  1.00800000E+00
  1.00800000E+00  1.60000000E+01  1.00800000E+00  1.00800000E+00  1.60000000E+01
  1.00800000E+00  1.00800000E+00  1.60000000E+01  1.00800000E+00  1.00800000E+00
  1.60000000E+01  1.00800000E+00  1.00800000E+00  1.60000000E+01  1.00800000E+00
  1.00800000E+00  1.60000000E+01  1.00800000E+00  1.00800000E+00  1.60000000E+01
  1.00800000E+00  1.00800000E+00  1.60000000E+01  1.00800000E+00  1.00800000E+00
  1.60000000E+01  1.00800000E+00  1.00800000E+00  1.60000000E+01  1.00800000E+00
  1.00800000E+00  1.60000000E+01  1.00800000E+00  1.00800000E+00  1.60000000E+01
  1.00800000E+00  1.00800000E+00  1.60000000E+01  1.00800000E+00  1.00800000E+00
  1.60000000E+01  1.00800000E+00  1.00800000E+00  1.60000000E+01  1.00800000E+00
  1.00800000E+00  1.60000000E+01  1.00800000E+00  1.00800000E+00  1.60000000E+01
  1.00800000E+00  1.00800000E+00  1.60000000E+01  1.00800000E+00  1.00800000E+00
  1.60000000E+01  1.00800000E+00  1.00800000E+00  1.60000000E+01  1.00800000E+00
  1.00800000E+00  1.60000000E+01  1.00800000E+00  1.00800000E+00  1.60000000E+01
  1.00800000E+00  1.00800000E+00  1.60000000E+01  1.00800000E+00  1.00800000E+00
  1.60000000E+01  1.00800000E+00  1.00800000E+00  1.60000000E+01  1.00800000E+00
  1.00800000E+00  1.60000000E+01  1.00800000E+00  1.00800000E+00  1.60000000E+01
  1.00800000E+00  1.00800000E+00  1.60000000E+01  1.00800000E+00  1.00800000E+00
  1.60000000E+01  1.00800000E+00  1.00800000E+00  1.60000000E+01  1.00800000E+00
  1.00800000E+00  1.60000000E+01  1.00800000E+00  1.00800000E+00  1.60000000E+01
  1.00800000E+00  1.00800000E+00  1.60000000E+01  1.00800000E+00  1.00800000E+00
  1.60000000E+01  1.00800000E+00  1.00800000E+00  1.60000000E+01  1.00800000E+00
  1.00800000E+00  1.60000000E+01  1.00800000E+00  1.00800000E+00  1.60000000E+01
  1.00800000E+00  1.00800000E+00  1.60000000E+01  1.00800000E+00  1.00800000E+00
  1.60000000E+01  1.00800000E+00  1.00800000E+00  1.60000000E+01  1.00800000E+00
  1.00800000E+00  1.60000000E+01  1.00800000E+00  1.00800000E+00  1.60000000E+01
  1.00800000E+00  1.00800000E+00  1.60000000E+01  1.00800000E+00  1.00800000E+00
  1.60000000E+01  1.00800000E+00  1.00800000E+00  1.60000000E+01  1.00800000E+00
  1.00800000E+00  1.60000000E+01  1.00800000E+00  1.00800000E+00  1.60000000E+01
  1.00800000E+00  1.00800000E+00  1.60000000E+01  1.00800000E+00  1.00800000E+00
  1.60000000E+01  1.00800000E+00  1.00800000E+00  1.60000000E+01  1.00800000E+00
  1.00800000E+00  1.60000000E+01  1.00800000E+00  1.00800000E+00  1.60000000E+01
  1.00800000E+00  1.00800000E+00  1.60000000E+01  1.00800000E+00  1.00800000E+00
  1.60000000E+01  1.00800000E+00  1.00800000E+00  1.60000000E+01  1.00800000E+00
  1.00800000E+00  1.60000000E+01  1.00800000E+00  1.00800000E+00  1.60000000E+01
  1.00800000E+00  1.00800000E+00  1.60000000E+01  1.00800000E+00  1.00800000E+00
  1.60000000E+01  1.00800000E+00  1.00800000E+00  1.60000000E+01  1.00800000E+00
  1.00800000E+00  1.60000000E+01  1.00800000E+00  1.00800000E+00  1.60000000E+01
  1.00800000E+00  1.00800000E+00  1.60000000E+01  1.00800000E+00  1.00800000E+00
  1.60000000E+01  1.00800000E+00  1.00800000E+00  1.60000000E+01  1.00800000E+00
  1.00800000E+00  1.60000000E+01  1.00800000E+00  1.00800000E+00  1.60000000E+01
  1.00800000E+00  1.00800000E+00  1.60000000E+01  1.00800000E+00  1.00800000E+00
  1.60000000E+01  1.00800000E+00  1.00800000E+00  1.60000000E+01  1.00800000E+00
  1.00800000E+00  1.60000000E+01  1.00800000E+00  1.00800000E+00  1.60000000E+01
  1.00800000E+00  1.00800000E+00  1.60000000E+01  1.00800000E+00  1.00800000E+00
  1.60000000E+01  1.00800000E+00  1.00800000E+00  1.60000000E+01  1.00800000E+00
  1.00800000E+00  1.60000000E+01  1.00800000E+00  1.00800000E+00  1.60000000E+01
  1.00800000E+00  1.00800000E+00  1.60000000E+01  1.00800000E+00  1.00800000E+00
  1.60000000E+01  1.00800000E+00  1.00800000E+00  1.60000000E+01  1.00800000E+00
  1.00800000E+00  1.60000000E+01  1.00800000E+00  1.00800000E+00  1.60000000E+01
  1.00800000E+00  1.00800000E+00  1.60000000E+01  1.00800000E+00  1.00800000E+00
  1.60000000E+01  1.00800000E+00  1.00800000E+00  1.60000000E+01  1.00800000E+00
  1.00800000E+00  1.60000000E+01  1.00800000E+00  1.00800000E+00  1.60000000E+01
  1.00800000E+00  1.00800000E+00  1.60000000E+01  1.00800000E+00  1.00800000E+00
  1.60000000E+01  1.00800000E+00  1.00800000E+00  1.60000000E+01  1.00800000E+00
  1.00800000E+00  1.60000000E+01  1.00800000E+00  1.00800000E+00  1.60000000E+01
  1.00800000E+00  1.00800000E+00  1.60000000E+01  1.00800000E+00  1.00800000E+00
  1.60000000E+01  1.00800000E+00  1.00800000E+00  1.60000000E+01  1.00800000E+00
  1.00800000E+00  1.60000000E+01  1.00800000E+00  1.00800000E+00  1.60000000E+01
  1.00800000E+00  1.00800000E+00  1.60000000E+01  1.00800000E+00  1.00800000E+00
  1.60000000E+01  1.00800000E+00  1.00800000E+00  1.60000000E+01  1.00800000E+00
  1.00800000E+00  1.60000000E+01  1.00800000E+00  1.00800000E+00  1.60000000E+01
  1.00800000E+00  1.00800000E+00  1.60000000E+01  1.00800000E+00  1.00800000E+00
  1.60000000E+01  1.00800000E+00  1.00800000E+00  1.60000000E+01  1.00800000E+00
  1.00800000E+00  1.60000000E+01  1.00800000E+00  1.00800000E+00  1.60000000E+01
  1.00800000E+00  1.00800000E+00  1.60000000E+01  1.00800000E+00  1.00800000E+00
  1.60000000E+01  1.00800000E+00  1.00800000E+00  1.60000000E+01  1.00800000E+00
  1.00800000E+00  1.60000000E+01  1.00800000E+00  1.00800000E+00  1.60000000E+01
  1.00800000E+00  1.00800000E+00  1.60000000E+01  1.00800000E+00  1.00800000E+00
  1.60000000E+01  1.00800000E+00  1.00800000E+00  1.60000000E+01  1.00800000E+00
  1.00800000E+00  1.60000000E+01  1.00800000E+00  1.00800000E+00  1.60000000E+01
  1.00800000E+00  1.00800000E+00  1.60000000E+01  1.00800000E+00  1.00800000E+00
  1.60000000E+01  1.00800000E+00  1.00800000E+00  1.60000000E+01  1.00800000E+00
  1.00800000E+00  1.60000000E+01  1.00800000E+00  1.00800000E+00  1.60000000E+01
  1.00800000E+00  1.00800000E+00  1.60000000E+01  1.00800000E+00  1.00800000E+00
  1.60000000E+01  1.00800000E+00  1.00800000E+00  1.60000000E+01  1.00800000E+00
  1.00800000E+00  1.60000000E+01  1.00800000E+00  1.00800000E+00  1.60000000E+01
  1.00800000E+00  1.00800000E+00  1.60000000E+01  1.00800000E+00  1.00800000E+00
  1.60000000E+01  1.00800000E+00  1.00800000E+00  1.60000000E+01  1.00800000E+00
  1.00800000E+00  1.60000000E+01  1.00800000E+00  1.00800000E+00  1.60000000E+01
  1.00800000E+00  1.00800000E+00  1.60000000E+01  1.00800000E+00  1.00800000E+00
  1.60000000E+01  1.00800000E+00  1.00800000E+00  1.60000000E+01  1.00800000E+00
  1.00800000E+00  1.60000000E+01  1.00800000E+00  1.00800000E+00  1.60000000E+01
  1.00800000E+00  1.00800000E+00  1.60000000E+01  1.00800000E+00  1.00800000E+00
  1.60000000E+01  1.00800000E+00  1.00800000E+00  1.60000000E+01  1.00800000E+00
  1.00800000E+00  1.60000000E+01  1.00800000E+00  1.00800000E+00  1.60000000E+01
  1.00800000E+00  1.00800000E+00  1.60000000E+01  1.00800000E+00  1.00800000E+00
  1.60000000E+01  1.00800000E+00  1.00800000E+00  1.60000000E+01  1.00800000E+00
  1.00800000E+00  1.60000000E+01  1.00800000E+00  1.00800000E+00  1.60000000E+01
  1.00800000E+00  1.00800000E+00  1.60000000E+01  1.00800000E+00  1.00800000E+00
  1.60000000E+01  1.00800000E+00  1.00800000E+00  1.60000000E+01  1.00800000E+00
  1.00800000E+00  1.60000000E+01  1.00800000E+00  1.00800000E+00  1.60000000E+01
  1.00800000E+00  1.00800000E+00  1.60000000E+01  1.00800000E+00  1.00800000E+00
  1.60000000E+01  1.00800000E+00  1.00800000E+00  1.60000000E+01  1.00800000E+00
  1.00800000E+00  1.60000000E+01  1.00800000E+00  1.00800000E+00  1.60000000E+01
  1.00800000E+00  1.00800000E+00  1.60000000E+01  1.00800000E+00  1.00800000E+00
  1.60000000E+01  1.00800000E+00  1.00800000E+00  1.60000000E+01  1.00800000E+00
  1.00800000E+00  1.60000000E+01  1.00800000E+00  1.00800000E+00  1.60000000E+01
  1.00800000E+00  1.00800000E+00  1.60000000E+01  1.00800000E+00  1.00800000E+00
  1.60000000E+01  1.00800000E+00  1.00800000E+00  1.60000000E+01  1.00800000E+00
  1.00800000E+00  1.60000000E+01  1.00800000E+00  1.00800000E+00  1.60000000E+01
  1.00800000E+00  1.00800000E+00  1.60000000E+01  1.00800000E+00  1.00800000E+00
  1.60000000E+01  1.00800000E+00  1.00800000E+00  1.60000000E+01  1.00800000E+00
  1.00800000E+00  1.60000000E+01  1.00800000E+00  1.00800000E+00  1.60000000E+01
  1.00800000E+00  1.00800000E+00  1.60000000E+01  1.00800000E+00  1.00800000E+00
  1.60000000E+01  1.00800000E+00  1.00800000E+00  1.60000000E+01  1.00800000E+00
  1.00800000E+00  1.60000000E+01  1.00800000E+00  1.00800000E+00  1.60000000E+01
  1.00800000E+00  1.00800000E+00  1.60000000E+01  1.00800000E+00  1.00800000E+00
  1.60000000E+01  1.00800000E+00  1.00800000E+00  1.60000000E+01  1.00800000E+00
  1.00800000E+00  1.60000000E+01  1.00800000E+00  1.00800000E+00  1.60000000E+01
  1.00800000E+00  1.00800000E+00  1.60000000E+01  1.00800000E+00  1.00800000E+00
  1.60000000E+01  1.00800000E+00  1.00800000E+00  1.60000000E+01  1.00800000E+00
  1.00800000E+00  1.60000000E+01  1.00800000E+00  1.00800000E+00  1.60000000E+01
  1.00800000E+00  1.00800000E+00  1.60000000E+01  1.00800000E+00  1.00800000E+00
  1.60000000E+01  1.00800000E+00  1.00800000E+00  1.60000000E+01  1.00800000E+00
  1.00800000E+00  1.60000000E+01  1.00800000E+00  1.00800000E+00  1.60000000E+01
  1.00800000E+00  1.00800000E+00  1.60000000E+01  1.00800000E+00  1.00800000E+00
  1.60000000E+01  1.00800000E+00  1.00800000E+00  1.60000000E+01  1.00800000E+00
  1.00800000E+00  1.60000000E+01  1.00800000E+00  1.00800000E+00  1.60000000E+01
  1.00800000E+00  1.00800000E+00  1.60000000E+01  1.00800000E+00  1.00800000E+00
  1.60000000E+01  1.00800000E+00  1.00800000E+00  1.60000000E+01  1.00800000E+00
  1.00800000E+00  1.60000000E+01  1.00800000E+00  1.00800000E+00  1.60000000E+01
  1.00800000E+00  1.00800000E+00  1.60000000E+01  1.00800000E+00  1.00800000E+00
  1.60000000E+01  1.00800000E+00  1.00800000E+00  1.60000000E+01  1.00800000E+00
  1.00800000E+00  1.60000000E+01  1.00800000E+00  1.00800000E+00  1.60000000E+01
  1.00800000E+00  1.00800000E+00  1.60000000E+01  1.00800000E+00  1.00800000E+00
  1.60000000E+01  1.00800000E+00  1.00800000E+00  1.60000000E+01  1.00800000E+00
  1.00800000E+00  1.60000000E+01  1.00800000E+00  1.00800000E+00  1.60000000E+01
  1.00800000E+00  1.00800000E+00  1.60000000E+01  1.00800000E+00  1.00800000E+00
  1.60000000E+01  1.00800000E+00  1.00800000E+00  1.60000000E+01  1.00800000E+00
  1.00800000E+00  1.60000000E+01  1.00800000E+00  1.00800000E+00  1.60000000E+01
  1.00800000E+00  1.00800000E+00  1.60000000E+01  1.00800000E+00  1.00800000E+00
  1.60000000E+01  1.00800000E+00  1.00800000E+00  1.60000000E+01  1.00800000E+00
  1.00800000E+00  1.60000000E+01  1.00800000E+00  1.00800000E+00  1.60000000E+01
  1.00800000E+00  1.00800000E+00  1.60000000E+01  1.00800000E+00  1.00800000E+00
  1.60000000E+01  1.00800000E+00  1.00800000E+00  1.60000000E+01  1.00800000E+00
  1.00800000E+00  1.60000000E+01  1.00800000E+00  1.00800000E+00  1.60000000E+01
  1.00800000E+00  1.00800000E+00  1.60000000E+01  1.00800000E+00  1.00800000E+00
  1.60000000E+01  1.00800000E+00  1.00800000E+00  1.60000000E+01  1.00800000E+00
  1.00800000E+00  1.60000000E+01  1.00800000E+00  1.00800000E+00  1.60000000E+01
  1.00800000E+00  1.00800000E+00  1.60000000E+01  1.00800000E+00  1.00800000E+00
  1.60000000E+01  1.00800000E+00  1.00800000E+00  1.60000000E+01  1.00800000E+00
  1.00800000E+00  1.60000000E+01  1.00800000E+00  1.00800000E+00  1.60000000E+01
  1.00800000E+00  1.00800000E+00  1.60000000E+01  1.00800000E+00  1.00800000E+00
  1.60000000E+01  1.00800000E+00  1.00800000E+00  1.60000000E+01  1.00800000E+00
  1.00800000E+00  1.60000000E+01  1.00800000E+00  1.00800000E+00  1.60000000E+01
  1.00800000E+00  1.00800000E+00  1.60000000E+01  1.00800000E+00  1.00800000E+00
  1.60000000E+01  1.00800000E+00  1.00800000E+00  1.60000000E+01  1.00800000E+00
  1.00800000E+00  1.60000000E+01  1.00800000E+00  1.00800000E+00  1.60000000E+01
  1.00800000E+00  1.00800000E+00  1.60000000E+01  1.00800000E+00  1.00800000E+00
  1.60000000E+01  1.00800000E+00  1.00800000E+00  1.60000000E+01  1.00800000E+00
  1.00800000E+00  1.60000000E+01  1.00800000E+00  1.00800000E+00  1.60000000E+01
  1.00800000E+00  1.00800000E+00  1.60000000E+01  1.00800000E+00  1.00800000E+00
  1.60000000E+01  1.00800000E+00  1.00800000E+00  1.60000000E+01  1.00800000E+00
  1.00800000E+00  1.60000000E+01  1.00800000E+00  1.00800000E+00  1.60000000E+01
  1.00800000E+00  1.00800000E+00  1.60000000E+01  1.00800000E+00  1.00800000E+00
  1.60000000E+01  1.00800000E+00  1.00800000E+00  1.60000000E+01  1.00800000E+00
  1.00800000E+00  1.60000000E+01  1.00800000E+00  1.00800000E+00  1.60000000E+01
  1.00800000E+00  1.00800000E+00  1.60000000E+01  1.00800000E+00  1.00800000E+00
  1.60000000E+01  1.00800000E+00  1.00800000E+00  1.60000000E+01  1.00800000E+00
  1.00800000E+00  1.60000000E+01  1.00800000E+00  1.00800000E+00  1.60000000E+01
  1.00800000E+00  1.00800000E+00  1.60000000E+01  1.00800000E+00  1.00800000E+00
  1.60000000E+01  1.00800000E+00  1.00800000E+00  1.60000000E+01  1.00800000E+00
  1.00800000E+00  1.60000000E+01  1.00800000E+00  1.00800000E+00  1.60000000E+01
  1.00800000E+00  1.00800000E+00  1.60000000E+01  1.00800000E+00  1.00800000E+00
  1.60000000E+01  1.00800000E+00  1.00800000E+00  1.60000000E+01  1.00800000E+00
  1.00800000E+00  1.60000000E+01  1.00800000E+00  1.00800000E+00  1.60000000E+01
  1.00800000E+00  1.00800000E+00  1.60000000E+01  1.00800000E+00  1.00800000E+00
  1.60000000E+01  1.00800000E+00  1.00800000E+00  1.60000000E+01  1.00800000E+00
  1.00800000E+00  1.60000000E+01  1.00800000E+00  1.00800000E+00  1.60000000E+01
  1.00800000E+00  1.00800000E+00  1.60000000E+01  1.00800000E+00  1.00800000E+00
  1.60000000E+01  1.00800000E+00  1.00800000E+00  1.60000000E+01  1.00800000E+00
  1.00800000E+00  1.60000000E+01  1.00800000E+00  1.00800000E+00  1.60000000E+01
  1.00800000E+00  1.00800000E+00  1.60000000E+01  1.00800000E+00  1.00800000E+00
  1.60000000E+01  1.00800000E+00  1.00800000E+00  1.60000000E+01  1.00800000E+00
  1.00800000E+00  1.60000000E+01  1.00800000E+00  1.00800000E+00  1.60000000E+01
  1.00800000E+00  1.00800000E+00  1.60000000E+01  1.00800000E+00  1.00800000E+00
  1.60000000E+01  1.00800000E+00  1.00800000E+00  1.60000000E+01  1.00800000E+00
  1.00800000E+00  1.60000000E+01  1.00800000E+00  1.00800000E+00  1.60000000E+01
  1.00800000E+00  1.00800000E+00  1.60000000E+01  1.00800000E+00  1.00800000E+00
  1.60000000E+01  1.00800000E+00  1.00800000E+00  1.60000000E+01  1.00800000E+00
  1.00800000E+00  1.60000000E+01  1.00800000E+00  1.00800000E+00  1.60000000E+01
  1.00800000E+00  1.00800000E+00  1.60000000E+01  1.00800000E+00  1.00800000E+00
  1.60000000E+01  1.00800000E+00  1.00800000E+00  1.60000000E+01  1.00800000E+00
  1.00800000E+00  1.60000000E+01  1.00800000E+00  1.00800000E+00  1.60000000E+01
  1.00800000E+00  1.00800000E+00  1.60000000E+01  1.00800000E+00  1.00800000E+00
  1.60000000E+01  1.00800000E+00  1.00800000E+00  1.60000000E+01  1.00800000E+00
  1.00800000E+00  1.60000000E+01  1.00800000E+00  1.00800000E+00  1.60000000E+01
  1.00800000E+00  1.00800000E+00  1.60000000E+01  1.00800000E+00  1.00800000E+00
  1.60000000E+01  1.00800000E+00  1.00800000E+00  1.60000000E+01  1.00800000E+00
  1.00800000E+00  1.60000000E+01  1.00800000E+00  1.00800000E+00  1.60000000E+01
  1.00800000E+00  1.00800000E+00  1.60000000E+01  1.00800000E+00  1.00800000E+00
  1.60000000E+01  1.00800000E+00  1.00800000E+00  1.60000000E+01  1.00800000E+00
  1.00800000E+00  1.60000000E+01  1.00800000E+00  1.00800000E+00  1.60000000E+01
  1.00800000E+00  1.00800000E+00  1.60000000E+01  1.00800000E+00  1.00800000E+00
  1.60000000E+01  1.00800000E+00  1.00800000E+00  1.60000000E+01  1.00800000E+00
  1.00800000E+00  1.60000000E+01  1.00800000E+00  1.00800000E+00  1.60000000E+01
  1.00800000E+00  1.00800000E+00  1.60000000E+01  1.00800000E+00  1.00800000E+00
  1.60000000E+01  1.00800000E+00  1.00800000E+00  1.60000000E+01  1.00800000E+00
  1.00800000E+00  1.60000000E+01  1.00800000E+00  1.00800000E+00  1.60000000E+01
  1.00800000E+00  1.00800000E+00  1.60000000E+01  1.00800000E+00  1.00800000E+00
  1.60000000E+01  1.00800000E+00  1.00800000E+00  1.60000000E+01  1.00800000E+00
  1.00800000E+00  1.60000000E+01  1.00800000E+00  1.00800000E+00  1.60000000E+01
  1.00800000E+00  1.00800000E+00  1.60000000E+01  1.00800000E+00  1.00800000E+00
  1.60000000E+01  1.00800000E+00  1.00800000E+00  1.60000000E+01  1.00800000E+00
  1.00800000E+00  1.60000000E+01  1.00800000E+00  1.00800000E+00  1.60000000E+01
  1.00800000E+00  1.00800000E+00  1.60000000E+01  1.00800000E+00  1.00800000E+00
  1.60000000E+01  1.00800000E+00  1.00800000E+00  1.60000000E+01  1.00800000E+00
  1.00800000E+00  1.60000000E+01  1.00800000E+00  1.00800000E+00  1.60000000E+01
  1.00800000E+00  1.00800000E+00  1.60000000E+01  1.00800000E+00  1.00800000E+00
  1.60000000E+01  1.00800000E+00  1.00800000E+00  1.60000000E+01  1.00800000E+00
  1.00800000E+00  1.60000000E+01  1.00800000E+00  1.00800000E+00  1.60000000E+01
  1.00800000E+00  1.00800000E+00  1.60000000E+01  1.00800000E+00  1.00800000E+00
  1.60000000E+01  1.00800000E+00  1.00800000E+00  1.60000000E+01  1.00800000E+00
  1.00800000E+00  1.60000000E+01  1.00800000E+00  1.00800000E+00  1.60000000E+01
  1.00800000E+00  1.00800000E+00  1.60000000E+01  1.00800000E+00  1.00800000E+00
  1.60000000E+01  1.00800000E+00  1.00800000E+00  1.60000000E+01  1.00800000E+00
  1.00800000E+00  1.60000000E+01  1.00800000E+00  1.00800000E+00  1.60000000E+01
  1.00800000E+00  1.00800000E+00  1.60000000E+01  1.00800000E+00  1.00800000E+00
  1.60000000E+01  1.00800000E+00  1.00800000E+00  1.60000000E+01  1.00800000E+00
  1.00800000E+00  1.60000000E+01  1.00800000E+00  1.00800000E+00  1.60000000E+01
  1.00800000E+00  1.00800000E+00  1.60000000E+01  1.00800000E+00  1.00800000E+00
  1.60000000E+01  1.00800000E+00  1.00800000E+00  1.60000000E+01  1.00800000E+00
  1.00800000E+00  1.60000000E+01  1.00800000E+00  1.00800000E+00  1.60000000E+01
  1.00800000E+00  1.00800000E+00  1.60000000E+01  1.00800000E+00  1.00800000E+00
  1.60000000E+01  1.00800000E+00  1.00800000E+00  1.60000000E+01  1.00800000E+00
  1.00800000E+00  1.60000000E+01  1.00800000E+00  1.00800000E+00  1.60000000E+01
  1.00800000E+00  1.00800000E+00  1.60000000E+01  1.00800000E+00  1.00800000E+00
  1.60000000E+01  1.00800000E+00  1.00800000E+00  1.60000000E+01  1.00800000E+00
  1.00800000E+00  1.60000000E+01  1.00800000E+00  1.00800000E+00  1.60000000E+01
  1.00800000E+00  1.00800000E+00  1.60000000E+01  1.00800000E+00  1.00800000E+00
  1.60000000E+01  1.00800000E+00  1.00800000E+00  1.60000000E+01  1.00800000E+00
  1.00800000E+00  1.60000000E+01  1.00800000E+00  1.00800000E+00  1.60000000E+01
  1.00800000E+00  1.00800000E+00  1.60000000E+01  1.00800000E+00  1.00800000E+00
  1.60000000E+01  1.00800000E+00  1.00800000E+00  1.60000000E+01  1.00800000E+00
  1.00800000E+00  1.60000000E+01  1.00800000E+00  1.00800000E+00  1.60000000E+01
  1.00800000E+00  1.00800000E+00  1.60000000E+01  1.00800000E+00  1.00800000E+00
  1.60000000E+01  1.00800000E+00  1.00800000E+00  1.60000000E+01  1.00800000E+00
  1.00800000E+00  1.60000000E+01  1.00800000E+00  1.00800000E+00  1.60000000E+01
  1.00800000E+00  1.00800000E+00  1.60000000E+01  1.00800000E+00  1.00800000E+00
  1.60000000E+01  1.00800000E+00  1.00800000E+00  1.60000000E+01  1.00800000E+00
  1.00800000E+00  1.60000000E+01  1.00800000E+00  1.00800000E+00  1.60000000E+01
  1.00800000E+00  1.00800000E+00  1.60000000E+01  1.00800000E+00  1.00800000E+00
  1.60000000E+01  1.00800000E+00  1.00800000E+00  1.60000000E+01  1.00800000E+00
  1.00800000E+00  1.60000000E+01  1.00800000E+00  1.00800000E+00  1.60000000E+01
  1.00800000E+00  1.00800000E+00  1.60000000E+01  1.00800000E+00  1.00800000E+00
  1.60000000E+01  1.00800000E+00  1.00800000E+00  1.60000000E+01  1.00800000E+00
  1.00800000E+00  1.60000000E+01  1.00800000E+00  1.00800000E+00  1.60000000E+01
  1.00800000E+00  1.00800000E+00  1.60000000E+01  1.00800000E+00  1.00800000E+00
  1.60000000E+01  1.00800000E+00  1.00800000E+00  1.60000000E+01  1.00800000E+00
  1.00800000E+00  1.60000000E+01  1.00800000E+00  1.00800000E+00  1.60000000E+01
  1.00800000E+00  1.00800000E+00  1.60000000E+01  1.00800000E+00  1.00800000E+00
  1.60000000E+01  1.00800000E+00  1.00800000E+00  1.60000000E+01  1.00800000E+00
  1.00800000E+00  1.60000000E+01  1.00800000E+00  1.00800000E+00  1.60000000E+01
  1.00800000E+00  1.00800000E+00  1.60000000E+01  1.00800000E+00  1.00800000E+00
  1.60000000E+01  1.00800000E+00  1.00800000E+00  1.60000000E+01  1.00800000E+00
  1.00800000E+00  1.60000000E+01  1.00800000E+00  1.00800000E+00  1.60000000E+01
  1.00800000E+00  1.00800000E+00  1.60000000E+01  1.00800000E+00  1.00800000E+00
  1.60000000E+01  1.00800000E+00  1.00800000E+00  1.60000000E+01  1.00800000E+00
  1.00800000E+00  1.60000000E+01  1.00800000E+00  1.00800000E+00  1.60000000E+01
  1.00800000E+00  1.00800000E+00  1.60000000E+01  1.00800000E+00  1.00800000E+00
  1.60000000E+01  1.00800000E+00  1.00800000E+00  1.60000000E+01  1.00800000E+00
  1.00800000E+00  1.60000000E+01  1.00800000E+00  1.00800000E+00  1.60000000E+01
  1.00800000E+00  1.00800000E+00  1.60000000E+01  1.00800000E+00  1.00800000E+00
  1.60000000E+01  1.00800000E+00  1.00800000E+00  1.60000000E+01  1.00800000E+00
  1.00800000E+00  1.60000000E+01  1.00800000E+00  1.00800000E+00  1.60000000E+01
  1.00800000E+00  1.00800000E+00  1.60000000E+01  1.00800000E+00  1.00800000E+00
  1.60000000E+01  1.00800000E+00  1.00800000E+00  1.60000000E+01  1.00800000E+00
  1.00800000E+00  1.60000000E+01  1.00800000E+00  1.00800000E+00  1.60000000E+01
  1.00800000E+00  1.00800000E+00  1.60000000E+01  1.00800000E+00  1.00800000E+00
  1.60000000E+01  1.00800000E+00  1.00800000E+00  1.60000000E+01  1.00800000E+00
  1.00800000E+00  1.60000000E+01  1.00800000E+00  1.00800000E+00  1.60000000E+01
  1.00800000E+00  1.00800000E+00  1.60000000E+01  1.00800000E+00  1.00800000E+00
  1.60000000E+01  1.00800000E+00  1.00800000E+00  1.60000000E+01  1.00800000E+00
  1.00800000E+00  1.60000000E+01  1.00800000E+00  1.00800000E+00  1.60000000E+01
  1.00800000E+00  1.00800000E+00  1.60000000E+01  1.00800000E+00  1.00800000E+00
  1.60000000E+01  1.00800000E+00  1.00800000E+00  1.60000000E+01  1.00800000E+00
  1.00800000E+00  1.60000000E+01  1.00800000E+00  1.00800000E+00  1.60000000E+01
  1.00800000E+00  1.00800000E+00  1.60000000E+01  1.00800000E+00  1.00800000E+00
  1.60000000E+01  1.00800000E+00  1.00800000E+00  1.60000000E+01  1.00800000E+00
  1.00800000E+00  1.60000000E+01  1.00800000E+00  1.00800000E+00  1.60000000E+01
  1.00800000E+00  1.00800000E+00  1.60000000E+01  1.00800000E+00  1.00800000E+00
  1.60000000E+01  1.00800000E+00  1.00800000E+00  1.60000000E+01  1.00800000E+00
  1.00800000E+00  1.60000000E+01  1.00800000E+00  1.00800000E+00  1.60000000E+01
  1.00800000E+00  1.00800000E+00  1.60000000E+01  1.00800000E+00  1.00800000E+00
  1.60000000E+01  1.00800000E+00  1.00800000E+00  1.60000000E+01  1.00800000E+00
  1.00800000E+00  1.60000000E+01  1.00800000E+00  1.00800000E+00  1.60000000E+01
  1.00800000E+00  1.00800000E+00  1.60000000E+01  1.00800000E+00  1.00800000E+00
  1.60000000E+01  1.00800000E+00  1.00800000E+00  1.60000000E+01  1.00800000E+00
  1.00800000E+00  1.60000000E+01  1.00800000E+00  1.00800000E+00  1.60000000E+01
  1.00800000E+00  1.00800000E+00  1.60000000E+01  1.00800000E+00  1.00800000E+00
  1.60000000E+01  1.00800000E+00  1.00800000E+00  1.60000000E+01  1.00800000E+00
  1.00800000E+00  1.60000000E+01  1.00800000E+00  1.00800000E+00  1.60000000E+01
  1.00800000E+00  1.00800000E+00  1.60000000E+01  1.00800000E+00  1.00800000E+00
  1.60000000E+01  1.00800000E+00  1.00800000E+00  1.60000000E+01  1.00800000E+00
  1.00800000E+00  1.60000000E+01  1.00800000E+00  1.00800000E+00  1.60000000E+01
  1.00800000E+00  1.00800000E+00  1.60000000E+01  1.00800000E+00  1.00800000E+00
  1.60000000E+01  1.00800000E+00  1.00800000E+00  1.60000000E+01  1.00800000E+00
  1.00800000E+00  1.60000000E+01  1.00800000E+00  1.00800000E+00  1.60000000E+01
  1.00800000E+00  1.00800000E+00  1.60000000E+01  1.00800000E+00  1.00800000E+00
  1.60000000E+01  1.00800000E+00  1.00800000E+00  1.60000000E+01  1.00800000E+00
  1.00800000E+00  1.60000000E+01  1.00800000E+00  1.00800000E+00  1.60000000E+01
  1.00800000E+00  1.00800000E+00  1.60000000E+01  1.00800000E+00  1.00800000E+00
  1.60000000E+01  1.00800000E+00  1.00800000E+00  1.60000000E+01  1.00800000E+00
  1.00800000E+00  1.60000000E+01  1.00800000E+00  1.00800000E+00  1.60000000E+01
  1.00800000E+00  1.00800000E+00  1.60000000E+01  1.00800000E+00  1.00800000E+00
  1.60000000E+01  1.00800000E+00  1.00800000E+00  1.60000000E+01  1.00800000E+00
  1.00800000E+00  1.60000000E+01  1.00800000E+00  1.00800000E+00  1.60000000E+01
  1.00800000E+00  1.00800000E+00  1.60000000E+01  1.00800000E+00  1.00800000E+00
  1.60000000E+01  1.00800000E+00  1.00800000E+00  1.60000000E+01  1.00800000E+00
  1.00800000E+00  1.60000000E+01  1.00800000E+00  1.00800000E+00  1.60000000E+01
  1.00800000E+00  1.00800000E+00  1.60000000E+01  1.00800000E+00  1.00800000E+00
  1.60000000E+01  1.00800000E+00  1.00800000E+00  1.60000000E+01  1.00800000E+00
  1.00800000E+00  1.60000000E+01  1.00800000E+00  1.00800000E+00  1.60000000E+01
  1.00800000E+00  1.00800000E+00  1.60000000E+01  1.00800000E+00  1.00800000E+00
  1.60000000E+01  1.00800000E+00  1.00800000E+00  1.60000000E+01  1.00800000E+00
  1.00800000E+00  1.60000000E+01  1.00800000E+00  1.00800000E+00  1.60000000E+01
  1.00800000E+00  1.00800000E+00  1.60000000E+01  1.00800000E+00  1.00800000E+00
  1.60000000E+01  1.00800000E+00  1.00800000E+00  1.60000000E+01  1.00800000E+00
  1.00800000E+00  1.60000000E+01  1.00800000E+00  1.00800000E+00  1.60000000E+01
  1.00800000E+00  1.00800000E+00  1.60000000E+01  1.00800000E+00  1.00800000E+00
  1.60000000E+01  1.00800000E+00  1.00800000E+00  1.60000000E+01  1.00800000E+00
  1.00800000E+00  1.60000000E+01  1.00800000E+00  1.00800000E+00  1.60000000E+01
  1.00800000E+00  1.00800000E+00  1.60000000E+01  1.00800000E+00  1.00800000E+00
  1.60000000E+01  1.00800000E+00  1.00800000E+00  1.60000000E+01  1.00800000E+00
  1.00800000E+00  1.60000000E+01  1.00800000E+00  1.00800000E+00  1.60000000E+01
  1.00800000E+00  1.00800000E+00  1.60000000E+01  1.00800000E+00  1.00800000E+00
  1.60000000E+01  1.00800000E+00  1.00800000E+00  1.60000000E+01  1.00800000E+00
  1.00800000E+00  1.60000000E+01  1.00800000E+00  1.00800000E+00  1.60000000E+01
  1.00800000E+00  1.00800000E+00  1.60000000E+01  1.00800000E+00  1.00800000E+00
  1.60000000E+01  1.00800000E+00  1.00800000E+00  1.60000000E+01  1.00800000E+00
  1.00800000E+00  1.60000000E+01  1.00800000E+00  1.00800000E+00  1.60000000E+01
  1.00800000E+00  1.00800000E+00  1.60000000E+01  1.00800000E+00  1.00800000E+00
  1.60000000E+01  1.00800000E+00  1.00800000E+00  1.60000000E+01  1.00800000E+00
  1.00800000E+00  1.60000000E+01  1.00800000E+00  1.00800000E+00  1.60000000E+01
  1.00800000E+00  1.00800000E+00  1.60000000E+01  1.00800000E+00  1.00800000E+00
  1.60000000E+01  1.00800000E+00  1.00800000E+00  1.60000000E+01  1.00800000E+00
  1.00800000E+00  1.60000000E+01  1.00800000E+00  1.00800000E+00  1.60000000E+01
  1.00800000E+00  1.00800000E+00  1.60000000E+01  1.00800000E+00  1.00800000E+00
  1.60000000E+01  1.00800000E+00  1.00800000E+00  1.60000000E+01  1.00800000E+00
  1.00800000E+00  1.60000000E+01  1.00800000E+00  1.00800000E+00  1.60000000E+01
  1.00800000E+00  1.00800000E+00  1.60000000E+01  1.00800000E+00  1.00800000E+00
  1.60000000E+01  1.00800000E+00  1.00800000E+00  1.60000000E+01  1.00800000E+00
  1.00800000E+00  1.60000000E+01  1.00800000E+00  1.00800000E+00  1.60000000E+01
  1.00800000E+00  1.00800000E+00  1.60000000E+01  1.00800000E+00  1.00800000E+00
  1.60000000E+01  1.00800000E+00  1.00800000E+00  1.60000000E+01  1.00800000E+00
  1.00800000E+00  1.60000000E+01  1.00800000E+00  1.00800000E+00  1.60000000E+01
  1.00800000E+00  1.00800000E+00  1.60000000E+01  1.00800000E+00  1.00800000E+00
  1.60000000E+01  1.00800000E+00  1.00800000E+00  1.60000000E+01  1.00800000E+00
  1.00800000E+00  1.60000000E+01  1.00800000E+00  1.00800000E+00  1.60000000E+01
  1.00800000E+00  1.00800000E+00  1.60000000E+01  1.00800000E+00  1.00800000E+00
  1.60000000E+01  1.00800000E+00  1.00800000E+00  1.60000000E+01  1.00800000E+00
  1.00800000E+00  1.60000000E+01  1.00800000E+00  1.00800000E+00  1.60000000E+01
  1.00800000E+00  1.00800000E+00  1.60000000E+01  1.00800000E+00  1.00800000E+00
  1.60000000E+01  1.00800000E+00  1.00800000E+00  1.60000000E+01  1.00800000E+00
  1.00800000E+00  1.60000000E+01  1.00800000E+00  1.00800000E+00  1.60000000E+01
  1.00800000E+00  1.00800000E+00  1.60000000E+01  1.00800000E+00  1.00800000E+00
  1.60000000E+01  1.00800000E+00  1.00800000E+00  1.60000000E+01  1.00800000E+00
  1.00800000E+00  1.60000000E+01  1.00800000E+00  1.00800000E+00  1.60000000E+01
  1.00800000E+00  1.00800000E+00  1.60000000E+01  1.00800000E+00  1.00800000E+00
  1.60000000E+01  1.00800000E+00  1.00800000E+00  1.60000000E+01  1.00800000E+00
  1.00800000E+00  1.60000000E+01  1.00800000E+00  1.00800000E+00  1.60000000E+01
  1.00800000E+00  1.00800000E+00  1.60000000E+01  1.00800000E+00  1.00800000E+00
  1.60000000E+01  1.00800000E+00  1.00800000E+00  1.60000000E+01  1.00800000E+00
  1.00800000E+00  1.60000000E+01  1.00800000E+00  1.00800000E+00  1.60000000E+01
  1.00800000E+00  1.00800000E+00  1.60000000E+01  1.00800000E+00  1.00800000E+00
  1.60000000E+01  1.00800000E+00  1.00800000E+00  1.60000000E+01  1.00800000E+00
  1.00800000E+00  1.60000000E+01  1.00800000E+00  1.00800000E+00  1.60000000E+01
  1.00800000E+00  1.00800000E+00  1.60000000E+01  1.00800000E+00  1.00800000E+00
  1.60000000E+01  1.00800000E+00  1.00800000E+00  1.60000000E+01  1.00800000E+00
  1.00800000E+00  1.60000000E+01  1.00800000E+00  1.00800000E+00  1.60000000E+01
  1.00800000E+00  1.00800000E+00  1.60000000E+01  1.00800000E+00  1.00800000E+00
  1.60000000E+01  1.00800000E+00  1.00800000E+00  1.60000000E+01  1.00800000E+00
  1.00800000E+00  1.60000000E+01  1.00800000E+00  1.00800000E+00  1.60000000E+01
  1.00800000E+00  1.00800000E+00  1.60000000E+01  1.00800000E+00  1.00800000E+00
  1.60000000E+01  1.00800000E+00  1.00800000E+00  1.60000000E+01  1.00800000E+00
  1.00800000E+00  1.60000000E+01  1.00800000E+00  1.00800000E+00  1.60000000E+01
  1.00800000E+00  1.00800000E+00  1.60000000E+01  1.00800000E+00  1.00800000E+00
  1.60000000E+01  1.00800000E+00  1.00800000E+00  1.60000000E+01  1.00800000E+00
  1.00800000E+00  1.60000000E+01  1.00800000E+00  1.00800000E+00  1.60000000E+01
  1.00800000E+00  1.00800000E+00  1.60000000E+01  1.00800000E+00  1.00800000E+00
  1.60000000E+01  1.00800000E+00  1.00800000E+00  1.60000000E+01  1.00800000E+00
  1.00800000E+00  1.60000000E+01  1.00800000E+00  1.00800000E+00  1.60000000E+01
  1.00800000E+00  1.00800000E+00  1.60000000E+01  1.00800000E+00  1.00800000E+00
  1.60000000E+01  1.00800000E+00  1.00800000E+00  1.60000000E+01  1.00800000E+00
  1.00800000E+00  1.60000000E+01  1.00800000E+00  1.00800000E+00  1.60000000E+01
  1.00800000E+00  1.00800000E+00  1.60000000E+01  1.00800000E+00  1.00800000E+00
  1.60000000E+01  1.00800000E+00  1.00800000E+00  1.60000000E+01  1.00800000E+00
  1.00800000E+00  1.60000000E+01  1.00800000E+00  1.00800000E+00  1.60000000E+01
  1.00800000E+00  1.00800000E+00  1.60000000E+01  1.00800000E+00  1.00800000E+00
  1.60000000E+01  1.00800000E+00  1.00800000E+00  1.60000000E+01  1.00800000E+00
  1.00800000E+00  1.60000000E+01  1.00800000E+00  1.00800000E+00  1.60000000E+01
  1.00800000E+00  1.00800000E+00  1.60000000E+01  1.00800000E+00  1.00800000E+00
  1.60000000E+01  1.00800000E+00  1.00800000E+00  1.60000000E+01  1.00800000E+00
  1.00800000E+00  1.60000000E+01  1.00800000E+00  1.00800000E+00  1.60000000E+01
  1.00800000E+00  1.00800000E+00  1.60000000E+01  1.00800000E+00  1.00800000E+00
  1.60000000E+01  1.00800000E+00  1.00800000E+00  1.60000000E+01  1.00800000E+00
  1.00800000E+00  1.60000000E+01  1.00800000E+00  1.00800000E+00  1.60000000E+01
  1.00800000E+00  1.00800000E+00  1.60000000E+01  1.00800000E+00  1.00800000E+00
  1.60000000E+01  1.00800000E+00  1.00800000E+00  1.60000000E+01  1.00800000E+00
  1.00800000E+00  1.60000000E+01  1.00800000E+00  1.00800000E+00  1.60000000E+01
  1.00800000E+00  1.00800000E+00  1.60000000E+01  1.00800000E+00  1.00800000E+00
  1.60000000E+01  1.00800000E+00  1.00800000E+00  1.60000000E+01  1.00800000E+00
  1.00800000E+00  1.60000000E+01  1.00800000E+00  1.00800000E+00  1.60000000E+01
  1.00800000E+00  1.00800000E+00  1.60000000E+01  1.00800000E+00  1.00800000E+00
  1.60000000E+01  1.00800000E+00  1.00800000E+00  1.60000000E+01  1.00800000E+00
  1.00800000E+00  1.60000000E+01  1.00800000E+00  1.00800000E+00  1.60000000E+01
  1.00800000E+00  1.00800000E+00  1.60000000E+01  1.00800000E+00  1.00800000E+00
  1.60000000E+01  1.00800000E+00  1.00800000E+00  1.60000000E+01  1.00800000E+00
  1.00800000E+00  1.60000000E+01  1.00800000E+00  1.00800000E+00  1.60000000E+01
  1.00800000E+00  1.00800000E+00  1.60000000E+01  1.00800000E+00  1.00800000E+00
  1.60000000E+01  1.00800000E+00  1.00800000E+00  1.60000000E+01  1.00800000E+00
  1.00800000E+00  1.60000000E+01  1.00800000E+00  1.00800000E+00  1.60000000E+01
  1.00800000E+00  1.00800000E+00  1.60000000E+01  1.00800000E+00  1.00800000E+00
  1.60000000E+01  1.00800000E+00  1.00800000E+00  1.60000000E+01  1.00800000E+00
  1.00800000E+00  1.60000000E+01  1.00800000E+00  1.00800000E+00  1.60000000E+01
  1.00800000E+00  1.00800000E+00  1.60000000E+01  1.00800000E+00  1.00800000E+00
  1.60000000E+01  1.00800000E+00  1.00800000E+00  1.60000000E+01  1.00800000E+00
  1.00800000E+00  1.60000000E+01  1.00800000E+00  1.00800000E+00  1.60000000E+01
  1.00800000E+00  1.00800000E+00  1.60000000E+01  1.00800000E+00  1.00800000E+00
  1.60000000E+01  1.00800000E+00  1.00800000E+00  1.60000000E+01  1.00800000E+00
  1.00800000E+00  1.60000000E+01  1.00800000E+00  1.00800000E+00  1.60000000E+01
  1.00800000E+00  1.00800000E+00  1.60000000E+01  1.00800000E+00  1.00800000E+00
  1.60000000E+01  1.00800000E+00  1.00800000E+00  1.60000000E+01  1.00800000E+00
  1.00800000E+00  1.60000000E+01  1.00800000E+00  1.00800000E+00  1.60000000E+01
  1.00800000E+00  1.00800000E+00  1.60000000E+01  1.00800000E+00  1.00800000E+00
  1.60000000E+01  1.00800000E+00  1.00800000E+00  1.60000000E+01  1.00800000E+00
  1.00800000E+00  1.60000000E+01  1.00800000E+00  1.00800000E+00  1.60000000E+01
  1.00800000E+00  1.00800000E+00  1.60000000E+01  1.00800000E+00  1.00800000E+00
  1.60000000E+01  1.00800000E+00  1.00800000E+00  1.60000000E+01  1.00800000E+00
  1.00800000E+00  1.60000000E+01  1.00800000E+00  1.00800000E+00  1.60000000E+01
  1.00800000E+00  1.00800000E+00  1.60000000E+01  1.00800000E+00  1.00800000E+00
  1.60000000E+01  1.00800000E+00  1.00800000E+00  1.60000000E+01  1.00800000E+00
  1.00800000E+00  1.60000000E+01  1.00800000E+00  1.00800000E+00  1.60000000E+01
  1.00800000E+00  1.00800000E+00  1.60000000E+01  1.00800000E+00  1.00800000E+00
  1.60000000E+01  1.00800000E+00  1.00800000E+00  1.60000000E+01  1.00800000E+00
  1.00800000E+00  1.60000000E+01  1.00800000E+00  1.00800000E+00  1.60000000E+01
  1.00800000E+00  1.00800000E+00  1.60000000E+01  1.00800000E+00  1.00800000E+00
%FLAG ATOM_TYPE_INDEX                                                           
%FORMAT(10I8)                                                                   
       1       1       1       1       1       1       1       1       1       1
       1       1       1       1       1       1       1       1       1       1
       1       1       1       1       1       1       1       1       1       1
       1       1       1       1       1       1       1       1       1       1
       1       1       1       1       1       1       1       1       1       1
       1       1       1       1       1       1       1       1       1       1
       1       1       1       1       1       1       1       1       1       1
       1       1       2       2       2       2       1       3       1       1
       1       2       2       2       2       2       2       1       3       1
       1       1       2       2       2       2       2       2       1       3
       1       1       1       2       2       2       2       2       2       1
       3       1       1       1       2       2       2       2       2       2
       1       3       1       1       1       2       2       2       2       2
       2       1       3       1       1       1       2       2       2       2
       2       2       1       3       1       1       1       2       2       2
       2       2       2       1       3       1       1       1       2       2
       2       2       2       2       1       3       1       1       1       2
       2       2       2       2       2       1       3       1       1       1
       2       2       2       2       2       2       1       3       1       1
       1       2       2       2       2       2       2       1       3       1
       1       1       2       2       2       2       2       2       1       1
       1       1       1       1       1       1       1       1       1       1
       1       1       1       1       1       1       1       1       1       1
       1       1       1       1       1       1       1       1       1       1
       1       1       1       2       2       2       2       1       3       1
       1       1       2       2       2       2       2       2       1       3
       1       1       1       2       2       2       2       2       2       1
       3       1       1       1       2       2       2       2       2       2
       1       3       1       1       1       2       2       2       2       2
       2       1       3       1       1       1       2       2       2       2
       2       2       1       3       1       1       1       2       2       2
       2       2       2       1       3       1       1       1       2       2
       2       2       2       2       1       3       1       1       1       2
       2       2       2       2       2       1       3       1       1       1
       2       2       2       2       2       2       1       3       1       1
       1       2       2       2       2       2       2       1       3       1
       1       1       2       2       1       1       1       1       1       1
       1       1       1       1       1       1       1       1       1       1
       1       1       1       1       1       1       1       1       1       1
       1       1       1       1       1       1       1       1       1       1
       1       2       2       2       2       1       3       1       1       1
       2       2       2       2       2       2       1       3       1       1
       1       2       2       2       2       2       2       1       3       1
       1       1       2       2       2       2       2       2       1       3
       1       1       1       2       2       2       2       2       2       1
       3       1       1       1       2       2       2       2       2       2
       1       3       1       1       1       2       2       2       2       2
       2       1       3       1       1       1       2       2       2       2
       2       2       1       3       1       1       1       2       2       2
       2       2       2       1       3       1       1       1       2       2
       2       2       2       2       1       3       1       1       1       2
       2       2       2       2       2       1       3       1       1       1
       2       2       2       2       2       2       1       3       1       1
       1       2       2       2       2       2       2       1       3       1
       1       1       2       2       2       2       2       2       2       2
       1       3       1       1       1       2       2       2       2       2
       2       1       3       1       1       1       2       2       2       2
       2       2       1       3       1       1       1       2       2       2
       2       2       2       1       3       1       1       1       2       2
       2       2       2       2       1       3       1       1       1       2
       2       2       2       2       2       1       3       1       1       1
       2       2       2       2       2       2       1       3       1       1
       1       2       2       2       2       2       2       1       3       1
       1       1       2       2       2       2       2       2       1       3
       1       1       1       2       2       2       2       2       2       1
       3       1       1       1       2       2       2       2       2       2
       1       3       1       1       1       2       2       2       2       2
       2       1       3       1       1       1       2       2       4       4
       4       4       4       4       4       4       4       4       4       4
       4       4       4       4       4       4       4       4       4       4
       4       4       4       4       4       4       4       4       4       4
       4       4       4       4       4       4       4       4       4       4
       4       4       4       4       4       4       4       4       4       4
       4       4       4       4       4       4       4       4       4       4
       4       4       4       4       4       4       4       4       4       4
       4       4       4       4       4       4       4       4       4       4
       4       4       4       4       4       4       4       4       4       4
       4       4       4       4       4       4       4       4       4       4
       4       4       4       4       4       4       4       4       4       4
       4       4       4       4       4       4       4       4       4       5
       5       6       6       6       6       6       6       6       6       6
       6       6       5       5       5       5       6       6       6       6
       6       6       6       6       6       6       6       5       5       5
       5       6       6       6       6       6       6       6       6       6
       6       6       5       5       5       5       6       6       6       6
       6       6       6       6       6       6       6       5       5       5
       5       6       6       6       6       6       6       6       6       6
       6       6       5       5       5       5       6       6       6       6
       6       6       6       6       6       6       6       5       5       5
       5       6       6       6       6       6       6       6       6       6
       6       6       5       5       5       5       6       6       6       6
       6       6       6       6       6       6       6       5       5       5
       5       6       6       6       6       6       6       6       6       6
       6       6       5       5       5       5       6       6       6       6
       6       6       6       6       6       6       6       5       5       5
       5       6       6       6       6       6       6       6       6       6
       6       6       5       5       5       5       6       6       6       6
       6       6       6       6       6       6       6       5       5       5
       5       4       4       4       4       4       4       4       4       4
       4       4       4       4       4       4       4       4       4       4
       4       4       4       4       4       4       4       4       4       4
       4       4       4       4       4       4       4       4       4       4
       4       4       4       4       4       4       4       4       4       4
       4       4       4       4       4       4       4       4       4       5
       5       6       6       6       6       6       6       6       6       6
       6       6       5       5       5       5       6       6       6       6
       6       6       6       6       6       6       6       5       5       5
       5       6       6       6       6       6       6       6       6       6
       6       6       5       5       5       5       6       6       6       6
       6       6       6       6       6       6       6       5       5       5
       5       6       6       6       6       6       6       6       6       6
       6       6       5       5       5       5       6       6       6       6
       6       6       6       6       6       6       6       5       5       5
       5       6       6       6       6       6       6       6       6       6
       6       6       5       5       5       5       6       6       6       6
       6       6       6       6       6       6       6       5       5       5
       5       6       6       6       6       6       6       6       6       6
       6       6       5       5       5       5       6       6       6       6
       6       6       6       6       6       6       6       5       5       5
       5       6       6       6       6       6       6       6       6       6
       6       6       5       5       4       4       4       4       4       4
       4       4       4       4       4       4       4       4       4       4
       4       4       4       4       4       4       4       4       4       4
       4       4       4       4       4       4       4       4       4       4
       4       4       4       4       4       4       4       4       4       4
       4       4       4       4       4       4       4       4       4       4
       4       4       4       4       4       4       4       5       5       6
       6       6       6       6       6       6       6       6       6       6
       5       5       5       5       6       6       6       6       6       6
       6       6       6       6       6       5       5       5       5       6
       6       6       6       6       6       6       6       6       6       6
       5       5       5       5       6       6       6       6       6       6
       6       6       6       6       6       5       5       5       5       6
       6       6       6       6       6       6       6       6       6       6
       5       5       5       5       6       6       6       6       6       6
       6       6       6       6       6       5       5       5       5       6
       6       6       6       6       6       6       6       6       6       6
       5       5       5       5       6       6       6       6       6       6
       6       6       6       6       6       5       5       5       5       6
       6       6       6       6       6       6       6       6       6       6
       5       5       5       5       6       6       6       6       6       6
       6       6       6       6       6       5       5       5       5       6
       6       6       6       6       6       6       6       6       6       6
       5       5       5       5       6       6       6       6       6       6
       6       6       6       6       6       5       5       5       5       6
       6       6       6       6       6       6       6       6       6       6
       5       5       5       5       5       5       6       6       6       6
       6       6       6       6       6       6       6       5       5       5
       5       6       6       6       6       6       6       6       6       6
       6       6       5       5       5       5       6       6       6       6
       6       6       6       6       6       6       6       5       5       5
       5       6       6       6       6       6       6       6       6       6
       6       6       5       5       5       5       6       6       6       6
       6       6       6       6       6       6       6       5       5       5
       5       6       6       6       6       6       6       6       6       6
       6       6       5       5       5       5       6       6       6       6
       6       6       6       6       6       6       6       5       5       5
       5       6       6       6       6       6       6       6       6       6
       6       6       5       5       5       5       6       6       6       6
       6       6       6       6       6       6       6       5       5       5
       5       6       6       6       6       6       6       6       6       6
       6       6       5       5       5       5       6       6       6       6
       6       6       6       6       6       6       6       5       5       5
       5       6       6       6       6       6       6       6       6       6
       6       6       5       5       7       7       7       7       7       7
       7       7       7       7       7       7       7       7       7       7
       7       7       7       7       7       7       7       7       7       7
       7       7       7       7       7       7       7       7       7       7
       7       7       7       7       7       7       7       7       7       7
       7       7       8       9       9       8       9       9       8       9
       9       8       9       9       8       9       9       8       9       9
       8       9       9       8       9       9       8       9       9       8
       9       9       8       9       9       8       9       9       8       9
       9       8       9       9       8       9       9       8       9       9
       8       9       9       8       9       9       8       9       9       8
       9       9       8       9       9       8       9       9       8       9
       9       8       9       9       8       9       9       8       9       9
       8       9       9       8       9       9       8       9       9       8
       9       9       8       9       9       8       9       9       8       9
       9       8       9       9       8       9       9       8       9       9
       8       9       9       8       9       9       8       9       9       8
       9       9       8       9       9       8       9       9       8       9
       9       8       9       9       8       9       9       8       9       9
       8       9       9       8       9       9       8       9       9       8
       9       9       8       9       9       8       9       9       8       9
       9       8       9       9       8       9       9       8       9       9
       8       9       9       8       9       9       8       9       9       8
       9       9       8       9       9       8       9       9       8       9
       9       8       9       9       8       9       9       8       9       9
       8       9       9       8       9       9       8       9       9       8
       9       9       8       9       9       8       9       9       8       9
       9       8       9       9       8       9       9       8       9       9
       8       9       9       8       9       9       8       9       9       8
       9       9       8       9       9       8       9       9       8       9
       9       8       9       9       8       9       9       8       9       9
       8       9       9       8       9       9       8       9       9       8
       9       9       8       9       9       8       9       9       8       9
       9       8       9       9       8       9       9       8       9       9
       8       9       9       8       9       9       8       9       9       8
       9       9       8       9       9       8       9       9       8       9
       9       8       9       9       8       9       9       8       9       9
       8       9       9       8       9       9       8       9       9       8
       9       9       8       9       9       8       9       9       8       9
       9       8       9       9       8       9       9       8       9       9
       8       9       9       8       9       9       8       9       9       8
       9       9       8       9       9       8       9       9       8       9
       9       8       9       9       8       9       9       8       9       9
       8       9       9       8       9       9       8       9       9       8
       9       9       8       9       9       8       9       9       8       9
       9       8       9       9       8       9       9       8       9       9
       8       9       9       8       9       9       8       9       9       8
       9       9       8       9       9       8       9       9       8       9
       9       8       9       9       8       9       9       8       9       9
       8       9       9       8       9       9       8       9       9       8
       9       9       8       9       9       8       9       9       8       9
       9       8       9       9       8       9       9       8       9       9
       8       9       9       8       9       9       8       9       9       8
       9       9       8       9       9       8       9       9       8       9
       9       8       9       9       8       9       9       8       9       9
       8       9       9       8       9       9       8       9       9       8
       9       9       8       9       9       8       9       9       8       9
       9       8       9       9       8       9       9       8       9       9
       8       9       9       8       9       9       8       9       9       8
       9       9       8       9       9       8       9       9       8       9
       9       8       9       9       8       9       9       8       9       9
       8       9       9       8       9       9       8       9       9       8
       9       9       8       9       9       8       9       9       8       9
       9       8       9       9       8       9       9       8       9       9
       8       9       9       8       9       9       8       9       9       8
       9       9       8       9       9       8       9       9       8       9
       9       8       9       9       8       9       9       8       9       9
       8       9       9       8       9       9       8       9       9       8
       9       9       8       9       9       8       9       9       8       9
       9       8       9       9       8       9       9       8       9       9
       8       9       9       8       9       9       8       9       9       8
       9       9       8       9       9       8       9       9       8       9
       9       8       9       9       8       9       9       8       9       9
       8       9       9       8       9       9       8       9       9       8
       9       9       8       9       9       8       9       9       8       9
       9       8       9       9       8       9       9       8       9       9
       8       9       9       8       9       9       8       9       9       8
       9       9       8       9       9       8       9       9       8       9
       9       8       9       9       8       9       9       8       9       9
       8       9       9       8       9       9       8       9       9       8
       9       9       8       9       9       8       9       9       8       9
       9       8       9       9       8       9       9       8       9       9
       8       9       9       8       9       9       8       9       9       8
       9       9       8       9       9       8       9       9       8       9
       9       8       9       9       8       9       9       8       9       9
       8       9       9       8       9       9       8       9       9       8
       9       9       8       9       9       8       9       9       8       9
       9       8       9       9       8       9       9       8       9       9
       8       9       9       8       9       9       8       9       9       8
       9       9       8       9       9       8       9       9       8       9
       9       8       9       9       8       9       9       8       9       9
       8       9       9       8       9       9       8       9       9       8
       9       9       8       9       9       8       9       9       8       9
       9       8       9       9       8       9       9       8       9       9
       8       9       9       8       9       9       8       9       9       8
       9       9       8       9       9       8       9       9       8       9
       9       8       9       9       8       9       9       8       9       9
       8       9       9       8       9       9       8       9       9       8
       9       9       8       9       9       8       9       9       8       9
       9       8       9       9       8       9       9       8       9       9
       8       9       9       8       9       9       8       9       9       8
       9       9       8       9       9       8       9       9       8       9
       9       8       9       9       8       9       9       8       9       9
       8       9       9       8       9       9       8       9       9       8
       9       9       8       9       9       8       9       9       8       9
       9       8       9       9       8       9       9       8       9       9
       8       9       9       8       9       9       8       9       9       8
       9       9       8       9       9       8       9       9       8       9
       9       8       9       9       8       9       9       8       9       9
       8       9       9       8       9       9       8       9       9       8
       9       9       8       9       9       8       9       9       8       9
       9       8       9       9       8       9       9       8       9       9
       8       9       9       8       9       9       8       9       9       8
       9       9       8       9       9       8       9       9       8       9
       9       8       9       9       8       9       9       8       9       9
       8       9       9       8       9       9       8       9       9       8
       9       9       8       9       9       8       9       9       8       9
       9       8       9       9       8       9       9       8       9       9
       8       9       9       8       9       9       8       9       9       8
       9       9       8       9       9       8       9       9       8       9
       9       8       9       9       8       9       9       8       9       9
       8       9       9       8       9       9       8       9       9       8
       9       9       8       9       9       8       9       9       8       9
       9       8       9       9       8       9       9       8       9       9
       8       9       9       8       9       9       8       9       9       8
       9       9       8       9       9       8       9       9       8       9
       9       8       9       9       8       9       9       8       9       9
       8       9       9       8       9       9       8       9       9       8
       9       9       8       9       9       8       9       9       8       9
       9       8       9       9       8       9       9       8       9       9
       8       9       9       8       9       9       8       9       9       8
       9       9       8       9       9       8       9       9       8       9
       9       8       9       9       8       9       9       8       9       9
       8       9       9       8       9       9       8       9       9       8
       9       9       8       9       9       8       9       9       8       9
       9       8       9       9       8       9       9       8       9       9
       8       9       9       8       9       9       8       9       9       8
       9       9       8       9       9       8       9       9       8       9
       9       8       9       9       8       9       9       8       9       9
       8       9       9       8       9       9       8       9       9       8
       9       9       8       9       9       8       9       9       8       9
       9       8       9       9       8       9       9       8       9       9
       8       9       9       8       9       9       8       9       9       8
       9       9       8       9       9       8       9       9       8       9
       9       8       9       9       8       9       9       8       9       9
       8       9       9       8       9       9       8       9       9       8
       9       9       8       9       9       8       9       9       8       9
       9       8       9       9       8       9       9       8       9       9
       8       9       9       8       9       9       8       9       9       8
       9       9       8       9       9       8       9       9       8       9
       9       8       9       9       8       9       9       8       9       9
       8       9       9       8       9       9       8       9       9       8
       9       9       8       9       9       8       9       9       8       9
       9       8       9       9       8       9       9       8       9       9
       8       9       9       8       9       9       8       9       9       8
       9       9       8       9       9       8       9       9       8       9
       9       8       9       9       8       9       9       8       9       9
       8       9       9       8       9       9       8       9       9       8
       9       9       8       9       9       8       9       9       8       9
       9       8       9       9       8       9       9       8       9       9
       8       9       9       8       9       9       8       9       9       8
       9       9       8       9       9       8       9       9       8       9
       9       8       9       9       8       9       9       8       9       9
       8       9       9       8       9       9       8       9       9       8
       9       9       8       9       9       8       9       9       8       9
       9       8       9       9       8       9       9       8       9       9
       8       9       9       8       9       9       8       9       9       8
       9       9       8       9       9       8       9       9       8       9
       9       8       9       9       8       9       9       8       9       9
       8       9       9       8       9       9       8       9       9       8
       9       9       8       9       9       8       9       9       8       9
       9       8       9       9       8       9       9       8       9       9
       8       9       9       8       9       9       8       9       9       8
       9       9       8       9       9       8       9       9       8       9
       9       8       9       9       8       9       9       8       9       9
       8       9       9       8       9       9       8       9       9       8
       9       9       8       9       9       8       9       9       8       9
       9       8       9       9       8       9       9       8       9       9
       8       9       9       8       9       9       8       9       9       8
       9       9       8       9       9       8       9       9       8       9
       9       8       9       9       8       9       9       8       9       9
       8       9       9       8       9       9       8       9       9       8
       9       9       8       9       9       8       9       9       8       9
       9       8       9       9       8       9       9       8       9       9
       8       9       9       8       9       9       8       9       9       8
       9       9       8       9       9       8       9       9       8       9
       9       8       9       9       8       9       9       8       9       9
       8       9       9       8       9       9       8       9       9       8
       9       9       8       9       9       8       9       9       8       9
       9       8       9       9       8       9       9       8       9       9
       8       9       9       8       9       9       8       9       9       8
       9       9       8       9       9       8       9       9       8       9
       9       8       9       9       8       9       9       8       9       9
       8       9       9       8       9       9       8       9       9       8
       9       9       8       9       9       8       9       9       8       9
       9       8       9       9       8       9       9       8       9       9
       8       9       9       8       9       9       8       9       9       8
       9       9       8       9       9       8       9       9       8       9
       9       8       9       9       8       9       9       8       9       9
       8       9       9       8       9       9       8       9       9       8
       9       9       8       9       9       8       9       9       8       9
       9       8       9       9       8       9       9       8       9       9
       8       9       9       8       9       9       8       9       9       8
       9       9       8       9       9       8       9       9       8       9
       9       8       9       9       8       9       9       8       9       9
       8       9       9       8       9       9       8       9       9       8
       9       9       8       9       9       8       9       9       8       9
       9       8       9       9       8       9       9       8       9       9
       8       9       9       8       9       9       8       9       9       8
       9       9       8       9       9       8       9       9       8       9
       9       8       9       9       8       9       9       8       9       9
       8       9       9       8       9       9       8       9       9       8
       9       9       8       9       9       8       9       9       8       9
       9       8       9       9       8       9       9       8       9       9
       8       9       9       8       9       9       8       9       9       8
       9       9       8       9       9       8       9       9       8       9
       9       8       9       9       8       9       9       8       9       9
       8       9       9       8       9       9       8       9       9       8
       9       9       8       9       9       8       9       9       8       9
       9       8       9       9       8       9       9       8       9       9
       8       9       9       8       9       9       8       9       9       8
       9       9       8       9       9       8       9       9       8       9
       9       8       9       9       8       9       9       8       9       9
       8       9       9       8       9       9       8       9       9       8
       9       9       8       9       9       8       9       9       8       9
       9       8       9       9       8       9       9       8       9       9
       8       9       9       8       9       9       8       9       9       8
       9       9       8       9       9       8       9       9       8       9
       9       8       9       9       8       9       9       8       9       9
       8       9       9       8       9       9       8       9       9       8
       9       9       8       9       9       8       9       9       8       9
       9       8       9       9       8       9       9       8       9       9
       8       9       9       8       9       9       8       9       9       8
       9       9       8       9       9       8       9       9       8       9
       9       8       9       9       8       9       9       8       9       9
       8       9       9       8       9       9       8       9       9       8
       9       9       8       9       9       8       9       9       8       9
       9       8       9       9       8       9       9       8       9       9
       8       9       9       8       9       9       8       9       9       8
       9       9       8       9       9       8       9       9       8       9
       9       8       9       9       8       9       9       8       9       9
       8       9       9       8       9       9       8       9       9       8
       9       9       8       9       9       8       9       9       8       9
       9       8       9       9       8       9       9       8       9       9
       8       9       9       8       9       9       8       9       9       8
       9       9       8       9       9       8       9       9       8       9
       9       8       9       9       8       9       9       8       9       9
       8       9       9       8       9       9       8       9       9       8
       9       9       8       9       9       8       9       9       8       9
       9       8       9       9       8       9       9       8       9       9
       8       9       9       8       9       9       8       9       9       8
       9       9       8       9       9       8       9       9       8       9
       9       8       9       9       8       9       9       8       9       9
       8       9       9       8       9       9       8       9       9       8
       9       9       8       9       9       8       9       9       8       9
       9       8       9       9       8       9       9       8       9       9
       8       9       9       8       9       9       8       9       9       8
       9       9       8       9       9       8       9       9       8       9
       9       8       9       9       8       9       9       8       9       9
       8       9       9       8       9       9       8       9       9       8
       9       9       8       9       9       8       9       9       8       9
       9       8       9       9       8       9       9       8       9       9
       8       9       9       8       9       9       8       9       9       8
       9       9       8       9       9       8       9       9       8       9
       9       8       9       9       8       9       9       8       9       9
       8       9       9       8       9       9       8       9       9       8
       9       9       8       9       9       8       9       9       8       9
       9       8       9       9       8       9       9       8       9       9
       8       9       9       8       9       9       8       9       9       8
       9       9       8       9       9       8       9       9       8       9
       9       8       9       9       8       9       9       8       9       9
       8       9       9       8       9       9       8       9       9       8
       9       9       8       9       9       8       9       9       8       9
       9       8       9       9       8       9       9       8       9       9
       8       9       9       8       9       9       8       9       9       8
       9       9       8       9       9       8       9       9       8       9
       9       8       9       9       8       9       9       8       9       9
       8       9       9       8       9       9       8       9       9       8
       9       9       8       9       9       8       9       9       8       9
       9       8       9       9       8       9       9       8       9       9
       8       9       9       8       9       9       8       9       9       8
       9       9       8       9       9       8       9       9       8       9
       9       8       9       9       8       9       9       8       9       9
       8       9       9       8       9       9       8       9       9       8
       9       9       8       9       9       8       9       9       8       9
       9       8       9       9       8       9       9       8       9       9
       8       9       9       8       9       9       8       9       9       8
       9       9       8       9       9       8       9       9       8       9
       9       8       9       9       8       9       9       8       9       9
       8       9       9       8       9       9       8       9       9       8
       9       9       8       9       9       8       9       9       8       9
       9       8       9       9       8       9       9       8       9       9
       8       9       9       8       9       9       8       9       9       8
       9       9       8       9       9       8       9       9       8       9
       9       8       9       9       8       9       9       8       9       9
       8       9       9       8       9       9       8       9       9       8
       9       9       8       9       9       8       9       9       8       9
       9       8       9       9       8       9       9       8       9       9
       8       9       9       8       9       9       8       9       9       8
       9       9       8       9       9       8       9       9       8       9
       9       8       9       9       8       9       9       8       9       9
       8       9       9       8       9       9       8       9       9       8
       9       9       8       9       9       8       9       9       8       9
       9       8       9       9       8       9       9       8       9       9
       8       9       9       8       9       9       8       9       9       8
       9       9       8       9       9       8       9       9       8       9
       9       8       9       9       8       9       9       8       9       9
       8       9       9       8       9       9       8       9       9       8
       9       9       8       9       9       8       9       9       8       9
       9       8       9       9       8       9       9       8       9       9
       8       9       9       8       9       9       8       9       9       8
       9       9       8       9       9       8       9       9       8       9
       9       8       9       9       8       9       9       8       9       9
       8       9       9       8       9       9       8       9       9       8
       9       9       8       9       9       8       9       9       8       9
       9       8       9       9       8       9       9       8       9       9
       8       9       9       8       9       9       8       9       9       8
       9       9       8       9       9       8       9       9       8       9
       9       8       9       9       8       9       9       8       9       9
       8       9       9       8       9       9       8       9       9       8
       9       9       8       9       9       8       9       9       8       9
       9       8       9       9       8       9       9       8       9       9
       8       9       9       8       9       9       8       9       9       8
       9       9       8       9       9       8       9       9       8       9
       9       8       9       9       8       9       9       8       9       9
       8       9       9       8       9       9       8       9       9       8
       9       9       8       9       9       8       9       9       8       9
       9       8       9       9       8       9       9       8       9       9
       8       9       9       8       9       9       8       9       9       8
       9       9       8       9       9       8       9       9       8       9
       9       8       9       9       8       9       9       8       9       9
       8       9       9       8       9       9       8       9       9       8
       9       9       8       9       9       8       9       9       8       9
       9       8       9       9       8       9       9       8       9       9
       8       9       9       8       9       9       8       9       9       8
       9       9       8       9       9       8       9       9       8       9
       9       8       9       9       8       9       9       8       9       9
       8       9       9       8       9       9       8       9       9       8
       9       9       8       9       9       8       9       9       8       9
       9       8       9       9       8       9       9       8       9       9
       8       9       9       8       9       9       8       9       9       8
       9       9       8       9       9       8       9       9       8       9
       9       8       9       9       8       9       9       8       9       9
       8       9       9       8       9       9       8       9       9       8
       9       9       8       9       9       8       9       9       8       9
       9       8       9       9       8       9       9       8       9       9
       8       9       9       8       9       9       8       9       9       8
       9       9       8       9       9       8       9       9       8       9
       9       8       9       9       8       9       9       8       9       9
       8       9       9       8       9       9       8       9       9       8
       9       9       8       9       9       8       9       9       8       9
       9       8       9       9       8       9       9       8       9       9
       8       9       9       8       9       9       8       9       9       8
       9       9       8       9       9       8       9       9       8       9
       9       8       9       9       8       9       9       8       9       9
       8       9       9       8       9       9       8       9       9       8
       9       9       8       9       9       8       9       9       8       9
       9       8       9       9       8       9       9       8       9       9
       8       9       9       8       9       9       8       9       9       8
       9       9       8       9       9       8       9       9       8       9
       9       8       9       9       8       9       9       8       9       9
       8       9       9       8       9       9       8       9       9       8
       9       9       8       9       9       8       9       9       8       9
       9       8       9       9       8       9       9       8       9       9
       8       9       9       8       9       9       8       9       9       8
       9       9       8       9       9       8       9       9       8       9
       9       8       9       9       8       9       9       8       9       9
       8       9       9       8       9       9       8       9       9       8
       9       9       8       9       9       8       9       9       8       9
       9       8       9       9       8       9       9       8       9       9
       8       9       9       8       9       9       8       9       9       8
       9       9       8       9       9       8       9       9       8       9
       9       8       9       9       8       9       9       8       9       9
       8       9       9       8       9       9       8       9       9       8
       9       9       8       9       9       8       9       9       8       9
       9       8       9       9       8       9       9       8       9       9
       8       9       9       8       9       9       8       9       9       8
       9       9       8       9       9       8       9       9       8       9
       9       8       9       9       8       9       9       8       9       9
       8       9       9       8       9       9       8       9       9       8
       9       9       8       9       9       8       9       9       8       9
       9       8       9       9       8       9       9       8       9       9
       8       9       9       8       9       9       8       9       9       8
       9       9       8       9       9       8       9       9       8       9
       9       8       9       9       8       9       9       8       9       9
       8       9       9       8       9       9       8       9       9       8
       9       9       8       9       9       8       9       9       8       9
       9       8       9       9       8       9       9       8       9       9
       8       9       9       8       9       9       8       9       9       8
       9       9       8       9       9       8       9       9       8       9
       9       8       9       9       8       9       9       8       9       9
       8       9       9       8       9       9       8       9       9       8
       9       9       8       9       9       8       9       9       8       9
       9       8       9       9       8       9       9       8       9       9
       8       9       9       8       9       9       8       9       9       8
       9       9       8       9       9       8       9       9       8       9
       9       8       9       9       8       9       9       8       9       9
       8       9       9       8       9       9       8       9       9       8
       9       9       8       9       9       8       9       9       8       9
       9       8       9       9       8       9       9       8       9       9
       8       9       9       8       9       9       8       9       9       8
       9       9       8       9       9       8       9       9       8       9
       9       8       9       9       8       9       9       8       9       9
       8       9       9       8       9       9       8       9       9       8
       9       9       8       9       9       8       9       9       8       9
       9       8       9       9       8       9       9       8       9       9
       8       9       9       8       9       9       8       9       9       8
       9       9       8       9       9       8       9       9       8       9
       9       8       9       9       8       9       9       8       9       9
       8       9       9       8       9       9       8       9       9       8
       9       9       8       9       9       8       9       9       8       9
       9       8       9       9       8       9       9       8       9       9
       8       9       9       8       9       9       8       9       9       8
       9       9       8       9       9       8       9       9       8       9
       9       8       9       9       8       9       9       8       9       9
       8       9       9       8       9       9       8       9       9       8
       9       9       8       9       9       8       9       9       8       9
       9       8       9       9       8       9       9       8       9       9
       8       9       9       8       9       9       8       9       9       8
       9       9       8       9       9       8       9       9       8       9
       9       8       9       9       8       9       9       8       9       9
       8       9       9       8       9       9       8       9       9       8
       9       9       8       9       9       8       9       9       8       9
       9       8       9       9       8       9       9       8       9       9
       8       9       9       8       9       9       8       9       9       8
       9       9       8       9       9       8       9       9       8       9
       9       8       9       9       8       9       9       8       9       9
       8       9       9       8       9       9       8       9       9       8
       9       9       8       9       9       8       9       9       8       9
       9       8       9       9       8       9       9       8       9       9
       8       9       9       8       9       9       8       9       9       8
       9       9       8       9       9       8       9       9       8       9
       9       8       9       9       8       9       9       8       9       9
       8       9       9       8       9       9       8       9       9       8
       9       9       8       9       9       8       9       9       8       9
       9       8       9       9       8       9       9       8       9       9
       8       9       9       8       9       9       8       9       9       8
       9       9       8       9       9       8       9       9       8       9
       9       8       9       9       8       9       9       8       9       9
       8       9       9       8       9       9       8       9       9       8
       9       9       8       9       9       8       9       9       8       9
       9       8       9       9       8       9       9       8       9       9
       8       9       9       8       9       9       8       9       9       8
       9       9       8       9       9       8       9       9       8       9
       9       8       9       9       8       9       9       8       9       9
       8       9       9       8       9       9       8       9       9       8
       9       9       8       9       9       8       9       9       8       9
       9       8       9       9       8       9       9       8       9       9
       8       9       9       8       9       9       8       9       9       8
       9       9       8       9       9       8       9       9       8       9
       9       8       9       9       8       9       9       8       9       9
       8       9       9       8       9       9       8       9       9       8
       9       9       8       9       9       8       9       9       8       9
       9       8       9       9       8       9       9       8       9       9
       8       9       9       8       9       9       8       9       9       8
       9       9       8       9       9       8       9       9       8       9
       9       8       9       9       8       9       9       8       9       9
       8       9       9       8       9       9       8       9       9       8
       9       9       8       9       9       8       9       9       8       9
       9       8       9       9       8       9       9       8       9       9
       8       9       9       8       9       9       8       9       9       8
       9       9       8       9       9       8       9       9       8       9
       9       8       9       9       8       9       9       8       9       9
       8       9       9       8       9       9       8       9       9       8
       9       9       8       9       9       8       9       9       8       9
       9       8       9       9       8       9       9       8       9       9
       8       9       9       8       9       9       8       9       9       8
       9       9       8       9       9       8       9       9       8       9
       9       8       9       9       8       9       9       8       9       9
       8       9       9       8       9       9       8       9       9       8
       9       9       8       9       9       8       9       9       8       9
       9       8       9       9       8       9       9       8       9       9
       8       9       9       8       9       9       8       9       9       8
       9       9       8       9       9       8       9       9       8       9
       9       8       9       9       8       9       9       8       9       9
       8       9       9       8       9       9       8       9       9       8
       9       9       8       9       9       8       9       9       8       9
       9       8       9       9       8       9       9       8       9       9
       8       9       9       8       9       9       8       9       9       8
       9       9       8       9       9       8       9       9       8       9
       9       8       9       9       8       9       9       8       9       9
       8       9       9       8       9       9       8       9       9       8
       9       9       8       9       9       8       9       9       8       9
       9       8       9       9       8       9       9       8       9       9
       8       9       9       8       9       9       8       9       9       8
       9       9       8       9       9       8       9       9       8       9
       9       8       9       9       8       9       9       8       9       9
       8       9       9       8       9       9       8       9       9       8
       9       9       8       9       9       8       9       9       8       9
       9       8       9       9       8       9       9       8       9       9
       8       9       9       8       9       9       8       9       9       8
       9       9       8       9       9       8       9       9       8       9
       9       8       9       9       8       9       9       8       9       9
       8       9       9       8       9       9       8       9       9       8
       9       9       8       9       9       8       9       9       8       9
       9       8       9       9       8       9       9       8       9       9
       8       9       9       8       9       9       8       9       9       8
       9       9       8       9       9       8       9       9       8       9
       9       8       9       9       8       9       9       8       9       9
       8       9       9       8       9       9       8       9       9       8
       9       9       8       9       9       8       9       9       8       9
       9       8       9       9       8       9       9       8       9       9
       8       9       9       8       9       9       8       9       9       8
       9       9       8       9       9       8       9       9       8       9
       9       8       9       9       8       9       9       8       9       9
       8       9       9       8       9       9       8       9       9       8
       9       9       8       9       9       8       9       9       8       9
       9       8       9       9       8       9       9       8       9       9
       8       9       9       8       9       9       8       9       9       8
       9       9       8       9       9       8       9       9       8       9
       9       8       9       9       8       9       9       8       9       9
       8       9       9       8       9       9       8       9       9       8
       9       9       8       9       9       8       9       9       8       9
       9       8       9       9       8       9       9       8       9       9
       8       9       9       8       9       9       8       9       9       8
       9       9       8       9       9       8       9       9       8       9
       9       8       9       9       8       9       9       8       9       9
       8       9       9       8       9       9       8       9       9       8
       9       9       8       9       9       8       9       9       8       9
       9       8       9       9       8       9       9       8       9       9
       8       9       9       8       9       9       8       9       9       8
       9       9       8       9       9       8       9       9       8       9
       9       8       9       9       8       9       9       8       9       9
       8       9       9       8       9       9       8       9       9       8
       9       9       8       9       9       8       9       9       8       9
       9       8       9       9       8       9       9       8       9       9
       8       9       9       8       9       9       8       9       9       8
       9       9       8       9       9       8       9       9       8       9
       9       8       9       9       8       9       9       8       9       9
       8       9       9       8       9       9       8       9       9       8
       9       9       8       9       9       8       9       9       8       9
       9       8       9       9       8       9       9       8       9       9
       8       9       9       8       9       9       8       9       9       8
       9       9       8       9       9       8       9       9       8       9
       9       8       9       9       8       9       9       8       9       9
       8       9       9       8       9       9       8       9       9       8
       9       9       8       9       9       8       9       9       8       9
       9       8       9       9       8       9       9       8       9       9
       8       9       9       8       9       9       8       9       9       8
       9       9       8       9       9       8       9       9       8       9
       9       8       9       9       8       9       9       8       9       9
       8       9       9       8       9       9       8       9       9       8
       9       9       8       9       9       8       9       9       8       9
       9       8       9       9       8       9       9       8       9       9
       8       9       9       8       9       9       8       9       9       8
       9       9       8       9       9       8       9       9       8       9
       9       8       9       9       8       9       9       8       9       9
       8       9       9       8       9       9       8       9       9       8
       9       9       8       9       9       8       9       9       8       9
       9       8       9       9       8       9       9       8       9       9
       8       9       9       8       9       9       8       9       9       8
       9       9       8       9       9       8       9       9       8       9
       9       8       9       9       8       9       9       8       9       9
       8       9       9       8       9       9       8       9       9       8
       9       9       8       9       9       8       9       9       8       9
       9       8       9       9       8       9       9       8       9       9
       8       9       9       8       9       9       8       9       9       8
       9       9       8       9       9       8       9       9       8       9
       9       8       9       9       8       9       9       8       9       9
       8       9       9       8       9       9       8       9       9       8
       9       9       8       9       9       8       9       9       8       9
       9       8       9       9       8       9       9       8       9       9
       8       9       9       8       9       9       8       9       9       8
       9       9       8       9       9       8       9       9       8       9
       9       8       9       9       8       9       9       8       9       9
       8       9       9       8       9       9       8       9       9       8
       9       9       8       9       9       8       9       9       8       9
       9       8       9       9       8       9       9       8       9       9
       8       9       9       8       9       9       8       9       9       8
       9       9       8       9       9       8       9       9       8       9
       9       8       9       9       8       9       9       8       9       9
       8       9       9       8       9       9       8       9       9       8
       9       9       8       9       9       8       9       9       8       9
       9       8       9       9       8       9       9       8       9       9
       8       9       9       8       9       9       8       9       9       8
       9       9       8       9       9       8       9       9       8       9
       9       8       9       9       8       9       9       8       9       9
       8       9       9       8       9       9       8       9       9       8
       9       9       8       9       9       8       9       9       8       9
       9       8       9       9       8       9       9       8       9       9
       8       9       9       8       9       9       8       9       9       8
       9       9       8       9       9       8       9       9       8       9
       9       8       9       9       8       9       9       8       9       9
       8       9       9       8       9       9       8       9       9       8
       9       9       8       9       9       8       9       9       8       9
       9       8       9       9       8       9       9       8       9       9
       8       9       9       8       9       9       8       9       9       8
       9       9       8       9       9       8       9       9       8       9
       9       8       9       9       8       9       9       8       9       9
       8       9       9       8       9       9       8       9       9       8
       9       9       8       9       9       8       9       9       8       9
       9       8       9       9       8       9       9       8       9       9
       8       9       9       8       9       9       8       9       9       8
       9       9       8       9       9       8       9       9       8       9
       9       8       9       9       8       9       9       8       9       9
       8       9       9       8       9       9       8       9       9       8
       9       9       8       9       9       8       9       9       8       9
       9       8       9       9       8       9       9       8       9       9
       8       9       9       8       9       9       8       9       9       8
       9       9       8       9       9       8       9       9       8       9
       9       8       9       9       8       9       9       8       9       9
       8       9       9       8       9       9       8       9       9       8
       9       9       8       9       9       8       9       9       8       9
       9       8       9       9       8       9       9       8       9       9
       8       9       9       8       9       9       8       9       9       8
       9       9       8       9       9       8       9       9       8       9
       9       8       9       9       8       9       9       8       9       9
       8       9       9       8       9       9       8       9       9       8
       9       9       8       9       9       8       9       9       8       9
       9       8       9       9       8       9       9       8       9       9
       8       9       9       8       9       9       8       9       9       8
       9       9       8       9       9       8       9       9       8       9
       9       8       9       9       8       9       9       8       9       9
       8       9       9       8       9       9       8       9       9       8
       9       9       8       9       9       8       9       9       8       9
       9       8       9       9       8       9       9       8       9       9
       8       9       9       8       9       9       8       9       9       8
       9       9       8       9       9       8       9       9       8       9
       9       8       9       9       8       9       9       8       9       9
       8       9       9       8       9       9       8       9       9       8
       9       9       8       9       9       8       9       9       8       9
       9       8       9       9       8       9       9       8       9       9
       8       9       9       8       9       9       8       9       9       8
       9       9       8       9       9       8       9       9       8       9
       9       8       9       9       8       9       9       8       9       9
       8       9       9       8       9       9       8       9       9       8
       9       9       8       9       9       8       9       9       8       9
       9       8       9       9       8       9       9       8       9       9
       8       9       9       8       9       9       8       9       9       8
       9       9       8       9       9       8       9       9       8       9
       9       8       9       9       8       9       9       8       9       9
       8       9       9       8       9       9       8       9       9       8
       9       9       8       9       9       8       9       9       8       9
       9       8       9       9       8       9       9       8       9       9
       8       9       9       8       9       9       8       9       9       8
       9       9       8       9       9       8       9       9       8       9
       9       8       9       9       8       9       9       8       9       9
       8       9       9       8       9       9       8       9       9       8
       9       9       8       9       9       8       9       9       8       9
       9       8       9       9       8       9       9       8       9       9
       8       9       9       8       9       9       8       9       9       8
       9       9       8       9       9       8       9       9       8       9
       9       8       9       9       8       9       9       8       9       9
       8       9       9       8       9       9       8       9       9       8
       9       9       8       9       9       8       9       9       8       9
       9       8       9       9       8       9       9       8       9       9
       8       9       9       8       9       9       8       9       9       8
       9       9       8       9       9       8       9       9       8       9
       9       8       9       9       8       9       9       8       9       9
       8       9       9       8       9       9       8       9       9       8
       9       9       8       9       9       8       9       9       8       9
       9       8       9       9       8       9       9       8       9       9
       8       9       9       8       9       9       8       9       9       8
       9       9       8       9       9       8       9       9       8       9
       9       8       9       9       8       9       9       8       9       9
       8       9       9       8       9       9       8       9       9       8
       9       9       8       9       9       8       9       9       8       9
       9       8       9       9       8       9       9       8       9       9
       8       9       9       8       9       9       8       9       9       8
       9       9       8       9       9       8       9       9       8       9
       9       8       9       9       8       9       9       8       9       9
       8       9       9       8       9       9       8       9       9       8
       9       9       8       9       9       8       9       9       8       9
       9       8       9       9       8       9       9       8       9       9
       8       9       9       8       9       9       8       9       9       8
       9       9       8       9       9       8       9       9       8       9
       9       8       9       9       8       9       9       8       9       9
       8       9       9       8       9       9       8       9       9       8
       9       9       8       9       9       8       9       9       8       9
       9       8       9       9       8       9       9       8       9       9
       8       9       9       8       9       9       8       9       9       8
       9       9       8       9       9       8       9       9       8       9
       9       8       9       9       8       9       9       8       9       9
       8       9       9       8       9       9       8       9       9       8
       9       9       8       9       9       8       9       9       8       9
       9       8       9       9       8       9       9       8       9       9
       8       9       9       8       9       9       8       9       9       8
       9       9       8       9       9       8       9       9       8       9
       9       8       9       9       8       9       9       8       9       9
       8       9       9       8       9       9       8       9       9       8
       9       9       8       9       9       8       9       9       8       9
       9       8       9       9       8       9       9       8       9       9
       8       9       9       8       9       9       8       9       9       8
       9       9       8       9       9       8       9       9       8       9
       9       8       9       9       8       9       9       8       9       9
       8       9       9       8       9       9       8       9       9       8
       9       9       8       9       9       8       9       9       8       9
       9       8       9       9       8       9       9       8       9       9
       8       9       9       8       9       9       8       9       9       8
       9       9       8       9       9       8       9       9       8       9
       9       8       9       9       8       9       9       8       9       9
       8       9       9       8       9       9       8       9       9       8
       9       9       8       9       9       8       9       9       8       9
       9       8       9       9       8       9       9       8       9       9
       8       9       9       8       9       9       8       9       9       8
       9       9       8       9       9       8       9       9       8       9
       9       8       9       9       8       9       9       8       9       9
       8       9       9       8       9       9       8       9       9       8
       9       9       8       9       9       8       9       9       8       9
       9       8       9       9       8       9       9       8       9       9
       8       9       9       8       9       9       8       9       9       8
       9       9       8       9       9       8       9       9       8       9
       9       8       9       9       8       9       9       8       9       9
       8       9       9       8       9       9       8       9       9       8
       9       9       8       9       9       8       9       9       8       9
       9       8       9       9       8       9       9       8       9       9
       8       9       9       8       9       9       8       9       9       8
       9       9       8       9       9       8       9       9       8       9
       9       8       9       9       8       9       9       8       9       9
       8       9       9       8       9       9       8       9       9       8
       9       9       8       9       9       8       9       9       8       9
       9       8       9       9       8       9       9       8       9       9
       8       9       9       8       9       9       8       9       9       8
       9       9       8       9       9       8       9       9       8       9
       9       8       9       9       8       9       9       8       9       9
       8       9       9       8       9       9       8       9       9       8
       9       9       8       9       9       8       9       9       8       9
       9       8       9       9       8       9       9       8       9       9
       8       9       9       8       9       9       8       9       9       8
       9       9       8       9       9       8       9       9       8       9
       9       8       9       9       8       9       9       8       9       9
       8       9       9       8       9       9       8       9       9       8
       9       9       8       9       9       8       9       9       8       9
       9       8       9       9       8       9       9       8       9       9
       8       9       9       8       9       9       8       9       9       8
       9       9       8       9       9       8       9       9       8       9
       9       8       9       9       8       9       9       8       9       9
       8       9       9       8       9       9       8       9       9       8
       9       9       8       9       9       8       9       9       8       9
       9       8       9       9       8       9       9       8       9       9
       8       9       9       8       9       9       8       9       9       8
       9       9       8       9       9       8       9       9       8       9
       9       8       9       9       8       9       9       8       9       9
       8       9       9       8       9       9       8       9       9       8
       9       9       8       9       9       8       9       9       8       9
       9       8       9       9       8       9       9       8       9       9
       8       9       9       8       9       9       8       9       9       8
       9       9       8       9       9       8       9       9       8       9
       9       8       9       9       8       9       9       8       9       9
       8       9       9       8       9       9       8       9       9       8
       9       9       8       9       9       8       9       9       8       9
       9       8       9       9       8       9       9       8       9       9
       8       9       9       8       9       9       8       9       9       8
       9       9       8       9       9       8       9       9       8       9
       9       8       9       9       8       9       9       8       9       9
       8       9       9       8       9       9       8       9       9       8
       9       9       8       9       9       8       9       9       8       9
       9       8       9       9       8       9       9       8       9       9
       8       9       9       8       9       9       8       9       9       8
       9       9       8       9       9       8       9       9       8       9
       9       8       9       9       8       9       9       8       9       9
       8       9       9       8       9       9       8       9       9       8
       9       9       8       9       9       8       9       9       8       9
       9       8       9       9       8       9       9       8       9       9
       8       9       9       8       9       9       8       9       9       8
       9       9       8       9       9       8       9       9       8       9
       9       8       9       9       8       9       9       8       9       9
       8       9       9       8       9       9       8       9       9       8
       9       9       8       9       9       8       9       9       8       9
       9       8       9       9       8       9       9       8       9       9
       8       9       9       8       9       9       8       9       9       8
       9       9       8       9       9       8       9       9       8       9
       9       8       9       9       8       9       9       8       9       9
       8       9       9       8       9       9       8       9       9       8
       9       9       8       9       9       8       9       9       8       9
       9       8       9       9       8       9       9       8       9       9
       8       9       9       8       9       9       8       9       9       8
       9       9       8       9       9       8       9       9       8       9
       9       8       9       9       8       9       9       8       9       9
       8       9       9       8       9       9       8       9       9       8
       9       9       8       9       9       8       9       9       8       9
       9       8       9       9       8       9       9       8       9       9
       8       9       9       8       9       9       8       9       9       8
       9       9       8       9       9       8       9       9       8       9
       9       8       9       9       8       9       9       8       9       9
       8       9       9       8       9       9       8       9       9       8
       9       9       8       9       9       8       9       9       8       9
       9       8       9       9       8       9       9       8       9       9
       8       9       9       8       9       9       8       9       9       8
       9       9       8       9       9       8       9       9       8       9
       9       8       9       9       8       9       9       8       9       9
       8       9       9       8       9       9       8       9       9       8
       9       9       8       9       9       8       9       9       8       9
       9       8       9       9       8       9       9       8       9       9
       8       9       9       8       9       9       8       9       9       8
       9       9       8       9       9       8       9       9       8       9
       9       8       9       9       8       9       9       8       9       9
       8       9       9       8       9       9       8       9       9       8
       9       9       8       9       9       8       9       9       8       9
       9       8       9       9       8       9       9       8       9       9
       8       9       9       8       9       9       8       9       9       8
       9       9       8       9       9       8       9       9       8       9
       9       8       9       9       8       9       9       8       9       9
       8       9       9       8       9       9       8       9       9       8
       9       9       8       9       9       8       9       9       8       9
       9       8       9       9       8       9       9       8       9       9
       8       9       9       8       9       9       8       9       9       8
       9       9       8       9       9       8       9       9       8       9
       9       8       9       9       8       9       9       8       9       9
       8       9       9       8       9       9       8       9       9       8
       9       9       8       9       9       8       9       9       8       9
       9       8       9       9       8       9       9       8       9       9
       8       9       9       8       9       9       8       9       9       8
       9       9       8       9       9       8       9       9       8       9
       9       8       9       9       8       9       9       8       9       9
       8       9       9       8       9       9       8       9       9       8
       9       9       8       9       9       8       9       9       8       9
       9       8       9       9       8       9       9       8       9       9
       8       9       9       8       9       9       8       9       9       8
       9       9       8       9       9       8       9       9       8       9
       9       8       9       9       8       9       9       8       9       9
       8       9       9       8       9       9       8       9       9       8
       9       9       8       9       9       8       9       9       8       9
       9       8       9       9       8       9       9       8       9       9
       8       9       9       8       9       9       8       9       9       8
       9       9       8       9       9       8       9       9       8       9
       9       8       9       9       8       9       9       8       9       9
       8       9       9       8       9       9       8       9       9       8
       9       9       8       9       9       8       9       9       8       9
       9       8       9       9       8       9       9       8       9       9
       8       9       9       8       9       9       8       9       9       8
       9       9       8       9       9       8       9       9       8       9
       9       8       9       9       8       9       9       8       9       9
       8       9       9       8       9       9       8       9       9       8
       9       9       8       9       9       8       9       9       8       9
       9       8       9       9       8       9       9       8       9       9
       8       9       9       8       9       9       8       9       9       8
       9       9       8       9       9       8       9       9       8       9
       9       8       9       9       8       9       9       8       9       9
       8       9       9       8       9       9       8       9       9       8
       9       9       8       9       9       8       9       9       8       9
       9       8       9       9       8       9       9       8       9       9
       8       9       9       8       9       9       8       9       9       8
       9       9       8       9       9       8       9       9       8       9
       9       8       9       9       8       9       9       8       9       9
       8       9       9       8       9       9       8       9       9       8
       9       9       8       9       9       8       9       9       8       9
       9       8       9       9       8       9       9       8       9       9
       8       9       9       8       9       9       8       9       9       8
       9       9       8       9       9       8       9       9       8       9
       9       8       9       9       8       9       9       8       9       9
       8       9       9       8       9       9       8       9       9       8
       9       9       8       9       9       8       9       9       8       9
       9       8       9       9       8       9       9       8       9       9
       8       9       9       8       9       9       8       9       9       8
       9       9       8       9       9       8       9       9       8       9
       9       8       9       9       8       9       9       8       9       9
       8       9       9       8       9       9       8       9       9       8
       9       9       8       9       9       8       9       9       8       9
       9       8       9       9       8       9       9       8       9       9
       8       9       9       8       9       9       8       9       9       8
       9       9       8       9       9       8       9       9       8       9
       9       8       9       9       8       9       9       8       9       9
       8       9       9       8       9       9       8       9       9       8
       9       9       8       9       9       8       9       9       8       9
       9       8       9       9       8       9       9       8       9       9
       8       9       9       8       9       9       8       9       9       8
       9       9       8       9       9       8       9       9       8       9
       9       8       9       9       8       9       9       8       9       9
       8       9       9       8       9       9       8       9       9       8
       9       9       8       9       9       8       9       9       8       9
       9       8       9       9       8       9       9       8       9       9
       8       9       9       8       9       9       8       9       9       8
       9       9       8       9       9       8       9       9       8       9
       9       8       9       9       8       9       9       8       9       9
       8       9       9       8       9       9       8       9       9       8
       9       9       8       9       9       8       9       9       8       9
       9       8       9       9       8       9       9       8       9       9
       8       9       9       8       9       9       8       9       9       8
       9       9       8       9       9       8       9       9       8       9
       9       8       9       9       8       9       9       8       9       9
       8       9       9       8       9       9       8       9       9       8
       9       9       8       9       9       8       9       9       8       9
       9       8       9       9       8       9       9       8       9       9
       8       9       9       8       9       9       8       9       9       8
       9       9       8       9       9       8       9       9       8       9
       9       8       9       9       8       9       9       8       9       9
       8       9       9       8       9       9       8       9       9       8
       9       9       8       9       9       8       9       9       8       9
       9       8       9       9       8       9       9       8       9       9
       8       9       9       8       9       9       8       9       9       8
       9       9       8       9       9       8       9       9       8       9
       9       8       9       9       8       9       9       8       9       9
       8       9       9       8       9       9       8       9       9       8
       9       9       8       9       9       8       9       9       8       9
       9       8       9       9       8       9       9       8       9       9
       8       9       9       8       9       9       8       9       9       8
       9       9       8       9       9       8       9       9       8       9
       9       8       9       9       8       9       9       8       9       9
       8       9       9       8       9       9       8       9       9       8
       9       9       8       9       9       8       9       9       8       9
       9       8       9       9       8       9       9       8       9       9
       8       9       9       8       9       9       8       9       9       8
       9       9       8       9       9       8       9       9       8       9
       9       8       9       9       8       9       9       8       9       9
       8       9       9       8       9       9       8       9       9       8
       9       9       8       9       9       8       9       9       8       9
       9       8       9       9       8       9       9       8       9       9
       8       9       9       8       9       9       8       9       9       8
       9       9       8       9       9       8       9       9       8       9
       9       8       9       9       8       9       9       8       9       9
       8       9       9       8       9       9       8       9       9       8
       9       9       8       9       9       8       9       9       8       9
       9       8       9       9       8       9       9       8       9       9
       8       9       9       8       9       9       8       9       9       8
       9       9       8       9       9       8       9       9       8       9
       9       8       9       9       8       9       9       8       9       9
       8       9       9       8       9       9       8       9       9       8
       9       9       8       9       9       8       9       9       8       9
       9       8       9       9       8       9       9       8       9       9
       8       9       9       8       9       9       8       9       9       8
       9       9       8       9       9       8       9       9       8       9
       9       8       9       9       8       9       9       8       9       9
       8       9       9       8       9       9       8       9       9       8
       9       9       8       9       9       8       9       9       8       9
       9       8       9       9       8       9       9       8       9       9
       8       9       9       8       9       9       8       9       9       8
       9       9       8       9       9       8       9       9       8       9
       9       8       9       9       8       9       9       8       9       9
       8       9       9       8       9       9       8       9       9       8
       9       9       8       9       9       8       9       9       8       9
       9       8       9       9       8       9       9       8       9       9
       8       9       9       8       9       9       8       9       9       8
       9       9       8       9       9       8       9       9       8       9
       9       8       9       9       8       9       9       8       9       9
       8       9       9       8       9       9       8       9       9       8
       9       9       8       9       9       8       9       9       8       9
       9       8       9       9       8       9       9       8       9       9
       8       9       9       8       9       9       8       9       9       8
       9       9       8       9       9       8       9       9       8       9
       9       8       9       9       8       9       9       8       9       9
       8       9       9       8       9       9       8       9       9       8
       9       9       8       9       9       8       9       9       8       9
       9       8       9       9       8       9       9       8       9       9
       8       9       9       8       9       9       8       9       9       8
       9       9       8       9       9       8       9       9       8       9
       9       8       9       9       8       9       9       8       9       9
       8       9       9       8       9       9       8       9       9       8
       9       9       8       9       9       8       9       9       8       9
       9       8       9       9       8       9       9       8       9       9
       8       9       9       8       9       9       8       9       9       8
       9       9       8       9       9       8       9       9       8       9
       9       8       9       9       8       9       9       8       9       9
       8       9       9       8       9       9       8       9       9       8
       9       9       8       9       9       8       9       9       8       9
       9       8       9       9       8       9       9       8       9       9
       8       9       9       8       9       9       8       9       9       8
       9       9       8       9       9       8       9       9       8       9
       9       8       9       9       8       9       9       8       9       9
       8       9       9       8       9       9       8       9       9       8
       9       9       8       9       9       8       9       9       8       9
       9       8       9       9       8       9       9       8       9       9
       8       9       9       8       9       9       8       9       9       8
       9       9       8       9       9       8       9       9       8       9
       9       8       9       9       8       9       9       8       9       9
       8       9       9       8       9       9       8       9       9       8
       9       9       8       9       9       8       9       9       8       9
       9       8       9       9       8       9       9       8       9       9
       8       9       9       8       9       9       8       9       9       8
       9       9       8       9       9       8       9       9       8       9
       9       8       9       9       8       9       9       8       9       9
       8       9       9       8       9       9       8       9       9       8
       9       9       8       9       9       8       9       9       8       9
       9       8       9       9       8       9       9       8       9       9
       8       9       9       8       9       9       8       9       9       8
       9       9       8       9       9       8       9       9       8       9
       9       8       9       9       8       9       9       8       9       9
       8       9       9       8       9       9       8       9       9       8
       9       9       8       9       9       8       9       9       8       9
       9       8       9       9       8       9       9       8       9       9
       8       9       9       8       9       9       8       9       9       8
       9       9       8       9       9       8       9       9       8       9
       9       8       9       9       8       9       9       8       9       9
       8       9       9       8       9       9       8       9       9       8
       9       9       8       9       9       8       9       9       8       9
       9       8       9       9       8       9       9       8       9       9
       8       9       9       8       9       9       8       9       9       8
       9       9       8       9       9       8       9       9       8       9
       9       8       9       9       8       9       9       8       9       9
       8       9       9       8       9       9       8       9       9       8
       9       9       8       9       9       8       9       9       8       9
       9       8       9       9       8       9       9       8       9       9
       8       9       9       8       9       9       8       9       9       8
       9       9       8       9       9       8       9       9       8       9
       9       8       9       9       8       9       9       8       9       9
       8       9       9       8       9       9       8       9       9       8
       9       9       8       9       9       8       9       9       8       9
       9       8       9       9       8       9       9       8       9       9
       8       9       9       8       9       9       8       9       9       8
       9       9       8       9       9       8       9       9       8       9
       9       8       9       9       8       9       9       8       9       9
       8       9       9       8       9       9       8       9       9       8
       9       9       8       9       9       8       9       9       8       9
       9       8       9       9       8       9       9       8       9       9
       8       9       9       8       9       9       8       9       9       8
       9       9       8       9       9       8       9       9       8       9
       9       8       9       9       8       9       9       8       9       9
       8       9       9       8       9       9       8       9       9       8
       9       9       8       9       9       8       9       9       8       9
       9       8       9       9       8       9       9       8       9       9
       8       9       9       8       9       9       8       9       9       8
       9       9       8       9       9       8       9       9       8       9
       9       8       9       9       8       9       9       8       9       9
       8       9       9       8       9       9       8       9       9       8
       9       9       8       9       9       8       9       9       8       9
       9       8       9       9       8       9       9       8       9       9
       8       9       9       8       9       9       8       9       9       8
       9       9       8       9       9       8       9       9       8       9
       9       8       9       9       8       9       9       8       9       9
       8       9       9       8       9       9       8       9       9       8
       9       9       8       9       9       8       9       9       8       9
       9       8       9       9       8       9       9       8       9       9
       8       9       9       8       9       9       8       9       9       8
       9       9       8       9       9       8       9       9       8       9
       9       8       9       9       8       9       9       8       9       9
       8       9       9       8       9       9       8       9       9       8
       9       9       8       9       9       8       9       9       8       9
       9       8       9       9       8       9       9       8       9       9
       8       9       9       8       9       9       8       9       9       8
       9       9       8       9       9       8       9       9       8       9
       9       8       9       9       8       9       9       8       9       9
       8       9       9       8       9       9       8       9       9       8
       9       9       8       9       9       8       9       9       8       9
       9       8       9       9       8       9       9       8       9       9
       8       9       9       8       9       9       8       9       9       8
       9       9       8       9       9       8       9       9       8       9
       9       8       9       9       8       9       9       8       9       9
       8       9       9       8       9       9       8       9       9       8
       9       9       8       9       9       8       9       9       8       9
       9       8       9       9       8       9       9       8       9       9
       8       9       9       8       9       9       8       9       9       8
       9       9       8       9       9       8       9       9       8       9
       9       8       9       9       8       9       9       8       9       9
       8       9       9       8       9       9       8       9       9       8
       9       9       8       9       9       8       9       9       8       9
       9       8       9       9       8       9       9       8       9       9
       8       9       9       8       9       9       8       9       9       8
       9       9       8       9       9       8       9       9       8       9
       9       8       9       9       8       9       9       8       9       9
       8       9       9       8       9       9       8       9       9       8
       9       9       8       9       9       8       9       9       8       9
       9       8       9       9       8       9       9       8       9       9
       8       9       9       8       9       9       8       9       9       8
       9       9       8       9       9       8       9       9       8       9
       9       8       9       9       8       9       9       8       9       9
       8       9       9       8       9       9       8       9       9       8
       9       9       8       9       9       8       9       9       8       9
       9       8       9       9       8       9       9       8       9       9
       8       9       9       8       9       9       8       9       9       8
       9       9       8       9       9       8       9       9       8       9
       9       8       9       9       8       9       9       8       9       9
       8       9       9       8       9       9       8       9       9       8
       9       9       8       9       9       8       9       9       8       9
       9       8       9       9       8       9       9       8       9       9
       8       9       9       8       9       9       8       9       9       8
       9       9       8       9       9       8       9       9       8       9
       9       8       9       9       8       9       9       8       9       9
       8       9       9       8       9       9       8       9       9       8
       9       9       8       9       9       8       9       9       8       9
       9       8       9       9       8       9       9       8       9       9
       8       9       9       8       9       9       8       9       9       8
       9       9       8       9       9       8       9       9       8       9
       9       8       9       9       8       9       9       8       9       9
       8       9       9       8       9       9       8       9       9       8
       9       9       8       9       9       8       9       9       8       9
       9       8       9       9       8       9       9       8       9       9
       8       9       9       8       9       9       8       9       9       8
       9       9       8       9       9       8       9       9       8       9
       9       8       9       9       8       9       9       8       9       9
       8       9       9       8       9       9       8       9       9       8
       9       9       8       9       9       8       9       9       8       9
       9       8       9       9       8       9       9       8       9       9
       8       9       9       8       9       9       8       9       9       8
       9       9       8       9       9       8       9       9       8       9
       9       8       9       9       8       9       9       8       9       9
       8       9       9       8       9       9       8       9       9       8
       9       9       8       9       9       8       9       9       8       9
       9       8       9       9       8       9       9       8       9       9
       8       9       9       8       9       9       8       9       9       8
       9       9       8       9       9       8       9       9       8       9
       9       8       9       9       8       9       9       8       9       9
       8       9       9       8       9       9       8       9       9       8
       9       9       8       9       9       8       9       9       8       9
       9       8       9       9       8       9       9       8       9       9
       8       9       9       8       9       9       8       9       9       8
       9       9       8       9       9       8       9       9       8       9
       9       8       9       9       8       9       9       8       9       9
       8       9       9       8       9       9       8       9       9       8
       9       9       8       9       9       8       9       9       8       9
       9       8       9       9       8       9       9       8       9       9
       8       9       9       8       9       9       8       9       9       8
       9       9       8       9       9       8       9       9       8       9
       9       8       9       9       8       9       9       8       9       9
       8       9       9       8       9       9       8       9       9       8
       9       9       8       9       9       8       9       9       8       9
       9       8       9       9       8       9       9       8       9       9
       8       9       9       8       9       9       8       9       9       8
       9       9       8       9       9       8       9       9       8       9
       9       8       9       9       8       9       9       8       9       9
       8       9       9       8       9       9       8       9       9       8
       9       9       8       9       9       8       9       9       8       9
       9       8       9       9       8       9       9       8       9       9
       8       9       9       8       9       9       8       9       9       8
       9       9       8       9       9       8       9       9       8       9
       9       8       9       9       8       9       9       8       9       9
       8       9       9       8       9       9       8       9       9       8
       9       9       8       9       9       8       9       9       8       9
       9       8       9       9       8       9       9       8       9       9
       8       9       9       8       9       9       8       9       9       8
       9       9       8       9       9       8       9       9       8       9
       9       8       9       9       8       9       9       8       9       9
       8       9       9       8       9       9       8       9       9       8
       9       9       8       9       9       8       9       9       8       9
       9       8       9       9       8       9       9       8       9       9
       8       9       9       8       9       9       8       9       9       8
       9       9       8       9       9       8       9       9       8       9
       9       8       9       9       8       9       9       8       9       9
       8       9       9       8       9       9       8       9       9       8
       9       9       8       9       9       8       9       9       8       9
       9       8       9       9       8       9       9       8       9       9
       8       9       9       8       9       9       8       9       9       8
       9       9       8       9       9       8       9       9       8       9
       9       8       9       9       8       9       9       8       9       9
       8       9       9       8       9       9       8       9       9       8
       9       9       8       9       9       8       9       9       8       9
       9       8       9       9       8       9       9       8       9       9
       8       9       9       8       9       9       8       9       9       8
       9       9       8       9       9       8       9       9       8       9
       9       8       9       9       8       9       9       8       9       9
       8       9       9       8       9       9       8       9       9       8
       9       9       8       9       9       8       9       9       8       9
       9       8       9       9       8       9       9       8       9       9
       8       9       9       8       9       9       8       9       9       8
       9       9       8       9       9       8       9       9       8       9
       9       8       9       9       8       9       9       8       9       9
       8       9       9       8       9       9       8       9       9       8
       9       9       8       9       9       8       9       9       8       9
       9       8       9       9       8       9       9       8       9       9
       8       9       9       8       9       9       8       9       9       8
       9       9       8       9       9       8       9       9       8       9
       9       8       9       9       8       9       9       8       9       9
       8       9       9       8       9       9       8       9       9       8
       9       9       8       9       9       8       9       9       8       9
       9       8       9       9       8       9       9       8       9       9
       8       9       9       8       9       9       8       9       9       8
       9       9       8       9       9       8       9       9       8       9
       9       8       9       9       8       9       9       8       9       9
       8       9       9       8       9       9       8       9       9       8
       9       9       8       9       9       8       9       9       8       9
       9       8       9       9       8       9       9       8       9       9
       8       9       9       8       9       9       8       9       9       8
       9       9       8       9       9       8       9       9       8       9
       9       8       9       9       8       9       9       8       9       9
       8       9       9       8       9       9       8       9       9       8
       9       9       8       9       9       8       9       9       8       9
       9       8       9       9       8       9       9       8       9       9
       8       9       9       8       9       9       8       9       9       8
       9       9       8       9       9       8       9       9       8       9
       9       8       9       9       8       9       9       8       9       9
       8       9       9       8       9       9       8       9       9       8
       9       9       8       9       9       8       9       9       8       9
       9       8       9       9       8       9       9       8       9       9
       8       9       9       8       9       9       8       9       9       8
       9       9       8       9       9       8       9       9       8       9
       9       8       9       9       8       9       9       8       9       9
       8       9       9       8       9       9       8       9       9       8
       9       9       8       9       9       8       9       9       8       9
       9       8       9       9       8       9       9       8       9       9
       8       9       9       8       9       9       8       9       9       8
       9       9       8       9       9       8       9       9       8       9
       9       8       9       9       8       9       9       8       9       9
       8       9       9       8       9       9       8       9       9       8
       9       9       8       9       9       8       9       9       8       9
       9       8       9       9       8       9       9       8       9       9
       8       9       9       8       9       9       8       9       9       8
       9       9       8       9       9       8       9       9       8       9
       9       8       9       9       8       9       9       8       9       9
       8       9       9       8       9       9       8       9       9       8
       9       9       8       9       9       8       9       9       8       9
       9       8       9       9       8       9       9       8       9       9
       8       9       9       8       9       9       8       9       9       8
       9       9       8       9       9       8       9       9       8       9
       9       8       9       9       8       9       9       8       9       9
       8       9       9       8       9       9       8       9       9       8
       9       9       8       9       9       8       9       9       8       9
       9       8       9       9       8       9       9       8       9       9
       8       9       9       8       9       9       8       9       9       8
       9       9       8       9       9       8       9       9       8       9
       9       8       9       9       8       9       9       8       9       9
       8       9       9       8       9       9       8       9       9       8
       9       9       8       9       9       8       9       9       8       9
       9       8       9       9       8       9       9       8       9       9
       8       9       9       8       9       9       8       9       9       8
       9       9       8       9       9       8       9       9       8       9
       9       8       9       9       8       9       9       8       9       9
       8       9       9       8       9       9       8       9       9       8
       9       9       8       9       9       8       9       9       8       9
       9       8       9       9       8       9       9       8       9       9
       8       9       9       8       9       9       8       9       9       8
       9       9       8       9       9       8       9       9       8       9
       9       8       9       9       8       9       9       8       9       9
       8       9       9       8       9       9       8       9       9       8
       9       9       8       9       9       8       9       9       8       9
       9       8       9       9       8       9       9       8       9       9
       8       9       9       8       9       9       8       9       9       8
       9       9       8       9       9       8       9       9       8       9
       9       8       9       9       8       9       9       8       9       9
       8       9       9       8       9       9       8       9       9       8
       9       9       8       9       9       8       9       9       8       9
       9       8       9       9       8       9       9       8       9       9
       8       9       9       8       9       9       8       9       9       8
       9       9       8       9       9       8       9       9       8       9
       9       8       9       9       8       9       9       8       9       9
       8       9       9       8       9       9       8       9       9       8
       9       9       8       9       9       8       9       9       8       9
       9       8       9       9       8       9       9       8       9       9
       8       9       9       8       9       9       8       9       9       8
       9       9       8       9       9       8       9       9       8       9
       9       8       9       9       8       9       9       8       9       9
       8       9       9       8       9       9       8       9       9       8
       9       9       8       9       9       8       9       9       8       9
       9       8       9       9       8       9       9       8       9       9
       8       9       9       8       9       9       8       9       9       8
       9       9       8       9       9       8       9       9       8       9
       9       8       9       9       8       9       9       8       9       9
       8       9       9       8       9       9       8       9       9       8
       9       9       8       9       9       8       9       9       8       9
       9       8       9       9       8       9       9       8       9       9
       8       9       9       8       9       9       8       9       9       8
       9       9       8       9       9       8       9       9       8       9
       9       8       9       9       8       9       9       8       9       9
       8       9       9       8       9       9       8       9       9       8
       9       9       8       9       9       8       9       9       8       9
       9       8       9       9       8       9       9       8       9       9
       8       9       9       8       9       9       8       9       9       8
       9       9       8       9       9       8       9       9       8       9
       9       8       9       9       8       9       9       8       9       9
       8       9       9       8       9       9       8       9       9       8
       9       9       8       9       9       8       9       9       8       9
       9       8       9       9       8       9       9       8       9       9
       8       9       9       8       9       9       8       9       9       8
       9       9       8       9       9       8       9       9       8       9
       9       8       9       9       8       9       9       8       9       9
       8       9       9       8       9       9       8       9       9       8
       9       9       8       9       9       8       9       9       8       9
       9       8       9       9       8       9       9       8       9       9
       8       9       9       8       9       9       8       9       9       8
       9       9       8       9       9       8       9       9       8       9
       9       8       9       9       8       9       9       8       9       9
       8       9       9       8       9       9       8       9       9       8
       9       9       8       9       9       8       9       9       8       9
       9       8       9       9       8       9       9       8       9       9
       8       9       9       8       9       9       8       9       9       8
       9       9       8       9       9       8       9       9       8       9
       9       8       9       9       8       9       9       8       9       9
       8       9       9       8       9       9       8       9       9       8
       9       9       8       9       9       8       9       9       8       9
       9       8       9       9       8       9       9       8       9       9
       8       9       9       8       9       9       8       9       9       8
       9       9       8       9       9       8       9       9       8       9
       9       8       9       9       8       9       9       8       9       9
       8       9       9       8       9       9       8       9       9       8
       9       9       8       9       9       8       9       9       8       9
       9       8       9       9       8       9       9       8       9       9
       8       9       9       8       9       9       8       9       9       8
       9       9       8       9       9       8       9       9       8       9
       9       8       9       9       8       9       9       8       9       9
       8       9       9       8       9       9       8       9       9       8
       9       9       8       9       9       8       9       9       8       9
       9       8       9       9       8       9       9       8       9       9
       8       9       9       8       9       9       8       9       9       8
       9       9       8       9       9       8       9       9       8       9
       9       8       9       9       8       9       9       8       9       9
       8       9       9       8       9       9       8       9       9       8
       9       9       8       9       9       8       9       9       8       9
       9       8       9       9       8       9       9       8       9       9
       8       9       9       8       9       9       8       9       9       8
       9       9       8       9       9       8       9       9       8       9
       9       8       9       9       8       9       9       8       9       9
       8       9       9       8       9       9       8       9       9       8
       9       9       8       9       9       8       9       9       8       9
       9       8       9       9       8       9       9       8       9       9
       8       9       9       8       9       9       8       9       9       8
       9       9       8       9       9       8       9       9       8       9
       9       8       9       9       8       9       9       8       9       9
       8       9       9       8       9       9       8       9       9       8
       9       9       8       9       9       8       9       9       8       9
       9       8       9       9       8       9       9       8       9       9
       8       9       9       8       9       9       8       9       9       8
       9       9       8       9       9       8       9       9       8       9
       9       8       9       9       8       9       9       8       9       9
       8       9       9       8       9       9       8       9       9       8
       9       9       8       9       9       8       9       9       8       9
       9       8       9       9       8       9       9       8       9       9
       8       9       9       8       9       9       8       9       9       8
       9       9       8       9       9       8       9       9       8       9
       9       8       9       9       8       9       9       8       9       9
       8       9       9       8       9       9       8       9       9       8
       9       9       8       9       9       8       9       9       8       9
       9       8       9       9       8       9       9       8       9       9
       8       9       9       8       9       9       8       9       9       8
       9       9       8       9       9       8       9       9       8       9
       9       8       9       9       8       9       9       8       9       9
       8       9       9       8       9       9       8       9       9       8
       9       9       8       9       9       8       9       9       8       9
       9       8       9       9       8       9       9       8       9       9
       8       9       9       8       9       9       8       9       9       8
       9       9       8       9       9       8       9       9       8       9
       9       8       9       9       8       9       9       8       9       9
       8       9       9       8       9       9       8       9       9       8
       9       9       8       9       9       8       9       9       8       9
       9       8       9       9       8       9       9       8       9       9
       8       9       9       8       9       9       8       9       9       8
       9       9       8       9       9       8       9       9       8       9
       9       8       9       9       8       9       9       8       9       9
       8       9       9       8       9       9       8       9       9       8
       9       9       8       9       9       8       9       9       8       9
       9       8       9       9       8       9       9       8       9       9
       8       9       9       8       9       9       8       9       9       8
       9       9       8       9       9       8       9       9       8       9
       9       8       9       9       8       9       9       8       9       9
       8       9       9       8       9       9       8       9       9       8
       9       9       8       9       9       8       9       9       8       9
       9       8       9       9       8       9       9       8       9       9
       8       9       9       8       9       9       8       9       9       8
       9       9       8       9       9       8       9       9       8       9
       9       8       9       9       8       9       9       8       9       9
       8       9       9       8       9       9       8       9       9       8
       9       9       8       9       9       8       9       9       8       9
       9       8       9       9       8       9       9       8       9       9
       8       9       9       8       9       9       8       9       9       8
       9       9       8       9       9       8       9       9       8       9
       9       8       9       9       8       9       9       8       9       9
       8       9       9       8       9       9       8       9       9       8
       9       9       8       9       9       8       9       9       8       9
       9       8       9       9       8       9       9       8       9       9
       8       9       9       8       9       9       8       9       9       8
       9       9       8       9       9       8       9       9       8       9
       9       8       9       9       8       9       9       8       9       9
       8       9       9       8       9       9       8       9       9       8
       9       9       8       9       9       8       9       9       8       9
       9       8       9       9       8       9       9       8       9       9
       8       9       9       8       9       9       8       9       9       8
       9       9       8       9       9       8       9       9       8       9
       9       8       9       9       8       9       9       8       9       9
       8       9       9       8       9       9       8       9       9       8
       9       9       8       9       9       8       9       9       8       9
       9       8       9       9       8       9       9       8       9       9
       8       9       9       8       9       9       8       9       9       8
       9       9       8       9       9       8       9       9       8       9
       9       8       9       9       8       9       9       8       9       9
       8       9       9       8       9       9       8       9       9       8
       9       9       8       9       9       8       9       9       8       9
       9       8       9       9       8       9       9       8       9       9
       8       9       9       8       9       9       8       9       9       8
       9       9       8       9       9       8       9       9       8       9
       9       8       9       9       8       9       9       8       9       9
       8       9       9       8       9       9       8       9       9       8
       9       9       8       9       9       8       9       9       8       9
       9       8       9       9       8       9       9       8       9       9
       8       9       9       8       9       9       8       9       9       8
       9       9       8       9       9       8       9       9       8       9
       9       8       9       9       8       9       9       8       9       9
       8       9       9       8       9       9       8       9       9       8
       9       9       8       9       9       8       9       9       8       9
       9       8       9       9       8       9       9       8       9       9
       8       9       9       8       9       9       8       9       9       8
       9       9       8       9       9       8       9       9       8       9
       9       8       9       9       8       9       9       8       9       9
       8       9       9       8       9       9       8       9       9       8
       9       9       8       9       9       8       9       9       8       9
       9       8       9       9       8       9       9       8       9       9
       8       9       9       8       9       9       8       9       9       8
       9       9       8       9       9       8       9       9       8       9
       9       8       9       9       8       9       9       8       9       9
       8       9       9       8       9       9       8       9       9       8
       9       9       8       9       9       8       9       9       8       9
       9       8       9       9       8       9       9       8       9       9
       8       9       9       8       9       9       8       9       9       8
       9       9       8       9       9       8       9       9       8       9
       9       8       9       9       8       9       9       8       9       9
       8       9       9       8       9       9       8       9       9       8
       9       9       8       9       9       8       9       9       8       9
       9       8       9       9       8       9       9       8       9       9
       8       9       9       8       9       9       8       9       9       8
       9       9       8       9       9       8       9       9       8       9
       9       8       9       9       8       9       9       8       9       9
       8       9       9       8       9       9       8       9       9       8
       9       9       8       9       9       8       9       9       8       9
       9       8       9       9       8       9       9       8       9       9
       8       9       9       8       9       9       8       9       9       8
       9       9       8       9       9       8       9       9       8       9
       9       8       9       9       8       9       9       8       9       9
       8       9       9       8       9       9       8       9       9       8
       9       9       8       9       9       8       9       9       8       9
       9       8       9       9       8       9       9       8       9       9
       8       9       9       8       9       9       8       9       9       8
       9       9       8       9       9       8       9       9       8       9
       9       8       9       9       8       9       9       8       9       9
       8       9       9       8       9       9       8       9       9       8
       9       9       8       9       9       8       9       9       8       9
       9       8       9       9       8       9       9       8       9       9
       8       9       9       8       9       9       8       9       9       8
       9       9       8       9       9       8       9       9       8       9
       9       8       9       9       8       9       9       8       9       9
       8       9       9       8       9       9       8       9       9       8
       9       9       8       9       9       8       9       9       8       9
       9       8       9       9       8       9       9       8       9       9
       8       9       9       8       9       9       8       9       9       8
       9       9       8       9       9       8       9       9       8       9
       9       8       9       9       8       9       9       8       9       9
       8       9       9       8       9       9       8       9       9       8
       9       9       8       9       9       8       9       9       8       9
       9       8       9       9       8       9       9       8       9       9
       8       9       9       8       9       9       8       9       9       8
       9       9       8       9       9       8       9       9       8       9
       9       8       9       9       8       9       9       8       9       9
       8       9       9       8       9       9       8       9       9       8
       9       9       8       9       9       8       9       9       8       9
       9       8       9       9       8       9       9       8       9       9
       8       9       9       8       9       9       8       9       9       8
       9       9       8       9       9       8       9       9       8       9
       9       8       9       9       8       9       9       8       9       9
       8       9       9       8       9       9       8       9       9       8
       9       9       8       9       9       8       9       9       8       9
       9       8       9       9       8       9       9       8       9       9
       8       9       9       8       9       9       8       9       9       8
       9       9       8       9       9       8       9       9       8       9
       9       8       9       9       8       9       9       8       9       9
       8       9       9       8       9       9       8       9       9       8
       9       9       8       9       9       8       9       9       8       9
       9       8       9       9       8       9       9       8       9       9
       8       9       9       8       9       9       8       9       9       8
       9       9       8       9       9       8       9       9       8       9
       9       8       9       9       8       9       9       8       9       9
       8       9       9       8       9       9       8       9       9       8
       9       9       8       9       9       8       9       9       8       9
       9       8       9       9       8       9       9       8       9       9
       8       9       9       8       9       9       8       9       9       8
       9       9       8       9       9       8       9       9       8       9
       9       8       9       9       8       9       9       8       9       9
       8       9       9       8       9       9       8       9       9       8
       9       9       8       9       9       8       9       9       8       9
       9       8       9       9       8       9       9       8       9       9
       8       9       9       8       9       9       8       9       9       8
       9       9       8       9       9       8       9       9       8       9
       9       8       9       9       8       9       9       8       9       9
       8       9       9       8       9       9       8       9       9       8
       9       9       8       9       9       8       9       9       8       9
       9       8       9       9       8       9       9       8       9       9
       8       9       9       8       9       9       8       9       9       8
       9       9       8       9       9       8       9       9       8       9
       9       8       9       9       8       9       9       8       9       9
       8       9       9       8       9       9       8       9       9       8
       9       9       8       9       9       8       9       9       8       9
       9       8       9       9       8       9       9       8       9       9
       8       9       9       8       9       9       8       9       9       8
       9       9       8       9       9       8       9       9       8       9
       9       8       9       9       8       9       9       8       9       9
       8       9       9       8       9       9       8       9       9       8
       9       9       8       9       9       8       9       9       8       9
       9       8       9       9       8       9       9       8       9       9
       8       9       9       8       9       9       8       9       9       8
       9       9       8       9       9       8       9       9       8       9
       9       8       9       9       8       9       9       8       9       9
       8       9       9       8       9       9       8       9       9       8
       9       9       8       9       9       8       9       9       8       9
       9       8       9       9       8       9       9       8       9       9
       8       9       9       8       9       9       8       9       9       8
       9       9       8       9       9       8       9       9       8       9
       9       8       9       9       8       9       9       8       9       9
       8       9       9       8       9       9       8       9       9       8
       9       9       8       9       9       8       9       9       8       9
       9       8       9       9       8       9       9       8       9       9
       8       9       9       8       9       9       8       9       9       8
       9       9       8       9       9       8       9       9       8       9
       9       8       9       9       8       9       9       8       9       9
       8       9       9       8       9       9       8       9       9       8
       9       9       8       9       9       8       9       9       8       9
       9       8       9       9       8       9       9       8       9       9
       8       9       9       8       9       9       8       9       9       8
       9       9       8       9       9       8       9       9       8       9
       9       8       9       9       8       9       9       8       9       9
       8       9       9       8       9       9       8       9       9       8
       9       9       8       9       9       8       9       9       8       9
       9       8       9       9       8       9       9       8       9       9
       8       9       9       8       9       9       8       9       9       8
       9       9       8       9       9       8       9       9       8       9
       9       8       9       9       8       9       9       8       9       9
       8       9       9       8       9       9       8       9       9       8
       9       9       8       9       9       8       9       9       8       9
       9       8       9       9       8       9       9       8       9       9
       8       9       9       8       9       9       8       9       9       8
       9       9       8       9       9       8       9       9       8       9
       9       8       9       9       8       9       9       8       9       9
       8       9       9       8       9       9       8       9       9       8
       9       9       8       9       9       8       9       9       8       9
       9       8       9       9       8       9       9       8       9       9
       8       9       9       8       9       9       8       9       9       8
       9       9       8       9       9       8       9       9       8       9
       9       8       9       9       8       9       9       8       9       9
       8       9       9       8       9       9       8       9       9       8
       9       9       8       9       9       8       9       9       8       9
       9       8       9       9       8       9       9       8       9       9
       8       9       9       8       9       9       8       9       9       8
       9       9       8       9       9       8       9       9       8       9
       9       8       9       9       8       9       9       8       9       9
       8       9       9       8       9       9       8       9       9       8
       9       9       8       9       9       8       9       9       8       9
       9       8       9       9       8       9       9       8       9       9
       8       9       9       8       9       9       8       9       9       8
       9       9       8       9       9       8       9       9       8       9
       9       8       9       9       8       9       9       8       9       9
       8       9       9       8       9       9       8       9       9       8
       9       9       8       9       9       8       9       9       8       9
       9       8       9       9       8       9       9       8       9       9
       8       9       9       8       9       9       8       9       9       8
       9       9       8       9       9       8       9       9       8       9
       9       8       9       9       8       9       9       8       9       9
       8       9       9       8       9       9       8       9       9       8
       9       9       8       9       9       8       9       9       8       9
       9       8       9       9       8       9       9       8       9       9
       8       9       9       8       9       9       8       9       9       8
       9       9       8       9       9       8       9       9       8       9
       9       8       9       9       8       9       9       8       9       9
       8       9       9       8       9       9       8       9       9       8
       9       9       8       9       9       8       9       9       8       9
       9       8       9       9       8       9       9       8       9       9
       8       9       9       8       9       9       8       9       9       8
       9       9       8       9       9       8       9       9       8       9
       9       8       9       9       8       9       9       8       9       9
       8       9       9       8       9       9       8       9       9       8
       9       9       8       9       9       8       9       9       8       9
       9       8       9       9       8       9       9       8       9       9
       8       9       9       8       9       9       8       9       9       8
       9       9       8       9       9       8       9       9       8       9
       9       8       9       9       8       9       9       8       9       9
       8       9       9       8       9       9       8       9       9       8
       9       9       8       9       9       8       9       9       8       9
       9       8       9       9       8       9       9       8       9       9
       8       9       9       8       9       9       8       9       9       8
       9       9       8       9       9       8       9       9       8       9
       9       8       9       9       8       9       9       8       9       9
       8       9       9       8       9       9       8       9       9       8
       9       9       8       9       9       8       9       9       8       9
       9       8       9       9       8       9       9       8       9       9
       8       9       9       8       9       9       8       9       9       8
       9       9       8       9       9       8       9       9       8       9
       9       8       9       9       8       9       9       8       9       9
       8       9       9       8       9       9       8       9       9       8
       9       9       8       9       9       8       9       9       8       9
       9       8       9       9       8       9       9       8       9       9
       8       9       9       8       9       9       8       9       9       8
       9       9       8       9       9       8       9       9       8       9
       9       8       9       9       8       9       9       8       9       9
       8       9       9       8       9       9       8       9       9       8
       9       9       8       9       9       8       9       9       8       9
       9       8       9       9       8       9       9       8       9       9
       8       9       9       8       9       9       8       9       9       8
       9       9       8       9       9       8       9       9       8       9
       9       8       9       9       8       9       9       8       9       9
       8       9       9       8       9       9       8       9       9       8
       9       9       8       9       9       8       9       9       8       9
       9       8       9       9       8       9       9       8       9       9
       8       9       9       8       9       9       8       9       9       8
       9       9       8       9       9       8       9       9       8       9
       9       8       9       9       8       9       9       8       9       9
       8       9       9       8       9       9       8       9       9       8
       9       9       8       9       9       8       9       9       8       9
       9       8       9       9       8       9       9       8       9       9
       8       9       9       8       9       9       8       9       9       8
       9       9       8       9       9       8       9       9       8       9
       9       8       9       9       8       9       9       8       9       9
       8       9       9       8       9       9       8       9       9       8
       9       9       8       9       9       8       9       9       8       9
       9       8       9       9       8       9       9       8       9       9
       8       9       9       8       9       9       8       9       9       8
       9       9       8       9       9       8       9       9       8       9
       9       8       9       9       8       9       9       8       9       9
       8       9       9       8       9       9       8       9       9       8
       9       9       8       9       9       8       9       9       8       9
       9       8       9       9       8       9       9       8       9       9
       8       9       9       8       9       9       8       9       9       8
       9       9       8       9       9       8       9       9       8       9
       9       8       9       9       8       9       9       8       9       9
       8       9       9       8       9       9       8       9       9       8
       9       9       8       9       9       8       9       9       8       9
       9       8       9       9       8       9       9       8       9       9
       8       9       9       8       9       9       8       9       9       8
       9       9       8       9       9       8       9       9       8       9
       9       8       9       9       8       9       9       8       9       9
       8       9       9       8       9       9       8       9       9       8
       9       9       8       9       9       8       9       9       8       9
       9       8       9       9       8       9       9       8       9       9
       8       9       9       8       9       9       8       9       9       8
       9       9       8       9       9       8       9       9       8       9
       9       8       9       9       8       9       9       8       9       9
       8       9       9       8       9       9       8       9       9       8
       9       9       8       9       9       8       9       9       8       9
       9       8       9       9       8       9       9       8       9       9
       8       9       9       8       9       9       8       9       9       8
       9       9       8       9       9       8       9       9       8       9
       9       8       9       9       8       9       9       8       9       9
       8       9       9       8       9       9       8       9       9       8
       9       9       8       9       9       8       9       9       8       9
       9       8       9       9       8       9       9       8       9       9
       8       9       9       8       9       9       8       9       9       8
       9       9       8       9       9       8       9       9       8       9
       9       8       9       9       8       9       9       8       9       9
       8       9       9       8       9       9       8       9       9       8
       9       9       8       9       9       8       9       9       8       9
       9       8       9       9       8       9       9       8       9       9
       8       9       9       8       9       9       8       9       9       8
       9       9       8       9       9       8       9       9       8       9
       9       8       9       9       8       9       9       8       9       9
       8       9       9       8       9       9       8       9       9       8
       9       9       8       9       9       8       9       9       8       9
       9       8       9       9       8       9       9       8       9       9
       8       9       9       8       9       9       8       9       9       8
       9       9       8       9       9       8       9       9       8       9
       9       8       9       9       8       9       9       8       9       9
       8       9       9       8       9       9       8       9       9       8
       9       9       8       9       9       8       9       9       8       9
       9       8       9       9       8       9       9       8       9       9
       8       9       9       8       9       9       8       9       9       8
       9       9       8       9       9       8       9       9       8       9
       9       8       9       9       8       9       9       8       9       9
       8       9       9       8       9       9       8       9       9       8
       9       9       8       9       9       8       9       9       8       9
       9       8       9       9       8       9       9       8       9       9
       8       9       9       8       9       9       8       9       9       8
       9       9       8       9       9       8       9       9       8       9
       9       8       9       9       8       9       9       8       9       9
       8       9       9       8       9       9       8       9       9       8
       9       9       8       9       9       8       9       9       8       9
       9       8       9       9       8       9       9       8       9       9
       8       9       9       8       9       9       8       9       9       8
       9       9       8       9       9       8       9       9       8       9
       9       8       9       9       8       9       9       8       9       9
       8       9       9       8       9       9       8       9       9       8
       9       9       8       9       9       8       9       9       8       9
       9       8       9       9       8       9       9       8       9       9
       8       9       9       8       9       9       8       9       9       8
       9       9       8       9       9       8       9       9       8       9
       9       8       9       9       8       9       9       8       9       9
       8       9       9       8       9       9       8       9       9       8
       9       9       8       9       9       8       9       9       8       9
       9       8       9       9       8       9       9       8       9       9
       8       9       9       8       9       9       8       9       9       8
       9       9       8       9       9       8       9       9       8       9
       9       8       9       9       8       9       9       8       9       9
       8       9       9       8       9       9       8       9       9       8
       9       9       8       9       9       8       9       9       8       9
       9       8       9       9       8       9       9       8       9       9
       8       9       9       8       9       9       8       9       9       8
       9       9       8       9       9       8       9       9       8       9
       9       8       9       9       8       9       9       8       9       9
       8       9       9       8       9       9       8       9       9       8
       9       9       8       9       9       8       9       9       8       9
       9       8       9       9       8       9       9       8       9       9
       8       9       9       8       9       9       8       9       9       8
       9       9       8       9       9       8       9       9       8       9
       9       8       9       9       8       9       9       8       9       9
       8       9       9       8       9       9       8       9       9       8
       9       9       8       9       9       8       9       9       8       9
       9       8       9       9       8       9       9       8       9       9
       8       9       9       8       9       9       8       9       9       8
       9       9       8       9       9       8       9       9       8       9
       9       8       9       9       8       9       9       8       9       9
       8       9       9       8       9       9       8       9       9       8
       9       9       8       9       9       8       9       9       8       9
       9       8       9       9       8       9       9       8       9       9
       8       9       9       8       9       9       8       9       9       8
       9       9       8       9       9       8       9       9       8       9
       9       8       9       9       8       9       9       8       9       9
       8       9       9       8       9       9       8       9       9       8
       9       9       8       9       9       8       9       9       8       9
       9       8       9       9       8       9       9       8       9       9
       8       9       9       8       9       9       8       9       9       8
       9       9       8       9       9       8       9       9       8       9
       9       8       9       9       8       9       9       8       9       9
       8       9       9       8       9       9       8       9       9       8
       9       9       8       9       9       8       9       9       8       9
       9       8       9       9       8       9       9       8       9       9
       8       9       9       8       9       9       8       9       9       8
       9       9       8       9       9       8       9       9       8       9
       9       8       9       9       8       9       9       8       9       9
       8       9       9       8       9       9       8       9       9       8
       9       9       8       9       9       8       9       9       8       9
       9       8       9       9       8       9       9       8       9       9
       8       9       9       8       9       9       8       9       9       8
       9       9       8       9       9       8       9       9       8       9
       9       8       9       9       8       9       9       8       9       9
       8       9       9       8       9       9       8       9       9       8
       9       9       8       9       9       8       9       9       8       9
       9       8       9       9       8       9       9       8       9       9
       8       9       9       8       9       9       8       9       9       8
       9       9       8       9       9       8       9       9       8       9
       9       8       9       9       8       9       9       8       9       9
       8       9       9       8       9       9       8       9       9       8
       9       9       8       9       9       8       9       9       8       9
       9       8       9       9       8       9       9       8       9       9
       8       9       9       8       9       9       8       9       9       8
       9       9       8       9       9       8       9       9       8       9
       9       8       9       9       8       9       9       8       9       9
       8       9       9       8       9       9       8       9       9       8
       9       9       8       9       9       8       9       9       8       9
       9       8       9       9       8       9       9       8       9       9
       8       9       9       8       9       9       8       9       9       8
       9       9       8       9       9       8       9       9       8       9
       9       8       9       9       8       9       9       8       9       9
       8       9       9       8       9       9       8       9       9       8
       9       9       8       9       9       8       9       9       8       9
       9       8       9       9       8       9       9       8       9       9
       8       9       9       8       9       9       8       9       9       8
       9       9       8       9       9       8       9       9       8       9
       9       8       9       9       8       9       9       8       9       9
       8       9       9       8       9       9       8       9       9       8
       9       9       8       9       9       8       9       9       8       9
       9       8       9       9       8       9       9       8       9       9
       8       9       9       8       9       9       8       9       9       8
       9       9       8       9       9       8       9       9       8       9
       9       8       9       9       8       9       9       8       9       9
       8       9       9       8       9       9       8       9       9       8
       9       9       8       9       9       8       9       9       8       9
       9       8       9       9       8       9       9       8       9       9
       8       9       9       8       9       9       8       9       9       8
       9       9       8       9       9       8       9       9       8       9
       9       8       9       9       8       9       9       8       9       9
       8       9       9       8       9       9       8       9       9       8
       9       9       8       9       9       8       9       9       8       9
       9       8       9       9       8       9       9       8       9       9
       8       9       9       8       9       9       8       9       9       8
       9       9       8       9       9       8       9       9       8       9
       9       8       9       9       8       9       9       8       9       9
       8       9       9       8       9       9       8       9       9       8
       9       9       8       9       9       8       9       9       8       9
       9       8       9       9       8       9       9       8       9       9
       8       9       9       8       9       9       8       9       9       8
       9       9       8       9       9       8       9       9       8       9
       9       8       9       9       8       9       9       8       9       9
       8       9       9       8       9       9       8       9       9       8
       9       9       8       9       9       8       9       9       8       9
       9       8       9       9       8       9       9       8       9       9
       8       9       9       8       9       9       8       9       9       8
       9       9       8       9       9       8       9       9       8       9
       9       8       9       9       8       9       9       8       9       9
       8       9       9       8       9       9       8       9       9       8
       9       9       8       9       9       8       9       9       8       9
       9       8       9       9       8       9       9       8       9       9
       8       9       9       8       9       9       8       9       9       8
       9       9       8       9       9       8       9       9       8       9
       9       8       9       9       8       9       9       8       9       9
       8       9       9       8       9       9       8       9       9       8
       9       9       8       9       9       8       9       9       8       9
       9       8       9       9       8       9       9       8       9       9
       8       9       9       8       9       9       8       9       9       8
       9       9       8       9       9       8       9       9       8       9
       9       8       9       9       8       9       9       8       9       9
       8       9       9       8       9       9       8       9       9       8
       9       9       8       9       9       8       9       9       8       9
       9       8       9       9       8       9       9       8       9       9
       8       9       9       8       9       9       8       9       9       8
       9       9       8       9       9       8       9       9       8       9
       9       8       9       9       8       9       9       8       9       9
       8       9       9       8       9       9       8       9       9       8
       9       9       8       9       9       8       9       9       8       9
       9       8       9       9       8       9       9       8       9       9
       8       9       9       8       9       9       8       9       9       8
       9       9       8       9       9       8       9       9       8       9
       9       8       9       9       8       9       9       8       9       9
       8       9       9       8       9       9       8       9       9       8
       9       9       8       9       9       8       9       9       8       9
       9       8       9       9       8       9       9       8       9       9
       8       9       9       8       9       9       8       9       9       8
       9       9       8       9       9       8       9       9       8       9
       9       8       9       9       8       9       9       8       9       9
       8       9       9       8       9       9       8       9       9       8
       9       9       8       9       9       8       9       9       8       9
       9       8       9       9       8       9       9       8       9       9
       8       9       9       8       9       9       8       9       9       8
       9       9       8       9       9       8       9       9       8       9
       9       8       9       9       8       9       9       8       9       9
       8       9       9       8       9       9       8       9       9       8
       9       9       8       9       9       8       9       9       8       9
       9       8       9       9       8       9       9       8       9       9
       8       9       9       8       9       9       8       9       9       8
       9       9       8       9       9       8       9       9       8       9
       9       8       9       9       8       9       9       8       9       9
       8       9       9       8       9       9       8       9       9       8
       9       9       8       9       9       8       9       9       8       9
       9       8       9       9       8       9       9       8       9       9
       8       9       9       8       9       9       8       9       9       8
       9       9       8       9       9       8       9       9       8       9
       9       8       9       9       8       9       9       8       9       9
       8       9       9       8       9       9       8       9       9       8
       9       9       8       9       9       8       9       9       8       9
       9       8       9       9       8       9       9       8       9       9
       8       9       9       8       9       9       8       9       9       8
       9       9       8       9       9       8       9       9       8       9
       9       8       9       9       8       9       9       8       9       9
       8       9       9       8       9       9       8       9       9       8
       9       9       8       9       9       8       9       9       8       9
       9       8       9       9       8       9       9       8       9       9
       8       9       9       8       9       9       8       9       9       8
       9       9       8       9       9       8       9       9       8       9
       9       8       9       9       8       9       9       8       9       9
       8       9       9       8       9       9       8       9       9       8
       9       9       8       9       9       8       9       9       8       9
       9       8       9       9       8       9       9       8       9       9
       8       9       9       8       9       9       8       9       9       8
       9       9       8       9       9       8       9       9       8       9
       9       8       9       9       8       9       9       8       9       9
       8       9       9       8       9       9       8       9       9       8
       9       9       8       9       9       8       9       9       8       9
       9       8       9       9       8       9       9       8       9       9
       8       9       9       8       9       9       8       9       9       8
       9       9       8       9       9       8       9       9       8       9
       9       8       9       9       8       9       9       8       9       9
       8       9       9       8       9       9       8       9       9       8
       9       9       8       9       9       8       9       9       8       9
       9       8       9       9       8       9       9       8       9       9
       8       9       9       8       9       9       8       9       9       8
       9       9       8       9       9       8       9       9       8       9
       9       8       9       9       8       9       9       8       9       9
       8       9       9       8       9       9       8       9       9       8
       9       9       8       9       9       8       9       9       8       9
       9       8       9       9       8       9       9       8       9       9
       8       9       9       8       9       9       8       9       9       8
       9       9       8       9       9       8       9       9       8       9
       9       8       9       9       8       9       9       8       9       9
       8       9       9       8       9       9       8       9       9       8
       9       9       8       9       9       8       9       9       8       9
       9       8       9       9       8       9       9       8       9       9
       8       9       9       8       9       9       8       9       9       8
       9       9       8       9       9       8       9       9       8       9
       9       8       9       9       8       9       9       8       9       9
       8       9       9       8       9       9       8       9       9       8
       9       9       8       9       9       8       9       9       8       9
       9       8       9       9       8       9       9       8       9       9
       8       9       9       8       9       9       8       9       9       8
       9       9       8       9       9       8       9       9       8       9
       9       8       9       9       8       9       9       8       9       9
       8       9       9       8       9       9       8       9       9       8
       9       9       8       9       9       8       9       9       8       9
       9       8       9       9       8       9       9       8       9       9
       8       9       9       8       9       9       8       9       9       8
       9       9       8       9       9       8       9       9       8       9
       9       8       9       9       8       9       9       8       9       9
       8       9       9       8       9       9       8       9       9       8
       9       9       8       9       9       8       9       9       8       9
       9       8       9       9       8       9       9       8       9       9
       8       9       9       8       9       9       8       9       9       8
       9       9       8       9       9       8       9       9       8       9
       9       8       9       9       8       9       9       8       9       9
       8       9       9       8       9       9       8       9       9       8
       9       9       8       9       9       8       9       9       8       9
       9       8       9       9       8       9       9       8       9       9
       8       9       9       8       9       9       8       9       9       8
       9       9       8       9       9       8       9       9       8       9
       9       8       9       9       8       9       9       8       9       9
       8       9       9       8       9       9       8       9       9       8
       9       9       8       9       9       8       9       9       8       9
       9       8       9       9       8       9       9       8       9       9
       8       9       9       8       9       9       8       9       9       8
       9       9       8       9       9       8       9       9       8       9
       9       8       9       9       8       9       9       8       9       9
       8       9       9       8       9       9       8       9       9       8
       9       9       8       9       9       8       9       9       8       9
       9       8       9       9       8       9       9       8       9       9
       8       9       9       8       9       9       8       9       9       8
       9       9       8       9       9       8       9       9       8       9
       9       8       9       9       8       9       9       8       9       9
       8       9       9       8       9       9       8       9       9       8
       9       9       8       9       9       8       9       9       8       9
       9       8       9       9       8       9       9       8       9       9
       8       9       9       8       9       9       8       9       9       8
       9       9       8       9       9       8       9       9       8       9
       9       8       9       9       8       9       9       8       9       9
       8       9       9       8       9       9       8       9       9       8
       9       9       8       9       9       8       9       9       8       9
       9       8       9       9       8       9       9       8       9       9
       8       9       9       8       9       9       8       9       9       8
       9       9       8       9       9       8       9       9       8       9
       9       8       9       9       8       9       9       8       9       9
       8       9       9       8       9       9       8       9       9       8
       9       9       8       9       9       8       9       9       8       9
       9       8       9       9       8       9       9       8       9       9
       8       9       9       8       9       9       8       9       9       8
       9       9       8       9       9       8       9       9       8       9
       9       8       9       9       8       9       9       8       9       9
       8       9       9       8       9       9       8       9       9       8
       9       9       8       9       9       8       9       9       8       9
       9       8       9       9       8       9       9       8       9       9
       8       9       9       8       9       9       8       9       9       8
       9       9       8       9       9       8       9       9       8       9
       9       8       9       9       8       9       9       8       9       9
       8       9       9       8       9       9       8       9       9       8
       9       9       8       9       9       8       9       9       8       9
       9       8       9       9       8       9       9       8       9       9
       8       9       9       8       9       9       8       9       9       8
       9       9       8       9       9       8       9       9       8       9
       9       8       9       9       8       9       9       8       9       9
       8       9       9       8       9       9       8       9       9       8
       9       9       8       9       9       8       9       9       8       9
       9       8       9       9       8       9       9       8       9       9
       8       9       9       8       9       9       8       9       9       8
       9       9       8       9       9       8       9       9       8       9
       9       8       9       9       8       9       9       8       9       9
       8       9       9       8       9       9       8       9       9       8
       9       9       8       9       9       8       9       9       8       9
       9       8       9       9       8       9       9       8       9       9
       8       9       9       8       9       9       8       9       9       8
       9       9       8       9       9       8       9       9       8       9
       9       8       9       9       8       9       9       8       9       9
       8       9       9       8       9       9       8       9       9       8
       9       9       8       9       9       8       9       9       8       9
       9       8       9       9       8       9       9       8       9       9
       8       9       9       8       9       9       8       9       9       8
       9       9       8       9       9       8       9       9       8       9
       9       8       9       9       8       9       9       8       9       9
       8       9       9       8       9       9       8       9       9       8
       9       9       8       9       9       8       9       9       8       9
       9       8       9       9       8       9       9       8       9       9
       8       9       9       8       9       9       8       9       9       8
       9       9       8       9       9       8       9       9       8       9
       9       8       9       9       8       9       9       8       9       9
       8       9       9       8       9       9       8       9       9       8
       9       9       8       9       9       8       9       9       8       9
       9       8       9       9       8       9       9       8       9       9
       8       9       9       8       9       9       8       9       9       8
       9       9       8       9       9       8       9       9       8       9
       9       8       9       9       8       9       9       8       9       9
       8       9       9       8       9       9       8       9       9       8
       9       9       8       9       9       8       9       9       8       9
       9       8       9       9       8       9       9       8       9       9
       8       9       9       8       9       9       8       9       9       8
       9       9       8       9       9       8       9       9       8       9
       9       8       9       9       8       9       9       8       9       9
       8       9       9       8       9       9       8       9       9       8
       9       9       8       9       9       8       9       9       8       9
       9       8       9       9       8       9       9       8       9       9
       8       9       9       8       9       9       8       9       9       8
       9       9       8       9       9       8       9       9       8       9
       9       8       9       9       8       9       9       8       9       9
       8       9       9       8       9       9       8       9       9       8
       9       9       8       9       9       8       9       9       8       9
       9       8       9       9       8       9       9       8       9       9
       8       9       9       8       9       9       8       9       9       8
       9       9       8       9       9       8       9       9       8       9
       9       8       9       9       8       9       9       8       9       9
       8       9       9       8       9       9       8       9       9       8
       9       9       8       9       9       8       9       9       8       9
       9       8       9       9       8       9       9       8       9       9
       8       9       9       8       9       9       8       9       9       8
       9       9       8       9       9       8       9       9       8       9
       9       8       9       9       8       9       9       8       9       9
       8       9       9       8       9       9       8       9       9       8
       9       9       8       9       9       8       9       9       8       9
       9       8       9       9       8       9       9       8       9       9
       8       9       9       8       9       9       8       9       9       8
       9       9       8       9       9       8       9       9       8       9
       9       8       9       9       8       9       9       8       9       9
       8       9       9       8       9       9       8       9       9       8
       9       9       8       9       9       8       9       9       8       9
       9       8       9       9       8       9       9       8       9       9
       8       9       9       8       9       9       8       9       9       8
       9       9       8       9       9       8       9       9       8       9
       9       8       9       9       8       9       9       8       9       9
       8       9       9       8       9       9       8       9       9       8
       9       9       8       9       9       8       9       9       8       9
       9       8       9       9       8       9       9       8       9       9
       8       9       9       8       9       9       8       9       9       8
       9       9       8       9       9       8       9       9       8       9
       9       8       9       9       8       9       9       8       9       9
       8       9       9       8       9       9       8       9       9       8
       9       9       8       9       9       8       9       9       8       9
       9       8       9       9       8       9       9       8       9       9
       8       9       9       8       9       9       8       9       9       8
       9       9       8       9       9       8       9       9       8       9
       9       8       9       9       8       9       9       8       9       9
       8       9       9       8       9       9       8       9       9       8
       9       9       8       9       9       8       9       9       8       9
       9       8       9       9       8       9       9       8       9       9
       8       9       9       8       9       9       8       9       9       8
       9       9       8       9       9       8       9       9       8       9
       9       8       9       9       8       9       9       8       9       9
       8       9       9       8       9       9       8       9       9       8
       9       9       8       9       9       8       9       9       8       9
       9       8       9       9       8       9       9       8       9       9
       8       9       9       8       9       9       8       9       9       8
       9       9       8       9       9       8       9       9       8       9
       9       8       9       9       8       9       9       8       9       9
       8       9       9       8       9       9       8       9       9       8
       9       9       8       9       9       8       9       9       8       9
       9       8       9       9       8       9       9       8       9       9
       8       9       9       8       9       9       8       9       9       8
       9       9       8       9       9       8       9       9       8       9
       9       8       9       9       8       9       9       8       9       9
       8       9       9       8       9       9       8       9       9       8
       9       9       8       9       9       8       9       9       8       9
       9       8       9       9       8       9       9       8       9       9
       8       9       9       8       9       9       8       9       9       8
       9       9       8       9       9       8       9       9       8       9
       9       8       9       9       8       9       9       8       9       9
       8       9       9       8       9       9       8       9       9       8
       9       9       8       9       9       8       9       9       8       9
       9       8       9       9       8       9       9       8       9       9
       8       9       9       8       9       9       8       9       9       8
       9       9       8       9       9       8       9       9       8       9
       9       8       9       9       8       9       9       8       9       9
       8       9       9       8       9       9       8       9       9       8
       9       9       8       9       9       8       9       9       8       9
       9       8       9       9       8       9       9       8       9       9
       8       9       9       8       9       9       8       9       9       8
       9       9       8       9       9       8       9       9       8       9
       9       8       9       9       8       9       9       8       9       9
       8       9       9       8       9       9       8       9       9       8
       9       9       8       9       9       8       9       9       8       9
       9       8       9       9       8       9       9       8       9       9
       8       9       9       8       9       9       8       9       9       8
       9       9       8       9       9       8       9       9       8       9
       9       8       9       9       8       9       9       8       9       9
       8       9       9       8       9       9       8       9       9       8
       9       9       8       9       9       8       9       9       8       9
       9       8       9       9       8       9       9       8       9       9
       8       9       9       8       9       9       8       9       9       8
       9       9       8       9       9       8       9       9       8       9
       9       8       9       9       8       9       9       8       9       9
       8       9       9       8       9       9       8       9       9       8
       9       9       8       9       9       8       9       9       8       9
       9       8       9       9       8       9       9       8       9       9
       8       9       9       8       9       9       8       9       9       8
       9       9       8       9       9       8       9       9       8       9
       9       8       9       9       8       9       9       8       9       9
       8       9       9       8       9       9       8       9       9       8
       9       9       8       9       9       8       9       9       8       9
       9       8       9       9       8       9       9       8       9       9
       8       9       9       8       9       9       8       9       9       8
       9       9       8       9       9       8       9       9       8       9
       9       8       9       9       8       9       9       8       9       9
       8       9       9       8       9       9       8       9       9       8
       9       9       8       9       9       8       9       9       8       9
       9       8       9       9       8       9       9       8       9       9
       8       9       9       8       9       9       8       9       9       8
       9       9       8       9       9       8       9       9       8       9
       9       8       9       9       8       9       9       8       9       9
       8       9       9       8       9       9       8       9       9       8
       9       9       8       9       9       8       9       9       8       9
       9       8       9       9       8       9       9       8       9       9
       8       9       9       8       9       9       8       9       9       8
       9       9       8       9       9       8       9       9       8       9
       9       8       9       9       8       9       9       8       9       9
       8       9       9       8       9       9       8       9       9       8
       9       9       8       9       9       8       9       9       8       9
       9       8       9       9       8       9       9       8       9       9
       8       9       9       8       9       9       8       9       9       8
       9       9       8       9       9       8       9       9       8       9
       9       8       9       9       8       9       9       8       9       9
       8       9       9       8       9       9       8       9       9       8
       9       9       8       9       9       8       9       9       8       9
       9       8       9       9       8       9       9       8       9       9
       8       9       9       8       9       9       8       9       9       8
       9       9       8       9       9       8       9       9       8       9
       9       8       9       9       8       9       9       8       9       9
       8       9       9       8       9       9       8       9       9       8
       9       9       8       9       9       8       9       9       8       9
       9       8       9       9       8       9       9       8       9       9
       8       9       9       8       9       9       8       9       9       8
       9       9       8       9       9       8       9       9       8       9
       9       8       9       9       8       9       9       8       9       9
       8       9       9       8       9       9       8       9       9       8
       9       9       8       9       9       8       9       9       8       9
       9       8       9       9       8       9       9       8       9       9
       8       9       9       8       9       9       8       9       9       8
       9       9       8       9       9       8       9       9       8       9
       9       8       9       9       8       9       9       8       9       9
       8       9       9       8       9       9       8       9       9       8
       9       9       8       9       9       8       9       9       8       9
       9       8       9       9       8       9       9       8       9       9
       8       9       9       8       9       9       8       9       9       8
       9       9       8       9       9       8       9       9       8       9
       9       8       9       9       8       9       9       8       9       9
       8       9       9       8       9       9       8       9       9       8
       9       9       8       9       9       8       9       9       8       9
       9       8       9       9       8       9       9       8       9       9
       8       9       9       8       9       9       8       9       9       8
       9       9       8       9       9       8       9       9       8       9
       9       8       9       9       8       9       9       8       9       9
       8       9       9       8       9       9       8       9       9       8
       9       9       8       9       9       8       9       9       8       9
       9       8       9       9       8       9       9       8       9       9
       8       9       9       8       9       9       8       9       9       8
       9       9       8       9       9       8       9       9       8       9
       9       8       9       9       8       9       9       8       9       9
       8       9       9       8       9       9       8       9       9       8
       9       9       8       9       9       8       9       9       8       9
       9       8       9       9       8       9       9       8       9       9
       8       9       9       8       9       9       8       9       9       8
       9       9       8       9       9       8       9       9       8       9
       9       8       9       9       8       9       9       8       9       9
       8       9       9       8       9       9       8       9       9       8
       9       9       8       9       9       8       9       9       8       9
       9       8       9       9       8       9       9       8       9       9
       8       9       9       8       9       9       8       9       9       8
       9       9       8       9       9       8       9       9       8       9
       9       8       9       9       8       9       9       8       9       9
       8       9       9       8       9       9       8       9       9       8
       9       9       8       9       9       8       9       9       8       9
       9       8       9       9       8       9       9       8       9       9
       8       9       9       8       9       9       8       9       9       8
       9       9       8       9       9       8       9       9       8       9
       9       8       9       9       8       9       9       8       9       9
       8       9       9       8       9       9       8       9       9       8
       9       9       8       9       9       8       9       9       8       9
       9       8       9       9       8       9       9       8       9       9
       8       9       9       8       9       9       8       9       9       8
       9       9       8       9       9       8       9       9       8       9
       9       8       9       9       8       9       9       8       9       9
       8       9       9       8       9       9       8       9       9       8
       9       9       8       9       9       8       9       9       8       9
       9       8       9       9       8       9       9       8       9       9
       8       9       9       8       9       9       8       9       9       8
       9       9       8       9       9       8       9       9       8       9
       9       8       9       9       8       9       9       8       9       9
       8       9       9       8       9       9       8       9       9       8
       9       9       8       9       9       8       9       9       8       9
       9       8       9       9       8       9       9       8       9       9
       8       9       9       8       9       9       8       9       9       8
       9       9       8       9       9       8       9       9       8       9
       9       8       9       9       8       9       9       8       9       9
       8       9       9       8       9       9       8       9       9       8
       9       9       8       9       9       8       9       9       8       9
       9       8       9       9       8       9       9       8       9       9
       8       9       9       8       9       9       8       9       9       8
       9       9       8       9       9       8       9       9       8       9
       9       8       9       9       8       9       9       8       9       9
       8       9       9       8       9       9       8       9       9       8
       9       9       8       9       9       8       9       9       8       9
       9       8       9       9       8       9       9       8       9       9
       8       9       9       8       9       9       8       9       9       8
       9       9       8       9       9       8       9       9       8       9
       9       8       9       9       8       9       9       8       9       9
       8       9       9       8       9       9       8       9       9       8
       9       9       8       9       9       8       9       9       8       9
       9       8       9       9       8       9       9       8       9       9
       8       9       9       8       9       9       8       9       9       8
       9       9       8       9       9       8       9       9       8       9
       9       8       9       9       8       9       9       8       9       9
       8       9       9       8       9       9       8       9       9       8
       9       9       8       9       9       8       9       9       8       9
       9       8       9       9       8       9       9       8       9       9
       8       9       9       8       9       9       8       9       9       8
       9       9       8       9       9       8       9       9       8       9
       9       8       9       9       8       9       9       8       9       9
       8       9       9       8       9       9       8       9       9       8
       9       9       8       9       9       8       9       9       8       9
       9       8       9       9       8       9       9       8       9       9
       8       9       9       8       9       9       8       9       9       8
       9       9       8       9       9       8       9       9       8       9
       9       8       9       9       8       9       9       8       9       9
       8       9       9       8       9       9       8       9       9       8
       9       9       8       9       9       8       9       9       8       9
       9       8       9       9       8       9       9       8       9       9
       8       9       9       8       9       9       8       9       9       8
       9       9       8       9       9       8       9       9       8       9
       9       8       9       9       8       9       9       8       9       9
       8       9       9       8       9       9       8       9       9       8
       9       9       8       9       9       8       9       9       8       9
       9       8       9       9       8       9       9       8       9       9
       8       9       9       8       9       9       8       9       9       8
       9       9       8       9       9       8       9       9       8       9
       9       8       9       9       8       9       9       8       9       9
       8       9       9       8       9       9       8       9       9       8
       9       9       8       9       9       8       9       9       8       9
       9       8       9       9       8       9       9       8       9       9
       8       9       9       8       9       9       8       9       9       8
       9       9       8       9       9       8       9       9       8       9
       9       8       9       9       8       9       9       8       9       9
       8       9       9       8       9       9       8       9       9       8
       9       9       8       9       9       8       9       9       8       9
       9       8       9       9       8       9       9       8       9       9
       8       9       9       8       9       9       8       9       9       8
       9       9       8       9       9       8       9       9       8       9
       9       8       9       9       8       9       9       8       9       9
       8       9       9       8       9       9       8       9       9       8
       9       9       8       9       9       8       9       9       8       9
       9       8       9       9       8       9       9       8       9       9
       8       9       9       8       9       9       8       9       9       8
       9       9       8       9       9       8       9       9       8       9
       9       8       9       9       8       9       9       8       9       9
       8       9       9       8       9       9       8       9       9       8
       9       9       8       9       9       8       9       9       8       9
       9       8       9       9       8       9       9       8       9       9
       8       9       9       8       9       9       8       9       9       8
       9       9       8       9       9       8       9       9       8       9
       9       8       9       9       8       9       9       8       9       9
       8       9       9       8       9       9       8       9       9       8
       9       9       8       9       9       8       9       9       8       9
       9       8       9       9       8       9       9       8       9       9
       8       9       9       8       9       9       8       9       9       8
       9       9       8       9       9       8       9       9       8       9
       9       8       9       9       8       9       9       8       9       9
       8       9       9       8       9       9       8       9       9       8
       9       9       8       9       9       8       9       9       8       9
       9       8       9       9       8       9       9       8       9       9
       8       9       9       8       9       9       8       9       9       8
       9       9       8       9       9       8       9       9       8       9
       9       8       9       9       8       9       9       8       9       9
       8       9       9       8       9       9       8       9       9       8
       9       9       8       9       9       8       9       9       8       9
       9       8       9       9       8       9       9       8       9       9
       8       9       9       8       9       9       8       9       9       8
       9       9       8       9       9       8       9       9       8       9
       9       8       9       9       8       9       9       8       9       9
       8       9       9       8       9       9       8       9       9       8
       9       9       8       9       9       8       9       9       8       9
       9       8       9       9       8       9       9       8       9       9
       8       9       9       8       9       9       8       9       9       8
       9       9       8       9       9       8       9       9       8       9
       9       8       9       9       8       9       9       8       9       9
       8       9       9       8       9       9       8       9       9       8
       9       9       8       9       9       8       9       9       8       9
       9       8       9       9       8       9       9       8       9       9
       8       9       9       8       9       9       8       9       9       8
       9       9       8       9       9       8       9       9       8       9
       9       8       9       9       8       9       9       8       9       9
       8       9       9       8       9       9       8       9       9       8
       9       9       8       9       9       8       9       9       8       9
       9       8       9       9       8       9       9       8       9       9
       8       9       9       8       9       9       8       9       9       8
       9       9       8       9       9       8       9       9       8       9
       9       8       9       9       8       9       9       8       9       9
       8       9       9       8       9       9       8       9       9       8
       9       9       8       9       9       8       9       9       8       9
       9       8       9       9       8       9       9       8       9       9
       8       9       9       8       9       9       8       9       9       8
       9       9       8       9       9       8       9       9       8       9
       9       8       9       9       8       9       9       8       9       9
       8       9       9       8       9       9       8       9       9       8
       9       9       8       9       9       8       9       9       8       9
       9       8       9       9       8       9       9       8       9       9
       8       9       9       8       9       9       8       9       9       8
       9       9       8       9       9       8       9       9       8       9
       9       8       9       9       8       9       9       8       9       9
       8       9       9       8       9       9       8       9       9       8
       9       9       8       9       9       8       9       9       8       9
       9       8       9       9       8       9       9       8       9       9
       8       9       9       8       9       9       8       9       9       8
       9       9       8       9       9       8       9       9       8       9
       9       8       9       9       8       9       9       8       9       9
       8       9       9       8       9       9       8       9       9       8
       9       9       8       9       9       8       9       9       8       9
       9       8       9       9       8       9       9       8       9       9
       8       9       9       8       9       9       8       9       9       8
       9       9       8       9       9       8       9       9       8       9
       9       8       9       9       8       9       9       8       9       9
       8       9       9       8       9       9       8       9       9       8
       9       9       8       9       9       8       9       9       8       9
       9       8       9       9       8       9       9       8       9       9
       8       9       9       8       9       9       8       9       9       8
       9       9       8       9       9       8       9       9       8       9
       9       8       9       9       8       9       9       8       9       9
       8       9       9       8       9       9       8       9       9       8
       9       9       8       9       9       8       9       9       8       9
       9       8       9       9       8       9       9       8       9       9
       8       9       9       8       9       9       8       9       9       8
       9       9       8       9       9       8       9       9       8       9
       9       8       9       9       8       9       9       8       9       9
       8       9       9       8       9       9       8       9       9       8
       9       9       8       9       9       8       9       9       8       9
       9       8       9       9       8       9       9       8       9       9
       8       9       9       8       9       9       8       9       9       8
       9       9       8       9       9       8       9       9       8       9
       9       8       9       9       8       9       9       8       9       9
       8       9       9       8       9       9       8       9       9       8
       9       9       8       9       9       8       9       9       8       9
       9       8       9       9       8       9       9       8       9       9
       8       9       9       8       9       9       8       9       9       8
       9       9       8       9       9       8       9       9       8       9
       9       8       9       9       8       9       9       8       9       9
       8       9       9       8       9       9       8       9       9       8
       9       9       8       9       9       8       9       9       8       9
       9       8       9       9       8       9       9       8       9       9
       8       9       9       8       9       9       8       9       9       8
       9       9       8       9       9       8       9       9       8       9
       9       8       9       9       8       9       9       8       9       9
       8       9       9       8       9       9       8       9       9       8
       9       9       8       9       9       8       9       9       8       9
       9       8       9       9       8       9       9       8       9       9
       8       9       9       8       9       9       8       9       9       8
       9       9       8       9       9       8       9       9       8       9
       9       8       9       9       8       9       9       8       9       9
       8       9       9       8       9       9       8       9       9       8
       9       9       8       9       9       8       9       9       8       9
       9       8       9       9       8       9       9       8       9       9
       8       9       9       8       9       9       8       9       9       8
       9       9       8       9       9       8       9       9       8       9
       9       8       9       9       8       9       9       8       9       9
       8       9       9       8       9       9       8       9       9       8
       9       9       8       9       9       8       9       9       8       9
       9       8       9       9       8       9       9       8       9       9
       8       9       9       8       9       9       8       9       9       8
       9       9       8       9       9       8       9       9       8       9
       9       8       9       9       8       9       9       8       9       9
       8       9       9       8       9       9       8       9       9       8
       9       9       8       9       9       8       9       9       8       9
       9       8       9       9       8       9       9       8       9       9
       8       9       9       8       9       9       8       9       9       8
       9       9       8       9       9       8       9       9       8       9
       9       8       9       9       8       9       9       8       9       9
       8       9       9       8       9       9       8       9       9       8
       9       9       8       9       9       8       9       9       8       9
       9       8       9       9       8       9       9       8       9       9
       8       9       9       8       9       9       8       9       9       8
       9       9       8       9       9       8       9       9       8       9
       9       8       9       9       8       9       9       8       9       9
       8       9       9       8       9       9       8       9       9       8
       9       9       8       9       9       8       9       9       8       9
       9       8       9       9       8       9       9       8       9       9
       8       9       9       8       9       9       8       9       9       8
       9       9       8       9       9       8       9       9       8       9
       9       8       9       9       8       9       9       8       9       9
       8       9       9       8       9       9       8       9       9       8
       9       9       8       9       9       8       9       9       8       9
       9       8       9       9       8       9       9       8       9       9
       8       9       9       8       9       9       8       9       9       8
       9       9       8       9       9       8       9       9       8       9
       9       8       9       9       8       9       9       8       9       9
       8       9       9       8       9       9       8       9       9       8
       9       9       8       9       9       8       9       9       8       9
       9       8       9       9       8       9       9       8       9       9
       8       9       9       8       9       9       8       9       9       8
       9       9       8       9       9       8       9       9       8       9
       9       8       9       9       8       9       9       8       9       9
       8       9       9       8       9       9       8       9       9       8
       9       9       8       9       9       8       9       9       8       9
       9       8       9       9       8       9       9       8       9       9
       8       9       9       8       9       9       8       9       9       8
       9       9       8       9       9       8       9       9       8       9
       9       8       9       9       8       9       9       8       9       9
       8       9       9       8       9       9       8       9       9       8
       9       9       8       9       9       8       9       9       8       9
       9       8       9       9       8       9       9       8       9       9
       8       9       9       8       9       9       8       9       9       8
       9       9       8       9       9       8       9       9       8       9
       9       8       9       9       8       9       9       8       9       9
       8       9       9       8       9       9       8       9       9       8
       9       9       8       9       9       8       9       9       8       9
       9       8       9       9       8       9       9       8       9       9
       8       9       9       8       9       9       8       9       9       8
       9       9       8       9       9       8       9       9       8       9
       9       8       9       9       8       9       9       8       9       9
       8       9       9       8       9       9       8       9       9       8
       9       9       8       9       9       8       9       9       8       9
       9       8       9       9       8       9       9       8       9       9
       8       9       9       8       9       9       8       9       9       8
       9       9       8       9       9       8       9       9       8       9
       9       8       9       9       8       9       9       8       9       9
       8       9       9       8       9       9       8       9       9       8
       9       9       8       9       9       8       9       9       8       9
       9       8       9       9       8       9       9       8       9       9
       8       9       9       8       9       9       8       9       9       8
       9       9       8       9       9       8       9       9       8       9
       9       8       9       9       8       9       9       8       9       9
       8       9       9       8       9       9       8       9       9       8
       9       9       8       9       9       8       9       9       8       9
       9       8       9       9       8       9       9       8       9       9
       8       9       9       8       9       9       8       9       9       8
       9       9       8       9       9       8       9       9       8       9
       9       8       9       9       8       9       9       8       9       9
       8       9       9       8       9       9       8       9       9       8
       9       9       8       9       9       8       9       9       8       9
       9       8       9       9       8       9       9       8       9       9
       8       9       9       8       9       9       8       9       9       8
       9       9       8       9       9       8       9       9       8       9
       9       8       9       9       8       9       9       8       9       9
       8       9       9       8       9       9       8       9       9       8
       9       9       8       9       9       8       9       9       8       9
       9       8       9       9       8       9       9       8       9       9
       8       9       9       8       9       9       8       9       9       8
       9       9       8       9       9       8       9       9       8       9
       9       8       9       9       8       9       9       8       9       9
       8       9       9       8       9       9       8       9       9       8
       9       9       8       9       9       8       9       9       8       9
       9       8       9       9       8       9       9       8       9       9
       8       9       9       8       9       9       8       9       9       8
       9       9       8       9       9       8       9       9       8       9
       9       8       9       9       8       9       9       8       9       9
       8       9       9       8       9       9       8       9       9       8
       9       9       8       9       9       8       9       9       8       9
       9       8       9       9       8       9       9       8       9       9
       8       9       9       8       9       9       8       9       9       8
       9       9       8       9       9       8       9       9       8       9
       9       8       9       9       8       9       9       8       9       9
       8       9       9       8       9       9       8       9       9       8
       9       9       8       9       9       8       9       9       8       9
       9       8       9       9       8       9       9       8       9       9
       8       9       9       8       9       9       8       9       9       8
       9       9       8       9       9       8       9       9       8       9
       9       8       9       9       8       9       9       8       9       9
       8       9       9       8       9       9       8       9       9       8
       9       9       8       9       9       8       9       9       8       9
       9       8       9       9       8       9       9       8       9       9
       8       9       9       8       9       9       8       9       9       8
       9       9       8       9       9       8       9       9       8       9
       9       8       9       9       8       9       9       8       9       9
       8       9       9       8       9       9       8       9       9       8
       9       9       8       9       9       8       9       9       8       9
       9       8       9       9       8       9       9       8       9       9
       8       9       9       8       9       9       8       9       9       8
       9       9       8       9       9       8       9       9       8       9
       9       8       9       9       8       9       9       8       9       9
       8       9       9       8       9       9       8       9       9       8
       9       9       8       9       9       8       9       9       8       9
       9       8       9       9       8       9       9       8       9       9
       8       9       9       8       9       9       8       9       9       8
       9       9       8       9       9       8       9       9       8       9
       9       8       9       9       8       9       9       8       9       9
       8       9       9       8       9       9       8       9       9       8
       9       9       8       9       9       8       9       9       8       9
       9       8       9       9       8       9       9       8       9       9
       8       9       9       8       9       9       8       9       9       8
       9       9       8       9       9       8       9       9       8       9
       9       8       9       9       8       9       9       8       9       9
       8       9       9       8       9       9       8       9       9       8
       9       9       8       9       9       8       9       9       8       9
       9       8       9       9       8       9       9       8       9       9
       8       9       9       8       9       9       8       9       9       8
       9       9       8       9       9       8       9       9       8       9
       9       8       9       9       8       9       9       8       9       9
       8       9       9       8       9       9       8       9       9       8
       9       9       8       9       9       8       9       9       8       9
       9       8       9       9       8       9       9       8       9       9
       8       9       9       8       9       9       8       9       9       8
       9       9       8       9       9       8       9       9       8       9
       9       8       9       9       8       9       9       8       9       9
       8       9       9       8       9       9       8       9       9       8
       9       9       8       9       9       8       9       9       8       9
       9       8       9       9       8       9       9       8       9       9
       8       9       9       8       9       9       8       9       9       8
       9       9       8       9       9       8       9       9       8       9
       9       8       9       9       8       9       9       8       9       9
       8       9       9       8       9       9       8       9       9       8
       9       9       8       9       9       8       9       9       8       9
       9       8       9       9       8       9       9       8       9       9
       8       9       9       8       9       9       8       9       9       8
       9       9       8       9       9       8       9       9       8       9
       9       8       9       9       8       9       9       8       9       9
       8       9       9       8       9       9       8       9       9       8
       9       9       8       9       9       8       9       9       8       9
       9       8       9       9       8       9       9       8       9       9
       8       9       9       8       9       9       8       9       9       8
       9       9       8       9       9       8       9       9       8       9
       9       8       9       9       8       9       9       8       9       9
       8       9       9       8       9       9       8       9       9       8
       9       9       8       9       9       8       9       9       8       9
       9       8       9       9       8       9       9       8       9       9
       8       9       9       8       9       9       8       9       9       8
       9       9       8       9       9       8       9       9       8       9
       9       8       9       9       8       9       9       8       9       9
       8       9       9       8       9       9       8       9       9       8
       9       9       8       9       9       8       9       9       8       9
       9       8       9       9       8       9       9       8       9       9
       8       9       9       8       9       9       8       9       9       8
       9       9       8       9       9       8       9       9       8       9
       9       8       9       9       8       9       9       8       9       9
       8       9       9       8       9       9       8       9       9       8
       9       9       8       9       9       8       9       9       8       9
       9       8       9       9       8       9       9       8       9       9
       8       9       9       8       9       9       8       9       9       8
       9       9       8       9       9       8       9       9       8       9
       9       8       9       9       8       9       9       8       9       9
       8       9       9       8       9       9       8       9       9       8
       9       9       8       9       9       8       9       9       8       9
       9       8       9       9       8       9       9       8       9       9
       8       9       9       8       9       9       8       9       9       8
       9       9       8       9       9       8       9       9       8       9
       9       8       9       9       8       9       9       8       9       9
       8       9       9       8       9       9       8       9       9       8
       9       9       8       9       9       8       9       9       8       9
       9       8       9       9       8       9       9       8       9       9
       8       9       9       8       9       9       8       9       9       8
       9       9       8       9       9       8       9       9       8       9
       9       8       9       9       8       9       9       8       9       9
       8       9       9       8       9       9       8       9       9       8
       9       9       8       9       9       8       9       9       8       9
       9       8       9       9       8       9       9       8       9       9
       8       9       9       8       9       9       8       9       9       8
       9       9       8       9       9       8       9       9       8       9
       9       8       9       9       8       9       9       8       9       9
       8       9       9       8       9       9       8       9       9       8
       9       9       8       9       9       8       9       9       8       9
       9       8       9       9       8       9       9       8       9       9
       8       9       9       8       9       9       8       9       9       8
       9       9       8       9       9       8       9       9       8       9
       9       8       9       9       8       9       9       8       9       9
       8       9       9       8       9       9       8       9       9       8
       9       9       8       9       9       8       9       9       8       9
       9       8       9       9       8       9       9       8       9       9
       8       9       9       8       9       9       8       9       9       8
       9       9       8       9       9       8       9       9       8       9
       9       8       9       9       8       9       9       8       9       9
       8       9       9       8       9       9       8       9       9       8
       9       9       8       9       9       8       9       9       8       9
       9       8       9       9       8       9       9       8       9       9
       8       9       9       8       9       9       8       9       9       8
       9       9       8       9       9       8       9       9       8       9
       9       8       9       9       8       9       9       8       9       9
       8       9       9       8       9       9       8       9       9       8
       9       9       8       9       9       8       9       9       8       9
       9       8       9       9       8       9       9       8       9       9
       8       9       9       8       9       9       8       9       9       8
       9       9       8       9       9       8       9       9       8       9
       9       8       9       9       8       9       9       8       9       9
       8       9       9       8       9       9       8       9       9       8
       9       9       8       9       9       8       9       9       8       9
       9       8       9       9       8       9       9       8       9       9
       8       9       9       8       9       9       8       9       9       8
       9       9       8       9       9       8       9       9       8       9
       9       8       9       9       8       9       9       8       9       9
       8       9       9       8       9       9       8       9       9       8
       9       9       8       9       9       8       9       9       8       9
       9       8       9       9       8       9       9       8       9       9
       8       9       9       8       9       9       8       9       9       8
       9       9       8       9       9       8       9       9       8       9
       9       8       9       9       8       9       9       8       9       9
       8       9       9       8       9       9       8       9       9       8
       9       9       8       9       9       8       9       9       8       9
       9       8       9       9       8       9       9       8       9       9
       8       9       9       8       9       9       8       9       9       8
       9       9       8       9       9       8       9       9       8       9
       9       8       9       9       8       9       9       8       9       9
       8       9       9       8       9       9       8       9       9       8
       9       9       8       9       9       8       9       9       8       9
       9       8       9       9       8       9       9       8       9       9
       8       9       9       8       9       9       8       9       9       8
       9       9       8       9       9       8       9       9       8       9
       9       8       9       9       8       9       9       8       9       9
       8       9       9       8       9       9       8       9       9       8
       9       9       8       9       9       8       9       9       8       9
       9       8       9       9       8       9       9       8       9       9
       8       9       9       8       9       9       8       9       9       8
       9       9       8       9       9       8       9       9       8       9
       9       8       9       9       8       9       9       8       9       9
       8       9       9       8       9       9       8       9       9       8
       9       9       8       9       9       8       9       9       8       9
       9       8       9       9       8       9       9       8       9       9
       8       9       9       8       9       9       8       9       9       8
       9       9       8       9       9       8       9       9       8       9
       9       8       9       9       8       9       9       8       9       9
       8       9       9       8       9       9       8       9       9       8
       9       9       8       9       9       8       9       9       8       9
       9       8       9       9       8       9       9       8       9       9
       8       9       9       8       9       9       8       9       9       8
       9       9       8       9       9       8       9       9       8       9
       9       8       9       9       8       9       9       8       9       9
       8       9       9       8       9       9       8       9       9       8
       9       9       8       9       9       8       9       9       8       9
       9       8       9       9       8       9       9       8       9       9
       8       9       9       8       9       9       8       9       9       8
       9       9       8       9       9       8       9       9       8       9
       9       8       9       9       8       9       9       8       9       9
       8       9       9       8       9       9       8       9       9       8
       9       9       8       9       9       8       9       9       8       9
       9       8       9       9       8       9       9       8       9       9
       8       9       9       8       9       9       8       9       9       8
       9       9       8       9       9       8       9       9       8       9
       9       8       9       9       8       9       9       8       9       9
       8       9       9       8       9       9       8       9       9       8
       9       9       8       9       9       8       9       9       8       9
       9       8       9       9       8       9       9       8       9       9
       8       9       9       8       9       9       8       9       9       8
       9       9       8       9       9       8       9       9       8       9
       9       8       9       9       8       9       9       8       9       9
       8       9       9       8       9       9       8       9       9       8
       9       9       8       9       9       8       9       9       8       9
       9       8       9       9       8       9       9       8       9       9
       8       9       9       8       9       9       8       9       9       8
       9       9       8       9       9       8       9       9       8       9
       9       8       9       9       8       9       9       8       9       9
       8       9       9       8       9       9       8       9       9       8
       9       9       8       9       9       8       9       9       8       9
       9       8       9       9       8       9       9       8       9       9
       8       9       9       8       9       9       8       9       9       8
       9       9       8       9       9       8       9       9       8       9
       9       8       9       9       8       9       9       8       9       9
       8       9       9       8       9       9       8       9       9       8
       9       9       8       9       9       8       9       9       8       9
       9       8       9       9       8       9       9       8       9       9
       8       9       9       8       9       9       8       9       9       8
       9       9       8       9       9       8       9       9       8       9
       9       8       9       9       8       9       9       8       9       9
       8       9       9       8       9       9       8       9       9       8
       9       9       8       9       9       8       9       9       8       9
       9       8       9       9       8       9       9       8       9       9
       8       9       9       8       9       9       8       9       9       8
       9       9       8       9       9       8       9       9       8       9
       9       8       9       9       8       9       9       8       9       9
       8       9       9       8       9       9       8       9       9       8
       9       9       8       9       9       8       9       9       8       9
       9       8       9       9       8       9       9       8       9       9
       8       9       9       8       9       9       8       9       9       8
       9       9       8       9       9       8       9       9       8       9
       9       8       9       9       8       9       9       8       9       9
       8       9       9       8       9       9       8       9       9       8
       9       9       8       9       9       8       9       9       8       9
       9       8       9       9       8       9       9       8       9       9
       8       9       9       8       9       9       8       9       9       8
       9       9       8       9       9       8       9       9       8       9
       9       8       9       9       8       9       9       8       9       9
       8       9       9       8       9       9       8       9       9       8
       9       9       8       9       9       8       9       9       8       9
       9       8       9       9       8       9       9       8       9       9
       8       9       9       8       9       9       8       9       9       8
       9       9       8       9       9       8       9       9       8       9
       9       8       9       9       8       9       9       8       9       9
       8       9       9       8       9       9       8       9       9       8
       9       9       8       9       9       8       9       9       8       9
       9       8       9       9       8       9       9       8       9       9
       8       9       9       8       9       9       8       9       9       8
       9       9       8       9       9       8       9       9       8       9
       9       8       9       9       8       9       9       8       9       9
       8       9       9       8       9       9       8       9       9       8
       9       9       8       9       9       8       9       9       8       9
       9       8       9       9       8       9       9       8       9       9
       8       9       9       8       9       9       8       9       9       8
       9       9       8       9       9       8       9       9       8       9
       9       8       9       9       8       9       9       8       9       9
       8       9       9       8       9       9       8       9       9       8
       9       9       8       9       9       8       9       9       8       9
       9       8       9       9       8       9       9       8       9       9
       8       9       9       8       9       9       8       9       9       8
       9       9       8       9       9       8       9       9       8       9
       9       8       9       9       8       9       9       8       9       9
       8       9       9       8       9       9       8       9       9       8
       9       9       8       9       9       8       9       9       8       9
       9       8       9       9       8       9       9       8       9       9
       8       9       9       8       9       9       8       9       9       8
       9       9       8       9       9       8       9       9       8       9
       9       8       9       9       8       9       9       8       9       9
       8       9       9       8       9       9       8       9       9       8
       9       9       8       9       9       8       9       9       8       9
       9       8       9       9       8       9       9       8       9       9
       8       9       9       8       9       9       8       9       9       8
       9       9       8       9       9       8       9       9       8       9
       9       8       9       9       8       9       9       8       9       9
       8       9       9       8       9       9       8       9       9       8
       9       9       8       9       9       8       9       9       8       9
       9       8       9       9       8       9       9       8       9       9
       8       9       9       8       9       9       8       9       9       8
       9       9       8       9       9       8       9       9       8       9
       9       8       9       9       8       9       9       8       9       9
       8       9       9       8       9       9       8       9       9       8
       9       9       8       9       9       8       9       9       8       9
       9       8       9       9       8       9       9       8       9       9
       8       9       9       8       9       9       8       9       9       8
       9       9       8       9       9       8       9       9       8       9
       9       8       9       9       8       9       9       8       9       9
       8       9       9       8       9       9       8       9       9       8
       9       9       8       9       9       8       9       9       8       9
       9       8       9       9       8       9       9       8       9       9
       8       9       9       8       9       9       8       9       9       8
       9       9       8       9       9       8       9       9       8       9
       9       8       9       9       8       9       9       8       9       9
       8       9       9       8       9       9       8       9       9       8
       9       9       8       9       9       8       9       9       8       9
       9       8       9       9       8       9       9       8       9       9
       8       9       9       8       9       9       8       9       9       8
       9       9       8       9       9       8       9       9       8       9
       9       8       9       9       8       9       9       8       9       9
       8       9       9       8       9       9       8       9       9       8
       9       9       8       9       9       8       9       9       8       9
       9       8       9       9       8       9       9       8       9       9
       8       9       9       8       9       9       8       9       9       8
       9       9       8       9       9       8       9       9       8       9
       9       8       9       9       8       9       9       8       9       9
       8       9       9       8       9       9       8       9       9       8
       9       9       8       9       9       8       9       9       8       9
       9       8       9       9       8       9       9       8       9       9
       8       9       9       8       9       9       8       9       9       8
       9       9       8       9       9       8       9       9       8       9
       9       8       9       9       8       9       9       8       9       9
       8       9       9       8       9       9       8       9       9       8
       9       9       8       9       9       8       9       9       8       9
       9       8       9       9       8       9       9       8       9       9
       8       9       9       8       9       9       8       9       9       8
       9       9       8       9       9       8       9       9       8       9
       9       8       9       9       8       9       9       8       9       9
       8       9       9       8       9       9       8       9       9       8
       9       9       8       9       9       8       9       9       8       9
       9       8       9       9       8       9       9       8       9       9
       8       9       9       8       9       9       8       9       9       8
       9       9       8       9       9       8       9       9       8       9
       9       8       9       9       8       9       9       8       9       9
       8       9       9       8       9       9       8       9       9       8
       9       9       8       9       9       8       9       9       8       9
       9       8       9       9       8       9       9       8       9       9
       8       9       9       8       9       9       8       9       9       8
       9       9       8       9       9       8       9       9       8       9
       9       8       9       9       8       9       9       8       9       9
       8       9       9       8       9       9       8       9       9       8
       9       9       8       9       9       8       9       9       8       9
       9       8       9       9       8       9       9       8       9       9
       8       9       9       8       9       9       8       9       9       8
       9       9       8       9       9       8       9       9       8       9
       9       8       9       9       8       9       9       8       9       9
       8       9       9       8       9       9       8       9       9       8
       9       9       8       9       9       8       9       9       8       9
       9       8       9       9       8       9       9       8       9       9
       8       9       9       8       9       9       8       9       9       8
       9       9       8       9       9       8       9       9       8       9
       9       8       9       9       8       9       9       8       9       9
       8       9       9       8       9       9       8       9       9       8
       9       9       8       9       9       8       9       9       8       9
       9       8       9       9       8       9       9       8       9       9
       8       9       9       8       9       9       8       9       9       8
       9       9       8       9       9       8       9       9       8       9
       9       8       9       9       8       9       9       8       9       9
       8       9       9       8       9       9       8       9       9       8
       9       9       8       9       9       8       9       9       8       9
       9       8       9       9       8       9       9       8       9       9
       8       9       9       8       9       9       8       9       9       8
       9       9       8       9       9       8       9       9       8       9
       9       8       9       9       8       9       9       8       9       9
       8       9       9       8       9       9       8       9       9       8
       9       9       8       9       9       8       9       9       8       9
       9       8       9       9       8       9       9       8       9       9
       8       9       9       8       9       9       8       9       9       8
       9       9       8       9       9       8       9       9       8       9
       9       8       9       9       8       9       9       8       9       9
       8       9       9       8       9       9       8       9       9       8
       9       9       8       9       9       8       9       9       8       9
       9       8       9       9       8       9       9       8       9       9
       8       9       9       8       9       9       8       9       9       8
       9       9       8       9       9       8       9       9       8       9
       9       8       9       9       8       9       9       8       9       9
       8       9       9       8       9       9       8       9       9       8
       9       9       8       9       9       8       9       9       8       9
       9       8       9       9       8       9       9       8       9       9
       8       9       9       8       9       9       8       9       9       8
       9       9       8       9       9       8       9       9       8       9
       9       8       9       9       8       9       9       8       9       9
       8       9       9       8       9       9       8       9       9       8
       9       9       8       9       9       8       9       9       8       9
       9       8       9       9       8       9       9       8       9       9
       8       9       9       8       9       9       8       9       9       8
       9       9       8       9       9       8       9       9       8       9
       9       8       9       9       8       9       9       8       9       9
       8       9       9       8       9       9       8       9       9       8
       9       9       8       9       9       8       9       9       8       9
       9       8       9       9       8       9       9       8       9       9
       8       9       9       8       9       9       8       9       9       8
       9       9       8       9       9       8       9       9       8       9
       9       8       9       9       8       9       9       8       9       9
       8       9       9       8       9       9       8       9       9       8
       9       9       8       9       9       8       9       9       8       9
       9       8       9       9       8       9       9       8       9       9
       8       9       9       8       9       9       8       9       9       8
       9       9       8       9       9       8       9       9       8       9
       9       8       9       9       8       9       9       8       9       9
       8       9       9       8       9       9       8       9       9       8
       9       9       8       9       9       8       9       9       8       9
       9       8       9       9       8       9       9       8       9       9
       8       9       9       8       9       9       8       9       9       8
       9       9       8       9       9       8       9       9       8       9
       9       8       9       9       8       9       9       8       9       9
       8       9       9       8       9       9       8       9       9       8
       9       9       8       9       9       8       9       9       8       9
       9       8       9       9       8       9       9       8       9       9
       8       9       9       8       9       9       8       9       9       8
       9       9       8       9       9       8       9       9       8       9
       9       8       9       9       8       9       9       8       9       9
       8       9       9       8       9       9       8       9       9       8
       9       9       8       9       9       8       9       9       8       9
       9       8       9       9       8       9       9       8       9       9
       8       9       9       8       9       9       8       9       9       8
       9       9       8       9       9       8       9       9       8       9
       9       8       9       9       8       9       9       8       9       9
       8       9       9       8       9       9       8       9       9       8
       9       9       8       9       9       8       9       9       8       9
       9       8       9       9       8       9       9       8       9       9
       8       9       9       8       9       9       8       9       9       8
       9       9       8       9       9       8       9       9       8       9
       9       8       9       9       8       9       9       8       9       9
       8       9       9       8       9       9       8       9       9       8
       9       9       8       9       9       8       9       9       8       9
       9       8       9       9       8       9       9       8       9       9
       8       9       9       8       9       9       8       9       9       8
       9       9       8       9       9       8       9       9       8       9
       9       8       9       9       8       9       9       8       9       9
       8       9       9       8       9       9       8       9       9       8
       9       9       8       9       9       8       9       9       8       9
       9       8       9       9       8       9       9       8       9       9
       8       9       9       8       9       9       8       9       9       8
       9       9       8       9       9       8       9       9       8       9
       9       8       9       9       8       9       9       8       9       9
       8       9       9       8       9       9       8       9       9       8
       9       9       8       9       9       8       9       9       8       9
       9       8       9       9       8       9       9       8       9       9
       8       9       9       8       9       9       8       9       9       8
       9       9       8       9       9       8       9       9       8       9
       9       8       9       9       8       9       9       8       9       9
       8       9       9       8       9       9       8       9       9       8
       9       9       8       9       9       8       9       9       8       9
       9       8       9       9       8       9       9       8       9       9
       8       9       9       8       9       9       8       9       9       8
       9       9       8       9       9       8       9       9       8       9
       9       8       9       9       8       9       9       8       9       9
       8       9       9       8       9       9       8       9       9       8
       9       9       8       9       9       8       9       9       8       9
       9       8       9       9       8       9       9       8       9       9
       8       9       9       8       9       9       8       9       9       8
       9       9       8       9       9       8       9       9       8       9
       9       8       9       9       8       9       9       8       9       9
       8       9       9       8       9       9       8       9       9       8
       9       9       8       9       9       8       9       9       8       9
       9       8       9       9       8       9       9       8       9       9
       8       9       9       8       9       9       8       9       9       8
       9       9       8       9       9       8       9       9       8       9
       9       8       9       9       8       9       9       8       9       9
       8       9       9       8       9       9       8       9       9       8
       9       9       8       9       9       8       9       9       8       9
       9       8       9       9       8       9       9       8       9       9
       8       9       9       8       9       9       8       9       9       8
       9       9       8       9       9       8       9       9       8       9
       9       8       9       9       8       9       9       8       9       9
       8       9       9       8       9       9       8       9       9       8
       9       9       8       9       9       8       9       9       8       9
       9       8       9       9       8       9       9       8       9       9
       8       9       9       8       9       9       8       9       9       8
       9       9       8       9       9       8       9       9       8       9
       9       8       9       9       8       9       9       8       9       9
       8       9       9       8       9       9       8       9       9       8
       9       9       8       9       9       8       9       9       8       9
       9       8       9       9       8       9       9       8       9       9
       8       9       9       8       9       9       8       9       9       8
       9       9       8       9       9       8       9       9       8       9
       9       8       9       9       8       9       9       8       9       9
       8       9       9       8       9       9       8       9       9       8
       9       9       8       9       9       8       9       9       8       9
       9       8       9       9       8       9       9       8       9       9
       8       9       9       8       9       9       8       9       9       8
       9       9       8       9       9       8       9       9       8       9
       9       8       9       9       8       9       9       8       9       9
       8       9       9       8       9       9       8       9       9       8
       9       9       8       9       9       8       9       9       8       9
       9       8       9       9       8       9       9       8       9       9
       8       9       9       8       9       9       8       9       9       8
       9       9       8       9       9       8       9       9       8       9
       9       8       9       9       8       9       9       8       9       9
       8       9       9       8       9       9       8       9       9       8
       9       9       8       9       9       8       9       9       8       9
       9       8       9       9       8       9       9       8       9       9
       8       9       9       8       9       9       8       9       9       8
       9       9       8       9       9       8       9       9       8       9
       9       8       9       9       8       9       9       8       9       9
       8       9       9       8       9       9       8       9       9       8
       9       9       8       9       9       8       9       9       8       9
       9       8       9       9       8       9       9       8       9       9
       8       9       9       8       9       9       8       9       9       8
       9       9       8       9       9       8       9       9       8       9
       9       8       9       9       8       9       9       8       9       9
       8       9       9       8       9       9       8       9       9       8
       9       9       8       9       9       8       9       9       8       9
       9       8       9       9       8       9       9       8       9       9
       8       9       9       8       9       9       8       9       9       8
       9       9       8       9       9       8       9       9       8       9
       9       8       9       9       8       9       9       8       9       9
       8       9       9       8       9       9       8       9       9       8
       9       9       8       9       9       8       9       9       8       9
       9       8       9       9       8       9       9       8       9       9
       8       9       9       8       9       9       8       9       9       8
       9       9       8       9       9       8       9       9       8       9
       9       8       9       9       8       9       9       8       9       9
       8       9       9       8       9       9       8       9       9       8
       9       9       8       9       9       8       9       9       8       9
       9       8       9       9       8       9       9       8       9       9
       8       9       9       8       9       9       8       9       9       8
       9       9       8       9       9       8       9       9       8       9
       9       8       9       9       8       9       9       8       9       9
       8       9       9       8       9       9       8       9       9       8
       9       9       8       9       9       8       9       9       8       9
       9       8       9       9       8       9       9       8       9       9
       8       9       9       8       9       9       8       9       9       8
       9       9       8       9       9       8       9       9       8       9
       9       8       9       9       8       9       9       8       9       9
       8       9       9       8       9       9       8       9       9       8
       9       9       8       9       9       8       9       9       8       9
       9       8       9       9       8       9       9       8       9       9
       8       9       9       8       9       9       8       9       9       8
       9       9       8       9       9       8       9       9       8       9
       9       8       9       9       8       9       9       8       9       9
       8       9       9       8       9       9       8       9       9       8
       9       9       8       9       9       8       9       9       8       9
       9       8       9       9       8       9       9       8       9       9
       8       9       9       8       9       9       8       9       9       8
       9       9       8       9       9       8       9       9       8       9
       9       8       9       9       8       9       9       8       9       9
       8       9       9       8       9       9       8       9       9       8
       9       9       8       9       9       8       9       9       8       9
       9       8       9       9       8       9       9       8       9       9
       8       9       9       8       9       9       8       9       9       8
       9       9       8       9       9       8       9       9       8       9
       9       8       9       9       8       9       9       8       9       9
       8       9       9       8       9       9       8       9       9       8
       9       9       8       9       9       8       9       9       8       9
       9       8       9       9       8       9       9       8       9       9
       8       9       9       8       9       9       8       9       9       8
       9       9       8       9       9       8       9       9       8       9
       9       8       9       9       8       9       9       8       9       9
       8       9       9       8       9       9       8       9       9       8
       9       9       8       9       9       8       9       9       8       9
       9       8       9       9       8       9       9       8       9       9
       8       9       9       8       9       9       8       9       9       8
       9       9       8       9       9       8       9       9       8       9
       9       8       9       9       8       9       9       8       9       9
       8       9       9       8       9       9       8       9       9       8
       9       9       8       9       9       8       9       9       8       9
       9       8       9       9       8       9       9       8       9       9
       8       9       9       8       9       9       8       9       9       8
       9       9       8       9       9       8       9       9       8       9
       9       8       9       9       8       9       9       8       9       9
       8       9       9       8       9       9       8       9       9       8
       9       9       8       9       9       8       9       9       8       9
       9       8       9       9       8       9       9       8       9       9
       8       9       9       8       9       9       8       9       9       8
       9       9       8       9       9       8       9       9       8       9
       9       8       9       9       8       9       9       8       9       9
       8       9       9       8       9       9       8       9       9       8
       9       9       8       9       9       8       9       9       8       9
       9       8       9       9       8       9       9       8       9       9
       8       9       9       8       9       9       8       9       9       8
       9       9       8       9       9       8       9       9       8       9
       9       8       9       9       8       9       9       8       9       9
       8       9       9       8       9       9       8       9       9       8
       9       9       8       9       9       8       9       9       8       9
       9       8       9       9       8       9       9       8       9       9
       8       9       9       8       9       9       8       9       9       8
       9       9       8       9       9       8       9       9       8       9
       9       8       9       9       8       9       9       8       9       9
       8       9       9       8       9       9       8       9       9       8
       9       9       8       9       9       8       9       9       8       9
       9       8       9       9       8       9       9       8       9       9
       8       9       9       8       9       9       8       9       9       8
       9       9       8       9       9       8       9       9       8       9
       9       8       9       9       8       9       9       8       9       9
       8       9       9       8       9       9       8       9       9       8
       9       9       8       9       9       8       9       9       8       9
       9       8       9       9       8       9       9       8       9       9
       8       9       9       8       9       9       8       9       9       8
       9       9       8       9       9       8       9       9       8       9
       9       8       9       9       8       9       9       8       9       9
       8       9       9       8       9       9       8       9       9       8
       9       9       8       9       9       8       9       9       8       9
       9       8       9       9       8       9       9       8       9       9
       8       9       9       8       9       9       8       9       9       8
       9       9       8       9       9       8       9       9       8       9
       9       8       9       9       8       9       9       8       9       9
       8       9       9       8       9       9       8       9       9       8
       9       9       8       9       9       8       9       9       8       9
       9       8       9       9       8       9       9       8       9       9
       8       9       9       8       9       9       8       9       9       8
       9       9       8       9       9       8       9       9       8       9
       9       8       9       9       8       9       9       8       9       9
       8       9       9       8       9       9       8       9       9       8
       9       9       8       9       9       8       9       9       8       9
       9       8       9       9       8       9       9       8       9       9
       8       9       9       8       9       9       8       9       9       8
       9       9       8       9       9       8       9       9       8       9
       9       8       9       9       8       9       9       8       9       9
       8       9       9       8       9       9       8       9       9       8
       9       9       8       9       9       8       9       9       8       9
       9       8       9       9       8       9       9       8       9       9
       8       9       9       8       9       9       8       9       9       8
       9       9       8       9       9       8       9       9       8       9
       9       8       9       9       8       9       9       8       9       9
       8       9       9       8       9       9       8       9       9       8
       9       9       8       9       9       8       9       9       8       9
       9       8       9       9       8       9       9       8       9       9
       8       9       9       8       9       9       8       9       9       8
       9       9       8       9       9       8       9       9       8       9
       9       8       9       9       8       9       9       8       9       9
       8       9       9       8       9       9       8       9       9       8
       9       9       8       9       9       8       9       9       8       9
       9       8       9       9       8       9       9       8       9       9
       8       9       9       8       9       9       8       9       9       8
       9       9       8       9       9       8       9       9       8       9
       9       8       9       9       8       9       9       8       9       9
       8       9       9       8       9       9       8       9       9       8
       9       9       8       9       9       8       9       9       8       9
       9       8       9       9       8       9       9       8       9       9
       8       9       9       8       9       9       8       9       9       8
       9       9       8       9       9       8       9       9       8       9
       9       8       9       9       8       9       9       8       9       9
       8       9       9       8       9       9       8       9       9       8
       9       9       8       9       9       8       9       9       8       9
       9       8       9       9       8       9       9       8       9       9
       8       9       9       8       9       9       8       9       9       8
       9       9       8       9       9       8       9       9       8       9
       9       8       9       9       8       9       9       8       9       9
       8       9       9       8       9       9       8       9       9       8
       9       9       8       9       9       8       9       9       8       9
       9       8       9       9       8       9       9       8       9       9
       8       9       9       8       9       9       8       9       9       8
       9       9       8       9       9       8       9       9       8       9
       9       8       9       9       8       9       9       8       9       9
       8       9       9       8       9       9       8       9       9       8
       9       9       8       9       9       8       9       9       8       9
       9       8       9       9       8       9       9       8       9       9
       8       9       9       8       9       9       8       9       9       8
       9       9       8       9       9       8       9       9       8       9
       9       8       9       9       8       9       9       8       9       9
       8       9       9       8       9       9       8       9       9       8
       9       9       8       9       9       8       9       9       8       9
       9       8       9       9       8       9       9       8       9       9
       8       9       9       8       9       9       8       9       9       8
       9       9       8       9       9       8       9       9       8       9
       9       8       9       9       8       9       9       8       9       9
       8       9       9       8       9       9       8       9       9       8
       9       9       8       9       9       8       9       9       8       9
       9       8       9       9       8       9       9       8       9       9
       8       9       9       8       9       9       8       9       9       8
       9       9       8       9       9       8       9       9       8       9
       9       8       9       9       8       9       9       8       9       9
       8       9       9       8       9       9       8       9       9       8
       9       9       8       9       9       8       9       9       8       9
       9       8       9       9       8       9       9       8       9       9
       8       9       9       8       9       9       8       9       9       8
       9       9       8       9       9       8       9       9       8       9
       9       8       9       9       8       9       9       8       9       9
       8       9       9       8       9       9       8       9       9       8
       9       9       8       9       9       8       9       9       8       9
       9       8       9       9       8       9       9       8       9       9
       8       9       9       8       9       9       8       9       9       8
       9       9       8       9       9       8       9       9       8       9
       9       8       9       9       8       9       9       8       9       9
       8       9       9       8       9       9       8       9       9       8
       9       9       8       9       9       8       9       9       8       9
       9       8       9       9       8       9       9       8       9       9
       8       9       9       8       9       9       8       9       9       8
       9       9       8       9       9       8       9       9       8       9
       9       8       9       9       8       9       9       8       9       9
       8       9       9       8       9       9       8       9       9       8
       9       9       8       9       9       8       9       9       8       9
       9       8       9       9       8       9       9       8       9       9
       8       9       9       8       9       9       8       9       9       8
       9       9       8       9       9       8       9       9       8       9
       9       8       9       9       8       9       9       8       9       9
       8       9       9       8       9       9       8       9       9       8
       9       9       8       9       9       8       9       9       8       9
       9       8       9       9       8       9       9       8       9       9
       8       9       9       8       9       9       8       9       9       8
       9       9       8       9       9       8       9       9       8       9
       9       8       9       9       8       9       9       8       9       9
       8       9       9       8       9       9       8       9       9       8
       9       9       8       9       9       8       9       9       8       9
       9       8       9       9       8       9       9       8       9       9
       8       9       9       8       9       9       8       9       9       8
       9       9       8       9       9       8       9       9       8       9
       9       8       9       9       8       9       9       8       9       9
       8       9       9       8       9       9       8       9       9       8
       9       9       8       9       9       8       9       9       8       9
       9       8       9       9       8       9       9       8       9       9
       8       9       9       8       9       9       8       9       9       8
       9       9       8       9       9       8       9       9       8       9
       9       8       9       9       8       9       9       8       9       9
       8       9       9       8       9       9       8       9       9       8
       9       9       8       9       9       8       9       9       8       9
       9       8       9       9       8       9       9       8       9       9
       8       9       9       8       9       9       8       9       9       8
       9       9       8       9       9       8       9       9       8       9
       9       8       9       9       8       9       9       8       9       9
       8       9       9       8       9       9       8       9       9       8
       9       9       8       9       9       8       9       9       8       9
       9       8       9       9       8       9       9       8       9       9
       8       9       9       8       9       9       8       9       9       8
       9       9       8       9       9       8       9       9       8       9
       9       8       9       9       8       9       9       8       9       9
       8       9       9       8       9       9       8       9       9       8
       9       9       8       9       9       8       9       9       8       9
       9       8       9       9       8       9       9       8       9       9
       8       9       9       8       9       9       8       9       9       8
       9       9       8       9       9       8       9       9       8       9
       9       8       9       9       8       9       9       8       9       9
       8       9       9       8       9       9       8       9       9       8
       9       9       8       9       9       8       9       9       8       9
       9       8       9       9       8       9       9       8       9       9
       8       9       9       8       9       9       8       9       9       8
       9       9       8       9       9       8       9       9       8       9
       9       8       9       9       8       9       9       8       9       9
       8       9       9       8       9       9       8       9       9       8
       9       9       8       9       9       8       9       9       8       9
       9       8       9       9       8       9       9       8       9       9
       8       9       9       8       9       9       8       9       9       8
       9       9       8       9       9       8       9       9       8       9
       9       8       9       9       8       9       9       8       9       9
       8       9       9       8       9       9       8       9       9       8
       9       9       8       9       9       8       9       9       8       9
       9       8       9       9       8       9       9       8       9       9
       8       9       9       8       9       9       8       9       9       8
       9       9       8       9       9       8       9       9       8       9
       9       8       9       9       8       9       9       8       9       9
       8       9       9       8       9       9       8       9       9       8
       9       9       8       9       9       8       9       9       8       9
       9       8       9       9       8       9       9       8       9       9
       8       9       9       8       9       9       8       9       9       8
       9       9       8       9       9       8       9       9       8       9
       9       8       9       9       8       9       9       8       9       9
       8       9       9       8       9       9       8       9       9       8
       9       9       8       9       9       8       9       9       8       9
       9       8       9       9       8       9       9       8       9       9
       8       9       9       8       9       9       8       9       9       8
       9       9       8       9       9       8       9       9       8       9
       9       8       9       9       8       9       9       8       9       9
       8       9       9       8       9       9       8       9       9       8
       9       9       8       9       9       8       9       9       8       9
       9       8       9       9       8       9       9       8       9       9
       8       9       9       8       9       9       8       9       9       8
       9       9       8       9       9       8       9       9       8       9
       9       8       9       9       8       9       9       8       9       9
       8       9       9       8       9       9       8       9       9       8
       9       9       8       9       9       8       9       9       8       9
       9       8       9       9       8       9       9       8       9       9
       8       9       9       8       9       9       8       9       9       8
       9       9       8       9       9       8       9       9       8       9
       9       8       9       9       8       9       9       8       9       9
       8       9       9       8       9       9       8       9       9       8
       9       9       8       9       9       8       9       9       8       9
       9       8       9       9       8       9       9       8       9       9
       8       9       9       8       9       9       8       9       9       8
       9       9       8       9       9       8       9       9       8       9
       9       8       9       9       8       9       9       8       9       9
       8       9       9       8       9       9       8       9       9       8
       9       9       8       9       9       8       9       9       8       9
       9       8       9       9       8       9       9       8       9       9
       8       9       9       8       9       9       8       9       9       8
       9       9       8       9       9       8       9       9       8       9
       9       8       9       9       8       9       9       8       9       9
       8       9       9       8       9       9       8       9       9       8
       9       9       8       9       9       8       9       9       8       9
       9       8       9       9       8       9       9       8       9       9
       8       9       9       8       9       9       8       9       9       8
       9       9       8       9       9       8       9       9       8       9
       9       8       9       9       8       9       9       8       9       9
       8       9       9       8       9       9       8       9       9       8
       9       9       8       9       9       8       9       9       8       9
       9       8       9       9       8       9       9       8       9       9
       8       9       9       8       9       9       8       9       9       8
       9       9       8       9       9       8       9       9       8       9
       9       8       9       9       8       9       9       8       9       9
       8       9       9       8       9       9       8       9       9       8
       9       9       8       9       9       8       9       9       8       9
       9       8       9       9       8       9       9       8       9       9
       8       9       9       8       9       9       8       9       9       8
       9       9       8       9       9       8       9       9       8       9
       9       8       9       9       8       9       9       8       9       9
       8       9       9       8       9       9       8       9       9       8
       9       9       8       9       9       8       9       9       8       9
       9       8       9       9       8       9       9       8       9       9
       8       9       9       8       9       9       8       9       9       8
       9       9       8       9       9       8       9       9       8       9
       9       8       9       9       8       9       9       8       9       9
       8       9       9       8       9       9       8       9       9       8
       9       9       8       9       9       8       9       9       8       9
       9       8       9       9       8       9       9       8       9       9
       8       9       9       8       9       9       8       9       9       8
       9       9       8       9       9       8       9       9       8       9
       9       8       9       9       8       9       9       8       9       9
       8       9       9       8       9       9       8       9       9       8
       9       9       8       9       9       8       9       9       8       9
       9       8       9       9       8       9       9       8       9       9
       8       9       9       8       9       9       8       9       9       8
       9       9       8       9       9       8       9       9       8       9
       9       8       9       9       8       9       9       8       9       9
       8       9       9       8       9       9       8       9       9       8
       9       9       8       9       9       8       9       9       8       9
       9       8       9       9       8       9       9       8       9       9
       8       9       9       8       9       9       8       9       9       8
       9       9       8       9       9       8       9       9       8       9
       9       8       9       9       8       9       9       8       9       9
       8       9       9       8       9       9       8       9       9       8
       9       9       8       9       9       8       9       9       8       9
       9       8       9       9       8       9       9       8       9       9
       8       9       9       8       9       9       8       9       9       8
       9       9       8       9       9       8       9       9       8       9
       9       8       9       9       8       9       9       8       9       9
       8       9       9       8       9       9       8       9       9       8
       9       9       8       9       9       8       9       9       8       9
       9       8       9       9       8       9       9       8       9       9
       8       9       9       8       9       9       8       9       9       8
       9       9       8       9       9       8       9       9       8       9
       9       8       9       9       8       9       9       8       9       9
       8       9       9       8       9       9       8       9       9       8
       9       9       8       9       9       8       9       9       8       9
       9       8       9       9       8       9       9       8       9       9
       8       9       9       8       9       9       8       9       9       8
       9       9       8       9       9       8       9       9       8       9
       9       8       9       9       8       9       9       8       9       9
       8       9       9       8       9       9       8       9       9       8
       9       9       8       9       9       8       9       9       8       9
       9       8       9       9       8       9       9       8       9       9
       8       9       9       8       9       9       8       9       9       8
       9       9       8       9       9       8       9       9       8       9
       9       8       9       9       8       9       9       8       9       9
       8       9       9       8       9       9       8       9       9       8
       9       9       8       9       9       8       9       9       8       9
       9       8       9       9       8       9       9       8       9       9
       8       9       9       8       9       9       8       9       9       8
       9       9       8       9       9       8       9       9       8       9
       9       8       9       9       8       9       9       8       9       9
       8       9       9       8       9       9       8       9       9       8
       9       9       8       9       9       8       9       9       8       9
       9       8       9       9       8       9       9       8       9       9
       8       9       9       8       9       9       8       9       9       8
       9       9       8       9       9       8       9       9       8       9
       9       8       9       9       8       9       9       8       9       9
       8       9       9       8       9       9       8       9       9       8
       9       9       8       9       9       8       9       9       8       9
       9       8       9       9       8       9       9       8       9       9
       8       9       9       8       9       9       8       9       9       8
       9       9       8       9       9       8       9       9       8       9
       9       8       9       9       8       9       9       8       9       9
       8       9       9       8       9       9       8       9       9       8
       9       9       8       9       9       8       9       9       8       9
       9       8       9       9       8       9       9       8       9       9
       8       9       9       8       9       9       8       9       9       8
       9       9       8       9       9       8       9       9       8       9
       9       8       9       9       8       9       9       8       9       9
       8       9       9       8       9       9       8       9       9       8
       9       9       8       9       9       8       9       9       8       9
       9       8       9       9       8       9       9       8       9       9
       8       9       9       8       9       9       8       9       9       8
       9       9       8       9       9       8       9       9       8       9
       9       8       9       9       8       9       9       8       9       9
       8       9       9       8       9       9       8       9       9       8
       9       9       8       9       9       8       9       9       8       9
       9       8       9       9       8       9       9       8       9       9
       8       9       9       8       9       9       8       9       9       8
       9       9       8       9       9       8       9       9       8       9
       9       8       9       9       8       9       9       8       9       9
       8       9       9       8       9       9       8       9       9       8
       9       9       8       9       9       8       9       9       8       9
       9       8       9       9       8       9       9       8       9       9
       8       9       9       8       9       9       8       9       9       8
       9       9       8       9       9       8       9       9       8       9
       9       8       9       9       8       9       9       8       9       9
       8       9       9       8       9       9       8       9       9       8
       9       9       8       9       9       8       9       9       8       9
       9       8       9       9       8       9       9       8       9       9
       8       9       9       8       9       9       8       9       9       8
       9       9       8       9       9       8       9       9       8       9
       9       8       9       9       8       9       9       8       9       9
       8       9       9       8       9       9       8       9       9       8
       9       9       8       9       9       8       9       9       8       9
       9       8       9       9       8       9       9       8       9       9
       8       9       9       8       9       9       8       9       9       8
       9       9       8       9       9       8       9       9       8       9
       9       8       9       9       8       9       9       8       9       9
       8       9       9       8       9       9       8       9       9       8
       9       9       8       9       9       8       9       9       8       9
       9       8       9       9       8       9       9       8       9       9
       8       9       9       8       9       9       8       9       9       8
       9       9       8       9       9       8       9       9       8       9
       9       8       9       9       8       9       9       8       9       9
       8       9       9       8       9       9       8       9       9       8
       9       9       8       9       9       8       9       9       8       9
       9       8       9       9       8       9       9       8       9       9
       8       9       9       8       9       9       8       9       9       8
       9       9       8       9       9       8       9       9       8       9
       9       8       9       9       8       9       9       8       9       9
       8       9       9       8       9       9       8       9       9       8
       9       9       8       9       9       8       9       9       8       9
       9       8       9       9       8       9       9       8       9       9
       8       9       9       8       9       9       8       9       9       8
       9       9       8       9       9       8       9       9       8       9
       9       8       9       9       8       9       9       8       9       9
       8       9       9       8       9       9       8       9       9       8
       9       9       8       9       9       8       9       9       8       9
       9       8       9       9       8       9       9       8       9       9
       8       9       9       8       9       9       8       9       9       8
       9       9       8       9       9       8       9       9       8       9
       9       8       9       9       8       9       9       8       9       9
       8       9       9       8       9       9       8       9       9       8
       9       9       8       9       9       8       9       9       8       9
       9       8       9       9       8       9       9       8       9       9
       8       9       9       8       9       9       8       9       9       8
       9       9       8       9       9       8       9       9       8       9
       9       8       9       9       8       9       9       8       9       9
       8       9       9       8       9       9       8       9       9       8
       9       9       8       9       9       8       9       9       8       9
       9       8       9       9       8       9       9       8       9       9
       8       9       9       8       9       9       8       9       9       8
       9       9       8       9       9       8       9       9       8       9
       9       8       9       9       8       9       9       8       9       9
       8       9       9       8       9       9       8       9       9       8
       9       9       8       9       9       8       9       9       8       9
       9       8       9       9       8       9       9       8       9       9
       8       9       9       8       9       9       8       9       9       8
       9       9       8       9       9       8       9       9       8       9
       9       8       9       9       8       9       9       8       9       9
       8       9       9       8       9       9       8       9       9       8
       9       9       8       9       9       8       9       9       8       9
       9       8       9       9       8       9       9       8       9       9
       8       9       9       8       9       9       8       9       9       8
       9       9       8       9       9       8       9       9       8       9
       9       8       9       9       8       9       9       8       9       9
       8       9       9       8       9       9       8       9       9       8
       9       9       8       9       9       8       9       9       8       9
       9       8       9       9       8       9       9       8       9       9
       8       9       9       8       9       9       8       9       9       8
       9       9       8       9       9       8       9       9       8       9
       9       8       9       9       8       9       9       8       9       9
       8       9       9       8       9       9       8       9       9       8
       9       9       8       9       9       8       9       9       8       9
       9       8       9       9       8       9       9       8       9       9
       8       9       9       8       9       9       8       9       9       8
       9       9       8       9       9       8       9       9       8       9
       9       8       9       9       8       9       9       8       9       9
       8       9       9       8       9       9       8       9       9       8
       9       9       8       9       9       8       9       9       8       9
       9       8       9       9       8       9       9       8       9       9
       8       9       9       8       9       9       8       9       9       8
       9       9       8       9       9       8       9       9       8       9
       9       8       9       9       8       9       9       8       9       9
       8       9       9       8       9       9       8       9       9       8
       9       9       8       9       9       8       9       9       8       9
       9       8       9       9       8       9       9       8       9       9
       8       9       9       8       9       9       8       9       9       8
       9       9       8       9       9       8       9       9       8       9
       9       8       9       9       8       9       9       8       9       9
       8       9       9       8       9       9       8       9       9       8
       9       9       8       9       9       8       9       9       8       9
       9       8       9       9       8       9       9       8       9       9
       8       9       9       8       9       9       8       9       9       8
       9       9       8       9       9       8       9       9       8       9
       9       8       9       9       8       9       9       8       9       9
       8       9       9       8       9       9       8       9       9       8
       9       9       8       9       9       8       9       9       8       9
       9       8       9       9       8       9       9       8       9       9
       8       9       9       8       9       9       8       9       9       8
       9       9       8       9       9       8       9       9       8       9
       9       8       9       9       8       9       9       8       9       9
       8       9       9       8       9       9       8       9       9       8
       9       9       8       9       9       8       9       9       8       9
       9       8       9       9       8       9       9       8       9       9
       8       9       9       8       9       9       8       9       9       8
       9       9       8       9       9       8       9       9       8       9
       9       8       9       9       8       9       9       8       9       9
       8       9       9       8       9       9       8       9       9       8
       9       9       8       9       9       8       9       9       8       9
       9       8       9       9       8       9       9       8       9       9
       8       9       9       8       9       9       8       9       9       8
       9       9       8       9       9       8       9       9       8       9
       9       8       9       9       8       9       9       8       9       9
       8       9       9       8       9       9       8       9       9       8
       9       9       8       9       9       8       9       9       8       9
       9       8       9       9       8       9       9       8       9       9
       8       9       9       8       9       9       8       9       9       8
       9       9       8       9       9       8       9       9       8       9
       9       8       9       9       8       9       9       8       9       9
       8       9       9       8       9       9       8       9       9       8
       9       9       8       9       9       8       9       9       8       9
       9       8       9       9       8       9       9       8       9       9
       8       9       9       8       9       9       8       9       9       8
       9       9       8       9       9       8       9       9       8       9
       9       8       9       9       8       9       9       8       9       9
       8       9       9       8       9       9       8       9       9       8
       9       9       8       9       9       8       9       9       8       9
       9       8       9       9       8       9       9       8       9       9
       8       9       9       8       9       9       8       9       9       8
       9       9       8       9       9       8       9       9       8       9
       9       8       9       9       8       9       9       8       9       9
       8       9       9       8       9       9       8       9       9       8
       9       9       8       9       9       8       9       9       8       9
       9       8       9       9       8       9       9       8       9       9
       8       9       9       8       9       9       8       9       9       8
       9       9       8       9       9       8       9       9       8       9
       9       8       9       9       8       9       9       8       9       9
       8       9       9       8       9       9       8       9       9       8
       9       9       8       9       9       8       9       9       8       9
       9       8       9       9       8       9       9       8       9       9
       8       9       9       8       9       9       8       9       9       8
       9       9       8       9       9       8       9       9       8       9
       9       8       9       9       8       9       9       8       9       9
       8       9       9       8       9       9       8       9       9       8
       9       9       8       9       9       8       9       9       8       9
       9       8       9       9       8       9       9       8       9       9
       8       9       9       8       9       9       8       9       9       8
       9       9       8       9       9       8       9       9       8       9
       9       8       9       9       8       9       9       8       9       9
       8       9       9       8       9       9       8       9       9       8
       9       9       8       9       9       8       9       9       8       9
       9       8       9       9       8       9       9       8       9       9
       8       9       9       8       9       9       8       9       9       8
       9       9       8       9       9       8       9       9       8       9
       9       8       9       9       8       9       9       8       9       9
       8       9       9       8       9       9       8       9       9       8
       9       9       8       9       9       8       9       9       8       9
       9       8       9       9       8       9       9       8       9       9
       8       9       9       8       9       9       8       9       9       8
       9       9       8       9       9       8       9       9       8       9
       9       8       9       9       8       9       9       8       9       9
       8       9       9       8       9       9       8       9       9       8
       9       9       8       9       9       8       9       9       8       9
       9       8       9       9       8       9       9       8       9       9
       8       9       9       8       9       9       8       9       9       8
       9       9       8       9       9       8       9       9       8       9
       9       8       9       9       8       9       9       8       9       9
       8       9       9       8       9       9       8       9       9       8
       9       9       8       9       9       8       9       9       8       9
       9       8       9       9       8       9       9       8       9       9
       8       9       9       8       9       9       8       9       9       8
       9       9       8       9       9       8       9       9       8       9
       9       8       9       9       8       9       9       8       9       9
       8       9       9       8       9       9       8       9       9       8
       9       9       8       9       9       8       9       9       8       9
       9       8       9       9       8       9       9       8       9       9
       8       9       9       8       9       9       8       9       9       8
       9       9       8       9       9       8       9       9       8       9
       9       8       9       9       8       9       9       8       9       9
       8       9       9       8       9       9       8       9       9       8
       9       9       8       9       9       8       9       9       8       9
       9       8       9       9       8       9       9       8       9       9
       8       9       9       8       9       9       8       9       9       8
       9       9       8       9       9       8       9       9       8       9
       9       8       9       9       8       9       9       8       9       9
       8       9       9       8       9       9       8       9       9       8
       9       9       8       9       9       8       9       9       8       9
       9       8       9       9       8       9       9       8       9       9
       8       9       9       8       9       9       8       9       9       8
       9       9       8       9       9       8       9       9       8       9
       9       8       9       9       8       9       9       8       9       9
       8       9       9       8       9       9       8       9       9       8
       9       9       8       9       9       8       9       9       8       9
       9       8       9       9       8       9       9       8       9       9
       8       9       9       8       9       9       8       9       9       8
       9       9       8       9       9       8       9       9       8       9
       9       8       9       9       8       9       9       8       9       9
       8       9       9       8       9       9       8       9       9       8
       9       9       8       9       9       8       9       9       8       9
       9       8       9       9       8       9       9       8       9       9
       8       9       9       8       9       9       8       9       9       8
       9       9       8       9       9       8       9       9       8       9
       9       8       9       9       8       9       9       8       9       9
       8       9       9       8       9       9       8       9       9       8
       9       9       8       9       9       8       9       9       8       9
       9       8       9       9       8       9       9       8       9       9
       8       9       9       8       9       9       8       9       9       8
       9       9       8       9       9       8       9       9       8       9
       9       8       9       9       8       9       9       8       9       9
       8       9       9       8       9       9       8       9       9       8
       9       9       8       9       9       8       9       9       8       9
       9       8       9       9       8       9       9       8       9       9
       8       9       9       8       9       9       8       9       9       8
       9       9       8       9       9       8       9       9       8       9
       9       8       9       9       8       9       9       8       9       9
       8       9       9       8       9       9       8       9       9       8
       9       9       8       9       9       8       9       9       8       9
       9       8       9       9       8       9       9       8       9       9
       8       9       9       8       9       9       8       9       9       8
       9       9       8       9       9       8       9       9       8       9
       9       8       9       9       8       9       9       8       9       9
       8       9       9       8       9       9       8       9       9       8
       9       9       8       9       9       8       9       9       8       9
       9       8       9       9       8       9       9       8       9       9
       8       9       9       8       9       9       8       9       9       8
       9       9       8       9       9       8       9       9       8       9
       9       8       9       9       8       9       9       8       9       9
       8       9       9       8       9       9       8       9       9       8
       9       9       8       9       9       8       9       9       8       9
       9       8       9       9       8       9       9       8       9       9
       8       9       9       8       9       9       8       9       9       8
       9       9       8       9       9       8       9       9       8       9
       9       8       9       9       8       9       9       8       9       9
       8       9       9       8       9       9       8       9       9       8
       9       9       8       9       9       8       9       9       8       9
       9       8       9       9       8       9       9       8       9       9
       8       9       9       8       9       9       8       9       9       8
       9       9       8       9       9       8       9       9       8       9
       9       8       9       9       8       9       9       8       9       9
       8       9       9       8       9       9       8       9       9       8
       9       9       8       9       9       8       9       9       8       9
       9       8       9       9       8       9       9       8       9       9
       8       9       9       8       9       9       8       9       9       8
       9       9       8       9       9       8       9       9       8       9
       9       8       9       9       8       9       9       8       9       9
       8       9       9       8       9       9       8       9       9       8
       9       9       8       9       9       8       9       9       8       9
       9       8       9       9       8       9       9       8       9       9
       8       9       9       8       9       9       8       9       9       8
       9       9       8       9       9       8       9       9       8       9
       9       8       9       9       8       9       9       8       9       9
       8       9       9       8       9       9       8       9       9       8
       9       9       8       9       9       8       9       9       8       9
       9       8       9       9       8       9       9       8       9       9
       8       9       9       8       9       9       8       9       9       8
       9       9       8       9       9       8       9       9       8       9
       9       8       9       9       8       9       9       8       9       9
       8       9       9       8       9       9       8       9       9       8
       9       9       8       9       9       8       9       9       8       9
       9       8       9       9       8       9       9       8       9       9
       8       9       9       8       9       9       8       9       9       8
       9       9       8       9       9       8       9       9       8       9
       9       8       9       9       8       9       9       8       9       9
       8       9       9       8       9       9       8       9       9       8
       9       9       8       9       9       8       9       9       8       9
       9       8       9       9       8       9       9       8       9       9
       8       9       9       8       9       9       8       9       9       8
       9       9       8       9       9       8       9       9       8       9
       9       8       9       9       8       9       9       8       9       9
       8       9       9       8       9       9       8       9       9       8
       9       9       8       9       9       8       9       9       8       9
       9       8       9       9       8       9       9       8       9       9
       8       9       9       8       9       9       8       9       9       8
       9       9       8       9       9       8       9       9       8       9
       9       8       9       9       8       9       9       8       9       9
       8       9       9       8       9       9       8       9       9       8
       9       9       8       9       9       8       9       9       8       9
       9       8       9       9       8       9       9       8       9       9
       8       9       9       8       9       9       8       9       9       8
       9       9       8       9       9       8       9       9       8       9
       9       8       9       9       8       9       9       8       9       9
       8       9       9       8       9       9       8       9       9       8
       9       9       8       9       9       8       9       9       8       9
       9       8       9       9       8       9       9       8       9       9
       8       9       9       8       9       9       8       9       9       8
       9       9       8       9       9       8       9       9       8       9
       9       8       9       9       8       9       9       8       9       9
       8       9       9       8       9       9       8       9       9       8
       9       9       8       9       9       8       9       9       8       9
       9       8       9       9       8       9       9       8       9       9
       8       9       9       8       9       9       8       9       9       8
       9       9       8       9       9       8       9       9       8       9
       9       8       9       9       8       9       9       8       9       9
       8       9       9       8       9       9       8       9       9       8
       9       9       8       9       9       8       9       9       8       9
       9       8       9       9       8       9       9       8       9       9
       8       9       9       8       9       9       8       9       9       8
       9       9       8       9       9       8       9       9       8       9
       9       8       9       9       8       9       9       8       9       9
       8       9       9       8       9       9       8       9       9       8
       9       9       8       9       9       8       9       9       8       9
       9       8       9       9       8       9       9       8       9       9
       8       9       9       8       9       9       8       9       9       8
       9       9       8       9       9       8       9       9       8       9
       9       8       9       9       8       9       9       8       9       9
       8       9       9       8       9       9       8       9       9       8
       9       9       8       9       9       8       9       9       8       9
       9       8       9       9       8       9       9       8       9       9
       8       9       9       8       9       9       8       9       9       8
       9       9       8       9       9       8       9       9       8       9
       9       8       9       9       8       9       9       8       9       9
       8       9       9       8       9       9       8       9       9       8
       9       9       8       9       9       8       9       9       8       9
       9       8       9       9       8       9       9       8       9       9
       8       9       9       8       9       9       8       9       9       8
       9       9       8       9       9       8       9       9       8       9
       9       8       9       9       8       9       9       8       9       9
       8       9       9       8       9       9       8       9       9       8
       9       9       8       9       9       8       9       9       8       9
       9       8       9       9       8       9       9       8       9       9
       8       9       9       8       9       9       8       9       9       8
       9       9       8       9       9       8       9       9       8       9
       9       8       9       9       8       9       9       8       9       9
       8       9       9       8       9       9       8       9       9       8
       9       9       8       9       9       8       9       9       8       9
       9       8       9       9       8       9       9       8       9       9
       8       9       9       8       9       9       8       9       9       8
       9       9       8       9       9       8       9       9       8       9
       9       8       9       9       8       9       9       8       9       9
       8       9       9       8       9       9       8       9       9       8
       9       9       8       9       9       8       9       9       8       9
       9       8       9       9       8       9       9       8       9       9
       8       9       9       8       9       9       8       9       9       8
       9       9       8       9       9       8       9       9       8       9
       9       8       9       9       8       9       9       8       9       9
       8       9       9       8       9       9       8       9       9       8
       9       9       8       9       9       8       9       9       8       9
       9       8       9       9       8       9       9       8       9       9
       8       9       9       8       9       9       8       9       9       8
       9       9       8       9       9       8       9       9       8       9
       9       8       9       9       8       9       9       8       9       9
       8       9       9       8       9       9       8       9       9       8
       9       9       8       9       9       8       9       9       8       9
       9       8       9       9       8       9       9       8       9       9
       8       9       9       8       9       9       8       9       9       8
       9       9       8       9       9       8       9       9       8       9
       9       8       9       9       8       9       9       8       9       9
       8       9       9       8       9       9       8       9       9       8
       9       9       8       9       9       8       9       9       8       9
       9       8       9       9       8       9       9       8       9       9
       8       9       9       8       9       9       8       9       9       8
       9       9       8       9       9       8       9       9       8       9
       9       8       9       9       8       9       9       8       9       9
       8       9       9       8       9       9       8       9       9       8
       9       9       8       9       9       8       9       9       8       9
       9       8       9       9       8       9       9       8       9       9
       8       9       9       8       9       9       8       9       9       8
       9       9       8       9       9       8       9       9       8       9
       9       8       9       9       8       9       9       8       9       9
       8       9       9       8       9       9       8       9       9       8
       9       9       8       9       9       8       9       9       8       9
       9       8       9       9       8       9       9       8       9       9
       8       9       9       8       9       9       8       9       9       8
       9       9       8       9       9       8       9       9       8       9
       9       8       9       9       8       9       9       8       9       9
       8       9       9       8       9       9       8       9       9       8
       9       9       8       9       9       8       9       9       8       9
       9       8       9       9       8       9       9       8       9       9
       8       9       9       8       9       9       8       9       9       8
       9       9       8       9       9       8       9       9       8       9
       9       8       9       9       8       9       9       8       9       9
       8       9       9       8       9       9       8       9       9       8
       9       9       8       9       9       8       9       9       8       9
       9       8       9       9       8       9       9       8       9       9
       8       9       9       8       9       9       8       9       9       8
       9       9       8       9       9       8       9       9       8       9
       9       8       9       9       8       9       9       8       9       9
       8       9       9       8       9       9       8       9       9       8
       9       9       8       9       9       8       9       9       8       9
       9       8       9       9       8       9       9       8       9       9
       8       9       9       8       9       9       8       9       9       8
       9       9       8       9       9       8       9       9       8       9
       9       8       9       9       8       9       9       8       9       9
       8       9       9       8       9       9       8       9       9       8
       9       9       8       9       9       8       9       9       8       9
       9       8       9       9       8       9       9       8       9       9
       8       9       9       8       9       9       8       9       9       8
       9       9       8       9       9       8       9       9       8       9
       9       8       9       9       8       9       9       8       9       9
       8       9       9       8       9       9       8       9       9       8
       9       9       8       9       9       8       9       9       8       9
       9       8       9       9       8       9       9       8       9       9
       8       9       9       8       9       9       8       9       9       8
       9       9       8       9       9       8       9       9       8       9
       9       8       9       9       8       9       9       8       9       9
       8       9       9       8       9       9       8       9       9       8
       9       9       8       9       9       8       9       9       8       9
       9       8       9       9       8       9       9       8       9       9
       8       9       9       8       9       9       8       9       9       8
       9       9       8       9       9       8       9       9       8       9
       9       8       9       9       8       9       9       8       9       9
       8       9       9       8       9       9       8       9       9       8
       9       9       8       9       9       8       9       9       8       9
       9       8       9       9       8       9       9       8       9       9
       8       9       9       8       9       9       8       9       9       8
       9       9       8       9       9       8       9       9       8       9
       9       8       9       9       8       9       9       8       9       9
       8       9       9       8       9       9       8       9       9       8
       9       9       8       9       9       8       9       9       8       9
       9       8       9       9       8       9       9       8       9       9
       8       9       9       8       9       9       8       9       9       8
       9       9       8       9       9       8       9       9       8       9
       9       8       9       9       8       9       9       8       9       9
       8       9       9       8       9       9       8       9       9       8
       9       9       8       9       9       8       9       9       8       9
       9       8       9       9       8       9       9       8       9       9
       8       9       9       8       9       9       8       9       9       8
       9       9       8       9       9       8       9       9       8       9
       9       8       9       9       8       9       9       8       9       9
       8       9       9       8       9       9       8       9       9       8
       9       9       8       9       9       8       9       9       8       9
       9       8       9       9       8       9       9       8       9       9
       8       9       9       8       9       9       8       9       9       8
       9       9       8       9       9       8       9       9       8       9
       9       8       9       9       8       9       9       8       9       9
       8       9       9       8       9       9       8       9       9       8
       9       9       8       9       9       8       9       9       8       9
       9       8       9       9       8       9       9       8       9       9
       8       9       9       8       9       9       8       9       9       8
       9       9       8       9       9       8       9       9       8       9
       9       8       9       9       8       9       9       8       9       9
       8       9       9       8       9       9       8       9       9       8
       9       9       8       9       9       8       9       9       8       9
       9       8       9       9       8       9       9       8       9       9
       8       9       9       8       9       9       8       9       9       8
       9       9       8       9       9       8       9       9       8       9
       9       8       9       9       8       9       9       8       9       9
       8       9       9       8       9       9       8       9       9       8
       9       9       8       9       9       8       9       9       8       9
       9       8       9       9       8       9       9       8       9       9
       8       9       9       8       9       9       8       9       9       8
       9       9       8       9       9       8       9       9       8       9
       9       8       9       9       8       9       9       8       9       9
       8       9       9       8       9       9       8       9       9       8
       9       9       8       9       9       8       9       9       8       9
       9       8       9       9       8       9       9       8       9       9
       8       9       9       8       9       9       8       9       9       8
       9       9       8       9       9       8       9       9       8       9
       9       8       9       9       8       9       9       8       9       9
       8       9       9       8       9       9       8       9       9       8
       9       9       8       9       9       8       9       9       8       9
       9       8       9       9       8       9       9       8       9       9
       8       9       9       8       9       9       8       9       9       8
       9       9       8       9       9       8       9       9       8       9
       9       8       9       9       8       9       9       8       9       9
       8       9       9       8       9       9       8       9       9       8
       9       9       8       9       9       8       9       9       8       9
       9       8       9       9       8       9       9       8       9       9
       8       9       9       8       9       9       8       9       9       8
       9       9       8       9       9       8       9       9       8       9
       9       8       9       9       8       9       9       8       9       9
       8       9       9       8       9       9       8       9       9       8
       9       9       8       9       9       8       9       9       8       9
       9       8       9       9       8       9       9       8       9       9
       8       9       9       8       9       9       8       9       9       8
       9       9       8       9       9       8       9       9       8       9
       9       8       9       9       8       9       9       8       9       9
       8       9       9       8       9       9       8       9       9       8
       9       9       8       9       9       8       9       9       8       9
       9       8       9       9       8       9       9       8       9       9
       8       9       9       8       9       9       8       9       9       8
       9       9       8       9       9       8       9       9       8       9
       9       8       9       9       8       9       9       8       9       9
       8       9       9       8       9       9       8       9       9       8
       9       9       8       9       9       8       9       9       8       9
       9       8       9       9       8       9       9       8       9       9
       8       9       9       8       9       9       8       9       9       8
       9       9       8       9       9       8       9       9       8       9
       9       8       9       9       8       9       9       8       9       9
       8       9       9       8       9       9       8       9       9       8
       9       9       8       9       9       8       9       9       8       9
       9       8       9       9       8       9       9       8       9       9
       8       9       9       8       9       9       8       9       9       8
       9       9       8       9       9       8       9       9       8       9
       9       8       9       9       8       9       9       8       9       9
       8       9       9       8       9       9       8       9       9       8
       9       9       8       9       9       8       9       9       8       9
       9       8       9       9       8       9       9       8       9       9
       8       9       9       8       9       9       8       9       9       8
       9       9       8       9       9       8       9       9       8       9
       9       8       9       9       8       9       9       8       9       9
       8       9       9       8       9       9       8       9       9       8
       9       9       8       9       9       8       9       9       8       9
       9       8       9       9       8       9       9       8       9       9
       8       9       9       8       9       9       8       9       9       8
       9       9       8       9       9       8       9       9       8       9
       9       8       9       9       8       9       9       8       9       9
       8       9       9       8       9       9       8       9       9       8
       9       9       8       9       9       8       9       9       8       9
       9       8       9       9       8       9       9       8       9       9
       8       9       9       8       9       9       8       9       9       8
       9       9       8       9       9       8       9       9       8       9
       9       8       9       9       8       9       9       8       9       9
       8       9       9       8       9       9       8       9       9       8
       9       9       8       9       9       8       9       9       8       9
       9       8       9       9       8       9       9       8       9       9
       8       9       9       8       9       9       8       9       9       8
       9       9       8       9       9       8       9       9       8       9
       9       8       9       9       8       9       9       8       9       9
       8       9       9       8       9       9       8       9       9       8
       9       9       8       9       9       8       9       9       8       9
       9       8       9       9       8       9       9       8       9       9
       8       9       9       8       9       9       8       9       9       8
       9       9       8       9       9       8       9       9       8       9
       9       8       9       9       8       9       9       8       9       9
       8       9       9       8       9       9       8       9       9       8
       9       9       8       9       9       8       9       9       8       9
       9       8       9       9       8       9       9       8       9       9
       8       9       9       8       9       9       8       9       9       8
       9       9       8       9       9       8       9       9       8       9
       9       8       9       9       8       9       9       8       9       9
       8       9       9       8       9       9       8       9       9       8
       9       9       8       9       9       8       9       9       8       9
       9       8       9       9       8       9       9       8       9       9
       8       9       9       8       9       9       8       9       9       8
       9       9       8       9       9       8       9       9       8       9
       9       8       9       9       8       9       9       8       9       9
       8       9       9       8       9       9       8       9       9       8
       9       9       8       9       9       8       9       9       8       9
       9       8       9       9       8       9       9       8       9       9
       8       9       9       8       9       9       8       9       9       8
       9       9       8       9       9       8       9       9       8       9
       9       8       9       9       8       9       9       8       9       9
       8       9       9       8       9       9       8       9       9       8
       9       9       8       9       9       8       9       9       8       9
       9       8       9       9       8       9       9       8       9       9
       8       9       9       8       9       9       8       9       9       8
       9       9       8       9       9       8       9       9       8       9
       9       8       9       9       8       9       9       8       9       9
       8       9       9       8       9       9       8       9       9       8
       9       9       8       9       9       8       9       9       8       9
       9       8       9       9       8       9       9       8       9       9
       8       9       9       8       9       9       8       9       9       8
       9       9       8       9       9       8       9       9       8       9
       9       8       9       9       8       9       9       8       9       9
       8       9       9       8       9       9       8       9       9       8
       9       9       8       9       9       8       9       9       8       9
       9       8       9       9       8       9       9       8       9       9
       8       9       9       8       9       9       8       9       9       8
       9       9       8       9       9       8       9       9       8       9
       9       8       9       9       8       9       9       8       9       9
       8       9       9       8       9       9       8       9       9       8
       9       9       8       9       9       8       9       9       8       9
       9       8       9       9       8       9       9       8       9       9
       8       9       9       8       9       9       8       9       9       8
       9       9       8       9       9       8       9       9       8       9
       9       8       9       9       8       9       9       8       9       9
       8       9       9       8       9       9       8       9       9       8
       9       9       8       9       9       8       9       9       8       9
       9       8       9       9       8       9       9       8       9       9
       8       9       9       8       9       9       8       9       9       8
       9       9       8       9       9       8       9       9       8       9
       9       8       9       9       8       9       9       8       9       9
       8       9       9       8       9       9       8       9       9       8
       9       9       8       9       9       8       9       9       8       9
       9       8       9       9       8       9       9       8       9       9
       8       9       9       8       9       9       8       9       9       8
       9       9       8       9       9       8       9       9       8       9
       9       8       9       9       8       9       9       8       9       9
       8       9       9       8       9       9       8       9       9       8
       9       9       8       9       9       8       9       9       8       9
       9       8       9       9       8       9       9       8       9       9
       8       9       9       8       9       9       8       9       9       8
       9       9       8       9       9       8       9       9       8       9
       9       8       9       9       8       9       9       8       9       9
       8       9       9       8       9       9       8       9       9       8
       9       9       8       9       9       8       9       9       8       9
       9       8       9       9       8       9       9       8       9       9
       8       9       9       8       9       9       8       9       9       8
       9       9       8       9       9       8       9       9       8       9
       9       8       9       9       8       9       9       8       9       9
       8       9       9       8       9       9       8       9       9       8
       9       9       8       9       9       8       9       9       8       9
       9       8       9       9       8       9       9       8       9       9
       8       9       9       8       9       9       8       9       9       8
       9       9       8       9       9       8       9       9       8       9
       9       8       9       9       8       9       9       8       9       9
       8       9       9       8       9       9       8       9       9       8
       9       9       8       9       9       8       9       9       8       9
       9       8       9       9       8       9       9       8       9       9
       8       9       9       8       9       9       8       9       9       8
       9       9       8       9       9       8       9       9       8       9
       9       8       9       9       8       9       9       8       9       9
       8       9       9       8       9       9       8       9       9       8
       9       9       8       9       9       8       9       9       8       9
       9       8       9       9       8       9       9       8       9       9
       8       9       9       8       9       9       8       9       9       8
       9       9       8       9       9       8       9       9       8       9
       9       8       9       9       8       9       9       8       9       9
       8       9       9       8       9       9       8       9       9       8
       9       9       8       9       9       8       9       9       8       9
       9       8       9       9       8       9       9       8       9       9
       8       9       9       8       9       9       8       9       9       8
       9       9       8       9       9       8       9       9       8       9
       9       8       9       9       8       9       9       8       9       9
       8       9       9       8       9       9       8       9       9       8
       9       9       8       9       9       8       9       9       8       9
       9       8       9       9       8       9       9       8       9       9
       8       9       9       8       9       9       8       9       9       8
       9       9       8       9       9       8       9       9       8       9
       9       8       9       9       8       9       9       8       9       9
       8       9       9       8       9       9       8       9       9       8
       9       9       8       9       9       8       9       9       8       9
       9       8       9       9       8       9       9       8       9       9
       8       9       9       8       9       9       8       9       9       8
       9       9       8       9       9       8       9       9       8       9
       9       8       9       9       8       9       9       8       9       9
       8       9       9       8       9       9       8       9       9       8
       9       9       8       9       9       8       9       9       8       9
       9       8       9       9       8       9       9       8       9       9
       8       9       9       8       9       9       8       9       9       8
       9       9       8       9       9       8       9       9       8       9
       9       8       9       9       8       9       9       8       9       9
       8       9       9       8       9       9       8       9       9       8
       9       9       8       9       9       8       9       9       8       9
       9       8       9       9       8       9       9       8       9       9
       8       9       9       8       9       9       8       9       9       8
       9       9       8       9       9       8       9       9       8       9
       9       8       9       9       8       9       9       8       9       9
       8       9       9       8       9       9       8       9       9       8
       9       9       8       9       9       8       9       9       8       9
       9       8       9       9       8       9       9       8       9       9
       8       9       9       8       9       9       8       9       9       8
       9       9       8       9       9       8       9       9       8       9
       9       8       9       9       8       9       9       8       9       9
       8       9       9       8       9       9       8       9       9       8
       9       9       8       9       9       8       9       9       8       9
       9       8       9       9       8       9       9       8       9       9
       8       9       9       8       9       9       8       9       9       8
       9       9       8       9       9       8       9       9       8       9
       9       8       9       9       8       9       9       8       9       9
       8       9       9       8       9       9       8       9       9       8
       9       9       8       9       9       8       9       9       8       9
       9       8       9       9       8       9       9       8       9       9
       8       9       9       8       9       9       8       9       9       8
       9       9       8       9       9       8       9       9       8       9
       9       8       9       9       8       9       9       8       9       9
       8       9       9       8       9       9       8       9       9       8
       9       9       8       9       9       8       9       9       8       9
       9       8       9       9       8       9       9       8       9       9
       8       9       9       8       9       9       8       9       9       8
       9       9       8       9       9       8       9       9       8       9
       9       8       9       9       8       9       9       8       9       9
       8       9       9       8       9       9       8       9       9       8
       9       9       8       9       9       8       9       9       8       9
       9       8       9       9       8       9       9       8       9       9
       8       9       9       8       9       9       8       9       9       8
       9       9       8       9       9       8       9       9       8       9
       9       8       9       9       8       9       9       8       9       9
       8       9       9       8       9       9       8       9       9       8
       9       9       8       9       9       8       9       9       8       9
       9       8       9       9       8       9       9       8       9       9
       8       9       9       8       9       9       8       9       9       8
       9       9       8       9       9       8       9       9       8       9
       9       8       9       9       8       9       9       8       9       9
       8       9       9       8       9       9       8       9       9       8
       9       9       8       9       9       8       9       9       8       9
       9       8       9       9       8       9       9       8       9       9
       8       9       9       8       9       9       8       9       9       8
       9       9       8       9       9       8       9       9       8       9
       9       8       9       9       8       9       9       8       9       9
       8       9       9       8       9       9       8       9       9       8
       9       9       8       9       9       8       9       9       8       9
       9       8       9       9       8       9       9       8       9       9
       8       9       9       8       9       9       8       9       9       8
       9       9       8       9       9       8       9       9       8       9
       9       8       9       9       8       9       9       8       9       9
       8       9       9       8       9       9       8       9       9       8
       9       9       8       9       9       8       9       9       8       9
       9       8       9       9       8       9       9       8       9       9
       8       9       9       8       9       9       8       9       9       8
       9       9       8       9       9       8       9       9       8       9
       9       8       9       9       8       9       9       8       9       9
       8       9       9       8       9       9       8       9       9       8
       9       9       8       9       9       8       9       9       8       9
       9       8       9       9       8       9       9       8       9       9
       8       9       9       8       9       9       8       9       9       8
       9       9       8       9       9       8       9       9       8       9
       9       8       9       9       8       9       9       8       9       9
       8       9       9       8       9       9       8       9       9       8
       9       9       8       9       9       8       9       9       8       9
       9       8       9       9       8       9       9       8       9       9
       8       9       9       8       9       9       8       9       9       8
       9       9       8       9       9       8       9       9       8       9
       9       8       9       9       8       9       9       8       9       9
       8       9       9       8       9       9       8       9       9       8
       9       9       8       9       9       8       9       9       8       9
       9       8       9       9       8       9       9       8       9       9
       8       9       9       8       9       9       8       9       9       8
       9       9       8       9       9       8       9       9       8       9
       9       8       9       9       8       9       9       8       9       9
       8       9       9       8       9       9       8       9       9       8
       9       9       8       9       9       8       9       9       8       9
       9       8       9       9       8       9       9       8       9       9
       8       9       9       8       9       9       8       9       9       8
       9       9       8       9       9       8       9       9       8       9
       9       8       9       9       8       9       9       8       9       9
       8       9       9       8       9       9       8       9       9       8
       9       9       8       9       9       8       9       9       8       9
       9       8       9       9       8       9       9       8       9       9
       8       9       9       8       9       9       8       9       9       8
       9       9       8       9       9       8       9       9       8       9
       9       8       9       9       8       9       9       8       9       9
       8       9       9       8       9       9       8       9       9       8
       9       9       8       9       9       8       9       9       8       9
       9       8       9       9       8       9       9       8       9       9
       8       9       9       8       9       9       8       9       9       8
       9       9       8       9       9       8       9       9       8       9
       9       8       9       9       8       9       9       8       9       9
       8       9       9       8       9       9       8       9       9       8
       9       9       8       9       9       8       9       9       8       9
       9       8       9       9       8       9       9       8       9       9
       8       9       9       8       9       9       8       9       9       8
       9       9       8       9       9       8       9       9       8       9
       9       8       9       9       8       9       9       8       9       9
       8       9       9       8       9       9       8       9       9       8
       9       9       8       9       9       8       9       9       8       9
       9       8       9       9       8       9       9       8       9       9
       8       9       9       8       9       9       8       9       9       8
       9       9       8       9       9       8       9       9       8       9
       9       8       9       9       8       9       9       8       9       9
       8       9       9       8       9       9       8       9       9       8
       9       9       8       9       9       8       9       9       8       9
       9       8       9       9       8       9       9       8       9       9
       8       9       9       8       9       9       8       9       9       8
       9       9       8       9       9       8       9       9       8       9
       9       8       9       9       8       9       9       8       9       9
       8       9       9       8       9       9       8       9       9       8
       9       9       8       9       9       8       9       9       8       9
       9       8       9       9       8       9       9       8       9       9
       8       9       9       8       9       9       8       9       9       8
       9       9       8       9       9       8       9       9       8       9
       9       8       9       9       8       9       9       8       9       9
       8       9       9       8       9       9       8       9       9       8
       9       9       8       9       9       8       9       9       8       9
       9       8       9       9       8       9       9       8       9       9
       8       9       9       8       9       9       8       9       9       8
       9       9       8       9       9       8       9       9       8       9
       9       8       9       9       8       9       9       8       9       9
       8       9       9       8       9       9       8       9       9       8
       9       9       8       9       9       8       9       9       8       9
       9       8       9       9       8       9       9       8       9       9
       8       9       9       8       9       9       8       9       9       8
       9       9       8       9       9       8       9       9       8       9
       9       8       9       9       8       9       9       8       9       9
       8       9       9       8       9       9       8       9       9       8
       9       9       8       9       9       8       9       9       8       9
       9       8       9       9       8       9       9       8       9       9
       8       9       9       8       9       9       8       9       9       8
       9       9       8       9       9       8       9       9       8       9
       9       8       9       9       8       9       9       8       9       9
       8       9       9       8       9       9       8       9       9       8
       9       9       8       9       9       8       9       9       8       9
       9       8       9       9       8       9       9       8       9       9
       8       9       9       8       9       9       8       9       9       8
       9       9       8       9       9       8       9       9       8       9
       9       8       9       9       8       9       9       8       9       9
       8       9       9       8       9       9       8       9       9       8
       9       9       8       9       9       8       9       9       8       9
       9       8       9       9       8       9       9       8       9       9
       8       9       9       8       9       9       8       9       9       8
       9       9       8       9       9       8       9       9       8       9
       9       8       9       9       8       9       9       8       9       9
       8       9       9       8       9       9       8       9       9       8
       9       9       8       9       9       8       9       9       8       9
       9       8       9       9       8       9       9       8       9       9
       8       9       9       8       9       9       8       9       9       8
       9       9       8       9       9       8       9       9       8       9
       9       8       9       9       8       9       9       8       9       9
       8       9       9       8       9       9       8       9       9       8
       9       9       8       9       9       8       9       9       8       9
       9       8       9       9       8       9       9       8       9       9
       8       9       9       8       9       9       8       9       9       8
       9       9       8       9       9       8       9       9       8       9
       9       8       9       9       8       9       9       8       9       9
       8       9       9       8       9       9       8       9       9       8
       9       9       8       9       9       8       9       9       8       9
       9       8       9       9       8       9       9       8       9       9
       8       9       9       8       9       9       8       9       9       8
       9       9       8       9       9       8       9       9       8       9
       9       8       9       9       8       9       9       8       9       9
       8       9       9       8       9       9       8       9       9       8
       9       9       8       9       9       8       9       9       8       9
       9       8       9       9       8       9       9       8       9       9
       8       9       9       8       9       9       8       9       9       8
       9       9       8       9       9       8       9       9       8       9
       9       8       9       9       8       9       9       8       9       9
       8       9       9       8       9       9       8       9       9       8
       9       9       8       9       9       8       9       9       8       9
       9       8       9       9       8       9       9       8       9       9
       8       9       9       8       9       9       8       9       9       8
       9       9       8       9       9       8       9       9       8       9
       9       8       9       9       8       9       9       8       9       9
       8       9       9       8       9       9       8       9       9       8
       9       9       8       9       9       8       9       9       8       9
       9       8       9       9       8       9       9       8       9       9
       8       9       9       8       9       9       8       9       9       8
       9       9       8       9       9       8       9       9       8       9
       9       8       9       9       8       9       9       8       9       9
       8       9       9       8       9       9       8       9       9       8
       9       9       8       9       9       8       9       9       8       9
       9       8       9       9       8       9       9       8       9       9
       8       9       9       8       9       9       8       9       9       8
       9       9       8       9       9       8       9       9       8       9
       9       8       9       9       8       9       9       8       9       9
       8       9       9       8       9       9       8       9       9       8
       9       9       8       9       9       8       9       9       8       9
       9       8       9       9       8       9       9       8       9       9
       8       9       9       8       9       9       8       9       9       8
       9       9       8       9       9       8       9       9       8       9
       9       8       9       9       8       9       9       8       9       9
       8       9       9       8       9       9       8       9       9       8
       9       9       8       9       9       8       9       9       8       9
       9       8       9       9       8       9       9       8       9       9
       8       9       9       8       9       9       8       9       9       8
       9       9       8       9       9       8       9       9       8       9
       9       8       9       9       8       9       9       8       9       9
       8       9       9       8       9       9       8       9       9       8
       9       9       8       9       9       8       9       9       8       9
       9       8       9       9       8       9       9       8       9       9
       8       9       9       8       9       9       8       9       9       8
       9       9       8       9       9       8       9       9       8       9
       9       8       9       9       8       9       9       8       9       9
       8       9       9       8       9       9       8       9       9       8
       9       9       8       9       9       8       9       9       8       9
       9       8       9       9       8       9       9       8       9       9
       8       9       9       8       9       9       8       9       9       8
       9       9       8       9       9       8       9       9       8       9
       9       8       9       9       8       9       9       8       9       9
       8       9       9       8       9       9       8       9       9       8
       9       9       8       9       9       8       9       9       8       9
       9       8       9       9       8       9       9       8       9       9
       8       9       9       8       9       9       8       9       9       8
       9       9       8       9       9       8       9       9       8       9
       9       8       9       9       8       9       9       8       9       9
       8       9       9       8       9       9       8       9       9       8
       9       9       8       9       9       8       9       9       8       9
       9       8       9       9       8       9       9       8       9       9
       8       9       9       8       9       9       8       9       9       8
       9       9       8       9       9       8       9       9       8       9
       9       8       9       9       8       9       9       8       9       9
       8       9       9       8       9       9       8       9       9       8
       9       9       8       9       9       8       9       9       8       9
       9       8       9       9       8       9       9       8       9       9
       8       9       9       8       9       9       8       9       9       8
       9       9       8       9       9       8       9       9       8       9
       9       8       9       9       8       9       9       8       9       9
       8       9       9       8       9       9       8       9       9       8
       9       9       8       9       9       8       9       9       8       9
       9       8       9       9       8       9       9       8       9       9
       8       9       9       8       9       9       8       9       9       8
       9       9       8       9       9       8       9       9       8       9
       9       8       9       9       8       9       9       8       9       9
       8       9       9       8       9       9       8       9       9       8
       9       9       8       9       9       8       9       9       8       9
       9       8       9       9       8       9       9       8       9       9
       8       9       9       8       9       9       8       9       9       8
       9       9       8       9       9       8       9       9       8       9
       9       8       9       9       8       9       9       8       9       9
       8       9       9       8       9       9       8       9       9       8
       9       9       8       9       9       8       9       9       8       9
       9       8       9       9       8       9       9       8       9       9
       8       9       9       8       9       9       8       9       9       8
       9       9       8       9       9       8       9       9       8       9
       9       8       9       9       8       9       9       8       9       9
       8       9       9       8       9       9       8       9       9       8
       9       9       8       9       9       8       9       9       8       9
       9       8       9       9       8       9       9       8       9       9
       8       9       9       8       9       9       8       9       9       8
       9       9       8       9       9       8       9       9       8       9
       9       8       9       9       8       9       9       8       9       9
       8       9       9       8       9       9       8       9       9       8
       9       9       8       9       9       8       9       9       8       9
       9       8       9       9       8       9       9       8       9       9
       8       9       9       8       9       9       8       9       9       8
       9       9       8       9       9       8       9       9       8       9
       9       8       9       9       8       9       9       8       9       9
       8       9       9       8       9       9       8       9       9       8
       9       9       8       9       9       8       9       9       8       9
       9       8       9       9       8       9       9       8       9       9
       8       9       9       8       9       9       8       9       9       8
       9       9       8       9       9       8       9       9       8       9
       9       8       9       9       8       9       9       8       9       9
       8       9       9       8       9       9       8       9       9       8
       9       9       8       9       9       8       9       9       8       9
       9       8       9       9       8       9       9       8       9       9
       8       9       9       8       9       9       8       9       9       8
       9       9       8       9       9       8       9       9       8       9
       9       8       9       9       8       9       9       8       9       9
       8       9       9       8       9       9       8       9       9       8
       9       9       8       9       9       8       9       9       8       9
       9       8       9       9       8       9       9       8       9       9
       8       9       9       8       9       9       8       9       9       8
       9       9       8       9       9       8       9       9       8       9
       9       8       9       9       8       9       9       8       9       9
       8       9       9       8       9       9       8       9       9       8
       9       9       8       9       9       8       9       9       8       9
       9       8       9       9       8       9       9       8       9       9
       8       9       9       8       9       9       8       9       9       8
       9       9       8       9       9       8       9       9       8       9
       9       8       9       9       8       9       9       8       9       9
       8       9       9       8       9       9       8       9       9       8
       9       9       8       9       9       8       9       9       8       9
       9       8       9       9       8       9       9       8       9       9
       8       9       9       8       9       9       8       9       9       8
       9       9       8       9       9       8       9       9       8       9
       9       8       9       9       8       9       9       8       9       9
       8       9       9       8       9       9       8       9       9       8
       9       9       8       9       9       8       9       9       8       9
       9       8       9       9       8       9       9       8       9       9
       8       9       9       8       9       9       8       9       9       8
       9       9       8       9       9       8       9       9       8       9
       9       8       9       9       8       9       9       8       9       9
       8       9       9       8       9       9       8       9       9       8
       9       9       8       9       9       8       9       9       8       9
       9       8       9       9       8       9       9       8       9       9
       8       9       9       8       9       9       8       9       9       8
       9       9       8       9       9       8       9       9       8       9
       9       8       9       9       8       9       9       8       9       9
       8       9       9       8       9       9       8       9       9       8
       9       9       8       9       9       8       9       9       8       9
       9       8       9       9       8       9       9       8       9       9
       8       9       9       8       9       9       8       9       9       8
       9       9       8       9       9       8       9       9       8       9
       9       8       9       9       8       9       9       8       9       9
       8       9       9       8       9       9       8       9       9       8
       9       9       8       9       9       8       9       9       8       9
       9       8       9       9       8       9       9       8       9       9
       8       9       9       8       9       9       8       9       9       8
       9       9       8       9       9       8       9       9       8       9
       9       8       9       9       8       9       9       8       9       9
       8       9       9       8       9       9       8       9       9       8
       9       9       8       9       9       8       9       9       8       9
       9       8       9       9       8       9       9       8       9       9
       8       9       9       8       9       9       8       9       9       8
       9       9       8       9       9       8       9       9       8       9
       9       8       9       9       8       9       9       8       9       9
       8       9       9       8       9       9       8       9       9       8
       9       9       8       9       9       8       9       9       8       9
       9       8       9       9       8       9       9       8       9       9
       8       9       9       8       9       9       8       9       9       8
       9       9       8       9       9       8       9       9       8       9
       9       8       9       9       8       9       9       8       9       9
       8       9       9       8       9       9       8       9       9       8
       9       9       8       9       9       8       9       9       8       9
       9       8       9       9       8       9       9       8       9       9
       8       9       9       8       9       9       8       9       9       8
       9       9       8       9       9       8       9       9       8       9
       9       8       9       9       8       9       9       8       9       9
       8       9       9       8       9       9       8       9       9       8
       9       9       8       9       9       8       9       9       8       9
       9       8       9       9       8       9       9       8       9       9
       8       9       9       8       9       9       8       9       9       8
       9       9       8       9       9       8       9       9       8       9
       9       8       9       9       8       9       9       8       9       9
       8       9       9       8       9       9       8       9       9       8
       9       9       8       9       9       8       9       9       8       9
       9       8       9       9       8       9       9       8       9       9
       8       9       9       8       9       9       8       9       9       8
       9       9       8       9       9       8       9       9       8       9
       9       8       9       9       8       9       9       8       9       9
       8       9       9       8       9       9       8       9       9       8
       9       9       8       9       9       8       9       9       8       9
       9       8       9       9       8       9       9       8       9       9
       8       9       9       8       9       9       8       9       9       8
       9       9       8       9       9       8       9       9       8       9
       9       8       9       9       8       9       9       8       9       9
       8       9       9       8       9       9       8       9       9       8
       9       9       8       9       9       8       9       9       8       9
       9       8       9       9       8       9       9       8       9       9
       8       9       9       8       9       9       8       9       9       8
       9       9       8       9       9       8       9       9       8       9
       9       8       9       9       8       9       9       8       9       9
       8       9       9       8       9       9       8       9       9       8
       9       9       8       9       9       8       9       9       8       9
       9       8       9       9       8       9       9       8       9       9
       8       9       9       8       9       9       8       9       9       8
       9       9       8       9       9       8       9       9       8       9
       9       8       9       9       8       9       9       8       9       9
       8       9       9       8       9       9       8       9       9       8
       9       9       8       9       9       8       9       9       8       9
       9       8       9       9       8       9       9       8       9       9
       8       9       9       8       9       9       8       9       9       8
       9       9       8       9       9       8       9       9       8       9
       9       8       9       9       8       9       9       8       9       9
       8       9       9       8       9       9       8       9       9       8
       9       9       8       9       9       8       9       9       8       9
       9       8       9       9       8       9       9       8       9       9
       8       9       9       8       9       9       8       9       9       8
       9       9       8       9       9       8       9       9       8       9
       9       8       9       9       8       9       9       8       9       9
       8       9       9       8       9       9       8       9       9       8
       9       9       8       9       9       8       9       9       8       9
       9       8       9       9       8       9       9       8       9       9
       8       9       9       8       9       9       8       9       9       8
       9       9       8       9       9       8       9       9       8       9
       9       8       9       9       8       9       9       8       9       9
       8       9       9       8       9       9       8       9       9       8
       9       9       8       9       9       8       9       9       8       9
       9       8       9       9       8       9       9       8       9       9
       8       9       9       8       9       9       8       9       9       8
       9       9       8       9       9       8       9       9       8       9
       9       8       9       9       8       9       9       8       9       9
       8       9       9       8       9       9       8       9       9       8
       9       9       8       9       9       8       9       9       8       9
       9       8       9       9       8       9       9       8       9       9
       8       9       9       8       9       9       8       9       9       8
       9       9       8       9       9       8       9       9       8       9
       9       8       9       9       8       9       9       8       9       9
       8       9       9       8       9       9       8       9       9       8
       9       9       8       9       9       8       9       9       8       9
       9       8       9       9       8       9       9       8       9       9
       8       9       9       8       9       9       8       9       9       8
       9       9       8       9       9       8       9       9       8       9
       9       8       9       9       8       9       9       8       9       9
       8       9       9       8       9       9       8       9       9       8
       9       9       8       9       9       8       9       9       8       9
       9       8       9       9       8       9       9       8       9       9
       8       9       9       8       9       9       8       9       9       8
       9       9       8       9       9       8       9       9       8       9
       9       8       9       9       8       9       9       8       9       9
       8       9       9       8       9       9       8       9       9       8
       9       9       8       9       9       8       9       9       8       9
       9       8       9       9       8       9       9       8       9       9
       8       9       9       8       9       9       8       9       9       8
       9       9       8       9       9       8       9       9       8       9
       9       8       9       9       8       9       9       8       9       9
       8       9       9       8       9       9       8       9       9       8
       9       9       8       9       9       8       9       9       8       9
       9       8       9       9       8       9       9       8       9       9
       8       9       9       8       9       9       8       9       9       8
       9       9       8       9       9       8       9       9       8       9
       9       8       9       9       8       9       9       8       9       9
       8       9       9       8       9       9       8       9       9       8
       9       9       8       9       9       8       9       9       8       9
       9       8       9       9       8       9       9       8       9       9
       8       9       9       8       9       9       8       9       9       8
       9       9       8       9       9       8       9       9       8       9
       9       8       9       9       8       9       9       8       9       9
       8       9       9       8       9       9       8       9       9       8
       9       9       8       9       9       8       9       9       8       9
       9       8       9       9       8       9       9       8       9       9
       8       9       9       8       9       9       8       9       9       8
       9       9       8       9       9       8       9       9       8       9
       9       8       9       9       8       9       9       8       9       9
       8       9       9       8       9       9       8       9       9       8
       9       9       8       9       9       8       9       9       8       9
       9       8       9       9       8       9       9       8       9       9
       8       9       9       8       9       9       8       9       9       8
       9       9       8       9       9       8       9       9       8       9
       9       8       9       9       8       9       9       8       9       9
       8       9       9       8       9       9       8       9       9       8
       9       9       8       9       9       8       9       9       8       9
       9       8       9       9       8       9       9       8       9       9
       8       9       9       8       9       9       8       9       9       8
       9       9       8       9       9       8       9       9       8       9
       9       8       9       9       8       9       9       8       9       9
       8       9       9       8       9       9       8       9       9       8
       9       9       8       9       9       8       9       9       8       9
       9       8       9       9       8       9       9       8       9       9
       8       9       9       8       9       9       8       9       9       8
       9       9       8       9       9       8       9       9       8       9
       9       8       9       9       8       9       9       8       9       9
       8       9       9       8       9       9       8       9       9       8
       9       9       8       9       9       8       9       9       8       9
       9       8       9       9       8       9       9       8       9       9
       8       9       9       8       9       9       8       9       9       8
       9       9       8       9       9       8       9       9       8       9
       9       8       9       9       8       9       9       8       9       9
       8       9       9       8       9       9       8       9       9       8
       9       9       8       9       9       8       9       9       8       9
       9       8       9       9       8       9       9       8       9       9
       8       9       9       8       9       9       8       9       9       8
       9       9       8       9       9       8       9       9       8       9
       9       8       9       9       8       9       9       8       9       9
       8       9       9       8       9       9       8       9       9       8
       9       9       8       9       9       8       9       9       8       9
       9       8       9       9       8       9       9       8       9       9
       8       9       9       8       9       9       8       9       9       8
       9       9       8       9       9       8       9       9       8       9
       9       8       9       9       8       9       9       8       9       9
       8       9       9       8       9       9       8       9       9       8
       9       9       8       9       9       8       9       9       8       9
       9       8       9       9       8       9       9       8       9       9
       8       9       9       8       9       9       8       9       9       8
       9       9       8       9       9       8       9       9       8       9
       9       8       9       9       8       9       9       8       9       9
       8       9       9       8       9       9       8       9       9       8
       9       9       8       9       9       8       9       9       8       9
       9       8       9       9       8       9       9       8       9       9
       8       9       9       8       9       9       8       9       9       8
       9       9       8       9       9       8       9       9       8       9
       9       8       9       9       8       9       9       8       9       9
       8       9       9       8       9       9       8       9       9       8
       9       9       8       9       9       8       9       9       8       9
       9       8       9       9       8       9       9       8       9       9
       8       9       9       8       9       9       8       9       9       8
       9       9       8       9       9       8       9       9       8       9
       9       8       9       9       8       9       9       8       9       9
       8       9       9       8       9       9       8       9       9       8
       9       9       8       9       9       8       9       9       8       9
       9       8       9       9       8       9       9       8       9       9
       8       9       9       8       9       9       8       9       9       8
       9       9       8       9       9       8       9       9       8       9
       9       8       9       9       8       9       9       8       9       9
       8       9       9       8       9       9       8       9       9       8
       9       9       8       9       9       8       9       9       8       9
       9       8       9       9       8       9       9       8       9       9
       8       9       9       8       9       9       8       9       9       8
       9       9       8       9       9       8       9       9       8       9
       9       8       9       9       8       9       9       8       9       9
       8       9       9       8       9       9       8       9       9       8
       9       9       8       9       9       8       9       9       8       9
       9       8       9       9       8       9       9       8       9       9
       8       9       9       8       9       9       8       9       9       8
       9       9       8       9       9       8       9       9       8       9
       9       8       9       9       8       9       9       8       9       9
       8       9       9       8       9       9       8       9       9       8
       9       9       8       9       9       8       9       9       8       9
       9       8       9       9       8       9       9       8       9       9
       8       9       9       8       9       9       8       9       9       8
       9       9       8       9       9       8       9       9       8       9
       9       8       9       9       8       9       9       8       9       9
       8       9       9       8       9       9       8       9       9       8
       9       9       8       9       9       8       9       9       8       9
       9       8       9       9       8       9       9       8       9       9
       8       9       9       8       9       9       8       9       9       8
       9       9       8       9       9       8       9       9       8       9
       9       8       9       9       8       9       9       8       9       9
       8       9       9       8       9       9       8       9       9       8
       9       9       8       9       9       8       9       9       8       9
       9       8       9       9       8       9       9       8       9       9
       8       9       9       8       9       9       8       9       9       8
       9       9       8       9       9       8       9       9       8       9
       9       8       9       9       8       9       9       8       9       9
       8       9       9       8       9       9       8       9       9       8
       9       9       8       9       9       8       9       9       8       9
       9       8       9       9       8       9       9       8       9       9
       8       9       9       8       9       9       8       9       9       8
       9       9       8       9       9       8       9       9       8       9
       9       8       9       9       8       9       9       8       9       9
       8       9       9       8       9       9       8       9       9       8
       9       9       8       9       9       8       9       9       8       9
       9       8       9       9       8       9       9       8       9       9
       8       9       9       8       9       9       8       9       9       8
       9       9       8       9       9       8       9       9       8       9
       9       8       9       9       8       9       9       8       9       9
       8       9       9       8       9       9       8       9       9       8
       9       9       8       9       9       8       9       9       8       9
       9       8       9       9       8       9       9       8       9       9
       8       9       9       8       9       9       8       9       9       8
       9       9       8       9       9       8       9       9       8       9
       9       8       9       9       8       9       9       8       9       9
       8       9       9       8       9       9       8       9       9       8
       9       9       8       9       9       8       9       9       8       9
       9       8       9       9       8       9       9       8       9       9
       8       9       9       8       9       9       8       9       9       8
       9       9       8       9       9       8       9       9       8       9
       9       8       9       9       8       9       9       8       9       9
       8       9       9       8       9       9       8       9       9       8
       9       9       8       9       9       8       9       9       8       9
       9       8       9       9       8       9       9       8       9       9
       8       9       9       8       9       9       8       9       9       8
       9       9       8       9       9       8       9       9       8       9
       9       8       9       9       8       9       9       8       9       9
       8       9       9       8       9       9       8       9       9       8
       9       9       8       9       9       8       9       9       8       9
       9       8       9       9       8       9       9       8       9       9
       8       9       9       8       9       9       8       9       9       8
       9       9       8       9       9       8       9       9       8       9
       9       8       9       9       8       9       9       8       9       9
       8       9       9       8       9       9       8       9       9       8
       9       9       8       9       9       8       9       9       8       9
       9       8       9       9       8       9       9       8       9       9
       8       9       9       8       9       9       8       9       9       8
       9       9       8       9       9       8       9       9       8       9
       9       8       9       9       8       9       9       8       9       9
       8       9       9       8       9       9       8       9       9       8
       9       9       8       9       9       8       9       9       8       9
       9       8       9       9       8       9       9       8       9       9
       8       9       9       8       9       9       8       9       9       8
       9       9       8       9       9       8       9       9       8       9
       9       8       9       9       8       9       9       8       9       9
       8       9       9       8       9       9       8       9       9       8
       9       9       8       9       9       8       9       9       8       9
       9       8       9       9       8       9       9       8       9       9
       8       9       9       8       9       9       8       9       9       8
       9       9       8       9       9       8       9       9       8       9
       9       8       9       9       8       9       9       8       9       9
       8       9       9       8       9       9       8       9       9       8
       9       9       8       9       9       8       9       9       8       9
       9       8       9       9       8       9       9       8       9       9
       8       9       9       8       9       9       8       9       9       8
       9       9       8       9       9       8       9       9       8       9
       9       8       9       9       8       9       9       8       9       9
       8       9       9       8       9       9       8       9       9       8
       9       9       8       9       9       8       9       9       8       9
       9       8       9       9       8       9       9       8       9       9
       8       9       9       8       9       9       8       9       9       8
       9       9       8       9       9       8       9       9       8       9
       9       8       9       9       8       9       9       8       9       9
       8       9       9       8       9       9       8       9       9       8
       9       9       8       9       9       8       9       9       8       9
       9       8       9       9       8       9       9       8       9       9
       8       9       9       8       9       9       8       9       9       8
       9       9       8       9       9       8       9       9       8       9
       9       8       9       9       8       9       9       8       9       9
       8       9       9       8       9       9       8       9       9       8
       9       9       8       9       9       8       9       9       8       9
       9       8       9       9       8       9       9       8       9       9
       8       9       9       8       9       9       8       9       9       8
       9       9       8       9       9       8       9       9       8       9
       9       8       9       9       8       9       9       8       9       9
       8       9       9       8       9       9       8       9       9       8
       9       9       8       9       9       8       9       9       8       9
       9       8       9       9       8       9       9       8       9       9
       8       9       9       8       9       9       8       9       9       8
       9       9       8       9       9       8       9       9       8       9
       9       8       9       9       8       9       9       8       9       9
       8       9       9       8       9       9       8       9       9       8
       9       9       8       9       9       8       9       9       8       9
       9       8       9       9       8       9       9       8       9       9
       8       9       9       8       9       9       8       9       9       8
       9       9       8       9       9       8       9       9       8       9
       9       8       9       9       8       9       9       8       9       9
       8       9       9       8       9       9       8       9       9       8
       9       9       8       9       9       8       9       9       8       9
       9       8       9       9       8       9       9       8       9       9
       8       9       9       8       9       9       8       9       9       8
       9       9       8       9       9       8       9       9       8       9
       9       8       9       9       8       9       9       8       9       9
       8       9       9       8       9       9       8       9       9       8
       9       9       8       9       9       8       9       9       8       9
       9       8       9       9       8       9       9       8       9       9
       8       9       9       8       9       9       8       9       9       8
       9       9       8       9       9       8       9       9       8       9
       9       8       9       9       8       9       9       8       9       9
       8       9       9       8       9       9       8       9       9       8
       9       9       8       9       9       8       9       9       8       9
       9       8       9       9       8       9       9       8       9       9
       8       9       9       8       9       9       8       9       9       8
       9       9       8       9       9       8       9       9       8       9
       9       8       9       9       8       9       9       8       9       9
       8       9       9       8       9       9       8       9       9       8
       9       9       8       9       9       8       9       9       8       9
       9       8       9       9       8       9       9       8       9       9
       8       9       9       8       9       9       8       9       9       8
       9       9       8       9       9       8       9       9       8       9
       9       8       9       9       8       9       9       8       9       9
       8       9       9       8       9       9       8       9       9       8
       9       9       8       9       9       8       9       9       8       9
       9       8       9       9       8       9       9       8       9       9
       8       9       9       8       9       9       8       9       9       8
       9       9       8       9       9       8       9       9       8       9
       9       8       9       9       8       9       9       8       9       9
       8       9       9       8       9       9       8       9       9       8
       9       9       8       9       9       8       9       9       8       9
       9       8       9       9       8       9       9       8       9       9
       8       9       9       8       9       9       8       9       9       8
       9       9       8       9       9       8       9       9       8       9
       9       8       9       9       8       9       9       8       9       9
       8       9       9       8       9       9       8       9       9       8
       9       9       8       9       9       8       9       9       8       9
       9       8       9       9       8       9       9       8       9       9
       8       9       9       8       9       9       8       9       9       8
       9       9       8       9       9       8       9       9       8       9
       9       8       9       9       8       9       9       8       9       9
       8       9       9       8       9       9       8       9       9       8
       9       9       8       9       9       8       9       9       8       9
       9       8       9       9       8       9       9       8       9       9
       8       9       9       8       9       9       8       9       9       8
       9       9       8       9       9       8       9       9       8       9
       9       8       9       9       8       9       9       8       9       9
       8       9       9       8       9       9       8       9       9       8
       9       9       8       9       9       8       9       9       8       9
       9       8       9       9       8       9       9       8       9       9
       8       9       9       8       9       9       8       9       9       8
       9       9       8       9       9       8       9       9       8       9
       9       8       9       9       8       9       9       8       9       9
       8       9       9       8       9       9       8       9       9       8
       9       9       8       9       9       8       9       9       8       9
       9       8       9       9       8       9       9       8       9       9
       8       9       9       8       9       9       8       9       9       8
       9       9       8       9       9       8       9       9       8       9
       9       8       9       9       8       9       9       8       9       9
       8       9       9       8       9       9       8       9       9       8
       9       9       8       9       9       8       9       9       8       9
       9       8       9       9       8       9       9       8       9       9
       8       9       9       8       9       9       8       9       9       8
       9       9       8       9       9       8       9       9       8       9
       9       8       9       9       8       9       9       8       9       9
       8       9       9       8       9       9       8       9       9       8
       9       9       8       9       9       8       9       9       8       9
       9       8       9       9       8       9       9       8       9       9
       8       9       9       8       9       9       8       9       9       8
       9       9       8       9       9       8       9       9       8       9
       9       8       9       9       8       9       9       8       9       9
       8       9       9       8       9       9       8       9       9       8
       9       9       8       9       9       8       9       9       8       9
       9       8       9       9       8       9       9       8       9       9
       8       9       9       8       9       9       8       9       9       8
       9       9       8       9       9       8       9       9       8       9
       9       8       9       9       8       9       9       8       9       9
       8       9       9       8       9       9       8       9       9       8
       9       9       8       9       9       8       9       9       8       9
       9       8       9       9       8       9       9       8       9       9
       8       9       9       8       9       9       8       9       9       8
       9       9       8       9       9       8       9       9       8       9
       9       8       9       9       8       9       9       8       9       9
       8       9       9       8       9       9       8       9       9       8
       9       9       8       9       9       8       9       9       8       9
       9       8       9       9       8       9       9       8       9       9
       8       9       9       8       9       9       8       9       9       8
       9       9       8       9       9       8       9       9       8       9
       9       8       9       9       8       9       9       8       9       9
       8       9       9       8       9       9       8       9       9       8
       9       9       8       9       9       8       9       9       8       9
       9       8       9       9       8       9       9       8       9       9
       8       9       9       8       9       9       8       9       9       8
       9       9       8       9       9       8       9       9       8       9
       9       8       9       9       8       9       9       8       9       9
       8       9       9       8       9       9       8       9       9       8
       9       9       8       9       9       8       9       9       8       9
       9       8       9       9       8       9       9       8       9       9
       8       9       9       8       9       9       8       9       9       8
       9       9       8       9       9       8       9       9       8       9
       9       8       9       9       8       9       9       8       9       9
       8       9       9       8       9       9       8       9       9       8
       9       9       8       9       9       8       9       9       8       9
       9       8       9       9       8       9       9       8       9       9
       8       9       9       8       9       9       8       9       9       8
       9       9       8       9       9       8       9       9       8       9
       9       8       9       9       8       9       9       8       9       9
       8       9       9       8       9       9       8       9       9       8
       9       9       8       9       9       8       9       9       8       9
       9       8       9       9       8       9       9       8       9       9
       8       9       9       8       9       9       8       9       9       8
       9       9       8       9       9       8       9       9       8       9
       9       8       9       9       8       9       9       8       9       9
       8       9       9       8       9       9       8       9       9       8
       9       9       8       9       9       8       9       9       8       9
       9       8       9       9       8       9       9       8       9       9
       8       9       9       8       9       9       8       9       9       8
       9       9       8       9       9       8       9       9       8       9
       9       8       9       9       8       9       9       8       9       9
       8       9       9       8       9       9       8       9       9       8
       9       9       8       9       9       8       9       9       8       9
       9       8       9       9       8       9       9       8       9       9
       8       9       9       8       9       9       8       9       9       8
       9       9       8       9       9       8       9       9       8       9
       9       8       9       9       8       9       9       8       9       9
       8       9       9       8       9       9       8       9       9       8
       9       9       8       9       9       8       9       9       8       9
       9       8       9       9       8       9       9       8       9       9
       8       9       9       8       9       9       8       9       9       8
       9       9       8       9       9       8       9       9       8       9
       9       8       9       9       8       9       9       8       9       9
       8       9       9       8       9       9       8       9       9       8
       9       9       8       9       9       8       9       9       8       9
       9       8       9       9       8       9       9       8       9       9
       8       9       9       8       9       9       8       9       9       8
       9       9       8       9       9       8       9       9       8       9
       9       8       9       9       8       9       9       8       9       9
       8       9       9       8       9       9       8       9       9       8
       9       9       8       9       9       8       9       9       8       9
       9       8       9       9       8       9       9       8       9       9
       8       9       9       8       9       9       8       9       9       8
       9       9       8       9       9       8       9       9       8       9
       9       8       9       9       8       9       9       8       9       9
       8       9       9       8       9       9       8       9       9       8
       9       9       8       9       9       8       9       9       8       9
       9       8       9       9       8       9       9       8       9       9
       8       9       9       8       9       9       8       9       9       8
       9       9       8       9       9       8       9       9       8       9
       9       8       9       9       8       9       9       8       9       9
       8       9       9       8       9       9       8       9       9       8
       9       9       8       9       9       8       9       9       8       9
       9       8       9       9       8       9       9       8       9       9
       8       9       9       8       9       9       8       9       9       8
       9       9       8       9       9       8       9       9       8       9
       9       8       9       9       8       9       9       8       9       9
       8       9       9       8       9       9       8       9       9       8
       9       9       8       9       9       8       9       9       8       9
       9       8       9       9       8       9       9       8       9       9
       8       9       9       8       9       9       8       9       9       8
       9       9       8       9       9       8       9       9       8       9
       9       8       9       9       8       9       9       8       9       9
       8       9       9       8       9       9       8       9       9       8
       9       9       8       9       9       8       9       9       8       9
       9       8       9       9       8       9       9       8       9       9
       8       9       9       8       9       9       8       9       9       8
       9       9       8       9       9       8       9       9       8       9
       9       8       9       9       8       9       9       8       9       9
       8       9       9       8       9       9       8       9       9       8
       9       9       8       9       9       8       9       9       8       9
       9       8       9       9       8       9       9       8       9       9
       8       9       9       8       9       9       8       9       9       8
       9       9       8       9       9       8       9       9       8       9
       9       8       9       9       8       9       9       8       9       9
       8       9       9       8       9       9       8       9       9       8
       9       9       8       9       9       8       9       9       8       9
       9       8       9       9       8       9       9       8       9       9
       8       9       9       8       9       9       8       9       9       8
       9       9       8       9       9       8       9       9       8       9
       9       8       9       9       8       9       9       8       9       9
       8       9       9       8       9       9       8       9       9       8
       9       9       8       9       9       8       9       9       8       9
       9       8       9       9       8       9       9       8       9       9
       8       9       9       8       9       9       8       9       9       8
       9       9       8       9       9       8       9       9       8       9
       9       8       9       9       8       9       9       8       9       9
       8       9       9       8       9       9       8       9       9       8
       9       9       8       9       9       8       9       9       8       9
       9       8       9       9       8       9       9       8       9       9
       8       9       9       8       9       9       8       9       9       8
       9       9       8       9       9       8       9       9       8       9
       9       8       9       9       8       9       9       8       9       9
       8       9       9       8       9       9       8       9       9       8
       9       9       8       9       9       8       9       9       8       9
       9       8       9       9       8       9       9       8       9       9
       8       9       9       8       9       9       8       9       9       8
       9       9       8       9       9       8       9       9       8       9
       9       8       9       9       8       9       9       8       9       9
       8       9       9       8       9       9       8       9       9       8
       9       9       8       9       9       8       9       9       8       9
       9       8       9       9       8       9       9       8       9       9
       8       9       9       8       9       9       8       9       9       8
       9       9       8       9       9       8       9       9       8       9
       9       8       9       9       8       9       9       8       9       9
       8       9       9       8       9       9       8       9       9       8
       9       9       8       9       9       8       9       9       8       9
       9       8       9       9       8       9       9       8       9       9
       8       9       9       8       9       9       8       9       9       8
       9       9       8       9       9       8       9       9       8       9
       9       8       9       9       8       9       9       8       9       9
       8       9       9       8       9       9       8       9       9       8
       9       9       8       9       9       8       9       9       8       9
       9       8       9       9       8       9       9       8       9       9
       8       9       9       8       9       9       8       9       9       8
       9       9       8       9       9       8       9       9       8       9
       9       8       9       9       8       9       9       8       9       9
       8       9       9       8       9       9       8       9       9       8
       9       9       8       9       9       8       9       9       8       9
       9       8       9       9       8       9       9       8       9       9
       8       9       9       8       9       9       8       9       9       8
       9       9       8       9       9       8       9       9       8       9
       9       8       9       9       8       9       9       8       9       9
       8       9       9       8       9       9       8       9       9       8
       9       9       8       9       9       8       9       9       8       9
       9       8       9       9       8       9       9       8       9       9
       8       9       9       8       9       9       8       9       9       8
       9       9       8       9       9       8       9       9       8       9
       9       8       9       9       8       9       9       8       9       9
       8       9       9       8       9       9       8       9       9       8
       9       9       8       9       9       8       9       9       8       9
       9       8       9       9       8       9       9       8       9       9
       8       9       9       8       9       9       8       9       9       8
       9       9       8       9       9       8       9       9       8       9
       9       8       9       9       8       9       9       8       9       9
       8       9       9       8       9       9       8       9       9       8
       9       9       8       9       9       8       9       9       8       9
       9       8       9       9       8       9       9       8       9       9
       8       9       9       8       9       9       8       9       9       8
       9       9       8       9       9       8       9       9       8       9
       9       8       9       9       8       9       9       8       9       9
       8       9       9       8       9       9       8       9       9       8
       9       9       8       9       9       8       9       9       8       9
       9       8       9       9       8       9       9       8       9       9
       8       9       9       8       9       9       8       9       9       8
       9       9       8       9       9       8       9       9       8       9
       9       8       9       9       8       9       9       8       9       9
       8       9       9       8       9       9       8       9       9       8
       9       9       8       9       9       8       9       9       8       9
       9       8       9       9       8       9       9       8       9       9
       8       9       9       8       9       9       8       9       9       8
       9       9       8       9       9       8       9       9       8       9
       9       8       9       9       8       9       9       8       9       9
       8       9       9       8       9       9       8       9       9       8
       9       9       8       9       9       8       9       9       8       9
       9       8       9       9       8       9       9       8       9       9
       8       9       9       8       9       9       8       9       9       8
       9       9       8       9       9       8       9       9       8       9
       9       8       9       9       8       9       9       8       9       9
       8       9       9       8       9       9       8       9       9       8
       9       9       8       9       9       8       9       9       8       9
       9       8       9       9       8       9       9       8       9       9
       8       9       9       8       9       9       8       9       9       8
       9       9       8       9       9       8       9       9       8       9
       9       8       9       9       8       9       9       8       9       9
       8       9       9       8       9       9       8       9       9       8
       9       9       8       9       9       8       9       9       8       9
       9       8       9       9       8       9       9       8       9       9
       8       9       9       8       9       9       8       9       9       8
       9       9       8       9       9       8       9       9       8       9
       9       8       9       9       8       9       9       8       9       9
       8       9       9       8       9       9       8       9       9       8
       9       9       8       9       9       8       9       9       8       9
       9       8       9       9       8       9       9       8       9       9
       8       9       9       8       9       9       8       9       9       8
       9       9       8       9       9       8       9       9       8       9
       9       8       9       9       8       9       9       8       9       9
       8       9       9       8       9       9       8       9       9       8
       9       9       8       9       9       8       9       9       8       9
       9       8       9       9       8       9       9       8       9       9
       8       9       9       8       9       9       8       9       9       8
       9       9       8       9       9       8       9       9       8       9
       9       8       9       9       8       9       9       8       9       9
       8       9       9       8       9       9       8       9       9       8
       9       9       8       9       9       8       9       9       8       9
       9       8       9       9       8       9       9       8       9       9
       8       9       9       8       9       9       8       9       9       8
       9       9       8       9       9       8       9       9       8       9
       9       8       9       9       8       9       9       8       9       9
       8       9       9       8       9       9       8       9       9       8
       9       9       8       9       9       8       9       9       8       9
       9       8       9       9       8       9       9       8       9       9
       8       9       9       8       9       9       8       9       9       8
       9       9       8       9       9       8       9       9       8       9
       9       8       9       9       8       9       9       8       9       9
       8       9       9       8       9       9       8       9       9       8
       9       9       8       9       9       8       9       9       8       9
       9       8       9       9       8       9       9       8       9       9
       8       9       9       8       9       9       8       9       9       8
       9       9       8       9       9       8       9       9       8       9
       9       8       9       9       8       9       9       8       9       9
       8       9       9       8       9       9       8       9       9       8
       9       9       8       9       9       8       9       9       8       9
       9       8       9       9       8       9       9       8       9       9
       8       9       9       8       9       9       8       9       9       8
       9       9       8       9       9       8       9       9       8       9
       9       8       9       9       8       9       9       8       9       9
       8       9       9       8       9       9       8       9       9       8
       9       9       8       9       9       8       9       9       8       9
       9       8       9       9       8       9       9       8       9       9
       8       9       9       8       9       9       8       9       9       8
       9       9       8       9       9       8       9       9       8       9
       9       8       9       9       8       9       9       8       9       9
       8       9       9       8       9       9       8       9       9       8
       9       9       8       9       9       8       9       9       8       9
       9       8       9       9       8       9       9       8       9       9
       8       9       9       8       9       9       8       9       9       8
       9       9       8       9       9       8       9       9       8       9
       9       8       9       9       8       9       9       8       9       9
       8       9       9       8       9       9       8       9       9       8
       9       9       8       9       9       8       9       9       8       9
       9       8       9       9       8       9       9       8       9       9
       8       9       9       8       9       9       8       9       9       8
       9       9       8       9       9       8       9       9       8       9
       9       8       9       9       8       9       9       8       9       9
       8       9       9       8       9       9       8       9       9       8
       9       9       8       9       9       8       9       9       8       9
       9       8       9       9       8       9       9       8       9       9
       8       9       9       8       9       9       8       9       9       8
       9       9       8       9       9       8       9       9       8       9
       9       8       9       9       8       9       9       8       9       9
       8       9       9       8       9       9       8       9       9       8
       9       9       8       9       9       8       9       9       8       9
       9       8       9       9       8       9       9       8       9       9
       8       9       9       8       9       9       8       9       9       8
       9       9       8       9       9       8       9       9       8       9
       9       8       9       9       8       9       9       8       9       9
       8       9       9       8       9       9       8       9       9       8
       9       9       8       9       9       8       9       9       8       9
       9       8       9       9       8       9       9       8       9       9
       8       9       9       8       9       9       8       9       9       8
       9       9       8       9       9       8       9       9       8       9
       9       8       9       9       8       9       9       8       9       9
       8       9       9       8       9       9       8       9       9       8
       9       9       8       9       9       8       9       9       8       9
       9       8       9       9       8       9       9       8       9       9
       8       9       9       8       9       9       8       9       9       8
       9       9       8       9       9       8       9       9       8       9
       9       8       9       9       8       9       9       8       9       9
       8       9       9       8       9       9       8       9       9       8
       9       9       8       9       9       8       9       9       8       9
       9       8       9       9       8       9       9       8       9       9
       8       9       9       8       9       9       8       9       9       8
       9       9       8       9       9       8       9       9       8       9
       9       8       9       9       8       9       9       8       9       9
       8       9       9       8       9       9       8       9       9       8
       9       9       8       9       9       8       9       9       8       9
       9       8       9       9       8       9       9       8       9       9
       8       9       9       8       9       9       8       9       9       8
       9       9       8       9       9       8       9       9       8       9
       9       8       9       9       8       9       9       8       9       9
       8       9       9       8       9       9       8       9       9       8
       9       9       8       9       9       8       9       9       8       9
       9       8       9       9       8       9       9       8       9       9
       8       9       9       8       9       9       8       9       9       8
       9       9       8       9       9       8       9       9       8       9
       9       8       9       9       8       9       9       8       9       9
       8       9       9       8       9       9       8       9       9       8
       9       9       8       9       9       8       9       9       8       9
       9       8       9       9       8       9       9       8       9       9
       8       9       9       8       9       9       8       9       9       8
       9       9       8       9       9       8       9       9       8       9
       9       8       9       9       8       9       9       8       9       9
       8       9       9       8       9       9       8       9       9       8
       9       9       8       9       9       8       9       9       8       9
       9       8       9       9       8       9       9       8       9       9
       8       9       9       8       9       9       8       9       9       8
       9       9       8       9       9       8       9       9       8       9
       9       8       9       9       8       9       9       8       9       9
       8       9       9       8       9       9       8       9       9       8
       9       9       8       9       9       8       9       9       8       9
       9       8       9       9       8       9       9       8       9       9
       8       9       9       8       9       9       8       9       9       8
       9       9       8       9       9       8       9       9       8       9
       9       8       9       9       8       9       9       8       9       9
       8       9       9       8       9       9       8       9       9       8
       9       9       8       9       9       8       9       9       8       9
       9       8       9       9       8       9       9       8       9       9
       8       9       9       8       9       9       8       9       9       8
       9       9       8       9       9       8       9       9       8       9
       9       8       9       9       8       9       9       8       9       9
       8       9       9       8       9       9       8       9       9       8
       9       9       8       9       9       8       9       9       8       9
       9       8       9       9       8       9       9       8       9       9
       8       9       9       8       9       9       8       9       9       8
       9       9       8       9       9       8       9       9       8       9
       9       8       9       9       8       9       9       8       9       9
       8       9       9       8       9       9       8       9       9       8
       9       9       8       9       9       8       9       9       8       9
       9       8       9       9       8       9       9       8       9       9
       8       9       9       8       9       9       8       9       9       8
       9       9       8       9       9       8       9       9       8       9
       9       8       9       9       8       9       9       8       9       9
       8       9       9       8       9       9       8       9       9       8
       9       9       8       9       9       8       9       9       8       9
       9       8       9       9       8       9       9       8       9       9
       8       9       9       8       9       9       8       9       9       8
       9       9       8       9       9       8       9       9       8       9
       9       8       9       9       8       9       9       8       9       9
       8       9       9       8       9       9       8       9       9       8
       9       9       8       9       9       8       9       9       8       9
       9       8       9       9       8       9       9       8       9       9
       8       9       9       8       9       9       8       9       9       8
       9       9       8       9       9       8       9       9       8       9
       9       8       9       9       8       9       9       8       9       9
       8       9       9       8       9       9       8       9       9       8
       9       9       8       9       9       8       9       9       8       9
       9       8       9       9       8       9       9       8       9       9
       8       9       9       8       9       9       8       9       9       8
       9       9       8       9       9       8       9       9       8       9
       9       8       9       9       8       9       9       8       9       9
       8       9       9       8       9       9       8       9       9       8
       9       9       8       9       9       8       9       9       8       9
       9       8       9       9       8       9       9       8       9       9
       8       9       9       8       9       9       8       9       9       8
       9       9       8       9       9       8       9       9       8       9
       9       8       9       9       8       9       9       8       9       9
       8       9       9       8       9       9       8       9       9       8
       9       9       8       9       9       8       9       9       8       9
       9       8       9       9       8       9       9       8       9       9
       8       9       9       8       9       9       8       9       9       8
       9       9       8       9       9       8       9       9       8       9
       9       8       9       9       8       9       9       8       9       9
       8       9       9       8       9       9       8       9       9       8
       9       9       8       9       9       8       9       9       8       9
       9       8       9       9       8       9       9       8       9       9
       8       9       9       8       9       9       8       9       9       8
       9       9       8       9       9       8       9       9       8       9
       9       8       9       9       8       9       9       8       9       9
       8       9       9       8       9       9       8       9       9       8
       9       9       8       9       9       8       9       9       8       9
       9       8       9       9       8       9       9       8       9       9
       8       9       9       8       9       9       8       9       9       8
       9       9       8       9       9       8       9       9       8       9
       9       8       9       9       8       9       9       8       9       9
       8       9       9       8       9       9       8       9       9       8
       9       9       8       9       9       8       9       9       8       9
       9       8       9       9       8       9       9       8       9       9
       8       9       9       8       9       9       8       9       9       8
       9       9       8       9       9       8       9       9       8       9
       9       8       9       9       8       9       9       8       9       9
       8       9       9       8       9       9       8       9       9       8
       9       9       8       9       9       8       9       9       8       9
       9       8       9       9       8       9       9       8       9       9
       8       9       9       8       9       9       8       9       9       8
       9       9       8       9       9       8       9       9       8       9
       9       8       9       9       8       9       9       8       9       9
       8       9       9       8       9       9       8       9       9       8
       9       9       8       9       9       8       9       9       8       9
       9       8       9       9       8       9       9       8       9       9
       8       9       9       8       9       9       8       9       9       8
       9       9       8       9       9       8       9       9       8       9
       9       8       9       9       8       9       9       8       9       9
       8       9       9       8       9       9       8       9       9       8
       9       9       8       9       9       8       9       9       8       9
       9       8       9       9       8       9       9       8       9       9
       8       9       9       8       9       9       8       9       9       8
       9       9       8       9       9       8       9       9       8       9
       9       8       9       9       8       9       9       8       9       9
       8       9       9       8       9       9       8       9       9       8
       9       9       8       9       9       8       9       9       8       9
       9       8       9       9       8       9       9       8       9       9
       8       9       9       8       9       9       8       9       9       8
       9       9       8       9       9       8       9       9       8       9
       9       8       9       9       8       9       9       8       9       9
       8       9       9       8       9       9       8       9       9       8
       9       9       8       9       9       8       9       9       8       9
       9       8       9       9       8       9       9       8       9       9
       8       9       9       8       9       9       8       9       9       8
       9       9       8       9       9       8       9       9       8       9
       9       8       9       9       8       9       9       8       9       9
       8       9       9       8       9       9       8       9       9       8
       9       9       8       9       9       8       9       9       8       9
       9       8       9       9       8       9       9       8       9       9
       8       9       9       8       9       9       8       9       9       8
       9       9       8       9       9       8       9       9       8       9
       9       8       9       9       8       9       9       8       9       9
       8       9       9       8       9       9       8       9       9       8
       9       9       8       9       9       8       9       9       8       9
       9       8       9       9       8       9       9       8       9       9
       8       9       9       8       9       9       8       9       9       8
       9       9       8       9       9       8       9       9       8       9
       9       8       9       9       8       9       9       8       9       9
       8       9       9       8       9       9       8       9       9       8
       9       9       8       9       9       8       9       9       8       9
       9       8       9       9       8       9       9       8       9       9
       8       9       9       8       9       9       8       9       9       8
       9       9       8       9       9       8       9       9       8       9
       9       8       9       9       8       9       9       8       9       9
       8       9       9       8       9       9       8       9       9       8
       9       9       8       9       9       8       9       9       8       9
       9       8       9       9       8       9       9       8       9       9
       8       9       9       8       9       9       8       9       9       8
       9       9       8       9       9       8       9       9       8       9
       9       8       9       9       8       9       9       8       9       9
       8       9       9       8       9       9       8       9       9       8
       9       9       8       9       9       8       9       9       8       9
       9       8       9       9       8       9       9       8       9       9
       8       9       9       8       9       9       8       9       9       8
       9       9       8       9       9       8       9       9       8       9
       9       8       9       9       8       9       9       8       9       9
       8       9       9       8       9       9       8       9       9       8
       9       9       8       9       9       8       9       9       8       9
       9       8       9       9       8       9       9       8       9       9
       8       9       9       8       9       9       8       9       9       8
       9       9       8       9       9       8       9       9       8       9
       9       8       9       9       8       9       9       8       9       9
       8       9       9       8       9       9       8       9       9       8
       9       9       8       9       9       8       9       9       8       9
       9       8       9       9       8       9       9       8       9       9
       8       9       9       8       9       9       8       9       9       8
       9       9       8       9       9       8       9       9       8       9
       9       8       9       9       8       9       9       8       9       9
       8       9       9       8       9       9       8       9       9       8
       9       9       8       9       9       8       9       9       8       9
       9       8       9       9       8       9       9       8       9       9
       8       9       9       8       9       9       8       9       9       8
       9       9       8       9       9       8       9       9       8       9
       9       8       9       9       8       9       9       8       9       9
       8       9       9       8       9       9       8       9       9       8
       9       9       8       9       9       8       9       9       8       9
       9       8       9       9       8       9       9       8       9       9
       8       9       9       8       9       9       8       9       9       8
       9       9       8       9       9       8       9       9       8       9
       9       8       9       9       8       9       9       8       9       9
       8       9       9       8       9       9       8       9       9       8
       9       9       8       9       9       8       9       9       8       9
       9       8       9       9       8       9       9       8       9       9
       8       9       9       8       9       9       8       9       9       8
       9       9       8       9       9       8       9       9       8       9
       9       8       9       9       8       9       9       8       9       9
       8       9       9       8       9       9       8       9       9       8
       9       9       8       9       9       8       9       9       8       9
       9       8       9       9       8       9       9       8       9       9
       8       9       9       8       9       9       8       9       9       8
       9       9       8       9       9       8       9       9       8       9
       9       8       9       9       8       9       9       8       9       9
       8       9       9       8       9       9       8       9       9       8
       9       9       8       9       9       8       9       9       8       9
       9       8       9       9       8       9       9       8       9       9
       8       9       9       8       9       9       8       9       9       8
       9       9       8       9       9       8       9       9       8       9
       9       8       9       9       8       9       9       8       9       9
       8       9       9       8       9       9       8       9       9       8
       9       9       8       9       9       8       9       9       8       9
       9       8       9       9       8       9       9       8       9       9
       8       9       9       8       9       9       8       9       9       8
       9       9       8       9       9       8       9       9       8       9
       9       8       9       9       8       9       9       8       9       9
       8       9       9       8       9       9       8       9       9       8
       9       9       8       9       9       8       9       9       8       9
       9       8       9       9       8       9       9       8       9       9
       8       9       9       8       9       9       8       9       9       8
       9       9       8       9       9       8       9       9       8       9
       9       8       9       9       8       9       9       8       9       9
       8       9       9       8       9       9       8       9       9       8
       9       9       8       9       9       8       9       9       8       9
       9       8       9       9       8       9       9       8       9       9
       8       9       9       8       9       9       8       9       9       8
       9       9       8       9       9       8       9       9       8       9
       9       8       9       9       8       9       9       8       9       9
       8       9       9       8       9       9       8       9       9       8
       9       9       8       9       9       8       9       9       8       9
       9       8       9       9       8       9       9       8       9       9
       8       9       9       8       9       9       8       9       9       8
       9       9       8       9       9       8       9       9       8       9
       9       8       9       9       8       9       9       8       9       9
       8       9       9       8       9       9       8       9       9       8
       9       9       8       9       9       8       9       9       8       9
       9       8       9       9       8       9       9       8       9       9
       8       9       9       8       9       9       8       9       9       8
       9       9       8       9       9       8       9       9       8       9
       9       8       9       9       8       9       9       8       9       9
       8       9       9       8       9       9       8       9       9       8
       9       9       8       9       9       8       9       9       8       9
       9       8       9       9       8       9       9       8       9       9
       8       9       9       8       9       9       8       9       9       8
       9       9       8       9       9       8       9       9       8       9
       9       8       9       9       8       9       9       8       9       9
       8       9       9       8       9       9       8       9       9       8
       9       9       8       9       9       8       9       9       8       9
       9       8       9       9       8       9       9       8       9       9
       8       9       9       8       9       9       8       9       9       8
       9       9       8       9       9       8       9       9       8       9
       9       8       9       9       8       9       9       8       9       9
       8       9       9       8       9       9       8       9       9       8
       9       9       8       9       9       8       9       9       8       9
       9       8       9       9       8       9       9       8       9       9
       8       9       9       8       9       9       8       9       9       8
       9       9       8       9       9       8       9       9       8       9
       9       8       9       9       8       9       9       8       9       9
       8       9       9       8       9       9       8       9       9       8
       9       9       8       9       9       8       9       9       8       9
       9       8       9       9       8       9       9       8       9       9
       8       9       9       8       9       9       8       9       9       8
       9       9       8       9       9       8       9       9       8       9
       9       8       9       9       8       9       9       8       9       9
       8       9       9       8       9       9       8       9       9       8
       9       9       8       9       9       8       9       9       8       9
       9       8       9       9       8       9       9       8       9       9
       8       9       9       8       9       9       8       9       9       8
       9       9       8       9       9       8       9       9       8       9
       9       8       9       9       8       9       9       8       9       9
       8       9       9       8       9       9       8       9       9       8
       9       9       8       9       9       8       9       9       8       9
       9       8       9       9       8       9       9       8       9       9
       8       9       9       8       9       9       8       9       9       8
       9       9       8       9       9       8       9       9       8       9
       9       8       9       9       8       9       9       8       9       9
       8       9       9       8       9       9       8       9       9       8
       9       9       8       9       9       8       9       9       8       9
       9       8       9       9       8       9       9       8       9       9
       8       9       9       8       9       9       8       9       9       8
       9       9       8       9       9       8       9       9       8       9
       9       8       9       9       8       9       9       8       9       9
       8       9       9       8       9       9       8       9       9       8
       9       9       8       9       9       8       9       9       8       9
       9       8       9       9       8       9       9       8       9       9
       8       9       9       8       9       9       8       9       9       8
       9       9       8       9       9       8       9       9       8       9
       9       8       9       9       8       9       9       8       9       9
       8       9       9       8       9       9       8       9       9       8
       9       9       8       9       9       8       9       9       8       9
       9       8       9       9       8       9       9       8       9       9
       8       9       9       8       9       9       8       9       9       8
       9       9       8       9       9       8       9       9       8       9
       9       8       9       9       8       9       9       8       9       9
       8       9       9       8       9       9       8       9       9       8
       9       9       8       9       9       8       9       9       8       9
       9       8       9       9       8       9       9       8       9       9
       8       9       9       8       9       9       8       9       9       8
       9       9       8       9       9       8       9       9       8       9
       9       8       9       9       8       9       9       8       9       9
       8       9       9       8       9       9       8       9       9       8
       9       9       8       9       9       8       9       9       8       9
       9       8       9       9       8       9       9       8       9       9
       8       9       9       8       9       9       8       9       9       8
       9       9       8       9       9       8       9       9       8       9
       9       8       9       9       8       9       9       8       9       9
       8       9       9       8       9       9       8       9       9       8
       9       9       8       9       9       8       9       9       8       9
       9       8       9       9       8       9       9       8       9       9
       8       9       9       8       9       9       8       9       9       8
       9       9       8       9       9       8       9       9       8       9
       9       8       9       9       8       9       9       8       9       9
       8       9       9       8       9       9       8       9       9       8
       9       9       8       9       9       8       9       9       8       9
       9       8       9       9       8       9       9       8       9       9
       8       9       9       8       9       9       8       9       9       8
       9       9       8       9       9       8       9       9       8       9
       9       8       9       9       8       9       9       8       9       9
       8       9       9       8       9       9       8       9       9       8
       9       9       8       9       9       8       9       9       8       9
       9       8       9       9       8       9       9       8       9       9
       8       9       9       8       9       9       8       9       9       8
       9       9       8       9       9       8       9       9       8       9
       9       8       9       9       8       9       9       8       9       9
       8       9       9       8       9       9       8       9       9       8
       9       9       8       9       9       8       9       9       8       9
       9       8       9       9       8       9       9       8       9       9
       8       9       9       8       9       9       8       9       9       8
       9       9       8       9       9       8       9       9       8       9
       9       8       9       9       8       9       9       8       9       9
       8       9       9       8       9       9       8       9       9       8
       9       9       8       9       9       8       9       9       8       9
       9       8       9       9       8       9       9       8       9       9
       8       9       9       8       9       9       8       9       9       8
       9       9       8       9       9       8       9       9       8       9
       9       8       9       9       8       9       9       8       9       9
       8       9       9       8       9       9       8       9       9       8
       9       9       8       9       9       8       9       9       8       9
       9       8       9       9       8       9       9       8       9       9
       8       9       9       8       9       9       8       9       9       8
       9       9       8       9       9       8       9       9       8       9
       9       8       9       9       8       9       9       8       9       9
       8       9       9       8       9       9       8       9       9       8
       9       9       8       9       9       8       9       9       8       9
       9       8       9       9       8       9       9       8       9       9
       8       9       9       8       9       9       8       9       9       8
       9       9       8       9       9       8       9       9       8       9
       9       8       9       9       8       9       9       8       9       9
       8       9       9       8       9       9       8       9       9       8
       9       9       8       9       9       8       9       9       8       9
       9       8       9       9       8       9       9       8       9       9
       8       9       9       8       9       9       8       9       9       8
       9       9       8       9       9       8       9       9       8       9
       9       8       9       9       8       9       9       8       9       9
       8       9       9       8       9       9       8       9       9       8
       9       9       8       9       9       8       9       9       8       9
       9       8       9       9       8       9       9       8       9       9
       8       9       9       8       9       9       8       9       9       8
       9       9       8       9       9       8       9       9       8       9
       9       8       9       9       8       9       9       8       9       9
       8       9       9       8       9       9       8       9       9       8
       9       9       8       9       9       8       9       9       8       9
       9       8       9       9       8       9       9       8       9       9
       8       9       9       8       9       9       8       9       9       8
       9       9       8       9       9       8       9       9       8       9
       9       8       9       9       8       9       9       8       9       9
       8       9       9       8       9       9       8       9       9       8
       9       9       8       9       9       8       9       9       8       9
       9       8       9       9       8       9       9       8       9       9
       8       9       9       8       9       9       8       9       9       8
       9       9       8       9       9       8       9       9       8       9
       9       8       9       9       8       9       9       8       9       9
       8       9       9       8       9       9       8       9       9       8
       9       9       8       9       9       8       9       9       8       9
       9       8       9       9       8       9       9       8       9       9
       8       9       9       8       9       9       8       9       9       8
       9       9       8       9       9       8       9       9       8       9
       9       8       9       9       8       9       9       8       9       9
       8       9       9       8       9       9       8       9       9       8
       9       9       8       9       9       8       9       9       8       9
       9       8       9       9       8       9       9       8       9       9
       8       9       9       8       9       9       8       9       9       8
       9       9       8       9       9       8       9       9       8       9
       9       8       9       9       8       9       9       8       9       9
       8       9       9       8       9       9       8       9       9       8
       9       9       8       9       9       8       9       9       8       9
       9       8       9       9       8       9       9       8       9       9
       8       9       9       8       9       9       8       9       9       8
       9       9       8       9       9       8       9       9       8       9
       9       8       9       9       8       9       9       8       9       9
       8       9       9       8       9       9       8       9       9       8
       9       9       8       9       9       8       9       9       8       9
       9       8       9       9       8       9       9       8       9       9
       8       9       9       8       9       9       8       9       9       8
       9       9       8       9       9       8       9       9       8       9
       9       8       9       9       8       9       9       8       9       9
       8       9       9       8       9       9       8       9       9       8
       9       9       8       9       9       8       9       9       8       9
       9       8       9       9       8       9       9       8       9       9
       8       9       9       8       9       9       8       9       9       8
       9       9       8       9       9       8       9       9       8       9
       9       8       9       9       8       9       9       8       9       9
       8       9       9       8       9       9       8       9       9       8
       9       9       8       9       9       8       9       9       8       9
       9       8       9       9       8       9       9       8       9       9
       8       9       9       8       9       9       8       9       9       8
       9       9       8       9       9       8       9       9       8       9
       9       8       9       9       8       9       9       8       9       9
       8       9       9       8       9       9       8       9       9       8
       9       9       8       9       9       8       9       9       8       9
       9       8       9       9       8       9       9       8       9       9
       8       9       9       8       9       9       8       9       9       8
       9       9       8       9       9       8       9       9       8       9
       9       8       9       9       8       9       9       8       9       9
       8       9       9       8       9       9       8       9       9       8
       9       9       8       9       9       8       9       9       8       9
       9       8       9       9       8       9       9       8       9       9
       8       9       9       8       9       9       8       9       9       8
       9       9       8       9       9       8       9       9       8       9
       9       8       9       9       8       9       9       8       9       9
       8       9       9       8       9       9       8       9       9       8
       9       9       8       9       9       8       9       9       8       9
       9       8       9       9       8       9       9       8       9       9
       8       9       9       8       9       9       8       9       9       8
       9       9       8       9       9       8       9       9       8       9
       9       8       9       9       8       9       9       8       9       9
       8       9       9       8       9       9       8       9       9       8
       9       9       8       9       9       8       9       9       8       9
       9       8       9       9       8       9       9       8       9       9
       8       9       9       8       9       9       8       9       9       8
       9       9       8       9       9       8       9       9       8       9
       9       8       9       9       8       9       9       8       9       9
       8       9       9       8       9       9       8       9       9       8
       9       9       8       9       9       8       9       9       8       9
       9       8       9       9       8       9       9       8       9       9
       8       9       9       8       9       9       8       9       9       8
       9       9       8       9       9       8       9       9       8       9
       9       8       9       9       8       9       9       8       9       9
       8       9       9       8       9       9       8       9       9       8
       9       9       8       9       9       8       9       9       8       9
       9       8       9       9       8       9       9       8       9       9
       8       9       9       8       9       9       8       9       9       8
       9       9       8       9       9       8       9       9       8       9
       9       8       9       9       8       9       9       8       9       9
       8       9       9       8       9       9       8       9       9       8
       9       9       8       9       9       8       9       9       8       9
       9       8       9       9       8       9       9       8       9       9
       8       9       9       8       9       9       8       9       9       8
       9       9       8       9       9       8       9       9       8       9
       9       8       9       9       8       9       9       8       9       9
       8       9       9       8       9       9       8       9       9       8
       9       9       8       9       9       8       9       9       8       9
       9       8       9       9       8       9       9       8       9       9
       8       9       9       8       9       9       8       9       9       8
       9       9       8       9       9       8       9       9       8       9
       9       8       9       9       8       9       9       8       9       9
       8       9       9       8       9       9       8       9       9       8
       9       9       8       9       9       8       9       9       8       9
       9       8       9       9       8       9       9       8       9       9
       8       9       9       8       9       9       8       9       9       8
       9       9       8       9       9       8       9       9       8       9
       9       8       9       9       8       9       9       8       9       9
       8       9       9       8       9       9       8       9       9       8
       9       9       8       9       9       8       9       9       8       9
       9       8       9       9       8       9       9       8       9       9
       8       9       9       8       9       9       8       9       9       8
       9       9       8       9       9       8       9       9       8       9
       9       8       9       9       8       9       9       8       9       9
       8       9       9       8       9       9       8       9       9       8
       9       9       8       9       9       8       9       9       8       9
       9       8       9       9       8       9       9       8       9       9
       8       9       9       8       9       9       8       9       9       8
       9       9       8       9       9       8       9       9       8       9
       9       8       9       9       8       9       9       8       9       9
       8       9       9       8       9       9       8       9       9       8
       9       9       8       9       9       8       9       9       8       9
       9       8       9       9       8       9       9       8       9       9
       8       9       9       8       9       9       8       9       9       8
       9       9       8       9       9       8       9       9       8       9
       9       8       9       9       8       9       9       8       9       9
       8       9       9       8       9       9       8       9       9       8
       9       9       8       9       9       8       9       9       8       9
       9       8       9       9       8       9       9       8       9       9
       8       9       9       8       9       9       8       9       9       8
       9       9       8       9       9       8       9       9       8       9
       9       8       9       9       8       9       9       8       9       9
       8       9       9       8       9       9       8       9       9       8
       9       9       8       9       9       8       9       9       8       9
       9       8       9       9       8       9       9       8       9       9
       8       9       9       8       9       9       8       9       9       8
       9       9       8       9       9       8       9       9       8       9
       9       8       9       9       8       9       9       8       9       9
       8       9       9       8       9       9       8       9       9       8
       9       9       8       9       9       8       9       9       8       9
       9       8       9       9       8       9       9       8       9       9
       8       9       9       8       9       9       8       9       9       8
       9       9       8       9       9       8       9       9       8       9
       9       8       9       9       8       9       9       8       9       9
       8       9       9       8       9       9       8       9       9       8
       9       9       8       9       9       8       9       9       8       9
       9       8       9       9       8       9       9       8       9       9
       8       9       9       8       9       9       8       9       9       8
       9       9       8       9       9       8       9       9       8       9
       9       8       9       9       8       9       9       8       9       9
       8       9       9       8       9       9       8       9       9       8
       9       9       8       9       9       8       9       9       8       9
       9       8       9       9       8       9       9       8       9       9
       8       9       9       8       9       9       8       9       9       8
       9       9       8       9       9       8       9       9       8       9
       9       8       9       9       8       9       9       8       9       9
       8       9       9       8       9       9       8       9       9       8
       9       9       8       9       9       8       9       9       8       9
       9       8       9       9       8       9       9       8       9       9
       8       9       9       8       9       9       8       9       9       8
       9       9       8       9       9       8       9       9       8       9
       9       8       9       9       8       9       9       8       9       9
       8       9       9       8       9       9       8       9       9       8
       9       9       8       9       9       8       9       9       8       9
       9       8       9       9       8       9       9       8       9       9
       8       9       9       8       9       9       8       9       9       8
       9       9       8       9       9       8       9       9       8       9
       9       8       9       9       8       9       9       8       9       9
       8       9       9       8       9       9       8       9       9       8
       9       9       8       9       9       8       9       9       8       9
       9       8       9       9       8       9       9       8       9       9
       8       9       9       8       9       9       8       9       9       8
       9       9       8       9       9       8       9       9       8       9
       9       8       9       9       8       9       9       8       9       9
       8       9       9       8       9       9       8       9       9       8
       9       9       8       9       9       8       9       9       8       9
       9       8       9       9       8       9       9       8       9       9
       8       9       9       8       9       9       8       9       9       8
       9       9       8       9       9       8       9       9       8       9
       9       8       9       9       8       9       9       8       9       9
       8       9       9       8       9       9       8       9       9       8
       9       9       8       9       9       8       9       9       8       9
       9       8       9       9       8       9       9       8       9       9
       8       9       9       8       9       9       8       9       9       8
       9       9       8       9       9       8       9       9       8       9
       9       8       9       9       8       9       9       8       9       9
       8       9       9       8       9       9       8       9       9       8
       9       9       8       9       9       8       9       9       8       9
       9       8       9       9       8       9       9       8       9       9
       8       9       9       8       9       9       8       9       9       8
       9       9       8       9       9       8       9       9       8       9
       9       8       9       9       8       9       9       8       9       9
       8       9       9       8       9       9       8       9       9       8
       9       9       8       9       9       8       9       9       8       9
       9       8       9       9       8       9       9       8       9       9
       8       9       9       8       9       9       8       9       9       8
       9       9       8       9       9       8       9       9       8       9
       9       8       9       9       8       9       9       8       9       9
       8       9       9       8       9       9       8       9       9       8
       9       9       8       9       9       8       9       9       8       9
       9       8       9       9       8       9       9       8       9       9
       8       9       9       8       9       9       8       9       9       8
       9       9       8       9       9       8       9       9       8       9
       9       8       9       9       8       9       9       8       9       9
       8       9       9       8       9       9       8       9       9       8
       9       9       8       9       9       8       9       9       8       9
       9       8       9       9       8       9       9       8       9       9
       8       9       9       8       9       9       8       9       9       8
       9       9       8       9       9       8       9       9       8       9
       9       8       9       9       8       9       9       8       9       9
       8       9       9       8       9       9       8       9       9       8
       9       9       8       9       9       8       9       9       8       9
       9       8       9       9       8       9       9       8       9       9
       8       9       9       8       9       9       8       9       9       8
       9       9       8       9       9       8       9       9       8       9
       9       8       9       9       8       9       9       8       9       9
       8       9       9       8       9       9       8       9       9       8
       9       9       8       9       9       8       9       9       8       9
       9       8       9       9       8       9       9       8       9       9
       8       9       9       8       9       9       8       9       9       8
       9       9       8       9       9       8       9       9       8       9
       9       8       9       9       8       9       9       8       9       9
       8       9       9       8       9       9       8       9       9       8
       9       9       8       9       9       8       9       9       8       9
       9       8       9       9       8       9       9       8       9       9
       8       9       9       8       9       9       8       9       9       8
       9       9       8       9       9       8       9       9       8       9
       9       8       9       9       8       9       9       8       9       9
       8       9       9       8       9       9       8       9       9       8
       9       9       8       9       9       8       9       9       8       9
       9       8       9       9       8       9       9       8       9       9
       8       9       9       8       9       9       8       9       9       8
       9       9       8       9       9       8       9       9       8       9
       9       8       9       9       8       9       9       8       9       9
       8       9       9       8       9       9       8       9       9       8
       9       9       8       9       9       8       9       9       8       9
       9       8       9       9       8       9       9       8       9       9
       8       9       9       8       9       9       8       9       9       8
       9       9       8       9       9       8       9       9       8       9
       9       8       9       9       8       9       9       8       9       9
       8       9       9       8       9       9       8       9       9       8
       9       9       8       9       9       8       9       9       8       9
       9       8       9       9       8       9       9       8       9       9
       8       9       9       8       9       9       8       9       9       8
       9       9       8       9       9       8       9       9       8       9
       9       8       9       9       8       9       9       8       9       9
       8       9       9       8       9       9       8       9       9       8
       9       9       8       9       9       8       9       9       8       9
       9       8       9       9       8       9       9       8       9       9
       8       9       9       8       9       9       8       9       9       8
       9       9       8       9       9       8       9       9       8       9
       9       8       9       9       8       9       9       8       9       9
       8       9       9       8       9       9       8       9       9       8
       9       9       8       9       9       8       9       9       8       9
       9       8       9       9       8       9       9       8       9       9
       8       9       9       8       9       9       8       9       9       8
       9       9       8       9       9       8       9       9       8       9
       9       8       9       9       8       9       9       8       9       9
       8       9       9       8       9       9       8       9       9       8
       9       9       8       9       9       8       9       9       8       9
       9       8       9       9       8       9       9       8       9       9
       8       9       9       8       9       9       8       9       9       8
       9       9       8       9       9       8       9       9       8       9
       9       8       9       9       8       9       9       8       9       9
       8       9       9       8       9       9       8       9       9       8
       9       9       8       9       9       8       9       9       8       9
       9       8       9       9       8       9       9       8       9       9
       8       9       9       8       9       9       8       9       9       8
       9       9       8       9       9       8       9       9       8       9
       9       8       9       9       8       9       9       8       9       9
       8       9       9       8       9       9       8       9       9       8
       9       9       8       9       9       8       9       9       8       9
       9       8       9       9       8       9       9       8       9       9
       8       9       9       8       9       9       8       9       9       8
       9       9       8       9       9       8       9       9       8       9
       9       8       9       9       8       9       9       8       9       9
       8       9       9       8       9       9       8       9       9       8
       9       9       8       9       9       8       9       9       8       9
       9       8       9       9       8       9       9       8       9       9
       8       9       9       8       9       9       8       9       9       8
       9       9       8       9       9       8       9       9       8       9
       9       8       9       9       8       9       9       8       9       9
       8       9       9       8       9       9       8       9       9       8
       9       9       8       9       9       8       9       9       8       9
       9       8       9       9       8       9       9       8       9       9
       8       9       9       8       9       9       8       9       9       8
       9       9       8       9       9       8       9       9       8       9
       9       8       9       9       8       9       9       8       9       9
       8       9       9       8       9       9       8       9       9       8
       9       9       8       9       9       8       9       9       8       9
       9       8       9       9       8       9       9       8       9       9
       8       9       9       8       9       9       8       9       9       8
       9       9       8       9       9       8       9       9       8       9
       9       8       9       9       8       9       9       8       9       9
       8       9       9       8       9       9       8       9       9       8
       9       9       8       9       9       8       9       9       8       9
       9       8       9       9       8       9       9       8       9       9
       8       9       9       8       9       9       8       9       9       8
       9       9       8       9       9       8       9       9       8       9
       9       8       9       9       8       9       9       8       9       9
       8       9       9       8       9       9       8       9       9       8
       9       9       8       9       9       8       9       9       8       9
       9       8       9       9       8       9       9       8       9       9
       8       9       9       8       9       9       8       9       9       8
       9       9       8       9       9       8       9       9       8       9
       9       8       9       9       8       9       9       8       9       9
       8       9       9       8       9       9       8       9       9       8
       9       9       8       9       9       8       9       9       8       9
       9       8       9       9       8       9       9       8       9       9
       8       9       9       8       9       9       8       9       9       8
       9       9       8       9       9       8       9       9       8       9
       9       8       9       9       8       9       9       8       9       9
       8       9       9       8       9       9       8       9       9       8
       9       9       8       9       9       8       9       9       8       9
       9       8       9       9       8       9       9       8       9       9
       8       9       9       8       9       9       8       9       9       8
       9       9       8       9       9       8       9       9       8       9
       9       8       9       9       8       9       9       8       9       9
       8       9       9       8       9       9       8       9       9       8
       9       9       8       9       9       8       9       9       8       9
       9       8       9       9       8       9       9       8       9       9
       8       9       9       8       9       9       8       9       9       8
       9       9       8       9       9       8       9       9       8       9
       9       8       9       9       8       9       9       8       9       9
       8       9       9       8       9       9       8       9       9       8
       9       9       8       9       9       8       9       9       8       9
       9       8       9       9       8       9       9       8       9       9
       8       9       9       8       9       9       8       9       9       8
       9       9       8       9       9       8       9       9       8       9
       9       8       9       9       8       9       9       8       9       9
       8       9       9       8       9       9       8       9       9       8
       9       9       8       9       9       8       9       9       8       9
       9       8       9       9       8       9       9       8       9       9
       8       9       9       8       9       9       8       9       9       8
       9       9       8       9       9       8       9       9       8       9
       9       8       9       9       8       9       9       8       9       9
       8       9       9       8       9       9       8       9       9       8
       9       9       8       9       9       8       9       9       8       9
       9       8       9       9       8       9       9       8       9       9
       8       9       9       8       9       9       8       9       9       8
       9       9       8       9       9       8       9       9       8       9
       9       8       9       9       8       9       9       8       9       9
       8       9       9       8       9       9       8       9       9       8
       9       9       8       9       9       8       9       9       8       9
       9       8       9       9       8       9       9       8       9       9
       8       9       9       8       9       9       8       9       9       8
       9       9       8       9       9       8       9       9       8       9
       9       8       9       9       8       9       9       8       9       9
       8       9       9       8       9       9       8       9       9       8
       9       9       8       9       9       8       9       9       8       9
       9       8       9       9       8       9       9       8       9       9
       8       9       9       8       9       9       8       9       9       8
       9       9       8       9       9       8       9       9       8       9
       9       8       9       9       8       9       9       8       9       9
       8       9       9       8       9       9       8       9       9       8
       9       9       8       9       9       8       9       9       8       9
       9       8       9       9       8       9       9       8       9       9
       8       9       9       8       9       9       8       9       9       8
       9       9       8       9       9       8       9       9       8       9
       9       8       9       9       8       9       9       8       9       9
       8       9       9       8       9       9       8       9       9       8
       9       9       8       9       9       8       9       9       8       9
       9       8       9       9       8       9       9       8       9       9
       8       9       9       8       9       9       8       9       9       8
       9       9       8       9       9       8       9       9       8       9
       9       8       9       9       8       9       9       8       9       9
       8       9       9       8       9       9       8       9       9       8
       9       9       8       9       9       8       9       9       8       9
       9       8       9       9       8       9       9       8       9       9
       8       9       9       8       9       9       8       9       9       8
       9       9       8       9       9       8       9       9       8       9
       9       8       9       9       8       9       9       8       9       9
       8       9       9       8       9       9       8       9       9       8
       9       9       8       9       9       8       9       9       8       9
       9       8       9       9       8       9       9       8       9       9
       8       9       9       8       9       9       8       9       9       8
       9       9       8       9       9       8       9       9       8       9
       9       8       9       9       8       9       9       8       9       9
       8       9       9       8       9       9       8       9       9       8
       9       9       8       9       9       8       9       9       8       9
       9       8       9       9       8       9       9       8       9       9
       8       9       9       8       9       9       8       9       9       8
       9       9       8       9       9       8       9       9       8       9
       9       8       9       9       8       9       9       8       9       9
       8       9       9       8       9       9       8       9       9       8
       9       9       8       9       9       8       9       9       8       9
       9       8       9       9       8       9       9       8       9       9
       8       9       9       8       9       9       8       9       9       8
       9       9       8       9       9       8       9       9       8       9
       9       8       9       9       8       9       9       8       9       9
       8       9       9       8       9       9       8       9       9       8
       9       9       8       9       9       8       9       9       8       9
       9       8       9       9       8       9       9       8       9       9
       8       9       9       8       9       9       8       9       9       8
       9       9       8       9       9       8       9       9       8       9
       9       8       9       9       8       9       9       8       9       9
       8       9       9       8       9       9       8       9       9       8
       9       9       8       9       9       8       9       9       8       9
       9       8       9       9       8       9       9       8       9       9
       8       9       9       8       9       9       8       9       9       8
       9       9       8       9       9       8       9       9       8       9
       9       8       9       9       8       9       9       8       9       9
       8       9       9       8       9       9       8       9       9       8
       9       9       8       9       9       8       9       9       8       9
       9       8       9       9       8       9       9       8       9       9
       8       9       9       8       9       9       8       9       9       8
       9       9       8       9       9       8       9       9       8       9
       9       8       9       9       8       9       9       8       9       9
       8       9       9       8       9       9       8       9       9       8
       9       9       8       9       9       8       9       9       8       9
       9       8       9       9       8       9       9       8       9       9
       8       9       9       8       9       9       8       9       9       8
       9       9       8       9       9       8       9       9       8       9
       9       8       9       9       8       9       9       8       9       9
       8       9       9       8       9       9       8       9       9       8
       9       9       8       9       9       8       9       9       8       9
       9       8       9       9       8       9       9       8       9       9
       8       9       9       8       9       9       8       9       9       8
       9       9       8       9       9       8       9       9       8       9
       9       8       9       9       8       9       9       8       9       9
       8       9       9       8       9       9       8       9       9       8
       9       9       8       9       9       8       9       9       8       9
       9       8       9       9       8       9       9       8       9       9
       8       9       9       8       9       9       8       9       9       8
       9       9       8       9       9       8       9       9       8       9
       9       8       9       9       8       9       9       8       9       9
       8       9       9       8       9       9       8       9       9       8
       9       9       8       9       9       8       9       9       8       9
       9       8       9       9       8       9       9       8       9       9
       8       9       9       8       9       9       8       9       9       8
       9       9       8       9       9       8       9       9       8       9
       9       8       9       9       8       9       9       8       9       9
       8       9       9       8       9       9       8       9       9       8
       9       9       8       9       9       8       9       9       8       9
       9       8       9       9       8       9       9       8       9       9
       8       9       9       8       9       9       8       9       9       8
       9       9       8       9       9       8       9       9       8       9
       9       8       9       9       8       9       9       8       9       9
       8       9       9       8       9       9       8       9       9       8
       9       9       8       9       9       8       9       9       8       9
       9       8       9       9       8       9       9       8       9       9
       8       9       9       8       9       9       8       9       9       8
       9       9       8       9       9       8       9       9       8       9
       9       8       9       9       8       9       9       8       9       9
       8       9       9       8       9       9       8       9       9       8
       9       9       8       9       9       8       9       9       8       9
       9       8       9       9       8       9       9       8       9       9
       8       9       9       8       9       9       8       9       9       8
       9       9       8       9       9       8       9       9       8       9
       9       8       9       9       8       9       9       8       9       9
       8       9       9       8       9       9       8       9       9       8
       9       9       8       9       9       8       9       9       8       9
       9       8       9       9       8       9       9       8       9       9
       8       9       9       8       9       9       8       9       9       8
       9       9       8       9       9       8       9       9       8       9
       9       8       9       9       8       9       9       8       9       9
       8       9       9       8       9       9       8       9       9       8
       9       9       8       9       9       8       9       9       8       9
       9       8       9       9       8       9       9       8       9       9
       8       9       9       8       9       9       8       9       9       8
       9       9       8       9       9       8       9       9       8       9
       9       8       9       9       8       9       9       8       9       9
       8       9       9       8       9       9       8       9       9       8
       9       9       8       9       9       8       9       9       8       9
       9       8       9       9       8       9       9       8       9       9
       8       9       9       8       9       9       8       9       9       8
       9       9       8       9       9       8       9       9       8       9
       9       8       9       9       8       9       9       8       9       9
       8       9       9       8       9       9       8       9       9       8
       9       9       8       9       9       8       9       9       8       9
       9       8       9       9       8       9       9       8       9       9
       8       9       9       8       9       9       8       9       9       8
       9       9       8       9       9       8       9       9       8       9
       9       8       9       9       8       9       9       8       9       9
       8       9       9       8       9       9       8       9       9       8
       9       9       8       9       9       8       9       9       8       9
       9       8       9       9       8       9       9       8       9       9
       8       9       9       8       9       9       8       9       9       8
       9       9       8       9       9       8       9       9       8       9
       9       8       9       9       8       9       9       8       9       9
       8       9       9       8       9       9       8       9       9       8
       9       9       8       9       9       8       9       9       8       9
       9       8       9       9       8       9       9       8       9       9
       8       9       9       8       9       9       8       9       9       8
       9       9       8       9       9       8       9       9       8       9
       9       8       9       9       8       9       9       8       9       9
       8       9       9       8       9       9       8       9       9       8
       9       9       8       9       9       8       9       9       8       9
       9       8       9       9       8       9       9       8       9       9
       8       9       9       8       9       9       8       9       9       8
       9       9       8       9       9       8       9       9       8       9
       9       8       9       9       8       9       9       8       9       9
       8       9       9       8       9       9       8       9       9       8
       9       9       8       9       9       8       9       9       8       9
       9       8       9       9       8       9       9       8       9       9
       8       9       9       8       9       9       8       9       9       8
       9       9       8       9       9       8       9       9       8       9
       9       8       9       9       8       9       9       8       9       9
       8       9       9       8       9       9       8       9       9       8
       9       9       8       9       9       8       9       9       8       9
       9       8       9       9       8       9       9       8       9       9
       8       9       9       8       9       9       8       9       9       8
       9       9       8       9       9       8       9       9       8       9
       9       8       9       9       8       9       9       8       9       9
       8       9       9       8       9       9       8       9       9       8
       9       9       8       9       9       8       9       9       8       9
       9       8       9       9       8       9       9       8       9       9
       8       9       9       8       9       9       8       9       9       8
       9       9       8       9       9       8       9       9       8       9
       9       8       9       9       8       9       9       8       9       9
       8       9       9       8       9       9       8       9       9       8
       9       9       8       9       9       8       9       9       8       9
       9       8       9       9       8       9       9       8       9       9
       8       9       9       8       9       9       8       9       9       8
       9       9       8       9       9       8       9       9       8       9
       9       8       9       9       8       9       9       8       9       9
       8       9       9       8       9       9       8       9       9       8
       9       9       8       9       9       8       9       9       8       9
       9       8       9       9       8       9       9       8       9       9
       8       9       9       8       9       9       8       9       9       8
       9       9       8       9       9       8       9       9       8       9
       9       8       9       9       8       9       9       8       9       9
       8       9       9       8       9       9       8       9       9       8
       9       9       8       9       9       8       9       9       8       9
       9       8       9       9       8       9       9       8       9       9
       8       9       9       8       9       9       8       9       9       8
       9       9       8       9       9       8       9       9       8       9
       9       8       9       9       8       9       9       8       9       9
       8       9       9       8       9       9       8       9       9       8
       9       9       8       9       9       8       9       9       8       9
       9       8       9       9       8       9       9       8       9       9
       8       9       9       8       9       9       8       9       9       8
       9       9       8       9       9       8       9       9       8       9
       9       8       9       9       8       9       9       8       9       9
       8       9       9       8       9       9       8       9       9       8
       9       9       8       9       9       8       9       9       8       9
       9       8       9       9       8       9       9       8       9       9
       8       9       9       8       9       9       8       9       9       8
       9       9       8       9       9       8       9       9       8       9
       9       8       9       9       8       9       9       8       9       9
       8       9       9       8       9       9       8       9       9       8
       9       9       8       9       9       8       9       9       8       9
       9       8       9       9       8       9       9       8       9       9
       8       9       9       8       9       9       8       9       9       8
       9       9       8       9       9       8       9       9       8       9
       9       8       9       9       8       9       9       8       9       9
       8       9       9       8       9       9       8       9       9       8
       9       9       8       9       9       8       9       9       8       9
       9       8       9       9       8       9       9       8       9       9
       8       9       9       8       9       9       8       9       9       8
       9       9       8       9       9       8       9       9       8       9
       9       8       9       9       8       9       9       8       9       9
       8       9       9       8       9       9       8       9       9       8
       9       9       8       9       9       8       9       9       8       9
       9       8       9       9       8       9       9       8       9       9
       8       9       9       8       9       9       8       9       9       8
       9       9       8       9       9       8       9       9       8       9
       9       8       9       9       8       9       9       8       9       9
       8       9       9       8       9       9       8       9       9       8
       9       9       8       9       9       8       9       9       8       9
       9       8       9       9       8       9       9       8       9       9
       8       9       9       8       9       9       8       9       9       8
       9       9       8       9       9       8       9       9       8       9
       9       8       9       9       8       9       9       8       9       9
       8       9       9       8       9       9       8       9       9       8
       9       9       8       9       9       8       9       9       8       9
       9       8       9       9       8       9       9       8       9       9
       8       9       9       8       9       9       8       9       9       8
       9       9       8       9       9       8       9       9       8       9
       9       8       9       9       8       9       9       8       9       9
       8       9       9       8       9       9       8       9       9       8
       9       9       8       9       9       8       9       9       8       9
       9       8       9       9       8       9       9       8       9       9
       8       9       9       8       9       9       8       9       9       8
       9       9       8       9       9       8       9       9       8       9
       9       8       9       9       8       9       9       8       9       9
       8       9       9       8       9       9       8       9       9       8
       9       9       8       9       9       8       9       9       8       9
       9       8       9       9       8       9       9       8       9       9
       8       9       9       8       9       9       8       9       9       8
       9       9       8       9       9       8       9       9       8       9
       9       8       9       9       8       9       9       8       9       9
       8       9       9       8       9       9       8       9       9       8
       9       9       8       9       9       8       9       9       8       9
       9       8       9       9       8       9       9       8       9       9
       8       9       9       8       9       9       8       9       9       8
       9       9       8       9       9       8       9       9       8       9
       9       8       9       9       8       9       9       8       9       9
       8       9       9       8       9       9       8       9       9       8
       9       9       8       9       9       8       9       9       8       9
       9       8       9       9       8       9       9       8       9       9
       8       9       9       8       9       9       8       9       9       8
       9       9       8       9       9       8       9       9       8       9
       9       8       9       9       8       9       9       8       9       9
       8       9       9       8       9       9       8       9       9       8
       9       9       8       9       9       8       9       9       8       9
       9       8       9       9       8       9       9       8       9       9
       8       9       9       8       9       9       8       9       9       8
       9       9       8       9       9       8       9       9       8       9
       9       8       9       9       8       9       9       8       9       9
       8       9       9       8       9       9       8       9       9       8
       9       9       8       9       9       8       9       9       8       9
       9       8       9       9       8       9       9       8       9       9
       8       9       9       8       9       9       8       9       9       8
       9       9       8       9       9       8       9       9       8       9
       9       8       9       9       8       9       9       8       9       9
       8       9       9       8       9       9       8       9       9       8
       9       9       8       9       9       8       9       9       8       9
       9       8       9       9       8       9       9       8       9       9
       8       9       9       8       9       9       8       9       9       8
       9       9       8       9       9       8       9       9       8       9
       9       8       9       9       8       9       9       8       9       9
       8       9       9       8       9       9       8       9       9       8
       9       9       8       9       9       8       9       9       8       9
       9       8       9       9       8       9       9       8       9       9
       8       9       9       8       9       9       8       9       9       8
       9       9       8       9       9       8       9       9       8       9
       9       8       9       9       8       9       9       8       9       9
       8       9       9       8       9       9       8       9       9       8
       9       9       8       9       9       8       9       9       8       9
       9       8       9       9       8       9       9       8       9       9
       8       9       9       8       9       9       8       9       9       8
       9       9       8       9       9       8       9       9       8       9
       9       8       9       9       8       9       9       8       9       9
       8       9       9       8       9       9       8       9       9       8
       9       9       8       9       9       8       9       9       8       9
       9       8       9       9       8       9       9       8       9       9
       8       9       9       8       9       9       8       9       9       8
       9       9       8       9       9       8       9       9       8       9
       9       8       9       9       8       9       9       8       9       9
       8       9       9       8       9       9       8       9       9       8
       9       9       8       9       9       8       9       9       8       9
       9       8       9       9       8       9       9       8       9       9
       8       9       9       8       9       9       8       9       9       8
       9       9       8       9       9       8       9       9       8       9
       9       8       9       9       8       9       9       8       9       9
       8       9       9       8       9       9       8       9       9       8
       9       9       8       9       9       8       9       9       8       9
       9       8       9       9       8       9       9       8       9       9
       8       9       9       8       9       9       8       9       9       8
       9       9       8       9       9       8       9       9       8       9
       9       8       9       9       8       9       9       8       9       9
       8       9       9       8       9       9       8       9       9       8
       9       9       8       9       9       8       9       9       8       9
       9       8       9       9       8       9       9       8       9       9
       8       9       9       8       9       9       8       9       9       8
       9       9       8       9       9       8       9       9       8       9
       9       8       9       9       8       9       9       8       9       9
       8       9       9       8       9       9       8       9       9       8
       9       9       8       9       9       8       9       9       8       9
       9       8       9       9       8       9       9       8       9       9
       8       9       9       8       9       9       8       9       9       8
       9       9       8       9       9       8       9       9       8       9
       9       8       9       9       8       9       9       8       9       9
       8       9       9       8       9       9       8       9       9       8
       9       9       8       9       9       8       9       9       8       9
       9       8       9       9       8       9       9       8       9       9
       8       9       9       8       9       9       8       9       9       8
       9       9       8       9       9       8       9       9       8       9
       9       8       9       9       8       9       9       8       9       9
       8       9       9       8       9       9       8       9       9       8
       9       9       8       9       9       8       9       9       8       9
       9       8       9       9       8       9       9       8       9       9
       8       9       9       8       9       9       8       9       9       8
       9       9       8       9       9       8       9       9       8       9
       9       8       9       9       8       9       9       8       9       9
       8       9       9       8       9       9       8       9       9       8
       9       9       8       9       9       8       9       9       8       9
       9       8       9       9       8       9       9       8       9       9
       8       9       9       8       9       9       8       9       9       8
       9       9       8       9       9       8       9       9       8       9
       9       8       9       9       8       9       9       8       9       9
       8       9       9       8       9       9       8       9       9       8
       9       9       8       9       9       8       9       9       8       9
       9       8       9       9       8       9       9       8       9       9
       8       9       9       8       9       9       8       9       9       8
       9       9       8       9       9       8       9       9       8       9
       9       8       9       9       8       9       9       8       9       9
       8       9       9       8       9       9       8       9       9       8
       9       9       8       9       9       8       9       9       8       9
       9       8       9       9       8       9       9       8       9       9
       8       9       9       8       9       9       8       9       9       8
       9       9       8       9       9       8       9       9       8       9
       9       8       9       9       8       9       9       8       9       9
       8       9       9       8       9       9       8       9       9       8
       9       9       8       9       9       8       9       9       8       9
       9       8       9       9       8       9       9       8       9       9
       8       9       9       8       9       9       8       9       9       8
       9       9       8       9       9       8       9       9       8       9
       9       8       9       9       8       9       9       8       9       9
       8       9       9       8       9       9       8       9       9       8
       9       9       8       9       9       8       9       9       8       9
       9       8       9       9       8       9       9       8       9       9
       8       9       9       8       9       9       8       9       9       8
       9       9       8       9       9       8       9       9       8       9
       9       8       9       9       8       9       9       8       9       9
       8       9       9       8       9       9       8       9       9       8
       9       9       8       9       9       8       9       9       8       9
       9       8       9       9       8       9       9       8       9       9
       8       9       9       8       9       9       8       9       9       8
       9       9       8       9       9       8       9       9       8       9
       9       8       9       9       8       9       9       8       9       9
       8       9       9       8       9       9       8       9       9       8
       9       9       8       9       9       8       9       9       8       9
       9       8       9       9       8       9       9       8       9       9
       8       9       9       8       9       9       8       9       9       8
       9       9       8       9       9       8       9       9       8       9
       9       8       9       9       8       9       9       8       9       9
       8       9       9       8       9       9       8       9       9       8
       9       9       8       9       9       8       9       9       8       9
       9       8       9       9       8       9       9       8       9       9
       8       9       9       8       9       9       8       9       9       8
       9       9       8       9       9       8       9       9       8       9
       9       8       9       9       8       9       9       8       9       9
       8       9       9       8       9       9       8       9       9       8
       9       9       8       9       9       8       9       9       8       9
       9       8       9       9       8       9       9       8       9       9
       8       9       9       8       9       9       8       9       9       8
       9       9       8       9       9       8       9       9       8       9
       9       8       9       9       8       9       9       8       9       9
       8       9       9       8       9       9       8       9       9       8
       9       9       8       9       9       8       9       9       8       9
       9       8       9       9       8       9       9       8       9       9
       8       9       9       8       9       9       8       9       9       8
       9       9       8       9       9       8       9       9       8       9
       9       8       9       9       8       9       9       8       9       9
       8       9       9       8       9       9       8       9       9       8
       9       9       8       9       9       8       9       9       8       9
       9       8       9       9       8       9       9       8       9       9
       8       9       9       8       9       9       8       9       9       8
       9       9       8       9       9       8       9       9       8       9
       9       8       9       9       8       9       9       8       9       9
       8       9       9       8       9       9       8       9       9       8
       9       9       8       9       9       8       9       9       8       9
       9       8       9       9       8       9       9       8       9       9
       8       9       9       8       9       9       8       9       9       8
       9       9       8       9       9       8       9       9       8       9
       9       8       9       9       8       9       9       8       9       9
       8       9       9       8       9       9       8       9       9       8
       9       9       8       9       9       8       9       9       8       9
       9       8       9       9       8       9       9       8       9       9
       8       9       9       8       9       9       8       9       9       8
       9       9       8       9       9       8       9       9       8       9
       9       8       9       9       8       9       9       8       9       9
       8       9       9       8       9       9       8       9       9       8
       9       9       8       9       9       8       9       9       8       9
       9       8       9       9       8       9       9       8       9       9
       8       9       9       8       9       9       8       9       9       8
       9       9       8       9       9       8       9       9       8       9
       9       8       9       9       8       9       9       8       9       9
       8       9       9       8       9       9       8       9       9       8
       9       9       8       9       9       8       9       9       8       9
       9       8       9       9       8       9       9       8       9       9
       8       9       9       8       9       9       8       9       9       8
       9       9       8       9       9       8       9       9       8       9
       9       8       9       9       8       9       9       8       9       9
       8       9       9       8       9       9       8       9       9       8
       9       9       8       9       9       8       9       9       8       9
       9       8       9       9       8       9       9       8       9       9
       8       9       9       8       9       9       8       9       9       8
       9       9       8       9       9       8       9       9       8       9
       9       8       9       9       8       9       9       8       9       9
       8       9       9       8       9       9       8       9       9       8
       9       9       8       9       9       8       9       9       8       9
       9       8       9       9       8       9       9       8       9       9
       8       9       9       8       9       9       8       9       9       8
       9       9       8       9       9       8       9       9       8       9
       9       8       9       9       8       9       9       8       9       9
       8       9       9       8       9       9       8       9       9       8
       9       9       8       9       9       8       9       9       8       9
       9       8       9       9       8       9       9       8       9       9
       8       9       9       8       9       9       8       9       9       8
       9       9       8       9       9       8       9       9       8       9
       9       8       9       9       8       9       9       8       9       9
       8       9       9       8       9       9       8       9       9       8
       9       9       8       9       9       8       9       9       8       9
       9       8       9       9       8       9       9       8       9       9
       8       9       9       8       9       9       8       9       9       8
       9       9       8       9       9       8       9       9       8       9
       9       8       9       9       8       9       9       8       9       9
       8       9       9       8       9       9       8       9       9       8
       9       9       8       9       9       8       9       9       8       9
       9       8       9       9       8       9       9       8       9       9
       8       9       9       8       9       9       8       9       9       8
       9       9       8       9       9       8       9       9       8       9
       9       8       9       9       8       9       9       8       9       9
       8       9       9       8       9       9       8       9       9       8
       9       9       8       9       9       8       9       9       8       9
       9       8       9       9       8       9       9       8       9       9
       8       9       9       8       9       9       8       9       9       8
       9       9       8       9       9       8       9       9       8       9
       9       8       9       9       8       9       9       8       9       9
       8       9       9       8       9       9       8       9       9       8
       9       9       8       9       9       8       9       9       8       9
       9       8       9       9       8       9       9       8       9       9
       8       9       9       8       9       9       8       9       9       8
       9       9       8       9       9       8       9       9       8       9
       9       8       9       9       8       9       9       8       9       9
       8       9       9       8       9       9       8       9       9       8
       9       9       8       9       9       8       9       9       8       9
       9       8       9       9       8       9       9       8       9       9
       8       9       9       8       9       9       8       9       9       8
       9       9       8       9       9       8       9       9       8       9
       9       8       9       9       8       9       9       8       9       9
       8       9       9       8       9       9       8       9       9       8
       9       9       8       9       9       8       9       9       8       9
       9       8       9       9       8       9       9       8       9       9
       8       9       9       8       9       9       8       9       9       8
       9       9       8       9       9       8       9       9       8       9
       9       8       9       9       8       9       9       8       9       9
       8       9       9       8       9       9       8       9       9       8
       9       9       8       9       9       8       9       9       8       9
       9       8       9       9       8       9       9       8       9       9
       8       9       9       8       9       9       8       9       9       8
       9       9       8       9       9       8       9       9       8       9
       9       8       9       9       8       9       9       8       9       9
       8       9       9       8       9       9       8       9       9       8
       9       9       8       9       9       8       9       9       8       9
       9       8       9       9       8       9       9       8       9       9
       8       9       9       8       9       9       8       9       9       8
       9       9       8       9       9       8       9       9       8       9
       9       8       9       9       8       9       9       8       9       9
       8       9       9       8       9       9       8       9       9       8
       9       9       8       9       9       8       9       9       8       9
       9       8       9       9       8       9       9       8       9       9
       8       9       9       8       9       9       8       9       9       8
       9       9       8       9       9       8       9       9       8       9
       9       8       9       9       8       9       9       8       9       9
       8       9       9       8       9       9       8       9       9       8
       9       9       8       9       9       8       9       9       8       9
       9       8       9       9       8       9       9       8       9       9
       8       9       9       8       9       9       8       9       9       8
       9       9       8       9       9       8       9       9       8       9
       9       8       9       9       8       9       9       8       9       9
       8       9       9       8       9       9       8       9       9       8
       9       9       8       9       9       8       9       9       8       9
       9       8       9       9       8       9       9       8       9       9
       8       9       9       8       9       9       8       9       9       8
       9       9       8       9       9       8       9       9       8       9
       9       8       9       9       8       9       9       8       9       9
       8       9       9       8       9       9       8       9       9       8
       9       9       8       9       9       8       9       9       8       9
       9       8       9       9       8       9       9       8       9       9
       8       9       9       8       9       9       8       9       9       8
       9       9       8       9       9       8       9       9       8       9
       9       8       9       9       8       9       9       8       9       9
       8       9       9       8       9       9       8       9       9       8
       9       9       8       9       9       8       9       9       8       9
       9       8       9       9       8       9       9       8       9       9
       8       9       9       8       9       9       8       9       9       8
       9       9       8       9       9       8       9       9       8       9
       9       8       9       9       8       9       9       8       9       9
       8       9       9       8       9       9       8       9       9       8
       9       9       8       9       9       8       9       9       8       9
       9       8       9       9       8       9       9       8       9       9
       8       9       9       8       9       9       8       9       9       8
       9       9       8       9       9       8       9       9       8       9
       9       8       9       9       8       9       9       8       9       9
       8       9       9       8       9       9       8       9       9       8
       9       9       8       9       9       8       9       9       8       9
       9       8       9       9       8       9       9       8       9       9
       8       9       9       8       9       9       8       9       9       8
       9       9       8       9       9       8       9       9       8       9
       9       8       9       9       8       9       9       8       9       9
       8       9       9       8       9       9       8       9       9       8
       9       9       8       9       9       8       9       9       8       9
       9       8       9       9       8       9       9       8       9       9
       8       9       9       8       9       9       8       9       9       8
       9       9       8       9       9       8       9       9       8       9
       9       8       9       9       8       9       9       8       9       9
       8       9       9       8       9       9       8       9       9       8
       9       9       8       9       9       8       9       9       8       9
       9       8       9       9       8       9       9       8       9       9
       8       9       9       8       9       9       8       9       9       8
       9       9       8       9       9       8       9       9       8       9
       9       8       9       9       8       9       9       8       9       9
       8       9       9       8       9       9       8       9       9       8
       9       9       8       9       9       8       9       9       8       9
       9       8       9       9       8       9       9       8       9       9
       8       9       9       8       9       9       8       9       9       8
       9       9       8       9       9       8       9       9       8       9
       9       8       9       9       8       9       9       8       9       9
       8       9       9       8       9       9       8       9       9       8
       9       9       8       9       9       8       9       9       8       9
       9       8       9       9       8       9       9       8       9       9
       8       9       9       8       9       9       8       9       9       8
       9       9       8       9       9       8       9       9       8       9
       9       8       9       9       8       9       9       8       9       9
       8       9       9       8       9       9       8       9       9       8
       9       9       8       9       9       8       9       9       8       9
       9       8       9       9       8       9       9       8       9       9
       8       9       9       8       9       9       8       9       9       8
       9       9       8       9       9       8       9       9       8       9
       9       8       9       9       8       9       9       8       9       9
       8       9       9       8       9       9       8       9       9       8
       9       9       8       9       9       8       9       9       8       9
       9       8       9       9       8       9       9       8       9       9
       8       9       9       8       9       9       8       9       9       8
       9       9       8       9       9       8       9       9       8       9
       9       8       9       9       8       9       9       8       9       9
       8       9       9       8       9       9       8       9       9       8
       9       9       8       9       9       8       9       9       8       9
       9       8       9       9       8       9       9       8       9       9
       8       9       9       8       9       9       8       9       9       8
       9       9       8       9       9       8       9       9       8       9
       9       8       9       9       8       9       9       8       9       9
       8       9       9       8       9       9       8       9       9       8
       9       9       8       9       9       8       9       9       8       9
       9       8       9       9       8       9       9       8       9       9
       8       9       9       8       9       9       8       9       9       8
       9       9       8       9       9       8       9       9       8       9
       9       8       9       9       8       9       9       8       9       9
       8       9       9       8       9       9       8       9       9       8
       9       9       8       9       9       8       9       9       8       9
       9       8       9       9       8       9       9       8       9       9
       8       9       9       8       9       9       8       9       9       8
       9       9       8       9       9       8       9       9       8       9
       9       8       9       9       8       9       9       8       9       9
       8       9       9       8       9       9       8       9       9       8
       9       9       8       9       9       8       9       9       8       9
       9       8       9       9       8       9       9       8       9       9
       8       9       9       8       9       9       8       9       9       8
       9       9       8       9       9       8       9       9       8       9
       9       8       9       9       8       9       9       8       9       9
       8       9       9       8       9       9       8       9       9       8
       9       9       8       9       9       8       9       9       8       9
       9       8       9       9       8       9       9       8       9       9
       8       9       9       8       9       9       8       9       9       8
       9       9       8       9       9       8       9       9       8       9
       9       8       9       9       8       9       9       8       9       9
       8       9       9       8       9       9       8       9       9       8
       9       9       8       9       9       8       9       9       8       9
       9       8       9       9       8       9       9       8       9       9
       8       9       9       8       9       9       8       9       9       8
       9       9       8       9       9       8       9       9       8       9
       9       8       9       9       8       9       9       8       9       9
       8       9       9       8       9       9       8       9       9       8
       9       9       8       9       9       8       9       9       8       9
       9       8       9       9       8       9       9       8       9       9
       8       9       9       8       9       9       8       9       9       8
       9       9       8       9       9       8       9       9       8       9
       9       8       9       9       8       9       9       8       9       9
       8       9       9       8       9       9       8       9       9       8
       9       9       8       9       9       8       9       9       8       9
       9       8       9       9       8       9       9       8       9       9
       8       9       9       8       9       9       8       9       9       8
       9       9       8       9       9       8       9       9       8       9
       9       8       9       9       8       9       9       8       9       9
       8       9       9       8       9       9       8       9       9       8
       9       9       8       9       9       8       9       9       8       9
       9       8       9       9       8       9       9       8       9       9
       8       9       9       8       9       9       8       9       9       8
       9       9       8       9       9       8       9       9       8       9
       9       8       9       9       8       9       9       8       9       9
       8       9       9       8       9       9       8       9       9       8
       9       9       8       9       9       8       9       9       8       9
       9       8       9       9       8       9       9       8       9       9
       8       9       9       8       9       9       8       9       9       8
       9       9       8       9       9       8       9       9       8       9
       9       8       9       9       8       9       9       8       9       9
       8       9       9       8       9       9       8       9       9       8
       9       9       8       9       9       8       9       9       8       9
       9       8       9       9       8       9       9       8       9       9
       8       9       9       8       9       9       8       9       9       8
       9       9       8       9       9       8       9       9       8       9
       9       8       9       9       8       9       9       8       9       9
       8       9       9       8       9       9       8       9       9       8
       9       9       8       9       9       8       9       9       8       9
       9       8       9       9       8       9       9       8       9       9
       8       9       9       8       9       9       8       9       9       8
       9       9       8       9       9       8       9       9       8       9
       9       8       9       9       8       9       9       8       9       9
       8       9       9       8       9       9       8       9       9       8
       9       9       8       9       9       8       9       9       8       9
       9       8       9       9       8       9       9       8       9       9
       8       9       9       8       9       9       8       9       9       8
       9       9       8       9       9       8       9       9       8       9
       9       8       9       9       8       9       9       8       9       9
       8       9       9       8       9       9       8       9       9       8
       9       9       8       9       9       8       9       9       8       9
       9       8       9       9       8       9       9       8       9       9
       8       9       9       8       9       9       8       9       9       8
       9       9       8       9       9       8       9       9       8       9
       9       8       9       9       8       9       9       8       9       9
       8       9       9       8       9       9       8       9       9       8
       9       9       8       9       9       8       9       9       8       9
       9       8       9       9       8       9       9       8       9       9
       8       9       9       8       9       9       8       9       9       8
       9       9       8       9       9       8       9       9       8       9
       9       8       9       9       8       9       9       8       9       9
       8       9       9       8       9       9       8       9       9       8
       9       9       8       9       9       8       9       9       8       9
       9       8       9       9       8       9       9       8       9       9
       8       9       9       8       9       9       8       9       9       8
       9       9       8       9       9       8       9       9       8       9
       9       8       9       9       8       9       9       8       9       9
       8       9       9       8       9       9       8       9       9       8
       9       9       8       9       9       8       9       9       8       9
       9       8       9       9       8       9       9       8       9       9
       8       9       9       8       9       9       8       9       9       8
       9       9       8       9       9       8       9       9       8       9
       9       8       9       9       8       9       9       8       9       9
       8       9       9       8       9       9       8       9       9       8
       9       9       8       9       9       8       9       9       8       9
       9       8       9       9       8       9       9       8       9       9
       8       9       9       8       9       9       8       9       9       8
       9       9       8       9       9       8       9       9       8       9
       9       8       9       9       8       9       9       8       9       9
       8       9       9       8       9       9       8       9       9       8
       9       9       8       9       9       8       9       9       8       9
       9       8       9       9       8       9       9       8       9       9
       8       9       9       8       9       9       8       9       9       8
       9       9       8       9       9       8       9       9       8       9
       9       8       9       9       8       9       9       8       9       9
       8       9       9       8       9       9       8       9       9       8
       9       9       8       9       9       8       9       9       8       9
       9       8       9       9       8       9       9       8       9       9
       8       9       9       8       9       9       8       9       9       8
       9       9       8       9       9       8       9       9       8       9
       9       8       9       9       8       9       9       8       9       9
       8       9       9       8       9       9       8       9       9       8
       9       9       8       9       9       8       9       9       8       9
       9       8       9       9       8       9       9       8       9       9
       8       9       9       8       9       9       8       9       9       8
       9       9       8       9       9       8       9       9       8       9
       9       8       9       9       8       9       9       8       9       9
       8       9       9       8       9       9       8       9       9       8
       9       9       8       9       9       8       9       9       8       9
       9       8       9       9       8       9       9       8       9       9
       8       9       9       8       9       9       8       9       9       8
       9       9       8       9       9       8       9       9       8       9
       9       8       9       9       8       9       9       8       9       9
       8       9       9       8       9       9       8       9       9       8
       9       9       8       9       9       8       9       9       8       9
       9       8       9       9       8       9       9       8       9       9
       8       9       9       8       9       9       8       9       9       8
       9       9       8       9       9       8       9       9       8       9
       9       8       9       9       8       9       9       8       9       9
       8       9       9       8       9       9       8       9       9       8
       9       9       8       9       9       8       9       9       8       9
       9       8       9       9       8       9       9       8       9       9
       8       9       9       8       9       9       8       9       9       8
       9       9       8       9       9       8       9       9       8       9
       9       8       9       9       8       9       9       8       9       9
       8       9       9       8       9       9       8       9       9       8
       9       9       8       9       9       8       9       9       8       9
       9       8       9       9       8       9       9       8       9       9
       8       9       9       8       9       9       8       9       9       8
       9       9       8       9       9       8       9       9       8       9
       9       8       9       9       8       9       9       8       9       9
       8       9       9       8       9       9       8       9       9       8
       9       9       8       9       9       8       9       9       8       9
       9       8       9       9       8       9       9       8       9       9
       8       9       9       8       9       9       8       9       9       8
       9       9       8       9       9       8       9       9       8       9
       9       8       9       9       8       9       9       8       9       9
       8       9       9       8       9       9       8       9       9       8
       9       9       8       9       9       8       9       9       8       9
       9       8       9       9       8       9       9       8       9       9
       8       9       9       8       9       9       8       9       9       8
       9       9       8       9       9       8       9       9       8       9
       9       8       9       9       8       9       9       8       9       9
%FLAG NUMBER_EXCLUDED_ATOMS                                                     
%FORMAT(10I8)                                                                   
      12      18      16      15      19      15      15      19      15      15
      19      15      15      19      15      15      19      15      15      19
      15      15      19      15      15      19      15      15      19      15
      15      19      15      15      19      15      17      25      17      15
      19      15      15      19      15      15      19      15      15      19
      15      15      19      15      15      19      15      15      19      15
      15      19      15      15      19      15      15      19      15      15
      16       9      15       9      10      13      19      15      13      12
      11       6       4      14       9      10      13      19      15      13
      12      11       6       4      14       9      10      13      19      15
      13      12      11       6       4      14       9      10      13      19
      15      13      12      11       6       4      14       9      10      13
      19      15      13      12      11       6       4      14       9      10
      13      19      15      13      12      11       6       4      14       9
      10      13      19      15      13      12      11       6       4      14
       9      10      13      19      15      13      12      11       6       4
      14       9      10      13      19      15      13      12      11       6
       4      14       9      10      13      19      15      13      12      11
       6       4      14       9      10      13      19      15      13      12
      11       6       4      16       9      10      13      19      15      13
      12      11       6       4      13       8      10      18      25      17
      15      19      15      15      19      15      15      19      15      15
      19      15      15      19      15      15      19      15      15      19
      15      15      19      15      15      19      15      15      19      15
      15      16       9      15       9      10      13      19      15      13
      12      11       6       4      14       9      10      13      19      15
      13      12      11       6       4      14       9      10      13      19
      15      13      12      11       6       4      14       9      10      13
      19      15      13      12      11       6       4      14       9      10
      13      19      15      13      12      11       6       4      14       9
      10      13      19      15      13      12      11       6       4      14
       9      10      13      19      15      13      12      11       6       4
      14       9      10      13      19      15      13      12      11       6
       4      14       9      10      13      19      15      13      12      11
       6       4      14       9      10      13      19      15      13      12
      11       6       4      14       9      10      13      19      15      13
      12      11       6       4      15      14      19      15      15      19
      15      15      19      15      15      19      15      15      19      15
      15      19      15      15      19      15      15      19      15      15
      19      15      15      19      15      15      19      15      15      16
       9      15       9      10      13      19      15      13      12      11
       6       4      14       9      10      13      19      15      13      12
      11       6       4      14       9      10      13      19      15      13
      12      11       6       4      14       9      10      13      19      15
      13      12      11       6       4      14       9      10      13      19
      15      13      12      11       6       4      14       9      10      13
      19      15      13      12      11       6       4      14       9      10
      13      19      15      13      12      11       6       4      14       9
      10      13      19      15      13      12      11       6       4      14
       9      10      13      19      15      13      12      11       6       4
      14       9      10      13      19      15      13      12      11       6
       4      14       9      10      13      19      15      13      12      11
       6       4      14       9      10      13      19      15      13      12
      11       6       4      14       8      10      13      19      15      13
      12      11       6       3       4       3      14       9      10      13
      19      15      13      12      11       6       4      14       9      10
      13      19      15      13      12      11       6       4      14       9
      10      13      19      15      13      12      11       6       4      14
       9      10      13      19      15      13      12      11       6       4
      14       9      10      13      19      15      13      12      11       6
       4      14       9      10      13      19      15      13      12      11
       6       4      14       9      10      13      19      15      13      12
      11       6       4      14       9      10      13      19      15      13
      12      11       6       4      14       9      10      13      19      15
      13      12      11       6       4      14       9      10      13      19
      15      13      12      11       6       4      14       9      10      13
      19      15      13      12      11       6       4      15       9      10
      13      19      15      13      12      11       6       4       3       2
       1       2       3       2       2       1       2       3       2       2
       1       2       3       2       2       1       2       3       2       2
       1       2       3       2       2       1       2       3       2       2
       1       2       3       2       2       1       2       3       2       2
       1       2       3       2       2       1       2       3       2       2
       1       2       3       2       2       1       2       3       2       1
       1       3       2       2       1       2       3       2       2       1
       2       3       2       2       1       2       3       2       2       1
       2       3       2       2       1       2       3       2       2       1
       2       3       2       2       1       2       3       2       2       1
       2       3       2       2       1       2       3       2       2       1
       2       3       2       2       1       3       2       1       1       1
       1       1       1       2       1       1       2       1       1       2
       1       1       1       1       1       1       1       1       2       1
       1       2       1       1       2       1       1       1       1       1
       1       1       1       2       1       1       2       1       1       2
       1       1       1       1       1       1       1       1       2       1
       1       2       1       1       2       1       1       1       1       1
       1       1       1       2       1       1       2       1       1       2
       1       1       1       1       1       1       1       1       2       1
       1       2       1       1       2       1       1       1       1       1
       1       1       1       2       1       1       2       1       1       2
       1       1       1       1       1       1       1       1       2       1
       1       2       1       1       2       1       1       1       1       1
       1       1       1       2       1       1       2       1       1       2
       1       1       1       1       1       1       1       1       2       1
       1       2       1       1       2       1       1       1       1       1
       1       1       1       2       1       1       2       1       1       2
       1       1       1       1       1       1       1       1       2       1
       1       2       1       1       2       1       1       1       1       1
       1       3       2       2       1       2       3       2       2       1
       2       3       2       2       1       2       3       2       2       1
       2       3       2       2       1       2       3       2       2       1
       2       3       2       2       1       2       3       2       2       1
       2       3       2       2       1       2       3       2       2       1
       2       3       2       2       1       3       2       1       1       1
       1       1       1       2       1       1       2       1       1       2
       1       1       1       1       1       1       1       1       2       1
       1       2       1       1       2       1       1       1       1       1
       1       1       1       2       1       1       2       1       1       2
       1       1       1       1       1       1       1       1       2       1
       1       2       1       1       2       1       1       1       1       1
       1       1       1       2       1       1       2       1       1       2
       1       1       1       1       1       1       1       1       2       1
       1       2       1       1       2       1       1       1       1       1
       1       1       1       2       1       1       2       1       1       2
       1       1       1       1       1       1       1       1       2       1
       1       2       1       1       2       1       1       1       1       1
       1       1       1       2       1       1       2       1       1       2
       1       1       1       1       1       1       1       1       2       1
       1       2       1       1       2       1       1       1       1       1
       1       1       1       2       1       1       2       1       1       2
       1       1       1       1       3       2       2       1       2       3
       2       2       1       2       3       2       2       1       2       3
       2       2       1       2       3       2       2       1       2       3
       2       2       1       2       3       2       2       1       2       3
       2       2       1       2       3       2       2       1       2       3
       2       2       1       2       3       2       2       1       2       3
       2       2       1       3       2       1       1       1       1       1
       1       2       1       1       2       1       1       2       1       1
       1       1       1       1       1       1       2       1       1       2
       1       1       2       1       1       1       1       1       1       1
       1       2       1       1       2       1       1       2       1       1
       1       1       1       1       1       1       2       1       1       2
       1       1       2       1       1       1       1       1       1       1
       1       2       1       1       2       1       1       2       1       1
       1       1       1       1       1       1       2       1       1       2
       1       1       2       1       1       1       1       1       1       1
       1       2       1       1       2       1       1       2       1       1
       1       1       1       1       1       1       2       1       1       2
       1       1       2       1       1       1       1       1       1       1
       1       2       1       1       2       1       1       2       1       1
       1       1       1       1       1       1       2       1       1       2
       1       1       2       1       1       1       1       1       1       1
       1       2       1       1       2       1       1       2       1       1
       1       1       1       1       1       1       2       1       1       2
       1       1       2       1       1       1       1       1       1       1
       1       2       1       1       2       1       1       2       1       1
       1       1       1       1       1       1       1       1       2       1
       1       2       1       1       2       1       1       1       1       1
       1       1       1       2       1       1       2       1       1       2
       1       1       1       1       1       1       1       1       2       1
       1       2       1       1       2       1       1       1       1       1
       1       1       1       2       1       1       2       1       1       2
       1       1       1       1       1       1       1       1       2       1
       1       2       1       1       2       1       1       1       1       1
       1       1       1       2       1       1       2       1       1       2
       1       1       1       1       1       1       1       1       2       1
       1       2       1       1       2       1       1       1       1       1
       1       1       1       2       1       1       2       1       1       2
       1       1       1       1       1       1       1       1       2       1
       1       2       1       1       2       1       1       1       1       1
       1       1       1       2       1       1       2       1       1       2
       1       1       1       1       1       1       1       1       2       1
       1       2       1       1       2       1       1       1       1       1
       1       1       1       2       1       1       2       1       1       2
       1       1       1       1       1       1       1       1       1       1
       1       1       1       1       1       1       1       1       1       1
       1       1       1       1       1       1       1       1       1       1
       1       1       1       1       1       1       1       1       1       1
       1       1       1       1       1       1       1       1       1       1
       1       1       2       1       1       2       1       1       2       1
       1       2       1       1       2       1       1       2       1       1
       2       1       1       2       1       1       2       1       1       2
       1       1       2       1       1       2       1       1       2       1
       1       2       1       1       2       1       1       2       1       1
       2       1       1       2       1       1       2       1       1       2
       1       1       2       1       1       2       1       1       2       1
       1       2       1       1       2       1       1       2       1       1
       2       1       1       2       1       1       2       1       1       2
       1       1       2       1       1       2       1       1       2       1
       1       2       1       1       2       1       1       2       1       1
       2       1       1       2       1       1       2       1       1       2
       1       1       2       1       1       2       1       1       2       1
       1       2       1       1       2       1       1       2       1       1
       2       1       1       2       1       1       2       1       1       2
       1       1       2       1       1       2       1       1       2       1
       1       2       1       1       2       1       1       2       1       1
       2       1       1       2       1       1       2       1       1       2
       1       1       2       1       1       2       1       1       2       1
       1       2       1       1       2       1       1       2       1       1
       2       1       1       2       1       1       2       1       1       2
       1       1       2       1       1       2       1       1       2       1
       1       2       1       1       2       1       1       2       1       1
       2       1       1       2       1       1       2       1       1       2
       1       1       2       1       1       2       1       1       2       1
       1       2       1       1       2       1       1       2       1       1
       2       1       1       2       1       1       2       1       1       2
       1       1       2       1       1       2       1       1       2       1
       1       2       1       1       2       1       1       2       1       1
       2       1       1       2       1       1       2       1       1       2
       1       1       2       1       1       2       1       1       2       1
       1       2       1       1       2       1       1       2       1       1
       2       1       1       2       1       1       2       1       1       2
       1       1       2       1       1       2       1       1       2       1
       1       2       1       1       2       1       1       2       1       1
       2       1       1       2       1       1       2       1       1       2
       1       1       2       1       1       2       1       1       2       1
       1       2       1       1       2       1       1       2       1       1
       2       1       1       2       1       1       2       1       1       2
       1       1       2       1       1       2       1       1       2       1
       1       2       1       1       2       1       1       2       1       1
       2       1       1       2       1       1       2       1       1       2
       1       1       2       1       1       2       1       1       2       1
       1       2       1       1       2       1       1       2       1       1
       2       1       1       2       1       1       2       1       1       2
       1       1       2       1       1       2       1       1       2       1
       1       2       1       1       2       1       1       2       1       1
       2       1       1       2       1       1       2       1       1       2
       1       1       2       1       1       2       1       1       2       1
       1       2       1       1       2       1       1       2       1       1
       2       1       1       2       1       1       2       1       1       2
       1       1       2       1       1       2       1       1       2       1
       1       2       1       1       2       1       1       2       1       1
       2       1       1       2       1       1       2       1       1       2
       1       1       2       1       1       2       1       1       2       1
       1       2       1       1       2       1       1       2       1       1
       2       1       1       2       1       1       2       1       1       2
       1       1       2       1       1       2       1       1       2       1
       1       2       1       1       2       1       1       2       1       1
       2       1       1       2       1       1       2       1       1       2
       1       1       2       1       1       2       1       1       2       1
       1       2       1       1       2       1       1       2       1       1
       2       1       1       2       1       1       2       1       1       2
       1       1       2       1       1       2       1       1       2       1
       1       2       1       1       2       1       1       2       1       1
       2       1       1       2       1       1       2       1       1       2
       1       1       2       1       1       2       1       1       2       1
       1       2       1       1       2       1       1       2       1       1
       2       1       1       2       1       1       2       1       1       2
       1       1       2       1       1       2       1       1       2       1
       1       2       1       1       2       1       1       2       1       1
       2       1       1       2       1       1       2       1       1       2
       1       1       2       1       1       2       1       1       2       1
       1       2       1       1       2       1       1       2       1       1
       2       1       1       2       1       1       2       1       1       2
       1       1       2       1       1       2       1       1       2       1
       1       2       1       1       2       1       1       2       1       1
       2       1       1       2       1       1       2       1       1       2
       1       1       2       1       1       2       1       1       2       1
       1       2       1       1       2       1       1       2       1       1
       2       1       1       2       1       1       2       1       1       2
       1       1       2       1       1       2       1       1       2       1
       1       2       1       1       2       1       1       2       1       1
       2       1       1       2       1       1       2       1       1       2
       1       1       2       1       1       2       1       1       2       1
       1       2       1       1       2       1       1       2       1       1
       2       1       1       2       1       1       2       1       1       2
       1       1       2       1       1       2       1       1       2       1
       1       2       1       1       2       1       1       2       1       1
       2       1       1       2       1       1       2       1       1       2
       1       1       2       1       1       2       1       1       2       1
       1       2       1       1       2       1       1       2       1       1
       2       1       1       2       1       1       2       1       1       2
       1       1       2       1       1       2       1       1       2       1
       1       2       1       1       2       1       1       2       1       1
       2       1       1       2       1       1       2       1       1       2
       1       1       2       1       1       2       1       1       2       1
       1       2       1       1       2       1       1       2       1       1
       2       1       1       2       1       1       2       1       1       2
       1       1       2       1       1       2       1       1       2       1
       1       2       1       1       2       1       1       2       1       1
       2       1       1       2       1       1       2       1       1       2
       1       1       2       1       1       2       1       1       2       1
       1       2       1       1       2       1       1       2       1       1
       2       1       1       2       1       1       2       1       1       2
       1       1       2       1       1       2       1       1       2       1
       1       2       1       1       2       1       1       2       1       1
       2       1       1       2       1       1       2       1       1       2
       1       1       2       1       1       2       1       1       2       1
       1       2       1       1       2       1       1       2       1       1
       2       1       1       2       1       1       2       1       1       2
       1       1       2       1       1       2       1       1       2       1
       1       2       1       1       2       1       1       2       1       1
       2       1       1       2       1       1       2       1       1       2
       1       1       2       1       1       2       1       1       2       1
       1       2       1       1       2       1       1       2       1       1
       2       1       1       2       1       1       2       1       1       2
       1       1       2       1       1       2       1       1       2       1
       1       2       1       1       2       1       1       2       1       1
       2       1       1       2       1       1       2       1       1       2
       1       1       2       1       1       2       1       1       2       1
       1       2       1       1       2       1       1       2       1       1
       2       1       1       2       1       1       2       1       1       2
       1       1       2       1       1       2       1       1       2       1
       1       2       1       1       2       1       1       2       1       1
       2       1       1       2       1       1       2       1       1       2
       1       1       2       1       1       2       1       1       2       1
       1       2       1       1       2       1       1       2       1       1
       2       1       1       2       1       1       2       1       1       2
       1       1       2       1       1       2       1       1       2       1
       1       2       1       1       2       1       1       2       1       1
       2       1       1       2       1       1       2       1       1       2
       1       1       2       1       1       2       1       1       2       1
       1       2       1       1       2       1       1       2       1       1
       2       1       1       2       1       1       2       1       1       2
       1       1       2       1       1       2       1       1       2       1
       1       2       1       1       2       1       1       2       1       1
       2       1       1       2       1       1       2       1       1       2
       1       1       2       1       1       2       1       1       2       1
       1       2       1       1       2       1       1       2       1       1
       2       1       1       2       1       1       2       1       1       2
       1       1       2       1       1       2       1       1       2       1
       1       2       1       1       2       1       1       2       1       1
       2       1       1       2       1       1       2       1       1       2
       1       1       2       1       1       2       1       1       2       1
       1       2       1       1       2       1       1       2       1       1
       2       1       1       2       1       1       2       1       1       2
       1       1       2       1       1       2       1       1       2       1
       1       2       1       1       2       1       1       2       1       1
       2       1       1       2       1       1       2       1       1       2
       1       1       2       1       1       2       1       1       2       1
       1       2       1       1       2       1       1       2       1       1
       2       1       1       2       1       1       2       1       1       2
       1       1       2       1       1       2       1       1       2       1
       1       2       1       1       2       1       1       2       1       1
       2       1       1       2       1       1       2       1       1       2
       1       1       2       1       1       2       1       1       2       1
       1       2       1       1       2       1       1       2       1       1
       2       1       1       2       1       1       2       1       1       2
       1       1       2       1       1       2       1       1       2       1
       1       2       1       1       2       1       1       2       1       1
       2       1       1       2       1       1       2       1       1       2
       1       1       2       1       1       2       1       1       2       1
       1       2       1       1       2       1       1       2       1       1
       2       1       1       2       1       1       2       1       1       2
       1       1       2       1       1       2       1       1       2       1
       1       2       1       1       2       1       1       2       1       1
       2       1       1       2       1       1       2       1       1       2
       1       1       2       1       1       2       1       1       2       1
       1       2       1       1       2       1       1       2       1       1
       2       1       1       2       1       1       2       1       1       2
       1       1       2       1       1       2       1       1       2       1
       1       2       1       1       2       1       1       2       1       1
       2       1       1       2       1       1       2       1       1       2
       1       1       2       1       1       2       1       1       2       1
       1       2       1       1       2       1       1       2       1       1
       2       1       1       2       1       1       2       1       1       2
       1       1       2       1       1       2       1       1       2       1
       1       2       1       1       2       1       1       2       1       1
       2       1       1       2       1       1       2       1       1       2
       1       1       2       1       1       2       1       1       2       1
       1       2       1       1       2       1       1       2       1       1
       2       1       1       2       1       1       2       1       1       2
       1       1       2       1       1       2       1       1       2       1
       1       2       1       1       2       1       1       2       1       1
       2       1       1       2       1       1       2       1       1       2
       1       1       2       1       1       2       1       1       2       1
       1       2       1       1       2       1       1       2       1       1
       2       1       1       2       1       1       2       1       1       2
       1       1       2       1       1       2       1       1       2       1
       1       2       1       1       2       1       1       2       1       1
       2       1       1       2       1       1       2       1       1       2
       1       1       2       1       1       2       1       1       2       1
       1       2       1       1       2       1       1       2       1       1
       2       1       1       2       1       1       2       1       1       2
       1       1       2       1       1       2       1       1       2       1
       1       2       1       1       2       1       1       2       1       1
       2       1       1       2       1       1       2       1       1       2
       1       1       2       1       1       2       1       1       2       1
       1       2       1       1       2       1       1       2       1       1
       2       1       1       2       1       1       2       1       1       2
       1       1       2       1       1       2       1       1       2       1
       1       2       1       1       2       1       1       2       1       1
       2       1       1       2       1       1       2       1       1       2
       1       1       2       1       1       2       1       1       2       1
       1       2       1       1       2       1       1       2       1       1
       2       1       1       2       1       1       2       1       1       2
       1       1       2       1       1       2       1       1       2       1
       1       2       1       1       2       1       1       2       1       1
       2       1       1       2       1       1       2       1       1       2
       1       1       2       1       1       2       1       1       2       1
       1       2       1       1       2       1       1       2       1       1
       2       1       1       2       1       1       2       1       1       2
       1       1       2       1       1       2       1       1       2       1
       1       2       1       1       2       1       1       2       1       1
       2       1       1       2       1       1       2       1       1       2
       1       1       2       1       1       2       1       1       2       1
       1       2       1       1       2       1       1       2       1       1
       2       1       1       2       1       1       2       1       1       2
       1       1       2       1       1       2       1       1       2       1
       1       2       1       1       2       1       1       2       1       1
       2       1       1       2       1       1       2       1       1       2
       1       1       2       1       1       2       1       1       2       1
       1       2       1       1       2       1       1       2       1       1
       2       1       1       2       1       1       2       1       1       2
       1       1       2       1       1       2       1       1       2       1
       1       2       1       1       2       1       1       2       1       1
       2       1       1       2       1       1       2       1       1       2
       1       1       2       1       1       2       1       1       2       1
       1       2       1       1       2       1       1       2       1       1
       2       1       1       2       1       1       2       1       1       2
       1       1       2       1       1       2       1       1       2       1
       1       2       1       1       2       1       1       2       1       1
       2       1       1       2       1       1       2       1       1       2
       1       1       2       1       1       2       1       1       2       1
       1       2       1       1       2       1       1       2       1       1
       2       1       1       2       1       1       2       1       1       2
       1       1       2       1       1       2       1       1       2       1
       1       2       1       1       2       1       1       2       1       1
       2       1       1       2       1       1       2       1       1       2
       1       1       2       1       1       2       1       1       2       1
       1       2       1       1       2       1       1       2       1       1
       2       1       1       2       1       1       2       1       1       2
       1       1       2       1       1       2       1       1       2       1
       1       2       1       1       2       1       1       2       1       1
       2       1       1       2       1       1       2       1       1       2
       1       1       2       1       1       2       1       1       2       1
       1       2       1       1       2       1       1       2       1       1
       2       1       1       2       1       1       2       1       1       2
       1       1       2       1       1       2       1       1       2       1
       1       2       1       1       2       1       1       2       1       1
       2       1       1       2       1       1       2       1       1       2
       1       1       2       1       1       2       1       1       2       1
       1       2       1       1       2       1       1       2       1       1
       2       1       1       2       1       1       2       1       1       2
       1       1       2       1       1       2       1       1       2       1
       1       2       1       1       2       1       1       2       1       1
       2       1       1       2       1       1       2       1       1       2
       1       1       2       1       1       2       1       1       2       1
       1       2       1       1       2       1       1       2       1       1
       2       1       1       2       1       1       2       1       1       2
       1       1       2       1       1       2       1       1       2       1
       1       2       1       1       2       1       1       2       1       1
       2       1       1       2       1       1       2       1       1       2
       1       1       2       1       1       2       1       1       2       1
       1       2       1       1       2       1       1       2       1       1
       2       1       1       2       1       1       2       1       1       2
       1       1       2       1       1       2       1       1       2       1
       1       2       1       1       2       1       1       2       1       1
       2       1       1       2       1       1       2       1       1       2
       1       1       2       1       1       2       1       1       2       1
       1       2       1       1       2       1       1       2       1       1
       2       1       1       2       1       1       2       1       1       2
       1       1       2       1       1       2       1       1       2       1
       1       2       1       1       2       1       1       2       1       1
       2       1       1       2       1       1       2       1       1       2
       1       1       2       1       1       2       1       1       2       1
       1       2       1       1       2       1       1       2       1       1
       2       1       1       2       1       1       2       1       1       2
       1       1       2       1       1       2       1       1       2       1
       1       2       1       1       2       1       1       2       1       1
       2       1       1       2       1       1       2       1       1       2
       1       1       2       1       1       2       1       1       2       1
       1       2       1       1       2       1       1       2       1       1
       2       1       1       2       1       1       2       1       1       2
       1       1       2       1       1       2       1       1       2       1
       1       2       1       1       2       1       1       2       1       1
       2       1       1       2       1       1       2       1       1       2
       1       1       2       1       1       2       1       1       2       1
       1       2       1       1       2       1       1       2       1       1
       2       1       1       2       1       1       2       1       1       2
       1       1       2       1       1       2       1       1       2       1
       1       2       1       1       2       1       1       2       1       1
       2       1       1       2       1       1       2       1       1       2
       1       1       2       1       1       2       1       1       2       1
       1       2       1       1       2       1       1       2       1       1
       2       1       1       2       1       1       2       1       1       2
       1       1       2       1       1       2       1       1       2       1
       1       2       1       1       2       1       1       2       1       1
       2       1       1       2       1       1       2       1       1       2
       1       1       2       1       1       2       1       1       2       1
       1       2       1       1       2       1       1       2       1       1
       2       1       1       2       1       1       2       1       1       2
       1       1       2       1       1       2       1       1       2       1
       1       2       1       1       2       1       1       2       1       1
       2       1       1       2       1       1       2       1       1       2
       1       1       2       1       1       2       1       1       2       1
       1       2       1       1       2       1       1       2       1       1
       2       1       1       2       1       1       2       1       1       2
       1       1       2       1       1       2       1       1       2       1
       1       2       1       1       2       1       1       2       1       1
       2       1       1       2       1       1       2       1       1       2
       1       1       2       1       1       2       1       1       2       1
       1       2       1       1       2       1       1       2       1       1
       2       1       1       2       1       1       2       1       1       2
       1       1       2       1       1       2       1       1       2       1
       1       2       1       1       2       1       1       2       1       1
       2       1       1       2       1       1       2       1       1       2
       1       1       2       1       1       2       1       1       2       1
       1       2       1       1       2       1       1       2       1       1
       2       1       1       2       1       1       2       1       1       2
       1       1       2       1       1       2       1       1       2       1
       1       2       1       1       2       1       1       2       1       1
       2       1       1       2       1       1       2       1       1       2
       1       1       2       1       1       2       1       1       2       1
       1       2       1       1       2       1       1       2       1       1
       2       1       1       2       1       1       2       1       1       2
       1       1       2       1       1       2       1       1       2       1
       1       2       1       1       2       1       1       2       1       1
       2       1       1       2       1       1       2       1       1       2
       1       1       2       1       1       2       1       1       2       1
       1       2       1       1       2       1       1       2       1       1
       2       1       1       2       1       1       2       1       1       2
       1       1       2       1       1       2       1       1       2       1
       1       2       1       1       2       1       1       2       1       1
       2       1       1       2       1       1       2       1       1       2
       1       1       2       1       1       2       1       1       2       1
       1       2       1       1       2       1       1       2       1       1
       2       1       1       2       1       1       2       1       1       2
       1       1       2       1       1       2       1       1       2       1
       1       2       1       1       2       1       1       2       1       1
       2       1       1       2       1       1       2       1       1       2
       1       1       2       1       1       2       1       1       2       1
       1       2       1       1       2       1       1       2       1       1
       2       1       1       2       1       1       2       1       1       2
       1       1       2       1       1       2       1       1       2       1
       1       2       1       1       2       1       1       2       1       1
       2       1       1       2       1       1       2       1       1       2
       1       1       2       1       1       2       1       1       2       1
       1       2       1       1       2       1       1       2       1       1
       2       1       1       2       1       1       2       1       1       2
       1       1       2       1       1       2       1       1       2       1
       1       2       1       1       2       1       1       2       1       1
       2       1       1       2       1       1       2       1       1       2
       1       1       2       1       1       2       1       1       2       1
       1       2       1       1       2       1       1       2       1       1
       2       1       1       2       1       1       2       1       1       2
       1       1       2       1       1       2       1       1       2       1
       1       2       1       1       2       1       1       2       1       1
       2       1       1       2       1       1       2       1       1       2
       1       1       2       1       1       2       1       1       2       1
       1       2       1       1       2       1       1       2       1       1
       2       1       1       2       1       1       2       1       1       2
       1       1       2       1       1       2       1       1       2       1
       1       2       1       1       2       1       1       2       1       1
       2       1       1       2       1       1       2       1       1       2
       1       1       2       1       1       2       1       1       2       1
       1       2       1       1       2       1       1       2       1       1
       2       1       1       2       1       1       2       1       1       2
       1       1       2       1       1       2       1       1       2       1
       1       2       1       1       2       1       1       2       1       1
       2       1       1       2       1       1       2       1       1       2
       1       1       2       1       1       2       1       1       2       1
       1       2       1       1       2       1       1       2       1       1
       2       1       1       2       1       1       2       1       1       2
       1       1       2       1       1       2       1       1       2       1
       1       2       1       1       2       1       1       2       1       1
       2       1       1       2       1       1       2       1       1       2
       1       1       2       1       1       2       1       1       2       1
       1       2       1       1       2       1       1       2       1       1
       2       1       1       2       1       1       2       1       1       2
       1       1       2       1       1       2       1       1       2       1
       1       2       1       1       2       1       1       2       1       1
       2       1       1       2       1       1       2       1       1       2
       1       1       2       1       1       2       1       1       2       1
       1       2       1       1       2       1       1       2       1       1
       2       1       1       2       1       1       2       1       1       2
       1       1       2       1       1       2       1       1       2       1
       1       2       1       1       2       1       1       2       1       1
       2       1       1       2       1       1       2       1       1       2
       1       1       2       1       1       2       1       1       2       1
       1       2       1       1       2       1       1       2       1       1
       2       1       1       2       1       1       2       1       1       2
       1       1       2       1       1       2       1       1       2       1
       1       2       1       1       2       1       1       2       1       1
       2       1       1       2       1       1       2       1       1       2
       1       1       2       1       1       2       1       1       2       1
       1       2       1       1       2       1       1       2       1       1
       2       1       1       2       1       1       2       1       1       2
       1       1       2       1       1       2       1       1       2       1
       1       2       1       1       2       1       1       2       1       1
       2       1       1       2       1       1       2       1       1       2
       1       1       2       1       1       2       1       1       2       1
       1       2       1       1       2       1       1       2       1       1
       2       1       1       2       1       1       2       1       1       2
       1       1       2       1       1       2       1       1       2       1
       1       2       1       1       2       1       1       2       1       1
       2       1       1       2       1       1       2       1       1       2
       1       1       2       1       1       2       1       1       2       1
       1       2       1       1       2       1       1       2       1       1
       2       1       1       2       1       1       2       1       1       2
       1       1       2       1       1       2       1       1       2       1
       1       2       1       1       2       1       1       2       1       1
       2       1       1       2       1       1       2       1       1       2
       1       1       2       1       1       2       1       1       2       1
       1       2       1       1       2       1       1       2       1       1
       2       1       1       2       1       1       2       1       1       2
       1       1       2       1       1       2       1       1       2       1
       1       2       1       1       2       1       1       2       1       1
       2       1       1       2       1       1       2       1       1       2
       1       1       2       1       1       2       1       1       2       1
       1       2       1       1       2       1       1       2       1       1
       2       1       1       2       1       1       2       1       1       2
       1       1       2       1       1       2       1       1       2       1
       1       2       1       1       2       1       1       2       1       1
       2       1       1       2       1       1       2       1       1       2
       1       1       2       1       1       2       1       1       2       1
       1       2       1       1       2       1       1       2       1       1
       2       1       1       2       1       1       2       1       1       2
       1       1       2       1       1       2       1       1       2       1
       1       2       1       1       2       1       1       2       1       1
       2       1       1       2       1       1       2       1       1       2
       1       1       2       1       1       2       1       1       2       1
       1       2       1       1       2       1       1       2       1       1
       2       1       1       2       1       1       2       1       1       2
       1       1       2       1       1       2       1       1       2       1
       1       2       1       1       2       1       1       2       1       1
       2       1       1       2       1       1       2       1       1       2
       1       1       2       1       1       2       1       1       2       1
       1       2       1       1       2       1       1       2       1       1
       2       1       1       2       1       1       2       1       1       2
       1       1       2       1       1       2       1       1       2       1
       1       2       1       1       2       1       1       2       1       1
       2       1       1       2       1       1       2       1       1       2
       1       1       2       1       1       2       1       1       2       1
       1       2       1       1       2       1       1       2       1       1
       2       1       1       2       1       1       2       1       1       2
       1       1       2       1       1       2       1       1       2       1
       1       2       1       1       2       1       1       2       1       1
       2       1       1       2       1       1       2       1       1       2
       1       1       2       1       1       2       1       1       2       1
       1       2       1       1       2       1       1       2       1       1
       2       1       1       2       1       1       2       1       1       2
       1       1       2       1       1       2       1       1       2       1
       1       2       1       1       2       1       1       2       1       1
       2       1       1       2       1       1       2       1       1       2
       1       1       2       1       1       2       1       1       2       1
       1       2       1       1       2       1       1       2       1       1
       2       1       1       2       1       1       2       1       1       2
       1       1       2       1       1       2       1       1       2       1
       1       2       1       1       2       1       1       2       1       1
       2       1       1       2       1       1       2       1       1       2
       1       1       2       1       1       2       1       1       2       1
       1       2       1       1       2       1       1       2       1       1
       2       1       1       2       1       1       2       1       1       2
       1       1       2       1       1       2       1       1       2       1
       1       2       1       1       2       1       1       2       1       1
       2       1       1       2       1       1       2       1       1       2
       1       1       2       1       1       2       1       1       2       1
       1       2       1       1       2       1       1       2       1       1
       2       1       1       2       1       1       2       1       1       2
       1       1       2       1       1       2       1       1       2       1
       1       2       1       1       2       1       1       2       1       1
       2       1       1       2       1       1       2       1       1       2
       1       1       2       1       1       2       1       1       2       1
       1       2       1       1       2       1       1       2       1       1
       2       1       1       2       1       1       2       1       1       2
       1       1       2       1       1       2       1       1       2       1
       1       2       1       1       2       1       1       2       1       1
       2       1       1       2       1       1       2       1       1       2
       1       1       2       1       1       2       1       1       2       1
       1       2       1       1       2       1       1       2       1       1
       2       1       1       2       1       1       2       1       1       2
       1       1       2       1       1       2       1       1       2       1
       1       2       1       1       2       1       1       2       1       1
       2       1       1       2       1       1       2       1       1       2
       1       1       2       1       1       2       1       1       2       1
       1       2       1       1       2       1       1       2       1       1
       2       1       1       2       1       1       2       1       1       2
       1       1       2       1       1       2       1       1       2       1
       1       2       1       1       2       1       1       2       1       1
       2       1       1       2       1       1       2       1       1       2
       1       1       2       1       1       2       1       1       2       1
       1       2       1       1       2       1       1       2       1       1
       2       1       1       2       1       1       2       1       1       2
       1       1       2       1       1       2       1       1       2       1
       1       2       1       1       2       1       1       2       1       1
       2       1       1       2       1       1       2       1       1       2
       1       1       2       1       1       2       1       1       2       1
       1       2       1       1       2       1       1       2       1       1
       2       1       1       2       1       1       2       1       1       2
       1       1       2       1       1       2       1       1       2       1
       1       2       1       1       2       1       1       2       1       1
       2       1       1       2       1       1       2       1       1       2
       1       1       2       1       1       2       1       1       2       1
       1       2       1       1       2       1       1       2       1       1
       2       1       1       2       1       1       2       1       1       2
       1       1       2       1       1       2       1       1       2       1
       1       2       1       1       2       1       1       2       1       1
       2       1       1       2       1       1       2       1       1       2
       1       1       2       1       1       2       1       1       2       1
       1       2       1       1       2       1       1       2       1       1
       2       1       1       2       1       1       2       1       1       2
       1       1       2       1       1       2       1       1       2       1
       1       2       1       1       2       1       1       2       1       1
       2       1       1       2       1       1       2       1       1       2
       1       1       2       1       1       2       1       1       2       1
       1       2       1       1       2       1       1       2       1       1
       2       1       1       2       1       1       2       1       1       2
       1       1       2       1       1       2       1       1       2       1
       1       2       1       1       2       1       1       2       1       1
       2       1       1       2       1       1       2       1       1       2
       1       1       2       1       1       2       1       1       2       1
       1       2       1       1       2       1       1       2       1       1
       2       1       1       2       1       1       2       1       1       2
       1       1       2       1       1       2       1       1       2       1
       1       2       1       1       2       1       1       2       1       1
       2       1       1       2       1       1       2       1       1       2
       1       1       2       1       1       2       1       1       2       1
       1       2       1       1       2       1       1       2       1       1
       2       1       1       2       1       1       2       1       1       2
       1       1       2       1       1       2       1       1       2       1
       1       2       1       1       2       1       1       2       1       1
       2       1       1       2       1       1       2       1       1       2
       1       1       2       1       1       2       1       1       2       1
       1       2       1       1       2       1       1       2       1       1
       2       1       1       2       1       1       2       1       1       2
       1       1       2       1       1       2       1       1       2       1
       1       2       1       1       2       1       1       2       1       1
       2       1       1       2       1       1       2       1       1       2
       1       1       2       1       1       2       1       1       2       1
       1       2       1       1       2       1       1       2       1       1
       2       1       1       2       1       1       2       1       1       2
       1       1       2       1       1       2       1       1       2       1
       1       2       1       1       2       1       1       2       1       1
       2       1       1       2       1       1       2       1       1       2
       1       1       2       1       1       2       1       1       2       1
       1       2       1       1       2       1       1       2       1       1
       2       1       1       2       1       1       2       1       1       2
       1       1       2       1       1       2       1       1       2       1
       1       2       1       1       2       1       1       2       1       1
       2       1       1       2       1       1       2       1       1       2
       1       1       2       1       1       2       1       1       2       1
       1       2       1       1       2       1       1       2       1       1
       2       1       1       2       1       1       2       1       1       2
       1       1       2       1       1       2       1       1       2       1
       1       2       1       1       2       1       1       2       1       1
       2       1       1       2       1       1       2       1       1       2
       1       1       2       1       1       2       1       1       2       1
       1       2       1       1       2       1       1       2       1       1
       2       1       1       2       1       1       2       1       1       2
       1       1       2       1       1       2       1       1       2       1
       1       2       1       1       2       1       1       2       1       1
       2       1       1       2       1       1       2       1       1       2
       1       1       2       1       1       2       1       1       2       1
       1       2       1       1       2       1       1       2       1       1
       2       1       1       2       1       1       2       1       1       2
       1       1       2       1       1       2       1       1       2       1
       1       2       1       1       2       1       1       2       1       1
       2       1       1       2       1       1       2       1       1       2
       1       1       2       1       1       2       1       1       2       1
       1       2       1       1       2       1       1       2       1       1
       2       1       1       2       1       1       2       1       1       2
       1       1       2       1       1       2       1       1       2       1
       1       2       1       1       2       1       1       2       1       1
       2       1       1       2       1       1       2       1       1       2
       1       1       2       1       1       2       1       1       2       1
       1       2       1       1       2       1       1       2       1       1
       2       1       1       2       1       1       2       1       1       2
       1       1       2       1       1       2       1       1       2       1
       1       2       1       1       2       1       1       2       1       1
       2       1       1       2       1       1       2       1       1       2
       1       1       2       1       1       2       1       1       2       1
       1       2       1       1       2       1       1       2       1       1
       2       1       1       2       1       1       2       1       1       2
       1       1       2       1       1       2       1       1       2       1
       1       2       1       1       2       1       1       2       1       1
       2       1       1       2       1       1       2       1       1       2
       1       1       2       1       1       2       1       1       2       1
       1       2       1       1       2       1       1       2       1       1
       2       1       1       2       1       1       2       1       1       2
       1       1       2       1       1       2       1       1       2       1
       1       2       1       1       2       1       1       2       1       1
       2       1       1       2       1       1       2       1       1       2
       1       1       2       1       1       2       1       1       2       1
       1       2       1       1       2       1       1       2       1       1
       2       1       1       2       1       1       2       1       1       2
       1       1       2       1       1       2       1       1       2       1
       1       2       1       1       2       1       1       2       1       1
       2       1       1       2       1       1       2       1       1       2
       1       1       2       1       1       2       1       1       2       1
       1       2       1       1       2       1       1       2       1       1
       2       1       1       2       1       1       2       1       1       2
       1       1       2       1       1       2       1       1       2       1
       1       2       1       1       2       1       1       2       1       1
       2       1       1       2       1       1       2       1       1       2
       1       1       2       1       1       2       1       1       2       1
       1       2       1       1       2       1       1       2       1       1
       2       1       1       2       1       1       2       1       1       2
       1       1       2       1       1       2       1       1       2       1
       1       2       1       1       2       1       1       2       1       1
       2       1       1       2       1       1       2       1       1       2
       1       1       2       1       1       2       1       1       2       1
       1       2       1       1       2       1       1       2       1       1
       2       1       1       2       1       1       2       1       1       2
       1       1       2       1       1       2       1       1       2       1
       1       2       1       1       2       1       1       2       1       1
       2       1       1       2       1       1       2       1       1       2
       1       1       2       1       1       2       1       1       2       1
       1       2       1       1       2       1       1       2       1       1
       2       1       1       2       1       1       2       1       1       2
       1       1       2       1       1       2       1       1       2       1
       1       2       1       1       2       1       1       2       1       1
       2       1       1       2       1       1       2       1       1       2
       1       1       2       1       1       2       1       1       2       1
       1       2       1       1       2       1       1       2       1       1
       2       1       1       2       1       1       2       1       1       2
       1       1       2       1       1       2       1       1       2       1
       1       2       1       1       2       1       1       2       1       1
       2       1       1       2       1       1       2       1       1       2
       1       1       2       1       1       2       1       1       2       1
       1       2       1       1       2       1       1       2       1       1
       2       1       1       2       1       1       2       1       1       2
       1       1       2       1       1       2       1       1       2       1
       1       2       1       1       2       1       1       2       1       1
       2       1       1       2       1       1       2       1       1       2
       1       1       2       1       1       2       1       1       2       1
       1       2       1       1       2       1       1       2       1       1
       2       1       1       2       1       1       2       1       1       2
       1       1       2       1       1       2       1       1       2       1
       1       2       1       1       2       1       1       2       1       1
       2       1       1       2       1       1       2       1       1       2
       1       1       2       1       1       2       1       1       2       1
       1       2       1       1       2       1       1       2       1       1
       2       1       1       2       1       1       2       1       1       2
       1       1       2       1       1       2       1       1       2       1
       1       2       1       1       2       1       1       2       1       1
       2       1       1       2       1       1       2       1       1       2
       1       1       2       1       1       2       1       1       2       1
       1       2       1       1       2       1       1       2       1       1
       2       1       1       2       1       1       2       1       1       2
       1       1       2       1       1       2       1       1       2       1
       1       2       1       1       2       1       1       2       1       1
       2       1       1       2       1       1       2       1       1       2
       1       1       2       1       1       2       1       1       2       1
       1       2       1       1       2       1       1       2       1       1
       2       1       1       2       1       1       2       1       1       2
       1       1       2       1       1       2       1       1       2       1
       1       2       1       1       2       1       1       2       1       1
       2       1       1       2       1       1       2       1       1       2
       1       1       2       1       1       2       1       1       2       1
       1       2       1       1       2       1       1       2       1       1
       2       1       1       2       1       1       2       1       1       2
       1       1       2       1       1       2       1       1       2       1
       1       2       1       1       2       1       1       2       1       1
       2       1       1       2       1       1       2       1       1       2
       1       1       2       1       1       2       1       1       2       1
       1       2       1       1       2       1       1       2       1       1
       2       1       1       2       1       1       2       1       1       2
       1       1       2       1       1       2       1       1       2       1
       1       2       1       1       2       1       1       2       1       1
       2       1       1       2       1       1       2       1       1       2
       1       1       2       1       1       2       1       1       2       1
       1       2       1       1       2       1       1       2       1       1
       2       1       1       2       1       1       2       1       1       2
       1       1       2       1       1       2       1       1       2       1
       1       2       1       1       2       1       1       2       1       1
       2       1       1       2       1       1       2       1       1       2
       1       1       2       1       1       2       1       1       2       1
       1       2       1       1       2       1       1       2       1       1
       2       1       1       2       1       1       2       1       1       2
       1       1       2       1       1       2       1       1       2       1
       1       2       1       1       2       1       1       2       1       1
       2       1       1       2       1       1       2       1       1       2
       1       1       2       1       1       2       1       1       2       1
       1       2       1       1       2       1       1       2       1       1
       2       1       1       2       1       1       2       1       1       2
       1       1       2       1       1       2       1       1       2       1
       1       2       1       1       2       1       1       2       1       1
       2       1       1       2       1       1       2       1       1       2
       1       1       2       1       1       2       1       1       2       1
       1       2       1       1       2       1       1       2       1       1
       2       1       1       2       1       1       2       1       1       2
       1       1       2       1       1       2       1       1       2       1
       1       2       1       1       2       1       1       2       1       1
       2       1       1       2       1       1       2       1       1       2
       1       1       2       1       1       2       1       1       2       1
       1       2       1       1       2       1       1       2       1       1
       2       1       1       2       1       1       2       1       1       2
       1       1       2       1       1       2       1       1       2       1
       1       2       1       1       2       1       1       2       1       1
       2       1       1       2       1       1       2       1       1       2
       1       1       2       1       1       2       1       1       2       1
       1       2       1       1       2       1       1       2       1       1
       2       1       1       2       1       1       2       1       1       2
       1       1       2       1       1       2       1       1       2       1
       1       2       1       1       2       1       1       2       1       1
       2       1       1       2       1       1       2       1       1       2
       1       1       2       1       1       2       1       1       2       1
       1       2       1       1       2       1       1       2       1       1
       2       1       1       2       1       1       2       1       1       2
       1       1       2       1       1       2       1       1       2       1
       1       2       1       1       2       1       1       2       1       1
       2       1       1       2       1       1       2       1       1       2
       1       1       2       1       1       2       1       1       2       1
       1       2       1       1       2       1       1       2       1       1
       2       1       1       2       1       1       2       1       1       2
       1       1       2       1       1       2       1       1       2       1
       1       2       1       1       2       1       1       2       1       1
       2       1       1       2       1       1       2       1       1       2
       1       1       2       1       1       2       1       1       2       1
       1       2       1       1       2       1       1       2       1       1
       2       1       1       2       1       1       2       1       1       2
       1       1       2       1       1       2       1       1       2       1
       1       2       1       1       2       1       1       2       1       1
       2       1       1       2       1       1       2       1       1       2
       1       1       2       1       1       2       1       1       2       1
       1       2       1       1       2       1       1       2       1       1
       2       1       1       2       1       1       2       1       1       2
       1       1       2       1       1       2       1       1       2       1
       1       2       1       1       2       1       1       2       1       1
       2       1       1       2       1       1       2       1       1       2
       1       1       2       1       1       2       1       1       2       1
       1       2       1       1       2       1       1       2       1       1
       2       1       1       2       1       1       2       1       1       2
       1       1       2       1       1       2       1       1       2       1
       1       2       1       1       2       1       1       2       1       1
       2       1       1       2       1       1       2       1       1       2
       1       1       2       1       1       2       1       1       2       1
       1       2       1       1       2       1       1       2       1       1
       2       1       1       2       1       1       2       1       1       2
       1       1       2       1       1       2       1       1       2       1
       1       2       1       1       2       1       1       2       1       1
       2       1       1       2       1       1       2       1       1       2
       1       1       2       1       1       2       1       1       2       1
       1       2       1       1       2       1       1       2       1       1
       2       1       1       2       1       1       2       1       1       2
       1       1       2       1       1       2       1       1       2       1
       1       2       1       1       2       1       1       2       1       1
       2       1       1       2       1       1       2       1       1       2
       1       1       2       1       1       2       1       1       2       1
       1       2       1       1       2       1       1       2       1       1
       2       1       1       2       1       1       2       1       1       2
       1       1       2       1       1       2       1       1       2       1
       1       2       1       1       2       1       1       2       1       1
       2       1       1       2       1       1       2       1       1       2
       1       1       2       1       1       2       1       1       2       1
       1       2       1       1       2       1       1       2       1       1
       2       1       1       2       1       1       2       1       1       2
       1       1       2       1       1       2       1       1       2       1
       1       2       1       1       2       1       1       2       1       1
       2       1       1       2       1       1       2       1       1       2
       1       1       2       1       1       2       1       1       2       1
       1       2       1       1       2       1       1       2       1       1
       2       1       1       2       1       1       2       1       1       2
       1       1       2       1       1       2       1       1       2       1
       1       2       1       1       2       1       1       2       1       1
       2       1       1       2       1       1       2       1       1       2
       1       1       2       1       1       2       1       1       2       1
       1       2       1       1       2       1       1       2       1       1
       2       1       1       2       1       1       2       1       1       2
       1       1       2       1       1       2       1       1       2       1
       1       2       1       1       2       1       1       2       1       1
       2       1       1       2       1       1       2       1       1       2
       1       1       2       1       1       2       1       1       2       1
       1       2       1       1       2       1       1       2       1       1
       2       1       1       2       1       1       2       1       1       2
       1       1       2       1       1       2       1       1       2       1
       1       2       1       1       2       1       1       2       1       1
       2       1       1       2       1       1       2       1       1       2
       1       1       2       1       1       2       1       1       2       1
       1       2       1       1       2       1       1       2       1       1
       2       1       1       2       1       1       2       1       1       2
       1       1       2       1       1       2       1       1       2       1
       1       2       1       1       2       1       1       2       1       1
       2       1       1       2       1       1       2       1       1       2
       1       1       2       1       1       2       1       1       2       1
       1       2       1       1       2       1       1       2       1       1
       2       1       1       2       1       1       2       1       1       2
       1       1       2       1       1       2       1       1       2       1
       1       2       1       1       2       1       1       2       1       1
       2       1       1       2       1       1       2       1       1       2
       1       1       2       1       1       2       1       1       2       1
       1       2       1       1       2       1       1       2       1       1
       2       1       1       2       1       1       2       1       1       2
       1       1       2       1       1       2       1       1       2       1
       1       2       1       1       2       1       1       2       1       1
       2       1       1       2       1       1       2       1       1       2
       1       1       2       1       1       2       1       1       2       1
       1       2       1       1       2       1       1       2       1       1
       2       1       1       2       1       1       2       1       1       2
       1       1       2       1       1       2       1       1       2       1
       1       2       1       1       2       1       1       2       1       1
       2       1       1       2       1       1       2       1       1       2
       1       1       2       1       1       2       1       1       2       1
       1       2       1       1       2       1       1       2       1       1
       2       1       1       2       1       1       2       1       1       2
       1       1       2       1       1       2       1       1       2       1
       1       2       1       1       2       1       1       2       1       1
       2       1       1       2       1       1       2       1       1       2
       1       1       2       1       1       2       1       1       2       1
       1       2       1       1       2       1       1       2       1       1
       2       1       1       2       1       1       2       1       1       2
       1       1       2       1       1       2       1       1       2       1
       1       2       1       1       2       1       1       2       1       1
       2       1       1       2       1       1       2       1       1       2
       1       1       2       1       1       2       1       1       2       1
       1       2       1       1       2       1       1       2       1       1
       2       1       1       2       1       1       2       1       1       2
       1       1       2       1       1       2       1       1       2       1
       1       2       1       1       2       1       1       2       1       1
       2       1       1       2       1       1       2       1       1       2
       1       1       2       1       1       2       1       1       2       1
       1       2       1       1       2       1       1       2       1       1
       2       1       1       2       1       1       2       1       1       2
       1       1       2       1       1       2       1       1       2       1
       1       2       1       1       2       1       1       2       1       1
       2       1       1       2       1       1       2       1       1       2
       1       1       2       1       1       2       1       1       2       1
       1       2       1       1       2       1       1       2       1       1
       2       1       1       2       1       1       2       1       1       2
       1       1       2       1       1       2       1       1       2       1
       1       2       1       1       2       1       1       2       1       1
       2       1       1       2       1       1       2       1       1       2
       1       1       2       1       1       2       1       1       2       1
       1       2       1       1       2       1       1       2       1       1
       2       1       1       2       1       1       2       1       1       2
       1       1       2       1       1       2       1       1       2       1
       1       2       1       1       2       1       1       2       1       1
       2       1       1       2       1       1       2       1       1       2
       1       1       2       1       1       2       1       1       2       1
       1       2       1       1       2       1       1       2       1       1
       2       1       1       2       1       1       2       1       1       2
       1       1       2       1       1       2       1       1       2       1
       1       2       1       1       2       1       1       2       1       1
       2       1       1       2       1       1       2       1       1       2
       1       1       2       1       1       2       1       1       2       1
       1       2       1       1       2       1       1       2       1       1
       2       1       1       2       1       1       2       1       1       2
       1       1       2       1       1       2       1       1       2       1
       1       2       1       1       2       1       1       2       1       1
       2       1       1       2       1       1       2       1       1       2
       1       1       2       1       1       2       1       1       2       1
       1       2       1       1       2       1       1       2       1       1
       2       1       1       2       1       1       2       1       1       2
       1       1       2       1       1       2       1       1       2       1
       1       2       1       1       2       1       1       2       1       1
       2       1       1       2       1       1       2       1       1       2
       1       1       2       1       1       2       1       1       2       1
       1       2       1       1       2       1       1       2       1       1
       2       1       1       2       1       1       2       1       1       2
       1       1       2       1       1       2       1       1       2       1
       1       2       1       1       2       1       1       2       1       1
       2       1       1       2       1       1       2       1       1       2
       1       1       2       1       1       2       1       1       2       1
       1       2       1       1       2       1       1       2       1       1
       2       1       1       2       1       1       2       1       1       2
       1       1       2       1       1       2       1       1       2       1
       1       2       1       1       2       1       1       2       1       1
       2       1       1       2       1       1       2       1       1       2
       1       1       2       1       1       2       1       1       2       1
       1       2       1       1       2       1       1       2       1       1
       2       1       1       2       1       1       2       1       1       2
       1       1       2       1       1       2       1       1       2       1
       1       2       1       1       2       1       1       2       1       1
       2       1       1       2       1       1       2       1       1       2
       1       1       2       1       1       2       1       1       2       1
       1       2       1       1       2       1       1       2       1       1
       2       1       1       2       1       1       2       1       1       2
       1       1       2       1       1       2       1       1       2       1
       1       2       1       1       2       1       1       2       1       1
       2       1       1       2       1       1       2       1       1       2
       1       1       2       1       1       2       1       1       2       1
       1       2       1       1       2       1       1       2       1       1
       2       1       1       2       1       1       2       1       1       2
       1       1       2       1       1       2       1       1       2       1
       1       2       1       1       2       1       1       2       1       1
       2       1       1       2       1       1       2       1       1       2
       1       1       2       1       1       2       1       1       2       1
       1       2       1       1       2       1       1       2       1       1
       2       1       1       2       1       1       2       1       1       2
       1       1       2       1       1       2       1       1       2       1
       1       2       1       1       2       1       1       2       1       1
       2       1       1       2       1       1       2       1       1       2
       1       1       2       1       1       2       1       1       2       1
       1       2       1       1       2       1       1       2       1       1
       2       1       1       2       1       1       2       1       1       2
       1       1       2       1       1       2       1       1       2       1
       1       2       1       1       2       1       1       2       1       1
       2       1       1       2       1       1       2       1       1       2
       1       1       2       1       1       2       1       1       2       1
       1       2       1       1       2       1       1       2       1       1
       2       1       1       2       1       1       2       1       1       2
       1       1       2       1       1       2       1       1       2       1
       1       2       1       1       2       1       1       2       1       1
       2       1       1       2       1       1       2       1       1       2
       1       1       2       1       1       2       1       1       2       1
       1       2       1       1       2       1       1       2       1       1
       2       1       1       2       1       1       2       1       1       2
       1       1       2       1       1       2       1       1       2       1
       1       2       1       1       2       1       1       2       1       1
       2       1       1       2       1       1       2       1       1       2
       1       1       2       1       1       2       1       1       2       1
       1       2       1       1       2       1       1       2       1       1
       2       1       1       2       1       1       2       1       1       2
       1       1       2       1       1       2       1       1       2       1
       1       2       1       1       2       1       1       2       1       1
       2       1       1       2       1       1       2       1       1       2
       1       1       2       1       1       2       1       1       2       1
       1       2       1       1       2       1       1       2       1       1
       2       1       1       2       1       1       2       1       1       2
       1       1       2       1       1       2       1       1       2       1
       1       2       1       1       2       1       1       2       1       1
       2       1       1       2       1       1       2       1       1       2
       1       1       2       1       1       2       1       1       2       1
       1       2       1       1       2       1       1       2       1       1
       2       1       1       2       1       1       2       1       1       2
       1       1       2       1       1       2       1       1       2       1
       1       2       1       1       2       1       1       2       1       1
       2       1       1       2       1       1       2       1       1       2
       1       1       2       1       1       2       1       1       2       1
       1       2       1       1       2       1       1       2       1       1
       2       1       1       2       1       1       2       1       1       2
       1       1       2       1       1       2       1       1       2       1
       1       2       1       1       2       1       1       2       1       1
       2       1       1       2       1       1       2       1       1       2
       1       1       2       1       1       2       1       1       2       1
       1       2       1       1       2       1       1       2       1       1
       2       1       1       2       1       1       2       1       1       2
       1       1       2       1       1       2       1       1       2       1
       1       2       1       1       2       1       1       2       1       1
       2       1       1       2       1       1       2       1       1       2
       1       1       2       1       1       2       1       1       2       1
       1       2       1       1       2       1       1       2       1       1
       2       1       1       2       1       1       2       1       1       2
       1       1       2       1       1       2       1       1       2       1
       1       2       1       1       2       1       1       2       1       1
       2       1       1       2       1       1       2       1       1       2
       1       1       2       1       1       2       1       1       2       1
       1       2       1       1       2       1       1       2       1       1
       2       1       1       2       1       1       2       1       1       2
       1       1       2       1       1       2       1       1       2       1
       1       2       1       1       2       1       1       2       1       1
       2       1       1       2       1       1       2       1       1       2
       1       1       2       1       1       2       1       1       2       1
       1       2       1       1       2       1       1       2       1       1
       2       1       1       2       1       1       2       1       1       2
       1       1       2       1       1       2       1       1       2       1
       1       2       1       1       2       1       1       2       1       1
       2       1       1       2       1       1       2       1       1       2
       1       1       2       1       1       2       1       1       2       1
       1       2       1       1       2       1       1       2       1       1
       2       1       1       2       1       1       2       1       1       2
       1       1       2       1       1       2       1       1       2       1
       1       2       1       1       2       1       1       2       1       1
       2       1       1       2       1       1       2       1       1       2
       1       1       2       1       1       2       1       1       2       1
       1       2       1       1       2       1       1       2       1       1
       2       1       1       2       1       1       2       1       1       2
       1       1       2       1       1       2       1       1       2       1
       1       2       1       1       2       1       1       2       1       1
       2       1       1       2       1       1       2       1       1       2
       1       1       2       1       1       2       1       1       2       1
       1       2       1       1       2       1       1       2       1       1
       2       1       1       2       1       1       2       1       1       2
       1       1       2       1       1       2       1       1       2       1
       1       2       1       1       2       1       1       2       1       1
       2       1       1       2       1       1       2       1       1       2
       1       1       2       1       1       2       1       1       2       1
       1       2       1       1       2       1       1       2       1       1
       2       1       1       2       1       1       2       1       1       2
       1       1       2       1       1       2       1       1       2       1
       1       2       1       1       2       1       1       2       1       1
       2       1       1       2       1       1       2       1       1       2
       1       1       2       1       1       2       1       1       2       1
       1       2       1       1       2       1       1       2       1       1
       2       1       1       2       1       1       2       1       1       2
       1       1       2       1       1       2       1       1       2       1
       1       2       1       1       2       1       1       2       1       1
       2       1       1       2       1       1       2       1       1       2
       1       1       2       1       1       2       1       1       2       1
       1       2       1       1       2       1       1       2       1       1
       2       1       1       2       1       1       2       1       1       2
       1       1       2       1       1       2       1       1       2       1
       1       2       1       1       2       1       1       2       1       1
       2       1       1       2       1       1       2       1       1       2
       1       1       2       1       1       2       1       1       2       1
       1       2       1       1       2       1       1       2       1       1
       2       1       1       2       1       1       2       1       1       2
       1       1       2       1       1       2       1       1       2       1
       1       2       1       1       2       1       1       2       1       1
       2       1       1       2       1       1       2       1       1       2
       1       1       2       1       1       2       1       1       2       1
       1       2       1       1       2       1       1       2       1       1
       2       1       1       2       1       1       2       1       1       2
       1       1       2       1       1       2       1       1       2       1
       1       2       1       1       2       1       1       2       1       1
       2       1       1       2       1       1       2       1       1       2
       1       1       2       1       1       2       1       1       2       1
       1       2       1       1       2       1       1       2       1       1
       2       1       1       2       1       1       2       1       1       2
       1       1       2       1       1       2       1       1       2       1
       1       2       1       1       2       1       1       2       1       1
       2       1       1       2       1       1       2       1       1       2
       1       1       2       1       1       2       1       1       2       1
       1       2       1       1       2       1       1       2       1       1
       2       1       1       2       1       1       2       1       1       2
       1       1       2       1       1       2       1       1       2       1
       1       2       1       1       2       1       1       2       1       1
       2       1       1       2       1       1       2       1       1       2
       1       1       2       1       1       2       1       1       2       1
       1       2       1       1       2       1       1       2       1       1
       2       1       1       2       1       1       2       1       1       2
       1       1       2       1       1       2       1       1       2       1
       1       2       1       1       2       1       1       2       1       1
       2       1       1       2       1       1       2       1       1       2
       1       1       2       1       1       2       1       1       2       1
       1       2       1       1       2       1       1       2       1       1
       2       1       1       2       1       1       2       1       1       2
       1       1       2       1       1       2       1       1       2       1
       1       2       1       1       2       1       1       2       1       1
       2       1       1       2       1       1       2       1       1       2
       1       1       2       1       1       2       1       1       2       1
       1       2       1       1       2       1       1       2       1       1
       2       1       1       2       1       1       2       1       1       2
       1       1       2       1       1       2       1       1       2       1
       1       2       1       1       2       1       1       2       1       1
       2       1       1       2       1       1       2       1       1       2
       1       1       2       1       1       2       1       1       2       1
       1       2       1       1       2       1       1       2       1       1
       2       1       1       2       1       1       2       1       1       2
       1       1       2       1       1       2       1       1       2       1
       1       2       1       1       2       1       1       2       1       1
       2       1       1       2       1       1       2       1       1       2
       1       1       2       1       1       2       1       1       2       1
       1       2       1       1       2       1       1       2       1       1
       2       1       1       2       1       1       2       1       1       2
       1       1       2       1       1       2       1       1       2       1
       1       2       1       1       2       1       1       2       1       1
       2       1       1       2       1       1       2       1       1       2
       1       1       2       1       1       2       1       1       2       1
       1       2       1       1       2       1       1       2       1       1
       2       1       1       2       1       1       2       1       1       2
       1       1       2       1       1       2       1       1       2       1
       1       2       1       1       2       1       1       2       1       1
       2       1       1       2       1       1       2       1       1       2
       1       1       2       1       1       2       1       1       2       1
       1       2       1       1       2       1       1       2       1       1
       2       1       1       2       1       1       2       1       1       2
       1       1       2       1       1       2       1       1       2       1
       1       2       1       1       2       1       1       2       1       1
       2       1       1       2       1       1       2       1       1       2
       1       1       2       1       1       2       1       1       2       1
       1       2       1       1       2       1       1       2       1       1
       2       1       1       2       1       1       2       1       1       2
       1       1       2       1       1       2       1       1       2       1
       1       2       1       1       2       1       1       2       1       1
       2       1       1       2       1       1       2       1       1       2
       1       1       2       1       1       2       1       1       2       1
       1       2       1       1       2       1       1       2       1       1
       2       1       1       2       1       1       2       1       1       2
       1       1       2       1       1       2       1       1       2       1
       1       2       1       1       2       1       1       2       1       1
       2       1       1       2       1       1       2       1       1       2
       1       1       2       1       1       2       1       1       2       1
       1       2       1       1       2       1       1       2       1       1
       2       1       1       2       1       1       2       1       1       2
       1       1       2       1       1       2       1       1       2       1
       1       2       1       1       2       1       1       2       1       1
       2       1       1       2       1       1       2       1       1       2
       1       1       2       1       1       2       1       1       2       1
       1       2       1       1       2       1       1       2       1       1
       2       1       1       2       1       1       2       1       1       2
       1       1       2       1       1       2       1       1       2       1
       1       2       1       1       2       1       1       2       1       1
       2       1       1       2       1       1       2       1       1       2
       1       1       2       1       1       2       1       1       2       1
       1       2       1       1       2       1       1       2       1       1
       2       1       1       2       1       1       2       1       1       2
       1       1       2       1       1       2       1       1       2       1
       1       2       1       1       2       1       1       2       1       1
       2       1       1       2       1       1       2       1       1       2
       1       1       2       1       1       2       1       1       2       1
       1       2       1       1       2       1       1       2       1       1
       2       1       1       2       1       1       2       1       1       2
       1       1       2       1       1       2       1       1       2       1
       1       2       1       1       2       1       1       2       1       1
       2       1       1       2       1       1       2       1       1       2
       1       1       2       1       1       2       1       1       2       1
       1       2       1       1       2       1       1       2       1       1
       2       1       1       2       1       1       2       1       1       2
       1       1       2       1       1       2       1       1       2       1
       1       2       1       1       2       1       1       2       1       1
       2       1       1       2       1       1       2       1       1       2
       1       1       2       1       1       2       1       1       2       1
       1       2       1       1       2       1       1       2       1       1
       2       1       1       2       1       1       2       1       1       2
       1       1       2       1       1       2       1       1       2       1
       1       2       1       1       2       1       1       2       1       1
       2       1       1       2       1       1       2       1       1       2
       1       1       2       1       1       2       1       1       2       1
       1       2       1       1       2       1       1       2       1       1
       2       1       1       2       1       1       2       1       1       2
       1       1       2       1       1       2       1       1       2       1
       1       2       1       1       2       1       1       2       1       1
       2       1       1       2       1       1       2       1       1       2
       1       1       2       1       1       2       1       1       2       1
       1       2       1       1       2       1       1       2       1       1
       2       1       1       2       1       1       2       1       1       2
       1       1       2       1       1       2       1       1       2       1
       1       2       1       1       2       1       1       2       1       1
       2       1       1       2       1       1       2       1       1       2
       1       1       2       1       1       2       1       1       2       1
       1       2       1       1       2       1       1       2       1       1
       2       1       1       2       1       1       2       1       1       2
       1       1       2       1       1       2       1       1       2       1
       1       2       1       1       2       1       1       2       1       1
       2       1       1       2       1       1       2       1       1       2
       1       1       2       1       1       2       1       1       2       1
       1       2       1       1       2       1       1       2       1       1
       2       1       1       2       1       1       2       1       1       2
       1       1       2       1       1       2       1       1       2       1
       1       2       1       1       2       1       1       2       1       1
       2       1       1       2       1       1       2       1       1       2
       1       1       2       1       1       2       1       1       2       1
       1       2       1       1       2       1       1       2       1       1
       2       1       1       2       1       1       2       1       1       2
       1       1       2       1       1       2       1       1       2       1
       1       2       1       1       2       1       1       2       1       1
       2       1       1       2       1       1       2       1       1       2
       1       1       2       1       1       2       1       1       2       1
       1       2       1       1       2       1       1       2       1       1
       2       1       1       2       1       1       2       1       1       2
       1       1       2       1       1       2       1       1       2       1
       1       2       1       1       2       1       1       2       1       1
       2       1       1       2       1       1       2       1       1       2
       1       1       2       1       1       2       1       1       2       1
       1       2       1       1       2       1       1       2       1       1
       2       1       1       2       1       1       2       1       1       2
       1       1       2       1       1       2       1       1       2       1
       1       2       1       1       2       1       1       2       1       1
       2       1       1       2       1       1       2       1       1       2
       1       1       2       1       1       2       1       1       2       1
       1       2       1       1       2       1       1       2       1       1
       2       1       1       2       1       1       2       1       1       2
       1       1       2       1       1       2       1       1       2       1
       1       2       1       1       2       1       1       2       1       1
       2       1       1       2       1       1       2       1       1       2
       1       1       2       1       1       2       1       1       2       1
       1       2       1       1       2       1       1       2       1       1
       2       1       1       2       1       1       2       1       1       2
       1       1       2       1       1       2       1       1       2       1
       1       2       1       1       2       1       1       2       1       1
       2       1       1       2       1       1       2       1       1       2
       1       1       2       1       1       2       1       1       2       1
       1       2       1       1       2       1       1       2       1       1
       2       1       1       2       1       1       2       1       1       2
       1       1       2       1       1       2       1       1       2       1
       1       2       1       1       2       1       1       2       1       1
       2       1       1       2       1       1       2       1       1       2
       1       1       2       1       1       2       1       1       2       1
       1       2       1       1       2       1       1       2       1       1
       2       1       1       2       1       1       2       1       1       2
       1       1       2       1       1       2       1       1       2       1
       1       2       1       1       2       1       1       2       1       1
       2       1       1       2       1       1       2       1       1       2
       1       1       2       1       1       2       1       1       2       1
       1       2       1       1       2       1       1       2       1       1
       2       1       1       2       1       1       2       1       1       2
       1       1       2       1       1       2       1       1       2       1
       1       2       1       1       2       1       1       2       1       1
       2       1       1       2       1       1       2       1       1       2
       1       1       2       1       1       2       1       1       2       1
       1       2       1       1       2       1       1       2       1       1
       2       1       1       2       1       1       2       1       1       2
       1       1       2       1       1       2       1       1       2       1
       1       2       1       1       2       1       1       2       1       1
       2       1       1       2       1       1       2       1       1       2
       1       1       2       1       1       2       1       1       2       1
       1       2       1       1       2       1       1       2       1       1
       2       1       1       2       1       1       2       1       1       2
       1       1       2       1       1       2       1       1       2       1
       1       2       1       1       2       1       1       2       1       1
       2       1       1       2       1       1       2       1       1       2
       1       1       2       1       1       2       1       1       2       1
       1       2       1       1       2       1       1       2       1       1
       2       1       1       2       1       1       2       1       1       2
       1       1       2       1       1       2       1       1       2       1
       1       2       1       1       2       1       1       2       1       1
       2       1       1       2       1       1       2       1       1       2
       1       1       2       1       1       2       1       1       2       1
       1       2       1       1       2       1       1       2       1       1
       2       1       1       2       1       1       2       1       1       2
       1       1       2       1       1       2       1       1       2       1
       1       2       1       1       2       1       1       2       1       1
       2       1       1       2       1       1       2       1       1       2
       1       1       2       1       1       2       1       1       2       1
       1       2       1       1       2       1       1       2       1       1
       2       1       1       2       1       1       2       1       1       2
       1       1       2       1       1       2       1       1       2       1
       1       2       1       1       2       1       1       2       1       1
       2       1       1       2       1       1       2       1       1       2
       1       1       2       1       1       2       1       1       2       1
       1       2       1       1       2       1       1       2       1       1
       2       1       1       2       1       1       2       1       1       2
       1       1       2       1       1       2       1       1       2       1
       1       2       1       1       2       1       1       2       1       1
       2       1       1       2       1       1       2       1       1       2
       1       1       2       1       1       2       1       1       2       1
       1       2       1       1       2       1       1       2       1       1
       2       1       1       2       1       1       2       1       1       2
       1       1       2       1       1       2       1       1       2       1
       1       2       1       1       2       1       1       2       1       1
       2       1       1       2       1       1       2       1       1       2
       1       1       2       1       1       2       1       1       2       1
       1       2       1       1       2       1       1       2       1       1
       2       1       1       2       1       1       2       1       1       2
       1       1       2       1       1       2       1       1       2       1
       1       2       1       1       2       1       1       2       1       1
       2       1       1       2       1       1       2       1       1       2
       1       1       2       1       1       2       1       1       2       1
       1       2       1       1       2       1       1       2       1       1
       2       1       1       2       1       1       2       1       1       2
       1       1       2       1       1       2       1       1       2       1
       1       2       1       1       2       1       1       2       1       1
       2       1       1       2       1       1       2       1       1       2
       1       1       2       1       1       2       1       1       2       1
       1       2       1       1       2       1       1       2       1       1
       2       1       1       2       1       1       2       1       1       2
       1       1       2       1       1       2       1       1       2       1
       1       2       1       1       2       1       1       2       1       1
       2       1       1       2       1       1       2       1       1       2
       1       1       2       1       1       2       1       1       2       1
       1       2       1       1       2       1       1       2       1       1
       2       1       1       2       1       1       2       1       1       2
       1       1       2       1       1       2       1       1       2       1
       1       2       1       1       2       1       1       2       1       1
       2       1       1       2       1       1       2       1       1       2
       1       1       2       1       1       2       1       1       2       1
       1       2       1       1       2       1       1       2       1       1
       2       1       1       2       1       1       2       1       1       2
       1       1       2       1       1       2       1       1       2       1
       1       2       1       1       2       1       1       2       1       1
       2       1       1       2       1       1       2       1       1       2
       1       1       2       1       1       2       1       1       2       1
       1       2       1       1       2       1       1       2       1       1
       2       1       1       2       1       1       2       1       1       2
       1       1       2       1       1       2       1       1       2       1
       1       2       1       1       2       1       1       2       1       1
       2       1       1       2       1       1       2       1       1       2
       1       1       2       1       1       2       1       1       2       1
       1       2       1       1       2       1       1       2       1       1
       2       1       1       2       1       1       2       1       1       2
       1       1       2       1       1       2       1       1       2       1
       1       2       1       1       2       1       1       2       1       1
       2       1       1       2       1       1       2       1       1       2
       1       1       2       1       1       2       1       1       2       1
       1       2       1       1       2       1       1       2       1       1
       2       1       1       2       1       1       2       1       1       2
       1       1       2       1       1       2       1       1       2       1
       1       2       1       1       2       1       1       2       1       1
       2       1       1       2       1       1       2       1       1       2
       1       1       2       1       1       2       1       1       2       1
       1       2       1       1       2       1       1       2       1       1
       2       1       1       2       1       1       2       1       1       2
       1       1       2       1       1       2       1       1       2       1
       1       2       1       1       2       1       1       2       1       1
       2       1       1       2       1       1       2       1       1       2
       1       1       2       1       1       2       1       1       2       1
       1       2       1       1       2       1       1       2       1       1
       2       1       1       2       1       1       2       1       1       2
       1       1       2       1       1       2       1       1       2       1
       1       2       1       1       2       1       1       2       1       1
       2       1       1       2       1       1       2       1       1       2
       1       1       2       1       1       2       1       1       2       1
       1       2       1       1       2       1       1       2       1       1
       2       1       1       2       1       1       2       1       1       2
       1       1       2       1       1       2       1       1       2       1
       1       2       1       1       2       1       1       2       1       1
       2       1       1       2       1       1       2       1       1       2
       1       1       2       1       1       2       1       1       2       1
       1       2       1       1       2       1       1       2       1       1
       2       1       1       2       1       1       2       1       1       2
       1       1       2       1       1       2       1       1       2       1
       1       2       1       1       2       1       1       2       1       1
       2       1       1       2       1       1       2       1       1       2
       1       1       2       1       1       2       1       1       2       1
       1       2       1       1       2       1       1       2       1       1
       2       1       1       2       1       1       2       1       1       2
       1       1       2       1       1       2       1       1       2       1
       1       2       1       1       2       1       1       2       1       1
       2       1       1       2       1       1       2       1       1       2
       1       1       2       1       1       2       1       1       2       1
       1       2       1       1       2       1       1       2       1       1
       2       1       1       2       1       1       2       1       1       2
       1       1       2       1       1       2       1       1       2       1
       1       2       1       1       2       1       1       2       1       1
       2       1       1       2       1       1       2       1       1       2
       1       1       2       1       1       2       1       1       2       1
       1       2       1       1       2       1       1       2       1       1
       2       1       1       2       1       1       2       1       1       2
       1       1       2       1       1       2       1       1       2       1
       1       2       1       1       2       1       1       2       1       1
       2       1       1       2       1       1       2       1       1       2
       1       1       2       1       1       2       1       1       2       1
       1       2       1       1       2       1       1       2       1       1
       2       1       1       2       1       1       2       1       1       2
       1       1       2       1       1       2       1       1       2       1
       1       2       1       1       2       1       1       2       1       1
       2       1       1       2       1       1       2       1       1       2
       1       1       2       1       1       2       1       1       2       1
       1       2       1       1       2       1       1       2       1       1
       2       1       1       2       1       1       2       1       1       2
       1       1       2       1       1       2       1       1       2       1
       1       2       1       1       2       1       1       2       1       1
       2       1       1       2       1       1       2       1       1       2
       1       1       2       1       1       2       1       1       2       1
       1       2       1       1       2       1       1       2       1       1
       2       1       1       2       1       1       2       1       1       2
       1       1       2       1       1       2       1       1       2       1
       1       2       1       1       2       1       1       2       1       1
       2       1       1       2       1       1       2       1       1       2
       1       1       2       1       1       2       1       1       2       1
       1       2       1       1       2       1       1       2       1       1
       2       1       1       2       1       1       2       1       1       2
       1       1       2       1       1       2       1       1       2       1
       1       2       1       1       2       1       1       2       1       1
       2       1       1       2       1       1       2       1       1       2
       1       1       2       1       1       2       1       1       2       1
       1       2       1       1       2       1       1       2       1       1
       2       1       1       2       1       1       2       1       1       2
       1       1       2       1       1       2       1       1       2       1
       1       2       1       1       2       1       1       2       1       1
       2       1       1       2       1       1       2       1       1       2
       1       1       2       1       1       2       1       1       2       1
       1       2       1       1       2       1       1       2       1       1
       2       1       1       2       1       1       2       1       1       2
       1       1       2       1       1       2       1       1       2       1
       1       2       1       1       2       1       1       2       1       1
       2       1       1       2       1       1       2       1       1       2
       1       1       2       1       1       2       1       1       2       1
       1       2       1       1       2       1       1       2       1       1
       2       1       1       2       1       1       2       1       1       2
       1       1       2       1       1       2       1       1       2       1
       1       2       1       1       2       1       1       2       1       1
       2       1       1       2       1       1       2       1       1       2
       1       1       2       1       1       2       1       1       2       1
       1       2       1       1       2       1       1       2       1       1
       2       1       1       2       1       1       2       1       1       2
       1       1       2       1       1       2       1       1       2       1
       1       2       1       1       2       1       1       2       1       1
       2       1       1       2       1       1       2       1       1       2
       1       1       2       1       1       2       1       1       2       1
       1       2       1       1       2       1       1       2       1       1
       2       1       1       2       1       1       2       1       1       2
       1       1       2       1       1       2       1       1       2       1
       1       2       1       1       2       1       1       2       1       1
       2       1       1       2       1       1       2       1       1       2
       1       1       2       1       1       2       1       1       2       1
       1       2       1       1       2       1       1       2       1       1
       2       1       1       2       1       1       2       1       1       2
       1       1       2       1       1       2       1       1       2       1
       1       2       1       1       2       1       1       2       1       1
       2       1       1       2       1       1       2       1       1       2
       1       1       2       1       1       2       1       1       2       1
       1       2       1       1       2       1       1       2       1       1
       2       1       1       2       1       1       2       1       1       2
       1       1       2       1       1       2       1       1       2       1
       1       2       1       1       2       1       1       2       1       1
       2       1       1       2       1       1       2       1       1       2
       1       1       2       1       1       2       1       1       2       1
       1       2       1       1       2       1       1       2       1       1
       2       1       1       2       1       1       2       1       1       2
       1       1       2       1       1       2       1       1       2       1
       1       2       1       1       2       1       1       2       1       1
       2       1       1       2       1       1       2       1       1       2
       1       1       2       1       1       2       1       1       2       1
       1       2       1       1       2       1       1       2       1       1
       2       1       1       2       1       1       2       1       1       2
       1       1       2       1       1       2       1       1       2       1
       1       2       1       1       2       1       1       2       1       1
       2       1       1       2       1       1       2       1       1       2
       1       1       2       1       1       2       1       1       2       1
       1       2       1       1       2       1       1       2       1       1
       2       1       1       2       1       1       2       1       1       2
       1       1       2       1       1       2       1       1       2       1
       1       2       1       1       2       1       1       2       1       1
       2       1       1       2       1       1       2       1       1       2
       1       1       2       1       1       2       1       1       2       1
       1       2       1       1       2       1       1       2       1       1
       2       1       1       2       1       1       2       1       1       2
       1       1       2       1       1       2       1       1       2       1
       1       2       1       1       2       1       1       2       1       1
       2       1       1       2       1       1       2       1       1       2
       1       1       2       1       1       2       1       1       2       1
       1       2       1       1       2       1       1       2       1       1
       2       1       1       2       1       1       2       1       1       2
       1       1       2       1       1       2       1       1       2       1
       1       2       1       1       2       1       1       2       1       1
       2       1       1       2       1       1       2       1       1       2
       1       1       2       1       1       2       1       1       2       1
       1       2       1       1       2       1       1       2       1       1
       2       1       1       2       1       1       2       1       1       2
       1       1       2       1       1       2       1       1       2       1
       1       2       1       1       2       1       1       2       1       1
       2       1       1       2       1       1       2       1       1       2
       1       1       2       1       1       2       1       1       2       1
       1       2       1       1       2       1       1       2       1       1
       2       1       1       2       1       1       2       1       1       2
       1       1       2       1       1       2       1       1       2       1
       1       2       1       1       2       1       1       2       1       1
       2       1       1       2       1       1       2       1       1       2
       1       1       2       1       1       2       1       1       2       1
       1       2       1       1       2       1       1       2       1       1
       2       1       1       2       1       1       2       1       1       2
       1       1       2       1       1       2       1       1       2       1
       1       2       1       1       2       1       1       2       1       1
       2       1       1       2       1       1       2       1       1       2
       1       1       2       1       1       2       1       1       2       1
       1       2       1       1       2       1       1       2       1       1
       2       1       1       2       1       1       2       1       1       2
       1       1       2       1       1       2       1       1       2       1
       1       2       1       1       2       1       1       2       1       1
       2       1       1       2       1       1       2       1       1       2
       1       1       2       1       1       2       1       1       2       1
       1       2       1       1       2       1       1       2       1       1
       2       1       1       2       1       1       2       1       1       2
       1       1       2       1       1       2       1       1       2       1
       1       2       1       1       2       1       1       2       1       1
       2       1       1       2       1       1       2       1       1       2
       1       1       2       1       1       2       1       1       2       1
       1       2       1       1       2       1       1       2       1       1
       2       1       1       2       1       1       2       1       1       2
       1       1       2       1       1       2       1       1       2       1
       1       2       1       1       2       1       1       2       1       1
       2       1       1       2       1       1       2       1       1       2
       1       1       2       1       1       2       1       1       2       1
       1       2       1       1       2       1       1       2       1       1
       2       1       1       2       1       1       2       1       1       2
       1       1       2       1       1       2       1       1       2       1
       1       2       1       1       2       1       1       2       1       1
       2       1       1       2       1       1       2       1       1       2
       1       1       2       1       1       2       1       1       2       1
       1       2       1       1       2       1       1       2       1       1
       2       1       1       2       1       1       2       1       1       2
       1       1       2       1       1       2       1       1       2       1
       1       2       1       1       2       1       1       2       1       1
       2       1       1       2       1       1       2       1       1       2
       1       1       2       1       1       2       1       1       2       1
       1       2       1       1       2       1       1       2       1       1
       2       1       1       2       1       1       2       1       1       2
       1       1       2       1       1       2       1       1       2       1
       1       2       1       1       2       1       1       2       1       1
       2       1       1       2       1       1       2       1       1       2
       1       1       2       1       1       2       1       1       2       1
       1       2       1       1       2       1       1       2       1       1
       2       1       1       2       1       1       2       1       1       2
       1       1       2       1       1       2       1       1       2       1
       1       2       1       1       2       1       1       2       1       1
       2       1       1       2       1       1       2       1       1       2
       1       1       2       1       1       2       1       1       2       1
       1       2       1       1       2       1       1       2       1       1
       2       1       1       2       1       1       2       1       1       2
       1       1       2       1       1       2       1       1       2       1
       1       2       1       1       2       1       1       2       1       1
       2       1       1       2       1       1       2       1       1       2
       1       1       2       1       1       2       1       1       2       1
       1       2       1       1       2       1       1       2       1       1
       2       1       1       2       1       1       2       1       1       2
       1       1       2       1       1       2       1       1       2       1
       1       2       1       1       2       1       1       2       1       1
       2       1       1       2       1       1       2       1       1       2
       1       1       2       1       1       2       1       1       2       1
       1       2       1       1       2       1       1       2       1       1
       2       1       1       2       1       1       2       1       1       2
       1       1       2       1       1       2       1       1       2       1
       1       2       1       1       2       1       1       2       1       1
       2       1       1       2       1       1       2       1       1       2
       1       1       2       1       1       2       1       1       2       1
       1       2       1       1       2       1       1       2       1       1
       2       1       1       2       1       1       2       1       1       2
       1       1       2       1       1       2       1       1       2       1
       1       2       1       1       2       1       1       2       1       1
       2       1       1       2       1       1       2       1       1       2
       1       1       2       1       1       2       1       1       2       1
       1       2       1       1       2       1       1       2       1       1
       2       1       1       2       1       1       2       1       1       2
       1       1       2       1       1       2       1       1       2       1
       1       2       1       1       2       1       1       2       1       1
       2       1       1       2       1       1       2       1       1       2
       1       1       2       1       1       2       1       1       2       1
       1       2       1       1       2       1       1       2       1       1
       2       1       1       2       1       1       2       1       1       2
       1       1       2       1       1       2       1       1       2       1
       1       2       1       1       2       1       1       2       1       1
       2       1       1       2       1       1       2       1       1       2
       1       1       2       1       1       2       1       1       2       1
       1       2       1       1       2       1       1       2       1       1
       2       1       1       2       1       1       2       1       1       2
       1       1       2       1       1       2       1       1       2       1
       1       2       1       1       2       1       1       2       1       1
       2       1       1       2       1       1       2       1       1       2
       1       1       2       1       1       2       1       1       2       1
       1       2       1       1       2       1       1       2       1       1
       2       1       1       2       1       1       2       1       1       2
       1       1       2       1       1       2       1       1       2       1
       1       2       1       1       2       1       1       2       1       1
       2       1       1       2       1       1       2       1       1       2
       1       1       2       1       1       2       1       1       2       1
       1       2       1       1       2       1       1       2       1       1
       2       1       1       2       1       1       2       1       1       2
       1       1       2       1       1       2       1       1       2       1
       1       2       1       1       2       1       1       2       1       1
       2       1       1       2       1       1       2       1       1       2
       1       1       2       1       1       2       1       1       2       1
       1       2       1       1       2       1       1       2       1       1
       2       1       1       2       1       1       2       1       1       2
       1       1       2       1       1       2       1       1       2       1
       1       2       1       1       2       1       1       2       1       1
       2       1       1       2       1       1       2       1       1       2
       1       1       2       1       1       2       1       1       2       1
       1       2       1       1       2       1       1       2       1       1
       2       1       1       2       1       1       2       1       1       2
       1       1       2       1       1       2       1       1       2       1
       1       2       1       1       2       1       1       2       1       1
       2       1       1       2       1       1       2       1       1       2
       1       1       2       1       1       2       1       1       2       1
       1       2       1       1       2       1       1       2       1       1
       2       1       1       2       1       1       2       1       1       2
       1       1       2       1       1       2       1       1       2       1
       1       2       1       1       2       1       1       2       1       1
       2       1       1       2       1       1       2       1       1       2
       1       1       2       1       1       2       1       1       2       1
       1       2       1       1       2       1       1       2       1       1
       2       1       1       2       1       1       2       1       1       2
       1       1       2       1       1       2       1       1       2       1
       1       2       1       1       2       1       1       2       1       1
       2       1       1       2       1       1       2       1       1       2
       1       1       2       1       1       2       1       1       2       1
       1       2       1       1       2       1       1       2       1       1
       2       1       1       2       1       1       2       1       1       2
       1       1       2       1       1       2       1       1       2       1
       1       2       1       1       2       1       1       2       1       1
       2       1       1       2       1       1       2       1       1       2
       1       1       2       1       1       2       1       1       2       1
       1       2       1       1       2       1       1       2       1       1
       2       1       1       2       1       1       2       1       1       2
       1       1       2       1       1       2       1       1       2       1
       1       2       1       1       2       1       1       2       1       1
       2       1       1       2       1       1       2       1       1       2
       1       1       2       1       1       2       1       1       2       1
       1       2       1       1       2       1       1       2       1       1
       2       1       1       2       1       1       2       1       1       2
       1       1       2       1       1       2       1       1       2       1
       1       2       1       1       2       1       1       2       1       1
       2       1       1       2       1       1       2       1       1       2
       1       1       2       1       1       2       1       1       2       1
       1       2       1       1       2       1       1       2       1       1
       2       1       1       2       1       1       2       1       1       2
       1       1       2       1       1       2       1       1       2       1
       1       2       1       1       2       1       1       2       1       1
       2       1       1       2       1       1       2       1       1       2
       1       1       2       1       1       2       1       1       2       1
       1       2       1       1       2       1       1       2       1       1
       2       1       1       2       1       1       2       1       1       2
       1       1       2       1       1       2       1       1       2       1
       1       2       1       1       2       1       1       2       1       1
       2       1       1       2       1       1       2       1       1       2
       1       1       2       1       1       2       1       1       2       1
       1       2       1       1       2       1       1       2       1       1
       2       1       1       2       1       1       2       1       1       2
       1       1       2       1       1       2       1       1       2       1
       1       2       1       1       2       1       1       2       1       1
       2       1       1       2       1       1       2       1       1       2
       1       1       2       1       1       2       1       1       2       1
       1       2       1       1       2       1       1       2       1       1
       2       1       1       2       1       1       2       1       1       2
       1       1       2       1       1       2       1       1       2       1
       1       2       1       1       2       1       1       2       1       1
       2       1       1       2       1       1       2       1       1       2
       1       1       2       1       1       2       1       1       2       1
       1       2       1       1       2       1       1       2       1       1
       2       1       1       2       1       1       2       1       1       2
       1       1       2       1       1       2       1       1       2       1
       1       2       1       1       2       1       1       2       1       1
       2       1       1       2       1       1       2       1       1       2
       1       1       2       1       1       2       1       1       2       1
       1       2       1       1       2       1       1       2       1       1
       2       1       1       2       1       1       2       1       1       2
       1       1       2       1       1       2       1       1       2       1
       1       2       1       1       2       1       1       2       1       1
       2       1       1       2       1       1       2       1       1       2
       1       1       2       1       1       2       1       1       2       1
       1       2       1       1       2       1       1       2       1       1
       2       1       1       2       1       1       2       1       1       2
       1       1       2       1       1       2       1       1       2       1
       1       2       1       1       2       1       1       2       1       1
       2       1       1       2       1       1       2       1       1       2
       1       1       2       1       1       2       1       1       2       1
       1       2       1       1       2       1       1       2       1       1
       2       1       1       2       1       1       2       1       1       2
       1       1       2       1       1       2       1       1       2       1
       1       2       1       1       2       1       1       2       1       1
       2       1       1       2       1       1       2       1       1       2
       1       1       2       1       1       2       1       1       2       1
       1       2       1       1       2       1       1       2       1       1
       2       1       1       2       1       1       2       1       1       2
       1       1       2       1       1       2       1       1       2       1
       1       2       1       1       2       1       1       2       1       1
       2       1       1       2       1       1       2       1       1       2
       1       1       2       1       1       2       1       1       2       1
       1       2       1       1       2       1       1       2       1       1
       2       1       1       2       1       1       2       1       1       2
       1       1       2       1       1       2       1       1       2       1
       1       2       1       1       2       1       1       2       1       1
       2       1       1       2       1       1       2       1       1       2
       1       1       2       1       1       2       1       1       2       1
       1       2       1       1       2       1       1       2       1       1
       2       1       1       2       1       1       2       1       1       2
       1       1       2       1       1       2       1       1       2       1
       1       2       1       1       2       1       1       2       1       1
       2       1       1       2       1       1       2       1       1       2
       1       1       2       1       1       2       1       1       2       1
       1       2       1       1       2       1       1       2       1       1
       2       1       1       2       1       1       2       1       1       2
       1       1       2       1       1       2       1       1       2       1
       1       2       1       1       2       1       1       2       1       1
       2       1       1       2       1       1       2       1       1       2
       1       1       2       1       1       2       1       1       2       1
       1       2       1       1       2       1       1       2       1       1
       2       1       1       2       1       1       2       1       1       2
       1       1       2       1       1       2       1       1       2       1
       1       2       1       1       2       1       1       2       1       1
       2       1       1       2       1       1       2       1       1       2
       1       1       2       1       1       2       1       1       2       1
       1       2       1       1       2       1       1       2       1       1
       2       1       1       2       1       1       2       1       1       2
       1       1       2       1       1       2       1       1       2       1
       1       2       1       1       2       1       1       2       1       1
       2       1       1       2       1       1       2       1       1       2
       1       1       2       1       1       2       1       1       2       1
       1       2       1       1       2       1       1       2       1       1
       2       1       1       2       1       1       2       1       1       2
       1       1       2       1       1       2       1       1       2       1
       1       2       1       1       2       1       1       2       1       1
       2       1       1       2       1       1       2       1       1       2
       1       1       2       1       1       2       1       1       2       1
       1       2       1       1       2       1       1       2       1       1
       2       1       1       2       1       1       2       1       1       2
       1       1       2       1       1       2       1       1       2       1
       1       2       1       1       2       1       1       2       1       1
       2       1       1       2       1       1       2       1       1       2
       1       1       2       1       1       2       1       1       2       1
       1       2       1       1       2       1       1       2       1       1
       2       1       1       2       1       1       2       1       1       2
       1       1       2       1       1       2       1       1       2       1
       1       2       1       1       2       1       1       2       1       1
       2       1       1       2       1       1       2       1       1       2
       1       1       2       1       1       2       1       1       2       1
       1       2       1       1       2       1       1       2       1       1
       2       1       1       2       1       1       2       1       1       2
       1       1       2       1       1       2       1       1       2       1
       1       2       1       1       2       1       1       2       1       1
       2       1       1       2       1       1       2       1       1       2
       1       1       2       1       1       2       1       1       2       1
       1       2       1       1       2       1       1       2       1       1
       2       1       1       2       1       1       2       1       1       2
       1       1       2       1       1       2       1       1       2       1
       1       2       1       1       2       1       1       2       1       1
       2       1       1       2       1       1       2       1       1       2
       1       1       2       1       1       2       1       1       2       1
       1       2       1       1       2       1       1       2       1       1
       2       1       1       2       1       1       2       1       1       2
       1       1       2       1       1       2       1       1       2       1
       1       2       1       1       2       1       1       2       1       1
       2       1       1       2       1       1       2       1       1       2
       1       1       2       1       1       2       1       1       2       1
       1       2       1       1       2       1       1       2       1       1
       2       1       1       2       1       1       2       1       1       2
       1       1       2       1       1       2       1       1       2       1
       1       2       1       1       2       1       1       2       1       1
       2       1       1       2       1       1       2       1       1       2
       1       1       2       1       1       2       1       1       2       1
       1       2       1       1       2       1       1       2       1       1
       2       1       1       2       1       1       2       1       1       2
       1       1       2       1       1       2       1       1       2       1
       1       2       1       1       2       1       1       2       1       1
       2       1       1       2       1       1       2       1       1       2
       1       1       2       1       1       2       1       1       2       1
       1       2       1       1       2       1       1       2       1       1
       2       1       1       2       1       1       2       1       1       2
       1       1       2       1       1       2       1       1       2       1
       1       2       1       1       2       1       1       2       1       1
       2       1       1       2       1       1       2       1       1       2
       1       1       2       1       1       2       1       1       2       1
       1       2       1       1       2       1       1       2       1       1
       2       1       1       2       1       1       2       1       1       2
       1       1       2       1       1       2       1       1       2       1
       1       2       1       1       2       1       1       2       1       1
       2       1       1       2       1       1       2       1       1       2
       1       1       2       1       1       2       1       1       2       1
       1       2       1       1       2       1       1       2       1       1
       2       1       1       2       1       1       2       1       1       2
       1       1       2       1       1       2       1       1       2       1
       1       2       1       1       2       1       1       2       1       1
       2       1       1       2       1       1       2       1       1       2
       1       1       2       1       1       2       1       1       2       1
       1       2       1       1       2       1       1       2       1       1
       2       1       1       2       1       1       2       1       1       2
       1       1       2       1       1       2       1       1       2       1
       1       2       1       1       2       1       1       2       1       1
       2       1       1       2       1       1       2       1       1       2
       1       1       2       1       1       2       1       1       2       1
       1       2       1       1       2       1       1       2       1       1
       2       1       1       2       1       1       2       1       1       2
       1       1       2       1       1       2       1       1       2       1
       1       2       1       1       2       1       1       2       1       1
       2       1       1       2       1       1       2       1       1       2
       1       1       2       1       1       2       1       1       2       1
       1       2       1       1       2       1       1       2       1       1
       2       1       1       2       1       1       2       1       1       2
       1       1       2       1       1       2       1       1       2       1
       1       2       1       1       2       1       1       2       1       1
       2       1       1       2       1       1       2       1       1       2
       1       1       2       1       1       2       1       1       2       1
       1       2       1       1       2       1       1       2       1       1
       2       1       1       2       1       1       2       1       1       2
       1       1       2       1       1       2       1       1       2       1
       1       2       1       1       2       1       1       2       1       1
       2       1       1       2       1       1       2       1       1       2
       1       1       2       1       1       2       1       1       2       1
       1       2       1       1       2       1       1       2       1       1
       2       1       1       2       1       1       2       1       1       2
       1       1       2       1       1       2       1       1       2       1
       1       2       1       1       2       1       1       2       1       1
       2       1       1       2       1       1       2       1       1       2
       1       1       2       1       1       2       1       1       2       1
       1       2       1       1       2       1       1       2       1       1
       2       1       1       2       1       1       2       1       1       2
       1       1       2       1       1       2       1       1       2       1
       1       2       1       1       2       1       1       2       1       1
       2       1       1       2       1       1       2       1       1       2
       1       1       2       1       1       2       1       1       2       1
       1       2       1       1       2       1       1       2       1       1
       2       1       1       2       1       1       2       1       1       2
       1       1       2       1       1       2       1       1       2       1
       1       2       1       1       2       1       1       2       1       1
       2       1       1       2       1       1       2       1       1       2
       1       1       2       1       1       2       1       1       2       1
       1       2       1       1       2       1       1       2       1       1
       2       1       1       2       1       1       2       1       1       2
       1       1       2       1       1       2       1       1       2       1
       1       2       1       1       2       1       1       2       1       1
       2       1       1       2       1       1       2       1       1       2
       1       1       2       1       1       2       1       1       2       1
       1       2       1       1       2       1       1       2       1       1
       2       1       1       2       1       1       2       1       1       2
       1       1       2       1       1       2       1       1       2       1
       1       2       1       1       2       1       1       2       1       1
       2       1       1       2       1       1       2       1       1       2
       1       1       2       1       1       2       1       1       2       1
       1       2       1       1       2       1       1       2       1       1
       2       1       1       2       1       1       2       1       1       2
       1       1       2       1       1       2       1       1       2       1
       1       2       1       1       2       1       1       2       1       1
       2       1       1       2       1       1       2       1       1       2
       1       1       2       1       1       2       1       1       2       1
       1       2       1       1       2       1       1       2       1       1
       2       1       1       2       1       1       2       1       1       2
       1       1       2       1       1       2       1       1       2       1
       1       2       1       1       2       1       1       2       1       1
       2       1       1       2       1       1       2       1       1       2
       1       1       2       1       1       2       1       1       2       1
       1       2       1       1       2       1       1       2       1       1
       2       1       1       2       1       1       2       1       1       2
       1       1       2       1       1       2       1       1       2       1
       1       2       1       1       2       1       1       2       1       1
       2       1       1       2       1       1       2       1       1       2
       1       1       2       1       1       2       1       1       2       1
       1       2       1       1       2       1       1       2       1       1
       2       1       1       2       1       1       2       1       1       2
       1       1       2       1       1       2       1       1       2       1
       1       2       1       1       2       1       1       2       1       1
       2       1       1       2       1       1       2       1       1       2
       1       1       2       1       1       2       1       1       2       1
       1       2       1       1       2       1       1       2       1       1
       2       1       1       2       1       1       2       1       1       2
       1       1       2       1       1       2       1       1       2       1
       1       2       1       1       2       1       1       2       1       1
       2       1       1       2       1       1       2       1       1       2
       1       1       2       1       1       2       1       1       2       1
       1       2       1       1       2       1       1       2       1       1
       2       1       1       2       1       1       2       1       1       2
       1       1       2       1       1       2       1       1       2       1
       1       2       1       1       2       1       1       2       1       1
       2       1       1       2       1       1       2       1       1       2
       1       1       2       1       1       2       1       1       2       1
       1       2       1       1       2       1       1       2       1       1
       2       1       1       2       1       1       2       1       1       2
       1       1       2       1       1       2       1       1       2       1
       1       2       1       1       2       1       1       2       1       1
       2       1       1       2       1       1       2       1       1       2
       1       1       2       1       1       2       1       1       2       1
       1       2       1       1       2       1       1       2       1       1
       2       1       1       2       1       1       2       1       1       2
       1       1       2       1       1       2       1       1       2       1
       1       2       1       1       2       1       1       2       1       1
       2       1       1       2       1       1       2       1       1       2
       1       1       2       1       1       2       1       1       2       1
       1       2       1       1       2       1       1       2       1       1
       2       1       1       2       1       1       2       1       1       2
       1       1       2       1       1       2       1       1       2       1
       1       2       1       1       2       1       1       2       1       1
       2       1       1       2       1       1       2       1       1       2
       1       1       2       1       1       2       1       1       2       1
       1       2       1       1       2       1       1       2       1       1
       2       1       1       2       1       1       2       1       1       2
       1       1       2       1       1       2       1       1       2       1
       1       2       1       1       2       1       1       2       1       1
       2       1       1       2       1       1       2       1       1       2
       1       1       2       1       1       2       1       1       2       1
       1       2       1       1       2       1       1       2       1       1
       2       1       1       2       1       1       2       1       1       2
       1       1       2       1       1       2       1       1       2       1
       1       2       1       1       2       1       1       2       1       1
       2       1       1       2       1       1       2       1       1       2
       1       1       2       1       1       2       1       1       2       1
       1       2       1       1       2       1       1       2       1       1
       2       1       1       2       1       1       2       1       1       2
       1       1       2       1       1       2       1       1       2       1
       1       2       1       1       2       1       1       2       1       1
       2       1       1       2       1       1       2       1       1       2
       1       1       2       1       1       2       1       1       2       1
       1       2       1       1       2       1       1       2       1       1
       2       1       1       2       1       1       2       1       1       2
       1       1       2       1       1       2       1       1       2       1
       1       2       1       1       2       1       1       2       1       1
       2       1       1       2       1       1       2       1       1       2
       1       1       2       1       1       2       1       1       2       1
       1       2       1       1       2       1       1       2       1       1
       2       1       1       2       1       1       2       1       1       2
       1       1       2       1       1       2       1       1       2       1
       1       2       1       1       2       1       1       2       1       1
       2       1       1       2       1       1       2       1       1       2
       1       1       2       1       1       2       1       1       2       1
       1       2       1       1       2       1       1       2       1       1
       2       1       1       2       1       1       2       1       1       2
       1       1       2       1       1       2       1       1       2       1
       1       2       1       1       2       1       1       2       1       1
       2       1       1       2       1       1       2       1       1       2
       1       1       2       1       1       2       1       1       2       1
       1       2       1       1       2       1       1       2       1       1
       2       1       1       2       1       1       2       1       1       2
       1       1       2       1       1       2       1       1       2       1
       1       2       1       1       2       1       1       2       1       1
       2       1       1       2       1       1       2       1       1       2
       1       1       2       1       1       2       1       1       2       1
       1       2       1       1       2       1       1       2       1       1
       2       1       1       2       1       1       2       1       1       2
       1       1       2       1       1       2       1       1       2       1
       1       2       1       1       2       1       1       2       1       1
       2       1       1       2       1       1       2       1       1       2
       1       1       2       1       1       2       1       1       2       1
       1       2       1       1       2       1       1       2       1       1
       2       1       1       2       1       1       2       1       1       2
       1       1       2       1       1       2       1       1       2       1
       1       2       1       1       2       1       1       2       1       1
       2       1       1       2       1       1       2       1       1       2
       1       1       2       1       1       2       1       1       2       1
       1       2       1       1       2       1       1       2       1       1
       2       1       1       2       1       1       2       1       1       2
       1       1       2       1       1       2       1       1       2       1
       1       2       1       1       2       1       1       2       1       1
       2       1       1       2       1       1       2       1       1       2
       1       1       2       1       1       2       1       1       2       1
       1       2       1       1       2       1       1       2       1       1
       2       1       1       2       1       1       2       1       1       2
       1       1       2       1       1       2       1       1       2       1
       1       2       1       1       2       1       1       2       1       1
       2       1       1       2       1       1       2       1       1       2
       1       1       2       1       1       2       1       1       2       1
       1       2       1       1       2       1       1       2       1       1
       2       1       1       2       1       1       2       1       1       2
       1       1       2       1       1       2       1       1       2       1
       1       2       1       1       2       1       1       2       1       1
       2       1       1       2       1       1       2       1       1       2
       1       1       2       1       1       2       1       1       2       1
       1       2       1       1       2       1       1       2       1       1
       2       1       1       2       1       1       2       1       1       2
       1       1       2       1       1       2       1       1       2       1
       1       2       1       1       2       1       1       2       1       1
       2       1       1       2       1       1       2       1       1       2
       1       1       2       1       1       2       1       1       2       1
       1       2       1       1       2       1       1       2       1       1
       2       1       1       2       1       1       2       1       1       2
       1       1       2       1       1       2       1       1       2       1
       1       2       1       1       2       1       1       2       1       1
       2       1       1       2       1       1       2       1       1       2
       1       1       2       1       1       2       1       1       2       1
       1       2       1       1       2       1       1       2       1       1
       2       1       1       2       1       1       2       1       1       2
       1       1       2       1       1       2       1       1       2       1
       1       2       1       1       2       1       1       2       1       1
       2       1       1       2       1       1       2       1       1       2
       1       1       2       1       1       2       1       1       2       1
       1       2       1       1       2       1       1       2       1       1
       2       1       1       2       1       1       2       1       1       2
       1       1       2       1       1       2       1       1       2       1
       1       2       1       1       2       1       1       2       1       1
       2       1       1       2       1       1       2       1       1       2
       1       1       2       1       1       2       1       1       2       1
       1       2       1       1       2       1       1       2       1       1
       2       1       1       2       1       1       2       1       1       2
       1       1       2       1       1       2       1       1       2       1
       1       2       1       1       2       1       1       2       1       1
       2       1       1       2       1       1       2       1       1       2
       1       1       2       1       1       2       1       1       2       1
       1       2       1       1       2       1       1       2       1       1
       2       1       1       2       1       1       2       1       1       2
       1       1       2       1       1       2       1       1       2       1
       1       2       1       1       2       1       1       2       1       1
       2       1       1       2       1       1       2       1       1       2
       1       1       2       1       1       2       1       1       2       1
       1       2       1       1       2       1       1       2       1       1
       2       1       1       2       1       1       2       1       1       2
       1       1       2       1       1       2       1       1       2       1
       1       2       1       1       2       1       1       2       1       1
       2       1       1       2       1       1       2       1       1       2
       1       1       2       1       1       2       1       1       2       1
       1       2       1       1       2       1       1       2       1       1
       2       1       1       2       1       1       2       1       1       2
       1       1       2       1       1       2       1       1       2       1
       1       2       1       1       2       1       1       2       1       1
       2       1       1       2       1       1       2       1       1       2
       1       1       2       1       1       2       1       1       2       1
       1       2       1       1       2       1       1       2       1       1
       2       1       1       2       1       1       2       1       1       2
       1       1       2       1       1       2       1       1       2       1
       1       2       1       1       2       1       1       2       1       1
       2       1       1       2       1       1       2       1       1       2
       1       1       2       1       1       2       1       1       2       1
       1       2       1       1       2       1       1       2       1       1
       2       1       1       2       1       1       2       1       1       2
       1       1       2       1       1       2       1       1       2       1
       1       2       1       1       2       1       1       2       1       1
       2       1       1       2       1       1       2       1       1       2
       1       1       2       1       1       2       1       1       2       1
       1       2       1       1       2       1       1       2       1       1
       2       1       1       2       1       1       2       1       1       2
       1       1       2       1       1       2       1       1       2       1
       1       2       1       1       2       1       1       2       1       1
       2       1       1       2       1       1       2       1       1       2
       1       1       2       1       1       2       1       1       2       1
       1       2       1       1       2       1       1       2       1       1
       2       1       1       2       1       1       2       1       1       2
       1       1       2       1       1       2       1       1       2       1
       1       2       1       1       2       1       1       2       1       1
       2       1       1       2       1       1       2       1       1       2
       1       1       2       1       1       2       1       1       2       1
       1       2       1       1       2       1       1       2       1       1
       2       1       1       2       1       1       2       1       1       2
       1       1       2       1       1       2       1       1       2       1
       1       2       1       1       2       1       1       2       1       1
       2       1       1       2       1       1       2       1       1       2
       1       1       2       1       1       2       1       1       2       1
       1       2       1       1       2       1       1       2       1       1
       2       1       1       2       1       1       2       1       1       2
       1       1       2       1       1       2       1       1       2       1
       1       2       1       1       2       1       1       2       1       1
       2       1       1       2       1       1       2       1       1       2
       1       1       2       1       1       2       1       1       2       1
       1       2       1       1       2       1       1       2       1       1
       2       1       1       2       1       1       2       1       1       2
       1       1       2       1       1       2       1       1       2       1
       1       2       1       1       2       1       1       2       1       1
       2       1       1       2       1       1       2       1       1       2
       1       1       2       1       1       2       1       1       2       1
       1       2       1       1       2       1       1       2       1       1
       2       1       1       2       1       1       2       1       1       2
       1       1       2       1       1       2       1       1       2       1
       1       2       1       1       2       1       1       2       1       1
       2       1       1       2       1       1       2       1       1       2
       1       1       2       1       1       2       1       1       2       1
       1       2       1       1       2       1       1       2       1       1
       2       1       1       2       1       1       2       1       1       2
       1       1       2       1       1       2       1       1       2       1
       1       2       1       1       2       1       1       2       1       1
       2       1       1       2       1       1       2       1       1       2
       1       1       2       1       1       2       1       1       2       1
       1       2       1       1       2       1       1       2       1       1
       2       1       1       2       1       1       2       1       1       2
       1       1       2       1       1       2       1       1       2       1
       1       2       1       1       2       1       1       2       1       1
       2       1       1       2       1       1       2       1       1       2
       1       1       2       1       1       2       1       1       2       1
       1       2       1       1       2       1       1       2       1       1
       2       1       1       2       1       1       2       1       1       2
       1       1       2       1       1       2       1       1       2       1
       1       2       1       1       2       1       1       2       1       1
       2       1       1       2       1       1       2       1       1       2
       1       1       2       1       1       2       1       1       2       1
       1       2       1       1       2       1       1       2       1       1
       2       1       1       2       1       1       2       1       1       2
       1       1       2       1       1       2       1       1       2       1
       1       2       1       1       2       1       1       2       1       1
       2       1       1       2       1       1       2       1       1       2
       1       1       2       1       1       2       1       1       2       1
       1       2       1       1       2       1       1       2       1       1
       2       1       1       2       1       1       2       1       1       2
       1       1       2       1       1       2       1       1       2       1
       1       2       1       1       2       1       1       2       1       1
       2       1       1       2       1       1       2       1       1       2
       1       1       2       1       1       2       1       1       2       1
       1       2       1       1       2       1       1       2       1       1
       2       1       1       2       1       1       2       1       1       2
       1       1       2       1       1       2       1       1       2       1
       1       2       1       1       2       1       1       2       1       1
       2       1       1       2       1       1       2       1       1       2
       1       1       2       1       1       2       1       1       2       1
       1       2       1       1       2       1       1       2       1       1
       2       1       1       2       1       1       2       1       1       2
       1       1       2       1       1       2       1       1       2       1
       1       2       1       1       2       1       1       2       1       1
       2       1       1       2       1       1       2       1       1       2
       1       1       2       1       1       2       1       1       2       1
       1       2       1       1       2       1       1       2       1       1
       2       1       1       2       1       1       2       1       1       2
       1       1       2       1       1       2       1       1       2       1
       1       2       1       1       2       1       1       2       1       1
       2       1       1       2       1       1       2       1       1       2
       1       1       2       1       1       2       1       1       2       1
       1       2       1       1       2       1       1       2       1       1
       2       1       1       2       1       1       2       1       1       2
       1       1       2       1       1       2       1       1       2       1
       1       2       1       1       2       1       1       2       1       1
       2       1       1       2       1       1       2       1       1       2
       1       1       2       1       1       2       1       1       2       1
       1       2       1       1       2       1       1       2       1       1
       2       1       1       2       1       1       2       1       1       2
       1       1       2       1       1       2       1       1       2       1
       1       2       1       1       2       1       1       2       1       1
       2       1       1       2       1       1       2       1       1       2
       1       1       2       1       1       2       1       1       2       1
       1       2       1       1       2       1       1       2       1       1
       2       1       1       2       1       1       2       1       1       2
       1       1       2       1       1       2       1       1       2       1
       1       2       1       1       2       1       1       2       1       1
       2       1       1       2       1       1       2       1       1       2
       1       1       2       1       1       2       1       1       2       1
       1       2       1       1       2       1       1       2       1       1
       2       1       1       2       1       1       2       1       1       2
       1       1       2       1       1       2       1       1       2       1
       1       2       1       1       2       1       1       2       1       1
       2       1       1       2       1       1       2       1       1       2
       1       1       2       1       1       2       1       1       2       1
       1       2       1       1       2       1       1       2       1       1
       2       1       1       2       1       1       2       1       1       2
       1       1       2       1       1       2       1       1       2       1
       1       2       1       1       2       1       1       2       1       1
       2       1       1       2       1       1       2       1       1       2
       1       1       2       1       1       2       1       1       2       1
       1       2       1       1       2       1       1       2       1       1
       2       1       1       2       1       1       2       1       1       2
       1       1       2       1       1       2       1       1       2       1
       1       2       1       1       2       1       1       2       1       1
       2       1       1       2       1       1       2       1       1       2
       1       1       2       1       1       2       1       1       2       1
       1       2       1       1       2       1       1       2       1       1
       2       1       1       2       1       1       2       1       1       2
       1       1       2       1       1       2       1       1       2       1
       1       2       1       1       2       1       1       2       1       1
       2       1       1       2       1       1       2       1       1       2
       1       1       2       1       1       2       1       1       2       1
       1       2       1       1       2       1       1       2       1       1
       2       1       1       2       1       1       2       1       1       2
       1       1       2       1       1       2       1       1       2       1
       1       2       1       1       2       1       1       2       1       1
       2       1       1       2       1       1       2       1       1       2
       1       1       2       1       1       2       1       1       2       1
       1       2       1       1       2       1       1       2       1       1
       2       1       1       2       1       1       2       1       1       2
       1       1       2       1       1       2       1       1       2       1
       1       2       1       1       2       1       1       2       1       1
       2       1       1       2       1       1       2       1       1       2
       1       1       2       1       1       2       1       1       2       1
       1       2       1       1       2       1       1       2       1       1
       2       1       1       2       1       1       2       1       1       2
       1       1       2       1       1       2       1       1       2       1
       1       2       1       1       2       1       1       2       1       1
       2       1       1       2       1       1       2       1       1       2
       1       1       2       1       1       2       1       1       2       1
       1       2       1       1       2       1       1       2       1       1
       2       1       1       2       1       1       2       1       1       2
       1       1       2       1       1       2       1       1       2       1
       1       2       1       1       2       1       1       2       1       1
       2       1       1       2       1       1       2       1       1       2
       1       1       2       1       1       2       1       1       2       1
       1       2       1       1       2       1       1       2       1       1
       2       1       1       2       1       1       2       1       1       2
       1       1       2       1       1       2       1       1       2       1
       1       2       1       1       2       1       1       2       1       1
       2       1       1       2       1       1       2       1       1       2
       1       1       2       1       1       2       1       1       2       1
       1       2       1       1       2       1       1       2       1       1
       2       1       1       2       1       1       2       1       1       2
       1       1       2       1       1       2       1       1       2       1
       1       2       1       1       2       1       1       2       1       1
       2       1       1       2       1       1       2       1       1       2
       1       1       2       1       1       2       1       1       2       1
       1       2       1       1       2       1       1       2       1       1
       2       1       1       2       1       1       2       1       1       2
       1       1       2       1       1       2       1       1       2       1
       1       2       1       1       2       1       1       2       1       1
       2       1       1       2       1       1       2       1       1       2
       1       1       2       1       1       2       1       1       2       1
       1       2       1       1       2       1       1       2       1       1
       2       1       1       2       1       1       2       1       1       2
       1       1       2       1       1       2       1       1       2       1
       1       2       1       1       2       1       1       2       1       1
       2       1       1       2       1       1       2       1       1       2
       1       1       2       1       1       2       1       1       2       1
       1       2       1       1       2       1       1       2       1       1
       2       1       1       2       1       1       2       1       1       2
       1       1       2       1       1       2       1       1       2       1
       1       2       1       1       2       1       1       2       1       1
       2       1       1       2       1       1       2       1       1       2
       1       1       2       1       1       2       1       1       2       1
       1       2       1       1       2       1       1       2       1       1
       2       1       1       2       1       1       2       1       1       2
       1       1       2       1       1       2       1       1       2       1
       1       2       1       1       2       1       1       2       1       1
       2       1       1       2       1       1       2       1       1       2
       1       1       2       1       1       2       1       1       2       1
       1       2       1       1       2       1       1       2       1       1
       2       1       1       2       1       1       2       1       1       2
       1       1       2       1       1       2       1       1       2       1
       1       2       1       1       2       1       1       2       1       1
       2       1       1       2       1       1       2       1       1       2
       1       1       2       1       1       2       1       1       2       1
       1       2       1       1       2       1       1       2       1       1
       2       1       1       2       1       1       2       1       1       2
       1       1       2       1       1       2       1       1       2       1
       1       2       1       1       2       1       1       2       1       1
       2       1       1       2       1       1       2       1       1       2
       1       1       2       1       1       2       1       1       2       1
       1       2       1       1       2       1       1       2       1       1
       2       1       1       2       1       1       2       1       1       2
       1       1       2       1       1       2       1       1       2       1
       1       2       1       1       2       1       1       2       1       1
       2       1       1       2       1       1       2       1       1       2
       1       1       2       1       1       2       1       1       2       1
       1       2       1       1       2       1       1       2       1       1
       2       1       1       2       1       1       2       1       1       2
       1       1       2       1       1       2       1       1       2       1
       1       2       1       1       2       1       1       2       1       1
       2       1       1       2       1       1       2       1       1       2
       1       1       2       1       1       2       1       1       2       1
       1       2       1       1       2       1       1       2       1       1
       2       1       1       2       1       1       2       1       1       2
       1       1       2       1       1       2       1       1       2       1
       1       2       1       1       2       1       1       2       1       1
       2       1       1       2       1       1       2       1       1       2
       1       1       2       1       1       2       1       1       2       1
       1       2       1       1       2       1       1       2       1       1
       2       1       1       2       1       1       2       1       1       2
       1       1       2       1       1       2       1       1       2       1
       1       2       1       1       2       1       1       2       1       1
       2       1       1       2       1       1       2       1       1       2
       1       1       2       1       1       2       1       1       2       1
       1       2       1       1       2       1       1       2       1       1
       2       1       1       2       1       1       2       1       1       2
       1       1       2       1       1       2       1       1       2       1
       1       2       1       1       2       1       1       2       1       1
       2       1       1       2       1       1       2       1       1       2
       1       1       2       1       1       2       1       1       2       1
       1       2       1       1       2       1       1       2       1       1
       2       1       1       2       1       1       2       1       1       2
       1       1       2       1       1       2       1       1       2       1
       1       2       1       1       2       1       1       2       1       1
       2       1       1       2       1       1       2       1       1       2
       1       1       2       1       1       2       1       1       2       1
       1       2       1       1       2       1       1       2       1       1
       2       1       1       2       1       1       2       1       1       2
       1       1       2       1       1       2       1       1       2       1
       1       2       1       1       2       1       1       2       1       1
       2       1       1       2       1       1       2       1       1       2
       1       1       2       1       1       2       1       1       2       1
       1       2       1       1       2       1       1       2       1       1
       2       1       1       2       1       1       2       1       1       2
       1       1       2       1       1       2       1       1       2       1
       1       2       1       1       2       1       1       2       1       1
       2       1       1       2       1       1       2       1       1       2
       1       1       2       1       1       2       1       1       2       1
       1       2       1       1       2       1       1       2       1       1
       2       1       1       2       1       1       2       1       1       2
       1       1       2       1       1       2       1       1       2       1
       1       2       1       1       2       1       1       2       1       1
       2       1       1       2       1       1       2       1       1       2
       1       1       2       1       1       2       1       1       2       1
       1       2       1       1       2       1       1       2       1       1
       2       1       1       2       1       1       2       1       1       2
       1       1       2       1       1       2       1       1       2       1
       1       2       1       1       2       1       1       2       1       1
       2       1       1       2       1       1       2       1       1       2
       1       1       2       1       1       2       1       1       2       1
       1       2       1       1       2       1       1       2       1       1
       2       1       1       2       1       1       2       1       1       2
       1       1       2       1       1       2       1       1       2       1
       1       2       1       1       2       1       1       2       1       1
       2       1       1       2       1       1       2       1       1       2
       1       1       2       1       1       2       1       1       2       1
       1       2       1       1       2       1       1       2       1       1
       2       1       1       2       1       1       2       1       1       2
       1       1       2       1       1       2       1       1       2       1
       1       2       1       1       2       1       1       2       1       1
       2       1       1       2       1       1       2       1       1       2
       1       1       2       1       1       2       1       1       2       1
       1       2       1       1       2       1       1       2       1       1
       2       1       1       2       1       1       2       1       1       2
       1       1       2       1       1       2       1       1       2       1
       1       2       1       1       2       1       1       2       1       1
       2       1       1       2       1       1       2       1       1       2
       1       1       2       1       1       2       1       1       2       1
       1       2       1       1       2       1       1       2       1       1
       2       1       1       2       1       1       2       1       1       2
       1       1       2       1       1       2       1       1       2       1
       1       2       1       1       2       1       1       2       1       1
       2       1       1       2       1       1       2       1       1       2
       1       1       2       1       1       2       1       1       2       1
       1       2       1       1       2       1       1       2       1       1
       2       1       1       2       1       1       2       1       1       2
       1       1       2       1       1       2       1       1       2       1
       1       2       1       1       2       1       1       2       1       1
       2       1       1       2       1       1       2       1       1       2
       1       1       2       1       1       2       1       1       2       1
       1       2       1       1       2       1       1       2       1       1
       2       1       1       2       1       1       2       1       1       2
       1       1       2       1       1       2       1       1       2       1
       1       2       1       1       2       1       1       2       1       1
       2       1       1       2       1       1       2       1       1       2
       1       1       2       1       1       2       1       1       2       1
       1       2       1       1       2       1       1       2       1       1
       2       1       1       2       1       1       2       1       1       2
       1       1       2       1       1       2       1       1       2       1
       1       2       1       1       2       1       1       2       1       1
       2       1       1       2       1       1       2       1       1       2
       1       1       2       1       1       2       1       1       2       1
       1       2       1       1       2       1       1       2       1       1
       2       1       1       2       1       1       2       1       1       2
       1       1       2       1       1       2       1       1       2       1
       1       2       1       1       2       1       1       2       1       1
       2       1       1       2       1       1       2       1       1       2
       1       1       2       1       1       2       1       1       2       1
       1       2       1       1       2       1       1       2       1       1
       2       1       1       2       1       1       2       1       1       2
       1       1       2       1       1       2       1       1       2       1
       1       2       1       1       2       1       1       2       1       1
       2       1       1       2       1       1       2       1       1       2
       1       1       2       1       1       2       1       1       2       1
       1       2       1       1       2       1       1       2       1       1
       2       1       1       2       1       1       2       1       1       2
       1       1       2       1       1       2       1       1       2       1
       1       2       1       1       2       1       1       2       1       1
       2       1       1       2       1       1       2       1       1       2
       1       1       2       1       1       2       1       1       2       1
       1       2       1       1       2       1       1       2       1       1
       2       1       1       2       1       1       2       1       1       2
       1       1       2       1       1       2       1       1       2       1
       1       2       1       1       2       1       1       2       1       1
       2       1       1       2       1       1       2       1       1       2
       1       1       2       1       1       2       1       1       2       1
       1       2       1       1       2       1       1       2       1       1
       2       1       1       2       1       1       2       1       1       2
       1       1       2       1       1       2       1       1       2       1
       1       2       1       1       2       1       1       2       1       1
       2       1       1       2       1       1       2       1       1       2
       1       1       2       1       1       2       1       1       2       1
       1       2       1       1       2       1       1       2       1       1
       2       1       1       2       1       1       2       1       1       2
       1       1       2       1       1       2       1       1       2       1
       1       2       1       1       2       1       1       2       1       1
       2       1       1       2       1       1       2       1       1       2
       1       1       2       1       1       2       1       1       2       1
       1       2       1       1       2       1       1       2       1       1
       2       1       1       2       1       1       2       1       1       2
       1       1       2       1       1       2       1       1       2       1
       1       2       1       1       2       1       1       2       1       1
       2       1       1       2       1       1       2       1       1       2
       1       1       2       1       1       2       1       1       2       1
       1       2       1       1       2       1       1       2       1       1
       2       1       1       2       1       1       2       1       1       2
       1       1       2       1       1       2       1       1       2       1
       1       2       1       1       2       1       1       2       1       1
       2       1       1       2       1       1       2       1       1       2
       1       1       2       1       1       2       1       1       2       1
       1       2       1       1       2       1       1       2       1       1
       2       1       1       2       1       1       2       1       1       2
       1       1       2       1       1       2       1       1       2       1
       1       2       1       1       2       1       1       2       1       1
       2       1       1       2       1       1       2       1       1       2
       1       1       2       1       1       2       1       1       2       1
       1       2       1       1       2       1       1       2       1       1
       2       1       1       2       1       1       2       1       1       2
       1       1       2       1       1       2       1       1       2       1
       1       2       1       1       2       1       1       2       1       1
       2       1       1       2       1       1       2       1       1       2
       1       1       2       1       1       2       1       1       2       1
       1       2       1       1       2       1       1       2       1       1
       2       1       1       2       1       1       2       1       1       2
       1       1       2       1       1       2       1       1       2       1
       1       2       1       1       2       1       1       2       1       1
       2       1       1       2       1       1       2       1       1       2
       1       1       2       1       1       2       1       1       2       1
       1       2       1       1       2       1       1       2       1       1
       2       1       1       2       1       1       2       1       1       2
       1       1       2       1       1       2       1       1       2       1
       1       2       1       1       2       1       1       2       1       1
       2       1       1       2       1       1       2       1       1       2
       1       1       2       1       1       2       1       1       2       1
       1       2       1       1       2       1       1       2       1       1
       2       1       1       2       1       1       2       1       1       2
       1       1       2       1       1       2       1       1       2       1
       1       2       1       1       2       1       1       2       1       1
       2       1       1       2       1       1       2       1       1       2
       1       1       2       1       1       2       1       1       2       1
       1       2       1       1       2       1       1       2       1       1
       2       1       1       2       1       1       2       1       1       2
       1       1       2       1       1       2       1       1       2       1
       1       2       1       1       2       1       1       2       1       1
       2       1       1       2       1       1       2       1       1       2
       1       1       2       1       1       2       1       1       2       1
       1       2       1       1       2       1       1       2       1       1
       2       1       1       2       1       1       2       1       1       2
       1       1       2       1       1       2       1       1       2       1
       1       2       1       1       2       1       1       2       1       1
       2       1       1       2       1       1       2       1       1       2
       1       1       2       1       1       2       1       1       2       1
       1       2       1       1       2       1       1       2       1       1
       2       1       1       2       1       1       2       1       1       2
       1       1       2       1       1       2       1       1       2       1
       1       2       1       1       2       1       1       2       1       1
       2       1       1       2       1       1       2       1       1       2
       1       1       2       1       1       2       1       1       2       1
       1       2       1       1       2       1       1       2       1       1
       2       1       1       2       1       1       2       1       1       2
       1       1       2       1       1       2       1       1       2       1
       1       2       1       1       2       1       1       2       1       1
       2       1       1       2       1       1       2       1       1       2
       1       1       2       1       1       2       1       1       2       1
       1       2       1       1       2       1       1       2       1       1
       2       1       1       2       1       1       2       1       1       2
       1       1       2       1       1       2       1       1       2       1
       1       2       1       1       2       1       1       2       1       1
       2       1       1       2       1       1       2       1       1       2
       1       1       2       1       1       2       1       1       2       1
       1       2       1       1       2       1       1       2       1       1
       2       1       1       2       1       1       2       1       1       2
       1       1       2       1       1       2       1       1       2       1
       1       2       1       1       2       1       1       2       1       1
       2       1       1       2       1       1       2       1       1       2
       1       1       2       1       1       2       1       1       2       1
       1       2       1       1       2       1       1       2       1       1
       2       1       1       2       1       1       2       1       1       2
       1       1       2       1       1       2       1       1       2       1
       1       2       1       1       2       1       1       2       1       1
       2       1       1       2       1       1       2       1       1       2
       1       1       2       1       1       2       1       1       2       1
       1       2       1       1       2       1       1       2       1       1
       2       1       1       2       1       1       2       1       1       2
       1       1       2       1       1       2       1       1       2       1
       1       2       1       1       2       1       1       2       1       1
       2       1       1       2       1       1       2       1       1       2
       1       1       2       1       1       2       1       1       2       1
       1       2       1       1       2       1       1       2       1       1
       2       1       1       2       1       1       2       1       1       2
       1       1       2       1       1       2       1       1       2       1
       1       2       1       1       2       1       1       2       1       1
       2       1       1       2       1       1       2       1       1       2
       1       1       2       1       1       2       1       1       2       1
       1       2       1       1       2       1       1       2       1       1
       2       1       1       2       1       1       2       1       1       2
       1       1       2       1       1       2       1       1       2       1
       1       2       1       1       2       1       1       2       1       1
       2       1       1       2       1       1       2       1       1       2
       1       1       2       1       1       2       1       1       2       1
       1       2       1       1       2       1       1       2       1       1
       2       1       1       2       1       1       2       1       1       2
       1       1       2       1       1       2       1       1       2       1
       1       2       1       1       2       1       1       2       1       1
       2       1       1       2       1       1       2       1       1       2
       1       1       2       1       1       2       1       1       2       1
       1       2       1       1       2       1       1       2       1       1
       2       1       1       2       1       1       2       1       1       2
       1       1       2       1       1       2       1       1       2       1
       1       2       1       1       2       1       1       2       1       1
       2       1       1       2       1       1       2       1       1       2
       1       1       2       1       1       2       1       1       2       1
       1       2       1       1       2       1       1       2       1       1
       2       1       1       2       1       1       2       1       1       2
       1       1       2       1       1       2       1       1       2       1
       1       2       1       1       2       1       1       2       1       1
       2       1       1       2       1       1       2       1       1       2
       1       1       2       1       1       2       1       1       2       1
       1       2       1       1       2       1       1       2       1       1
       2       1       1       2       1       1       2       1       1       2
       1       1       2       1       1       2       1       1       2       1
       1       2       1       1       2       1       1       2       1       1
       2       1       1       2       1       1       2       1       1       2
       1       1       2       1       1       2       1       1       2       1
       1       2       1       1       2       1       1       2       1       1
       2       1       1       2       1       1       2       1       1       2
       1       1       2       1       1       2       1       1       2       1
       1       2       1       1       2       1       1       2       1       1
       2       1       1       2       1       1       2       1       1       2
       1       1       2       1       1       2       1       1       2       1
       1       2       1       1       2       1       1       2       1       1
       2       1       1       2       1       1       2       1       1       2
       1       1       2       1       1       2       1       1       2       1
       1       2       1       1       2       1       1       2       1       1
       2       1       1       2       1       1       2       1       1       2
       1       1       2       1       1       2       1       1       2       1
       1       2       1       1       2       1       1       2       1       1
       2       1       1       2       1       1       2       1       1       2
       1       1       2       1       1       2       1       1       2       1
       1       2       1       1       2       1       1       2       1       1
       2       1       1       2       1       1       2       1       1       2
       1       1       2       1       1       2       1       1       2       1
       1       2       1       1       2       1       1       2       1       1
       2       1       1       2       1       1       2       1       1       2
       1       1       2       1       1       2       1       1       2       1
       1       2       1       1       2       1       1       2       1       1
       2       1       1       2       1       1       2       1       1       2
       1       1       2       1       1       2       1       1       2       1
       1       2       1       1       2       1       1       2       1       1
       2       1       1       2       1       1       2       1       1       2
       1       1       2       1       1       2       1       1       2       1
       1       2       1       1       2       1       1       2       1       1
       2       1       1       2       1       1       2       1       1       2
       1       1       2       1       1       2       1       1       2       1
       1       2       1       1       2       1       1       2       1       1
       2       1       1       2       1       1       2       1       1       2
       1       1       2       1       1       2       1       1       2       1
       1       2       1       1       2       1       1       2       1       1
       2       1       1       2       1       1       2       1       1       2
       1       1       2       1       1       2       1       1       2       1
       1       2       1       1       2       1       1       2       1       1
       2       1       1       2       1       1       2       1       1       2
       1       1       2       1       1       2       1       1       2       1
       1       2       1       1       2       1       1       2       1       1
       2       1       1       2       1       1       2       1       1       2
       1       1       2       1       1       2       1       1       2       1
       1       2       1       1       2       1       1       2       1       1
       2       1       1       2       1       1       2       1       1       2
       1       1       2       1       1       2       1       1       2       1
       1       2       1       1       2       1       1       2       1       1
       2       1       1       2       1       1       2       1       1       2
       1       1       2       1       1       2       1       1       2       1
       1       2       1       1       2       1       1       2       1       1
       2       1       1       2       1       1       2       1       1       2
       1       1       2       1       1       2       1       1       2       1
       1       2       1       1       2       1       1       2       1       1
       2       1       1       2       1       1       2       1       1       2
       1       1       2       1       1       2       1       1       2       1
       1       2       1       1       2       1       1       2       1       1
       2       1       1       2       1       1       2       1       1       2
       1       1       2       1       1       2       1       1       2       1
       1       2       1       1       2       1       1       2       1       1
       2       1       1       2       1       1       2       1       1       2
       1       1       2       1       1       2       1       1       2       1
       1       2       1       1       2       1       1       2       1       1
       2       1       1       2       1       1       2       1       1       2
       1       1       2       1       1       2       1       1       2       1
       1       2       1       1       2       1       1       2       1       1
       2       1       1       2       1       1       2       1       1       2
       1       1       2       1       1       2       1       1       2       1
       1       2       1       1       2       1       1       2       1       1
       2       1       1       2       1       1       2       1       1       2
       1       1       2       1       1       2       1       1       2       1
       1       2       1       1       2       1       1       2       1       1
       2       1       1       2       1       1       2       1       1       2
       1       1       2       1       1       2       1       1       2       1
       1       2       1       1       2       1       1       2       1       1
       2       1       1       2       1       1       2       1       1       2
       1       1       2       1       1       2       1       1       2       1
       1       2       1       1       2       1       1       2       1       1
       2       1       1       2       1       1       2       1       1       2
       1       1       2       1       1       2       1       1       2       1
       1       2       1       1       2       1       1       2       1       1
       2       1       1       2       1       1       2       1       1       2
       1       1       2       1       1       2       1       1       2       1
       1       2       1       1       2       1       1       2       1       1
       2       1       1       2       1       1       2       1       1       2
       1       1       2       1       1       2       1       1       2       1
       1       2       1       1       2       1       1       2       1       1
       2       1       1       2       1       1       2       1       1       2
       1       1       2       1       1       2       1       1       2       1
       1       2       1       1       2       1       1       2       1       1
       2       1       1       2       1       1       2       1       1       2
       1       1       2       1       1       2       1       1       2       1
       1       2       1       1       2       1       1       2       1       1
       2       1       1       2       1       1       2       1       1       2
       1       1       2       1       1       2       1       1       2       1
       1       2       1       1       2       1       1       2       1       1
       2       1       1       2       1       1       2       1       1       2
       1       1       2       1       1       2       1       1       2       1
       1       2       1       1       2       1       1       2       1       1
       2       1       1       2       1       1       2       1       1       2
       1       1       2       1       1       2       1       1       2       1
       1       2       1       1       2       1       1       2       1       1
       2       1       1       2       1       1       2       1       1       2
       1       1       2       1       1       2       1       1       2       1
       1       2       1       1       2       1       1       2       1       1
       2       1       1       2       1       1       2       1       1       2
       1       1       2       1       1       2       1       1       2       1
       1       2       1       1       2       1       1       2       1       1
       2       1       1       2       1       1       2       1       1       2
       1       1       2       1       1       2       1       1       2       1
       1       2       1       1       2       1       1       2       1       1
       2       1       1       2       1       1       2       1       1       2
       1       1       2       1       1       2       1       1       2       1
       1       2       1       1       2       1       1       2       1       1
       2       1       1       2       1       1       2       1       1       2
       1       1       2       1       1       2       1       1       2       1
       1       2       1       1       2       1       1       2       1       1
       2       1       1       2       1       1       2       1       1       2
       1       1       2       1       1       2       1       1       2       1
       1       2       1       1       2       1       1       2       1       1
       2       1       1       2       1       1       2       1       1       2
       1       1       2       1       1       2       1       1       2       1
       1       2       1       1       2       1       1       2       1       1
       2       1       1       2       1       1       2       1       1       2
       1       1       2       1       1       2       1       1       2       1
       1       2       1       1       2       1       1       2       1       1
       2       1       1       2       1       1       2       1       1       2
       1       1       2       1       1       2       1       1       2       1
       1       2       1       1       2       1       1       2       1       1
       2       1       1       2       1       1       2       1       1       2
       1       1       2       1       1       2       1       1       2       1
       1       2       1       1       2       1       1       2       1       1
       2       1       1       2       1       1       2       1       1       2
       1       1       2       1       1       2       1       1       2       1
       1       2       1       1       2       1       1       2       1       1
       2       1       1       2       1       1       2       1       1       2
       1       1       2       1       1       2       1       1       2       1
       1       2       1       1       2       1       1       2       1       1
       2       1       1       2       1       1       2       1       1       2
       1       1       2       1       1       2       1       1       2       1
       1       2       1       1       2       1       1       2       1       1
       2       1       1       2       1       1       2       1       1       2
       1       1       2       1       1       2       1       1       2       1
       1       2       1       1       2       1       1       2       1       1
       2       1       1       2       1       1       2       1       1       2
       1       1       2       1       1       2       1       1       2       1
       1       2       1       1       2       1       1       2       1       1
       2       1       1       2       1       1       2       1       1       2
       1       1       2       1       1       2       1       1       2       1
       1       2       1       1       2       1       1       2       1       1
       2       1       1       2       1       1       2       1       1       2
       1       1       2       1       1       2       1       1       2       1
       1       2       1       1       2       1       1       2       1       1
       2       1       1       2       1       1       2       1       1       2
       1       1       2       1       1       2       1       1       2       1
       1       2       1       1       2       1       1       2       1       1
       2       1       1       2       1       1       2       1       1       2
       1       1       2       1       1       2       1       1       2       1
       1       2       1       1       2       1       1       2       1       1
       2       1       1       2       1       1       2       1       1       2
       1       1       2       1       1       2       1       1       2       1
       1       2       1       1       2       1       1       2       1       1
       2       1       1       2       1       1       2       1       1       2
       1       1       2       1       1       2       1       1       2       1
       1       2       1       1       2       1       1       2       1       1
       2       1       1       2       1       1       2       1       1       2
       1       1       2       1       1       2       1       1       2       1
       1       2       1       1       2       1       1       2       1       1
       2       1       1       2       1       1       2       1       1       2
       1       1       2       1       1       2       1       1       2       1
       1       2       1       1       2       1       1       2       1       1
       2       1       1       2       1       1       2       1       1       2
       1       1       2       1       1       2       1       1       2       1
       1       2       1       1       2       1       1       2       1       1
       2       1       1       2       1       1       2       1       1       2
       1       1       2       1       1       2       1       1       2       1
       1       2       1       1       2       1       1       2       1       1
       2       1       1       2       1       1       2       1       1       2
       1       1       2       1       1       2       1       1       2       1
       1       2       1       1       2       1       1       2       1       1
       2       1       1       2       1       1       2       1       1       2
       1       1       2       1       1       2       1       1       2       1
       1       2       1       1       2       1       1       2       1       1
       2       1       1       2       1       1       2       1       1       2
       1       1       2       1       1       2       1       1       2       1
       1       2       1       1       2       1       1       2       1       1
       2       1       1       2       1       1       2       1       1       2
       1       1       2       1       1       2       1       1       2       1
       1       2       1       1       2       1       1       2       1       1
       2       1       1       2       1       1       2       1       1       2
       1       1       2       1       1       2       1       1       2       1
       1       2       1       1       2       1       1       2       1       1
       2       1       1       2       1       1       2       1       1       2
       1       1       2       1       1       2       1       1       2       1
       1       2       1       1       2       1       1       2       1       1
       2       1       1       2       1       1       2       1       1       2
       1       1       2       1       1       2       1       1       2       1
       1       2       1       1       2       1       1       2       1       1
       2       1       1       2       1       1       2       1       1       2
       1       1       2       1       1       2       1       1       2       1
       1       2       1       1       2       1       1       2       1       1
       2       1       1       2       1       1       2       1       1       2
       1       1       2       1       1       2       1       1       2       1
       1       2       1       1       2       1       1       2       1       1
       2       1       1       2       1       1       2       1       1       2
       1       1       2       1       1       2       1       1       2       1
       1       2       1       1       2       1       1       2       1       1
       2       1       1       2       1       1       2       1       1       2
       1       1       2       1       1       2       1       1       2       1
       1       2       1       1       2       1       1       2       1       1
       2       1       1       2       1       1       2       1       1       2
       1       1       2       1       1       2       1       1       2       1
       1       2       1       1       2       1       1       2       1       1
       2       1       1       2       1       1       2       1       1       2
       1       1       2       1       1       2       1       1       2       1
       1       2       1       1       2       1       1       2       1       1
       2       1       1       2       1       1       2       1       1       2
       1       1       2       1       1       2       1       1       2       1
       1       2       1       1       2       1       1       2       1       1
       2       1       1       2       1       1       2       1       1       2
       1       1       2       1       1       2       1       1       2       1
       1       2       1       1       2       1       1       2       1       1
       2       1       1       2       1       1       2       1       1       2
       1       1       2       1       1       2       1       1       2       1
       1       2       1       1       2       1       1       2       1       1
       2       1       1       2       1       1       2       1       1       2
       1       1       2       1       1       2       1       1       2       1
       1       2       1       1       2       1       1       2       1       1
       2       1       1       2       1       1       2       1       1       2
       1       1       2       1       1       2       1       1       2       1
       1       2       1       1       2       1       1       2       1       1
       2       1       1       2       1       1       2       1       1       2
       1       1       2       1       1       2       1       1       2       1
       1       2       1       1       2       1       1       2       1       1
       2       1       1       2       1       1       2       1       1       2
       1       1       2       1       1       2       1       1       2       1
       1       2       1       1       2       1       1       2       1       1
       2       1       1       2       1       1       2       1       1       2
       1       1       2       1       1       2       1       1       2       1
       1       2       1       1       2       1       1       2       1       1
       2       1       1       2       1       1       2       1       1       2
       1       1       2       1       1       2       1       1       2       1
       1       2       1       1       2       1       1       2       1       1
       2       1       1       2       1       1       2       1       1       2
       1       1       2       1       1       2       1       1       2       1
       1       2       1       1       2       1       1       2       1       1
       2       1       1       2       1       1       2       1       1       2
       1       1       2       1       1       2       1       1       2       1
       1       2       1       1       2       1       1       2       1       1
       2       1       1       2       1       1       2       1       1       2
       1       1       2       1       1       2       1       1       2       1
       1       2       1       1       2       1       1       2       1       1
       2       1       1       2       1       1       2       1       1       2
       1       1       2       1       1       2       1       1       2       1
       1       2       1       1       2       1       1       2       1       1
       2       1       1       2       1       1       2       1       1       2
       1       1       2       1       1       2       1       1       2       1
       1       2       1       1       2       1       1       2       1       1
       2       1       1       2       1       1       2       1       1       2
       1       1       2       1       1       2       1       1       2       1
       1       2       1       1       2       1       1       2       1       1
       2       1       1       2       1       1       2       1       1       2
       1       1       2       1       1       2       1       1       2       1
       1       2       1       1       2       1       1       2       1       1
       2       1       1       2       1       1       2       1       1       2
       1       1       2       1       1       2       1       1       2       1
       1       2       1       1       2       1       1       2       1       1
       2       1       1       2       1       1       2       1       1       2
       1       1       2       1       1       2       1       1       2       1
       1       2       1       1       2       1       1       2       1       1
       2       1       1       2       1       1       2       1       1       2
       1       1       2       1       1       2       1       1       2       1
       1       2       1       1       2       1       1       2       1       1
       2       1       1       2       1       1       2       1       1       2
       1       1       2       1       1       2       1       1       2       1
       1       2       1       1       2       1       1       2       1       1
       2       1       1       2       1       1       2       1       1       2
       1       1       2       1       1       2       1       1       2       1
       1       2       1       1       2       1       1       2       1       1
       2       1       1       2       1       1       2       1       1       2
       1       1       2       1       1       2       1       1       2       1
       1       2       1       1       2       1       1       2       1       1
       2       1       1       2       1       1       2       1       1       2
       1       1       2       1       1       2       1       1       2       1
       1       2       1       1       2       1       1       2       1       1
       2       1       1       2       1       1       2       1       1       2
       1       1       2       1       1       2       1       1       2       1
       1       2       1       1       2       1       1       2       1       1
       2       1       1       2       1       1       2       1       1       2
       1       1       2       1       1       2       1       1       2       1
       1       2       1       1       2       1       1       2       1       1
       2       1       1       2       1       1       2       1       1       2
       1       1       2       1       1       2       1       1       2       1
       1       2       1       1       2       1       1       2       1       1
       2       1       1       2       1       1       2       1       1       2
       1       1       2       1       1       2       1       1       2       1
       1       2       1       1       2       1       1       2       1       1
       2       1       1       2       1       1       2       1       1       2
       1       1       2       1       1       2       1       1       2       1
       1       2       1       1       2       1       1       2       1       1
       2       1       1       2       1       1       2       1       1       2
       1       1       2       1       1       2       1       1       2       1
       1       2       1       1       2       1       1       2       1       1
       2       1       1       2       1       1       2       1       1       2
       1       1       2       1       1       2       1       1       2       1
       1       2       1       1       2       1       1       2       1       1
       2       1       1       2       1       1       2       1       1       2
       1       1       2       1       1       2       1       1       2       1
       1       2       1       1       2       1       1       2       1       1
       2       1       1       2       1       1       2       1       1       2
       1       1       2       1       1       2       1       1       2       1
       1       2       1       1       2       1       1       2       1       1
       2       1       1       2       1       1       2       1       1       2
       1       1       2       1       1       2       1       1       2       1
       1       2       1       1       2       1       1       2       1       1
       2       1       1       2       1       1       2       1       1       2
       1       1       2       1       1       2       1       1       2       1
       1       2       1       1       2       1       1       2       1       1
       2       1       1       2       1       1       2       1       1       2
       1       1       2       1       1       2       1       1       2       1
       1       2       1       1       2       1       1       2       1       1
       2       1       1       2       1       1       2       1       1       2
       1       1       2       1       1       2       1       1       2       1
       1       2       1       1       2       1       1       2       1       1
       2       1       1       2       1       1       2       1       1       2
       1       1       2       1       1       2       1       1       2       1
       1       2       1       1       2       1       1       2       1       1
       2       1       1       2       1       1       2       1       1       2
       1       1       2       1       1       2       1       1       2       1
       1       2       1       1       2       1       1       2       1       1
       2       1       1       2       1       1       2       1       1       2
       1       1       2       1       1       2       1       1       2       1
       1       2       1       1       2       1       1       2       1       1
       2       1       1       2       1       1       2       1       1       2
       1       1       2       1       1       2       1       1       2       1
       1       2       1       1       2       1       1       2       1       1
       2       1       1       2       1       1       2       1       1       2
       1       1       2       1       1       2       1       1       2       1
       1       2       1       1       2       1       1       2       1       1
       2       1       1       2       1       1       2       1       1       2
       1       1       2       1       1       2       1       1       2       1
       1       2       1       1       2       1       1       2       1       1
       2       1       1       2       1       1       2       1       1       2
       1       1       2       1       1       2       1       1       2       1
       1       2       1       1       2       1       1       2       1       1
       2       1       1       2       1       1       2       1       1       2
       1       1       2       1       1       2       1       1       2       1
       1       2       1       1       2       1       1       2       1       1
       2       1       1       2       1       1       2       1       1       2
       1       1       2       1       1       2       1       1       2       1
       1       2       1       1       2       1       1       2       1       1
       2       1       1       2       1       1       2       1       1       2
       1       1       2       1       1       2       1       1       2       1
       1       2       1       1       2       1       1       2       1       1
       2       1       1       2       1       1       2       1       1       2
       1       1       2       1       1       2       1       1       2       1
       1       2       1       1       2       1       1       2       1       1
       2       1       1       2       1       1       2       1       1       2
       1       1       2       1       1       2       1       1       2       1
       1       2       1       1       2       1       1       2       1       1
       2       1       1       2       1       1       2       1       1       2
       1       1       2       1       1       2       1       1       2       1
       1       2       1       1       2       1       1       2       1       1
       2       1       1       2       1       1       2       1       1       2
       1       1       2       1       1       2       1       1       2       1
       1       2       1       1       2       1       1       2       1       1
       2       1       1       2       1       1       2       1       1       2
       1       1       2       1       1       2       1       1       2       1
       1       2       1       1       2       1       1       2       1       1
       2       1       1       2       1       1       2       1       1       2
       1       1       2       1       1       2       1       1       2       1
       1       2       1       1       2       1       1       2       1       1
       2       1       1       2       1       1       2       1       1       2
       1       1       2       1       1       2       1       1       2       1
       1       2       1       1       2       1       1       2       1       1
       2       1       1       2       1       1       2       1       1       2
       1       1       2       1       1       2       1       1       2       1
       1       2       1       1       2       1       1       2       1       1
       2       1       1       2       1       1       2       1       1       2
       1       1       2       1       1       2       1       1       2       1
       1       2       1       1       2       1       1       2       1       1
       2       1       1       2       1       1       2       1       1       2
       1       1       2       1       1       2       1       1       2       1
       1       2       1       1       2       1       1       2       1       1
       2       1       1       2       1       1       2       1       1       2
       1       1       2       1       1       2       1       1       2       1
       1       2       1       1       2       1       1       2       1       1
       2       1       1       2       1       1       2       1       1       2
       1       1       2       1       1       2       1       1       2       1
       1       2       1       1       2       1       1       2       1       1
       2       1       1       2       1       1       2       1       1       2
       1       1       2       1       1       2       1       1       2       1
       1       2       1       1       2       1       1       2       1       1
       2       1       1       2       1       1       2       1       1       2
       1       1       2       1       1       2       1       1       2       1
       1       2       1       1       2       1       1       2       1       1
       2       1       1       2       1       1       2       1       1       2
       1       1       2       1       1       2       1       1       2       1
       1       2       1       1       2       1       1       2       1       1
       2       1       1       2       1       1       2       1       1       2
       1       1       2       1       1       2       1       1       2       1
       1       2       1       1       2       1       1       2       1       1
       2       1       1       2       1       1       2       1       1       2
       1       1       2       1       1       2       1       1       2       1
       1       2       1       1       2       1       1       2       1       1
       2       1       1       2       1       1       2       1       1       2
       1       1       2       1       1       2       1       1       2       1
       1       2       1       1       2       1       1       2       1       1
       2       1       1       2       1       1       2       1       1       2
       1       1       2       1       1       2       1       1       2       1
       1       2       1       1       2       1       1       2       1       1
       2       1       1       2       1       1       2       1       1       2
       1       1       2       1       1       2       1       1       2       1
       1       2       1       1       2       1       1       2       1       1
       2       1       1       2       1       1       2       1       1       2
       1       1       2       1       1       2       1       1       2       1
       1       2       1       1       2       1       1       2       1       1
       2       1       1       2       1       1       2       1       1       2
       1       1       2       1       1       2       1       1       2       1
       1       2       1       1       2       1       1       2       1       1
       2       1       1       2       1       1       2       1       1       2
       1       1       2       1       1       2       1       1       2       1
       1       2       1       1       2       1       1       2       1       1
       2       1       1       2       1       1       2       1       1       2
       1       1       2       1       1       2       1       1       2       1
       1       2       1       1       2       1       1       2       1       1
       2       1       1       2       1       1       2       1       1       2
       1       1       2       1       1       2       1       1       2       1
       1       2       1       1       2       1       1       2       1       1
       2       1       1       2       1       1       2       1       1       2
       1       1       2       1       1       2       1       1       2       1
       1       2       1       1       2       1       1       2       1       1
       2       1       1       2       1       1       2       1       1       2
       1       1       2       1       1       2       1       1       2       1
       1       2       1       1       2       1       1       2       1       1
       2       1       1       2       1       1       2       1       1       2
       1       1       2       1       1       2       1       1       2       1
       1       2       1       1       2       1       1       2       1       1
       2       1       1       2       1       1       2       1       1       2
       1       1       2       1       1       2       1       1       2       1
       1       2       1       1       2       1       1       2       1       1
       2       1       1       2       1       1       2       1       1       2
       1       1       2       1       1       2       1       1       2       1
       1       2       1       1       2       1       1       2       1       1
       2       1       1       2       1       1       2       1       1       2
       1       1       2       1       1       2       1       1       2       1
       1       2       1       1       2       1       1       2       1       1
       2       1       1       2       1       1       2       1       1       2
       1       1       2       1       1       2       1       1       2       1
       1       2       1       1       2       1       1       2       1       1
       2       1       1       2       1       1       2       1       1       2
       1       1       2       1       1       2       1       1       2       1
       1       2       1       1       2       1       1       2       1       1
       2       1       1       2       1       1       2       1       1       2
       1       1       2       1       1       2       1       1       2       1
       1       2       1       1       2       1       1       2       1       1
       2       1       1       2       1       1       2       1       1       2
       1       1       2       1       1       2       1       1       2       1
       1       2       1       1       2       1       1       2       1       1
       2       1       1       2       1       1       2       1       1       2
       1       1       2       1       1       2       1       1       2       1
       1       2       1       1       2       1       1       2       1       1
       2       1       1       2       1       1       2       1       1       2
       1       1       2       1       1       2       1       1       2       1
       1       2       1       1       2       1       1       2       1       1
       2       1       1       2       1       1       2       1       1       2
       1       1       2       1       1       2       1       1       2       1
       1       2       1       1       2       1       1       2       1       1
       2       1       1       2       1       1       2       1       1       2
       1       1       2       1       1       2       1       1       2       1
       1       2       1       1       2       1       1       2       1       1
       2       1       1       2       1       1       2       1       1       2
       1       1       2       1       1       2       1       1       2       1
       1       2       1       1       2       1       1       2       1       1
       2       1       1       2       1       1       2       1       1       2
       1       1       2       1       1       2       1       1       2       1
       1       2       1       1       2       1       1       2       1       1
       2       1       1       2       1       1       2       1       1       2
       1       1       2       1       1       2       1       1       2       1
       1       2       1       1       2       1       1       2       1       1
       2       1       1       2       1       1       2       1       1       2
       1       1       2       1       1       2       1       1       2       1
       1       2       1       1       2       1       1       2       1       1
       2       1       1       2       1       1       2       1       1       2
       1       1       2       1       1       2       1       1       2       1
       1       2       1       1       2       1       1       2       1       1
       2       1       1       2       1       1       2       1       1       2
       1       1       2       1       1       2       1       1       2       1
       1       2       1       1       2       1       1       2       1       1
       2       1       1       2       1       1       2       1       1       2
       1       1       2       1       1       2       1       1       2       1
       1       2       1       1       2       1       1       2       1       1
       2       1       1       2       1       1       2       1       1       2
       1       1       2       1       1       2       1       1       2       1
       1       2       1       1       2       1       1       2       1       1
       2       1       1       2       1       1       2       1       1       2
       1       1       2       1       1       2       1       1       2       1
       1       2       1       1       2       1       1       2       1       1
       2       1       1       2       1       1       2       1       1       2
       1       1       2       1       1       2       1       1       2       1
       1       2       1       1       2       1       1       2       1       1
       2       1       1       2       1       1       2       1       1       2
       1       1       2       1       1       2       1       1       2       1
       1       2       1       1       2       1       1       2       1       1
       2       1       1       2       1       1       2       1       1       2
       1       1       2       1       1       2       1       1       2       1
       1       2       1       1       2       1       1       2       1       1
       2       1       1       2       1       1       2       1       1       2
       1       1       2       1       1       2       1       1       2       1
       1       2       1       1       2       1       1       2       1       1
       2       1       1       2       1       1       2       1       1       2
       1       1       2       1       1       2       1       1       2       1
       1       2       1       1       2       1       1       2       1       1
       2       1       1       2       1       1       2       1       1       2
       1       1       2       1       1       2       1       1       2       1
       1       2       1       1       2       1       1       2       1       1
       2       1       1       2       1       1       2       1       1       2
       1       1       2       1       1       2       1       1       2       1
       1       2       1       1       2       1       1       2       1       1
       2       1       1       2       1       1       2       1       1       2
       1       1       2       1       1       2       1       1       2       1
       1       2       1       1       2       1       1       2       1       1
       2       1       1       2       1       1       2       1       1       2
       1       1       2       1       1       2       1       1       2       1
       1       2       1       1       2       1       1       2       1       1
       2       1       1       2       1       1       2       1       1       2
       1       1       2       1       1       2       1       1       2       1
       1       2       1       1       2       1       1       2       1       1
       2       1       1       2       1       1       2       1       1       2
       1       1       2       1       1       2       1       1       2       1
       1       2       1       1       2       1       1       2       1       1
       2       1       1       2       1       1       2       1       1       2
       1       1       2       1       1       2       1       1       2       1
       1       2       1       1       2       1       1       2       1       1
       2       1       1       2       1       1       2       1       1       2
       1       1       2       1       1       2       1       1       2       1
       1       2       1       1       2       1       1       2       1       1
       2       1       1       2       1       1       2       1       1       2
       1       1       2       1       1       2       1       1       2       1
       1       2       1       1       2       1       1       2       1       1
       2       1       1       2       1       1       2       1       1       2
       1       1       2       1       1       2       1       1       2       1
       1       2       1       1       2       1       1       2       1       1
       2       1       1       2       1       1       2       1       1       2
       1       1       2       1       1       2       1       1       2       1
       1       2       1       1       2       1       1       2       1       1
       2       1       1       2       1       1       2       1       1       2
       1       1       2       1       1       2       1       1       2       1
       1       2       1       1       2       1       1       2       1       1
       2       1       1       2       1       1       2       1       1       2
       1       1       2       1       1       2       1       1       2       1
       1       2       1       1       2       1       1       2       1       1
       2       1       1       2       1       1       2       1       1       2
       1       1       2       1       1       2       1       1       2       1
       1       2       1       1       2       1       1       2       1       1
       2       1       1       2       1       1       2       1       1       2
       1       1       2       1       1       2       1       1       2       1
       1       2       1       1       2       1       1       2       1       1
       2       1       1       2       1       1       2       1       1       2
       1       1       2       1       1       2       1       1       2       1
       1       2       1       1       2       1       1       2       1       1
       2       1       1       2       1       1       2       1       1       2
       1       1       2       1       1       2       1       1       2       1
       1       2       1       1       2       1       1       2       1       1
       2       1       1       2       1       1       2       1       1       2
       1       1       2       1       1       2       1       1       2       1
       1       2       1       1       2       1       1       2       1       1
       2       1       1       2       1       1       2       1       1       2
       1       1       2       1       1       2       1       1       2       1
       1       2       1       1       2       1       1       2       1       1
       2       1       1       2       1       1       2       1       1       2
       1       1       2       1       1       2       1       1       2       1
       1       2       1       1       2       1       1       2       1       1
       2       1       1       2       1       1       2       1       1       2
       1       1       2       1       1       2       1       1       2       1
       1       2       1       1       2       1       1       2       1       1
       2       1       1       2       1       1       2       1       1       2
       1       1       2       1       1       2       1       1       2       1
       1       2       1       1       2       1       1       2       1       1
       2       1       1       2       1       1       2       1       1       2
       1       1       2       1       1       2       1       1       2       1
       1       2       1       1       2       1       1       2       1       1
       2       1       1       2       1       1       2       1       1       2
       1       1       2       1       1       2       1       1       2       1
       1       2       1       1       2       1       1       2       1       1
       2       1       1       2       1       1       2       1       1       2
       1       1       2       1       1       2       1       1       2       1
       1       2       1       1       2       1       1       2       1       1
       2       1       1       2       1       1       2       1       1       2
       1       1       2       1       1       2       1       1       2       1
       1       2       1       1       2       1       1       2       1       1
       2       1       1       2       1       1       2       1       1       2
       1       1       2       1       1       2       1       1       2       1
       1       2       1       1       2       1       1       2       1       1
       2       1       1       2       1       1       2       1       1       2
       1       1       2       1       1       2       1       1       2       1
       1       2       1       1       2       1       1       2       1       1
       2       1       1       2       1       1       2       1       1       2
       1       1       2       1       1       2       1       1       2       1
       1       2       1       1       2       1       1       2       1       1
       2       1       1       2       1       1       2       1       1       2
       1       1       2       1       1       2       1       1       2       1
       1       2       1       1       2       1       1       2       1       1
       2       1       1       2       1       1       2       1       1       2
       1       1       2       1       1       2       1       1       2       1
       1       2       1       1       2       1       1       2       1       1
       2       1       1       2       1       1       2       1       1       2
       1       1       2       1       1       2       1       1       2       1
       1       2       1       1       2       1       1       2       1       1
       2       1       1       2       1       1       2       1       1       2
       1       1       2       1       1       2       1       1       2       1
       1       2       1       1       2       1       1       2       1       1
       2       1       1       2       1       1       2       1       1       2
       1       1       2       1       1       2       1       1       2       1
       1       2       1       1       2       1       1       2       1       1
       2       1       1       2       1       1       2       1       1       2
       1       1       2       1       1       2       1       1       2       1
       1       2       1       1       2       1       1       2       1       1
       2       1       1       2       1       1       2       1       1       2
       1       1       2       1       1       2       1       1       2       1
       1       2       1       1       2       1       1       2       1       1
       2       1       1       2       1       1       2       1       1       2
       1       1       2       1       1       2       1       1       2       1
       1       2       1       1       2       1       1       2       1       1
       2       1       1       2       1       1       2       1       1       2
       1       1       2       1       1       2       1       1       2       1
       1       2       1       1       2       1       1       2       1       1
       2       1       1       2       1       1       2       1       1       2
       1       1       2       1       1       2       1       1       2       1
       1       2       1       1       2       1       1       2       1       1
       2       1       1       2       1       1       2       1       1       2
       1       1       2       1       1       2       1       1       2       1
       1       2       1       1       2       1       1       2       1       1
       2       1       1       2       1       1       2       1       1       2
       1       1       2       1       1       2       1       1       2       1
       1       2       1       1       2       1       1       2       1       1
       2       1       1       2       1       1       2       1       1       2
       1       1       2       1       1       2       1       1       2       1
       1       2       1       1       2       1       1       2       1       1
       2       1       1       2       1       1       2       1       1       2
       1       1       2       1       1       2       1       1       2       1
       1       2       1       1       2       1       1       2       1       1
       2       1       1       2       1       1       2       1       1       2
       1       1       2       1       1       2       1       1       2       1
       1       2       1       1       2       1       1       2       1       1
       2       1       1       2       1       1       2       1       1       2
       1       1       2       1       1       2       1       1       2       1
       1       2       1       1       2       1       1       2       1       1
       2       1       1       2       1       1       2       1       1       2
       1       1       2       1       1       2       1       1       2       1
       1       2       1       1       2       1       1       2       1       1
       2       1       1       2       1       1       2       1       1       2
       1       1       2       1       1       2       1       1       2       1
       1       2       1       1       2       1       1       2       1       1
       2       1       1       2       1       1       2       1       1       2
       1       1       2       1       1       2       1       1       2       1
       1       2       1       1       2       1       1       2       1       1
       2       1       1       2       1       1       2       1       1       2
       1       1       2       1       1       2       1       1       2       1
       1       2       1       1       2       1       1       2       1       1
       2       1       1       2       1       1       2       1       1       2
       1       1       2       1       1       2       1       1       2       1
       1       2       1       1       2       1       1       2       1       1
       2       1       1       2       1       1       2       1       1       2
       1       1       2       1       1       2       1       1       2       1
       1       2       1       1       2       1       1       2       1       1
       2       1       1       2       1       1       2       1       1       2
       1       1       2       1       1       2       1       1       2       1
       1       2       1       1       2       1       1       2       1       1
       2       1       1       2       1       1       2       1       1       2
       1       1       2       1       1       2       1       1       2       1
       1       2       1       1       2       1       1       2       1       1
       2       1       1       2       1       1       2       1       1       2
       1       1       2       1       1       2       1       1       2       1
       1       2       1       1       2       1       1       2       1       1
       2       1       1       2       1       1       2       1       1       2
       1       1       2       1       1       2       1       1       2       1
       1       2       1       1       2       1       1       2       1       1
       2       1       1       2       1       1       2       1       1       2
       1       1       2       1       1       2       1       1       2       1
       1       2       1       1       2       1       1       2       1       1
       2       1       1       2       1       1       2       1       1       2
       1       1       2       1       1       2       1       1       2       1
       1       2       1       1       2       1       1       2       1       1
       2       1       1       2       1       1       2       1       1       2
       1       1       2       1       1       2       1       1       2       1
       1       2       1       1       2       1       1       2       1       1
       2       1       1       2       1       1       2       1       1       2
       1       1       2       1       1       2       1       1       2       1
       1       2       1       1       2       1       1       2       1       1
       2       1       1       2       1       1       2       1       1       2
       1       1       2       1       1       2       1       1       2       1
       1       2       1       1       2       1       1       2       1       1
       2       1       1       2       1       1       2       1       1       2
       1       1       2       1       1       2       1       1       2       1
       1       2       1       1       2       1       1       2       1       1
       2       1       1       2       1       1       2       1       1       2
       1       1       2       1       1       2       1       1       2       1
       1       2       1       1       2       1       1       2       1       1
       2       1       1       2       1       1       2       1       1       2
       1       1       2       1       1       2       1       1       2       1
       1       2       1       1       2       1       1       2       1       1
       2       1       1       2       1       1       2       1       1       2
       1       1       2       1       1       2       1       1       2       1
       1       2       1       1       2       1       1       2       1       1
       2       1       1       2       1       1       2       1       1       2
       1       1       2       1       1       2       1       1       2       1
       1       2       1       1       2       1       1       2       1       1
       2       1       1       2       1       1       2       1       1       2
       1       1       2       1       1       2       1       1       2       1
       1       2       1       1       2       1       1       2       1       1
       2       1       1       2       1       1       2       1       1       2
       1       1       2       1       1       2       1       1       2       1
       1       2       1       1       2       1       1       2       1       1
       2       1       1       2       1       1       2       1       1       2
       1       1       2       1       1       2       1       1       2       1
       1       2       1       1       2       1       1       2       1       1
       2       1       1       2       1       1       2       1       1       2
       1       1       2       1       1       2       1       1       2       1
       1       2       1       1       2       1       1       2       1       1
       2       1       1       2       1       1       2       1       1       2
       1       1       2       1       1       2       1       1       2       1
       1       2       1       1       2       1       1       2       1       1
       2       1       1       2       1       1       2       1       1       2
       1       1       2       1       1       2       1       1       2       1
       1       2       1       1       2       1       1       2       1       1
       2       1       1       2       1       1       2       1       1       2
       1       1       2       1       1       2       1       1       2       1
       1       2       1       1       2       1       1       2       1       1
       2       1       1       2       1       1       2       1       1       2
       1       1       2       1       1       2       1       1       2       1
       1       2       1       1       2       1       1       2       1       1
       2       1       1       2       1       1       2       1       1       2
       1       1       2       1       1       2       1       1       2       1
       1       2       1       1       2       1       1       2       1       1
       2       1       1       2       1       1       2       1       1       2
       1       1       2       1       1       2       1       1       2       1
       1       2       1       1       2       1       1       2       1       1
       2       1       1       2       1       1       2       1       1       2
       1       1       2       1       1       2       1       1       2       1
       1       2       1       1       2       1       1       2       1       1
       2       1       1       2       1       1       2       1       1       2
       1       1       2       1       1       2       1       1       2       1
       1       2       1       1       2       1       1       2       1       1
       2       1       1       2       1       1       2       1       1       2
       1       1       2       1       1       2       1       1       2       1
       1       2       1       1       2       1       1       2       1       1
       2       1       1       2       1       1       2       1       1       2
       1       1       2       1       1       2       1       1       2       1
       1       2       1       1       2       1       1       2       1       1
       2       1       1       2       1       1       2       1       1       2
       1       1       2       1       1       2       1       1       2       1
       1       2       1       1       2       1       1       2       1       1
       2       1       1       2       1       1       2       1       1       2
       1       1       2       1       1       2       1       1       2       1
       1       2       1       1       2       1       1       2       1       1
       2       1       1       2       1       1       2       1       1       2
       1       1       2       1       1       2       1       1       2       1
       1       2       1       1       2       1       1       2       1       1
       2       1       1       2       1       1       2       1       1       2
       1       1       2       1       1       2       1       1       2       1
       1       2       1       1       2       1       1       2       1       1
       2       1       1       2       1       1       2       1       1       2
       1       1       2       1       1       2       1       1       2       1
       1       2       1       1       2       1       1       2       1       1
       2       1       1       2       1       1       2       1       1       2
       1       1       2       1       1       2       1       1       2       1
       1       2       1       1       2       1       1       2       1       1
       2       1       1       2       1       1       2       1       1       2
       1       1       2       1       1       2       1       1       2       1
       1       2       1       1       2       1       1       2       1       1
       2       1       1       2       1       1       2       1       1       2
       1       1       2       1       1       2       1       1       2       1
       1       2       1       1       2       1       1       2       1       1
       2       1       1       2       1       1       2       1       1       2
       1       1       2       1       1       2       1       1       2       1
       1       2       1       1       2       1       1       2       1       1
       2       1       1       2       1       1       2       1       1       2
       1       1       2       1       1       2       1       1       2       1
       1       2       1       1       2       1       1       2       1       1
       2       1       1       2       1       1       2       1       1       2
       1       1       2       1       1       2       1       1       2       1
       1       2       1       1       2       1       1       2       1       1
       2       1       1       2       1       1       2       1       1       2
       1       1       2       1       1       2       1       1       2       1
       1       2       1       1       2       1       1       2       1       1
       2       1       1       2       1       1       2       1       1       2
       1       1       2       1       1       2       1       1       2       1
       1       2       1       1       2       1       1       2       1       1
       2       1       1       2       1       1       2       1       1       2
       1       1       2       1       1       2       1       1       2       1
       1       2       1       1       2       1       1       2       1       1
       2       1       1       2       1       1       2       1       1       2
       1       1       2       1       1       2       1       1       2       1
       1       2       1       1       2       1       1       2       1       1
       2       1       1       2       1       1       2       1       1       2
       1       1       2       1       1       2       1       1       2       1
       1       2       1       1       2       1       1       2       1       1
       2       1       1       2       1       1       2       1       1       2
       1       1       2       1       1       2       1       1       2       1
       1       2       1       1       2       1       1       2       1       1
       2       1       1       2       1       1       2       1       1       2
       1       1       2       1       1       2       1       1       2       1
       1       2       1       1       2       1       1       2       1       1
       2       1       1       2       1       1       2       1       1       2
       1       1       2       1       1       2       1       1       2       1
       1       2       1       1       2       1       1       2       1       1
       2       1       1       2       1       1       2       1       1       2
       1       1       2       1       1       2       1       1       2       1
       1       2       1       1       2       1       1       2       1       1
       2       1       1       2       1       1       2       1       1       2
       1       1       2       1       1       2       1       1       2       1
       1       2       1       1       2       1       1       2       1       1
       2       1       1       2       1       1       2       1       1       2
       1       1       2       1       1       2       1       1       2       1
       1       2       1       1       2       1       1       2       1       1
       2       1       1       2       1       1       2       1       1       2
       1       1       2       1       1       2       1       1       2       1
       1       2       1       1       2       1       1       2       1       1
       2       1       1       2       1       1       2       1       1       2
       1       1       2       1       1       2       1       1       2       1
       1       2       1       1       2       1       1       2       1       1
       2       1       1       2       1       1       2       1       1       2
       1       1       2       1       1       2       1       1       2       1
       1       2       1       1       2       1       1       2       1       1
       2       1       1       2       1       1       2       1       1       2
       1       1       2       1       1       2       1       1       2       1
       1       2       1       1       2       1       1       2       1       1
       2       1       1       2       1       1       2       1       1       2
       1       1       2       1       1       2       1       1       2       1
       1       2       1       1       2       1       1       2       1       1
       2       1       1       2       1       1       2       1       1       2
       1       1       2       1       1       2       1       1       2       1
       1       2       1       1       2       1       1       2       1       1
       2       1       1       2       1       1       2       1       1       2
       1       1       2       1       1       2       1       1       2       1
       1       2       1       1       2       1       1       2       1       1
       2       1       1       2       1       1       2       1       1       2
       1       1       2       1       1       2       1       1       2       1
       1       2       1       1       2       1       1       2       1       1
       2       1       1       2       1       1       2       1       1       2
       1       1       2       1       1       2       1       1       2       1
       1       2       1       1       2       1       1       2       1       1
       2       1       1       2       1       1       2       1       1       2
       1       1       2       1       1       2       1       1       2       1
       1       2       1       1       2       1       1       2       1       1
       2       1       1       2       1       1       2       1       1       2
       1       1       2       1       1       2       1       1       2       1
       1       2       1       1       2       1       1       2       1       1
       2       1       1       2       1       1       2       1       1       2
       1       1       2       1       1       2       1       1       2       1
       1       2       1       1       2       1       1       2       1       1
       2       1       1       2       1       1       2       1       1       2
       1       1       2       1       1       2       1       1       2       1
       1       2       1       1       2       1       1       2       1       1
       2       1       1       2       1       1       2       1       1       2
       1       1       2       1       1       2       1       1       2       1
       1       2       1       1       2       1       1       2       1       1
       2       1       1       2       1       1       2       1       1       2
       1       1       2       1       1       2       1       1       2       1
       1       2       1       1       2       1       1       2       1       1
       2       1       1       2       1       1       2       1       1       2
       1       1       2       1       1       2       1       1       2       1
       1       2       1       1       2       1       1       2       1       1
       2       1       1       2       1       1       2       1       1       2
       1       1       2       1       1       2       1       1       2       1
       1       2       1       1       2       1       1       2       1       1
       2       1       1       2       1       1       2       1       1       2
       1       1       2       1       1       2       1       1       2       1
       1       2       1       1       2       1       1       2       1       1
       2       1       1       2       1       1       2       1       1       2
       1       1       2       1       1       2       1       1       2       1
       1       2       1       1       2       1       1       2       1       1
       2       1       1       2       1       1       2       1       1       2
       1       1       2       1       1       2       1       1       2       1
       1       2       1       1       2       1       1       2       1       1
       2       1       1       2       1       1       2       1       1       2
       1       1       2       1       1       2       1       1       2       1
       1       2       1       1       2       1       1       2       1       1
       2       1       1       2       1       1       2       1       1       2
       1       1       2       1       1       2       1       1       2       1
       1       2       1       1       2       1       1       2       1       1
       2       1       1       2       1       1       2       1       1       2
       1       1       2       1       1       2       1       1       2       1
       1       2       1       1       2       1       1       2       1       1
       2       1       1       2       1       1       2       1       1       2
       1       1       2       1       1       2       1       1       2       1
       1       2       1       1       2       1       1       2       1       1
       2       1       1       2       1       1       2       1       1       2
       1       1       2       1       1       2       1       1       2       1
       1       2       1       1       2       1       1       2       1       1
       2       1       1       2       1       1       2       1       1       2
       1       1       2       1       1       2       1       1       2       1
       1       2       1       1       2       1       1       2       1       1
       2       1       1       2       1       1       2       1       1       2
       1       1       2       1       1       2       1       1       2       1
       1       2       1       1       2       1       1       2       1       1
       2       1       1       2       1       1       2       1       1       2
       1       1       2       1       1       2       1       1       2       1
       1       2       1       1       2       1       1       2       1       1
       2       1       1       2       1       1       2       1       1       2
       1       1       2       1       1       2       1       1       2       1
       1       2       1       1       2       1       1       2       1       1
       2       1       1       2       1       1       2       1       1       2
       1       1       2       1       1       2       1       1       2       1
       1       2       1       1       2       1       1       2       1       1
       2       1       1       2       1       1       2       1       1       2
       1       1       2       1       1       2       1       1       2       1
       1       2       1       1       2       1       1       2       1       1
       2       1       1       2       1       1       2       1       1       2
       1       1       2       1       1       2       1       1       2       1
       1       2       1       1       2       1       1       2       1       1
       2       1       1       2       1       1       2       1       1       2
       1       1       2       1       1       2       1       1       2       1
       1       2       1       1       2       1       1       2       1       1
       2       1       1       2       1       1       2       1       1       2
       1       1       2       1       1       2       1       1       2       1
       1       2       1       1       2       1       1       2       1       1
       2       1       1       2       1       1       2       1       1       2
       1       1       2       1       1       2       1       1       2       1
       1       2       1       1       2       1       1       2       1       1
       2       1       1       2       1       1       2       1       1       2
       1       1       2       1       1       2       1       1       2       1
       1       2       1       1       2       1       1       2       1       1
       2       1       1       2       1       1       2       1       1       2
       1       1       2       1       1       2       1       1       2       1
       1       2       1       1       2       1       1       2       1       1
       2       1       1       2       1       1       2       1       1       2
       1       1       2       1       1       2       1       1       2       1
       1       2       1       1       2       1       1       2       1       1
       2       1       1       2       1       1       2       1       1       2
       1       1       2       1       1       2       1       1       2       1
       1       2       1       1       2       1       1       2       1       1
       2       1       1       2       1       1       2       1       1       2
       1       1       2       1       1       2       1       1       2       1
       1       2       1       1       2       1       1       2       1       1
       2       1       1       2       1       1       2       1       1       2
       1       1       2       1       1       2       1       1       2       1
       1       2       1       1       2       1       1       2       1       1
       2       1       1       2       1       1       2       1       1       2
       1       1       2       1       1       2       1       1       2       1
       1       2       1       1       2       1       1       2       1       1
       2       1       1       2       1       1       2       1       1       2
       1       1       2       1       1       2       1       1       2       1
       1       2       1       1       2       1       1       2       1       1
       2       1       1       2       1       1       2       1       1       2
       1       1       2       1       1       2       1       1       2       1
       1       2       1       1       2       1       1       2       1       1
       2       1       1       2       1       1       2       1       1       2
       1       1       2       1       1       2       1       1       2       1
       1       2       1       1       2       1       1       2       1       1
       2       1       1       2       1       1       2       1       1       2
       1       1       2       1       1       2       1       1       2       1
       1       2       1       1       2       1       1       2       1       1
       2       1       1       2       1       1       2       1       1       2
       1       1       2       1       1       2       1       1       2       1
       1       2       1       1       2       1       1       2       1       1
       2       1       1       2       1       1       2       1       1       2
       1       1       2       1       1       2       1       1       2       1
       1       2       1       1       2       1       1       2       1       1
       2       1       1       2       1       1       2       1       1       2
       1       1       2       1       1       2       1       1       2       1
       1       2       1       1       2       1       1       2       1       1
       2       1       1       2       1       1       2       1       1       2
       1       1       2       1       1       2       1       1       2       1
       1       2       1       1       2       1       1       2       1       1
       2       1       1       2       1       1       2       1       1       2
       1       1       2       1       1       2       1       1       2       1
       1       2       1       1       2       1       1       2       1       1
       2       1       1       2       1       1       2       1       1       2
       1       1       2       1       1       2       1       1       2       1
       1       2       1       1       2       1       1       2       1       1
       2       1       1       2       1       1       2       1       1       2
       1       1       2       1       1       2       1       1       2       1
       1       2       1       1       2       1       1       2       1       1
       2       1       1       2       1       1       2       1       1       2
       1       1       2       1       1       2       1       1       2       1
       1       2       1       1       2       1       1       2       1       1
       2       1       1       2       1       1       2       1       1       2
       1       1       2       1       1       2       1       1       2       1
       1       2       1       1       2       1       1       2       1       1
       2       1       1       2       1       1       2       1       1       2
       1       1       2       1       1       2       1       1       2       1
       1       2       1       1       2       1       1       2       1       1
       2       1       1       2       1       1       2       1       1       2
       1       1       2       1       1       2       1       1       2       1
       1       2       1       1       2       1       1       2       1       1
       2       1       1       2       1       1       2       1       1       2
       1       1       2       1       1       2       1       1       2       1
       1       2       1       1       2       1       1       2       1       1
       2       1       1       2       1       1       2       1       1       2
       1       1       2       1       1       2       1       1       2       1
       1       2       1       1       2       1       1       2       1       1
       2       1       1       2       1       1       2       1       1       2
       1       1       2       1       1       2       1       1       2       1
       1       2       1       1       2       1       1       2       1       1
       2       1       1       2       1       1       2       1       1       2
       1       1       2       1       1       2       1       1       2       1
       1       2       1       1       2       1       1       2       1       1
       2       1       1       2       1       1       2       1       1       2
       1       1       2       1       1       2       1       1       2       1
       1       2       1       1       2       1       1       2       1       1
       2       1       1       2       1       1       2       1       1       2
       1       1       2       1       1       2       1       1       2       1
       1       2       1       1       2       1       1       2       1       1
       2       1       1       2       1       1       2       1       1       2
       1       1       2       1       1       2       1       1       2       1
       1       2       1       1       2       1       1       2       1       1
       2       1       1       2       1       1       2       1       1       2
       1       1       2       1       1       2       1       1       2       1
       1       2       1       1       2       1       1       2       1       1
       2       1       1       2       1       1       2       1       1       2
       1       1       2       1       1       2       1       1       2       1
       1       2       1       1       2       1       1       2       1       1
       2       1       1       2       1       1       2       1       1       2
       1       1       2       1       1       2       1       1       2       1
       1       2       1       1       2       1       1       2       1       1
       2       1       1       2       1       1       2       1       1       2
       1       1       2       1       1       2       1       1       2       1
       1       2       1       1       2       1       1       2       1       1
       2       1       1       2       1       1       2       1       1       2
       1       1       2       1       1       2       1       1       2       1
       1       2       1       1       2       1       1       2       1       1
       2       1       1       2       1       1       2       1       1       2
       1       1       2       1       1       2       1       1       2       1
       1       2       1       1       2       1       1       2       1       1
       2       1       1       2       1       1       2       1       1       2
       1       1       2       1       1       2       1       1       2       1
       1       2       1       1       2       1       1       2       1       1
       2       1       1       2       1       1       2       1       1       2
       1       1       2       1       1       2       1       1       2       1
       1       2       1       1       2       1       1       2       1       1
       2       1       1       2       1       1       2       1       1       2
       1       1       2       1       1       2       1       1       2       1
       1       2       1       1       2       1       1       2       1       1
       2       1       1       2       1       1       2       1       1       2
       1       1       2       1       1       2       1       1       2       1
       1       2       1       1       2       1       1       2       1       1
       2       1       1       2       1       1       2       1       1       2
       1       1       2       1       1       2       1       1       2       1
       1       2       1       1       2       1       1       2       1       1
       2       1       1       2       1       1       2       1       1       2
       1       1       2       1       1       2       1       1       2       1
       1       2       1       1       2       1       1       2       1       1
       2       1       1       2       1       1       2       1       1       2
       1       1       2       1       1       2       1       1       2       1
       1       2       1       1       2       1       1       2       1       1
       2       1       1       2       1       1       2       1       1       2
       1       1       2       1       1       2       1       1       2       1
       1       2       1       1       2       1       1       2       1       1
       2       1       1       2       1       1       2       1       1       2
       1       1       2       1       1       2       1       1       2       1
       1       2       1       1       2       1       1       2       1       1
       2       1       1       2       1       1       2       1       1       2
       1       1       2       1       1       2       1       1       2       1
       1       2       1       1       2       1       1       2       1       1
       2       1       1       2       1       1       2       1       1       2
       1       1       2       1       1       2       1       1       2       1
       1       2       1       1       2       1       1       2       1       1
       2       1       1       2       1       1       2       1       1       2
       1       1       2       1       1       2       1       1       2       1
       1       2       1       1       2       1       1       2       1       1
       2       1       1       2       1       1       2       1       1       2
       1       1       2       1       1       2       1       1       2       1
       1       2       1       1       2       1       1       2       1       1
       2       1       1       2       1       1       2       1       1       2
       1       1       2       1       1       2       1       1       2       1
       1       2       1       1       2       1       1       2       1       1
       2       1       1       2       1       1       2       1       1       2
       1       1       2       1       1       2       1       1       2       1
       1       2       1       1       2       1       1       2       1       1
       2       1       1       2       1       1       2       1       1       2
       1       1       2       1       1       2       1       1       2       1
       1       2       1       1       2       1       1       2       1       1
       2       1       1       2       1       1       2       1       1       2
       1       1       2       1       1       2       1       1       2       1
       1       2       1       1       2       1       1       2       1       1
       2       1       1       2       1       1       2       1       1       2
       1       1       2       1       1       2       1       1       2       1
       1       2       1       1       2       1       1       2       1       1
       2       1       1       2       1       1       2       1       1       2
       1       1       2       1       1       2       1       1       2       1
       1       2       1       1       2       1       1       2       1       1
       2       1       1       2       1       1       2       1       1       2
       1       1       2       1       1       2       1       1       2       1
       1       2       1       1       2       1       1       2       1       1
       2       1       1       2       1       1       2       1       1       2
       1       1       2       1       1       2       1       1       2       1
       1       2       1       1       2       1       1       2       1       1
       2       1       1       2       1       1       2       1       1       2
       1       1       2       1       1       2       1       1       2       1
       1       2       1       1       2       1       1       2       1       1
       2       1       1       2       1       1       2       1       1       2
       1       1       2       1       1       2       1       1       2       1
       1       2       1       1       2       1       1       2       1       1
       2       1       1       2       1       1       2       1       1       2
       1       1       2       1       1       2       1       1       2       1
       1       2       1       1       2       1       1       2       1       1
       2       1       1       2       1       1       2       1       1       2
       1       1       2       1       1       2       1       1       2       1
       1       2       1       1       2       1       1       2       1       1
       2       1       1       2       1       1       2       1       1       2
       1       1       2       1       1       2       1       1       2       1
       1       2       1       1       2       1       1       2       1       1
       2       1       1       2       1       1       2       1       1       2
       1       1       2       1       1       2       1       1       2       1
       1       2       1       1       2       1       1       2       1       1
       2       1       1       2       1       1       2       1       1       2
       1       1       2       1       1       2       1       1       2       1
       1       2       1       1       2       1       1       2       1       1
       2       1       1       2       1       1       2       1       1       2
       1       1       2       1       1       2       1       1       2       1
       1       2       1       1       2       1       1       2       1       1
       2       1       1       2       1       1       2       1       1       2
       1       1       2       1       1       2       1       1       2       1
       1       2       1       1       2       1       1       2       1       1
       2       1       1       2       1       1       2       1       1       2
       1       1       2       1       1       2       1       1       2       1
       1       2       1       1       2       1       1       2       1       1
       2       1       1       2       1       1       2       1       1       2
       1       1       2       1       1       2       1       1       2       1
       1       2       1       1       2       1       1       2       1       1
       2       1       1       2       1       1       2       1       1       2
       1       1       2       1       1       2       1       1       2       1
       1       2       1       1       2       1       1       2       1       1
       2       1       1       2       1       1       2       1       1       2
       1       1       2       1       1       2       1       1       2       1
       1       2       1       1       2       1       1       2       1       1
       2       1       1       2       1       1       2       1       1       2
       1       1       2       1       1       2       1       1       2       1
       1       2       1       1       2       1       1       2       1       1
       2       1       1       2       1       1       2       1       1       2
       1       1       2       1       1       2       1       1       2       1
       1       2       1       1       2       1       1       2       1       1
       2       1       1       2       1       1       2       1       1       2
       1       1       2       1       1       2       1       1       2       1
       1       2       1       1       2       1       1       2       1       1
       2       1       1       2       1       1       2       1       1       2
       1       1       2       1       1       2       1       1       2       1
       1       2       1       1       2       1       1       2       1       1
       2       1       1       2       1       1       2       1       1       2
       1       1       2       1       1       2       1       1       2       1
       1       2       1       1       2       1       1       2       1       1
       2       1       1       2       1       1       2       1       1       2
       1       1       2       1       1       2       1       1       2       1
       1       2       1       1       2       1       1       2       1       1
       2       1       1       2       1       1       2       1       1       2
       1       1       2       1       1       2       1       1       2       1
       1       2       1       1       2       1       1       2       1       1
       2       1       1       2       1       1       2       1       1       2
       1       1       2       1       1       2       1       1       2       1
       1       2       1       1       2       1       1       2       1       1
       2       1       1       2       1       1       2       1       1       2
       1       1       2       1       1       2       1       1       2       1
       1       2       1       1       2       1       1       2       1       1
       2       1       1       2       1       1       2       1       1       2
       1       1       2       1       1       2       1       1       2       1
       1       2       1       1       2       1       1       2       1       1
       2       1       1       2       1       1       2       1       1       2
       1       1       2       1       1       2       1       1       2       1
       1       2       1       1       2       1       1       2       1       1
       2       1       1       2       1       1       2       1       1       2
       1       1       2       1       1       2       1       1       2       1
       1       2       1       1       2       1       1       2       1       1
       2       1       1       2       1       1       2       1       1       2
       1       1       2       1       1       2       1       1       2       1
       1       2       1       1       2       1       1       2       1       1
       2       1       1       2       1       1       2       1       1       2
       1       1       2       1       1       2       1       1       2       1
       1       2       1       1       2       1       1       2       1       1
       2       1       1       2       1       1       2       1       1       2
       1       1       2       1       1       2       1       1       2       1
       1       2       1       1       2       1       1       2       1       1
       2       1       1       2       1       1       2       1       1       2
       1       1       2       1       1       2       1       1       2       1
       1       2       1       1       2       1       1       2       1       1
       2       1       1       2       1       1       2       1       1       2
       1       1       2       1       1       2       1       1       2       1
       1       2       1       1       2       1       1       2       1       1
       2       1       1       2       1       1       2       1       1       2
       1       1       2       1       1       2       1       1       2       1
       1       2       1       1       2       1       1       2       1       1
       2       1       1       2       1       1       2       1       1       2
       1       1       2       1       1       2       1       1       2       1
       1       2       1       1       2       1       1       2       1       1
       2       1       1       2       1       1       2       1       1       2
       1       1       2       1       1       2       1       1       2       1
       1       2       1       1       2       1       1       2       1       1
       2       1       1       2       1       1       2       1       1       2
       1       1       2       1       1       2       1       1       2       1
       1       2       1       1       2       1       1       2       1       1
       2       1       1       2       1       1       2       1       1       2
       1       1       2       1       1       2       1       1       2       1
       1       2       1       1       2       1       1       2       1       1
       2       1       1       2       1       1       2       1       1       2
       1       1       2       1       1       2       1       1       2       1
       1       2       1       1       2       1       1       2       1       1
       2       1       1       2       1       1       2       1       1       2
       1       1       2       1       1       2       1       1       2       1
       1       2       1       1       2       1       1       2       1       1
       2       1       1       2       1       1       2       1       1       2
       1       1       2       1       1       2       1       1       2       1
       1       2       1       1       2       1       1       2       1       1
       2       1       1       2       1       1       2       1       1       2
       1       1       2       1       1       2       1       1       2       1
       1       2       1       1       2       1       1       2       1       1
       2       1       1       2       1       1       2       1       1       2
       1       1       2       1       1       2       1       1       2       1
       1       2       1       1       2       1       1       2       1       1
       2       1       1       2       1       1       2       1       1       2
       1       1       2       1       1       2       1       1       2       1
       1       2       1       1       2       1       1       2       1       1
       2       1       1       2       1       1       2       1       1       2
       1       1       2       1       1       2       1       1       2       1
       1       2       1       1       2       1       1       2       1       1
       2       1       1       2       1       1       2       1       1       2
       1       1       2       1       1       2       1       1       2       1
       1       2       1       1       2       1       1       2       1       1
       2       1       1       2       1       1       2       1       1       2
       1       1       2       1       1       2       1       1       2       1
       1       2       1       1       2       1       1       2       1       1
       2       1       1       2       1       1       2       1       1       2
       1       1       2       1       1       2       1       1       2       1
       1       2       1       1       2       1       1       2       1       1
       2       1       1       2       1       1       2       1       1       2
       1       1       2       1       1       2       1       1       2       1
       1       2       1       1       2       1       1       2       1       1
       2       1       1       2       1       1       2       1       1       2
       1       1       2       1       1       2       1       1       2       1
       1       2       1       1       2       1       1       2       1       1
       2       1       1       2       1       1       2       1       1       2
       1       1       2       1       1       2       1       1       2       1
       1       2       1       1       2       1       1       2       1       1
       2       1       1       2       1       1       2       1       1       2
       1       1       2       1       1       2       1       1       2       1
       1       2       1       1       2       1       1       2       1       1
       2       1       1       2       1       1       2       1       1       2
       1       1       2       1       1       2       1       1       2       1
       1       2       1       1       2       1       1       2       1       1
       2       1       1       2       1       1       2       1       1       2
       1       1       2       1       1       2       1       1       2       1
       1       2       1       1       2       1       1       2       1       1
       2       1       1       2       1       1       2       1       1       2
       1       1       2       1       1       2       1       1       2       1
       1       2       1       1       2       1       1       2       1       1
       2       1       1       2       1       1       2       1       1       2
       1       1       2       1       1       2       1       1       2       1
       1       2       1       1       2       1       1       2       1       1
       2       1       1       2       1       1       2       1       1       2
       1       1       2       1       1       2       1       1       2       1
       1       2       1       1       2       1       1       2       1       1
       2       1       1       2       1       1       2       1       1       2
       1       1       2       1       1       2       1       1       2       1
       1       2       1       1       2       1       1       2       1       1
       2       1       1       2       1       1       2       1       1       2
       1       1       2       1       1       2       1       1       2       1
       1       2       1       1       2       1       1       2       1       1
       2       1       1       2       1       1       2       1       1       2
       1       1       2       1       1       2       1       1       2       1
       1       2       1       1       2       1       1       2       1       1
       2       1       1       2       1       1       2       1       1       2
       1       1       2       1       1       2       1       1       2       1
       1       2       1       1       2       1       1       2       1       1
       2       1       1       2       1       1       2       1       1       2
       1       1       2       1       1       2       1       1       2       1
       1       2       1       1       2       1       1       2       1       1
       2       1       1       2       1       1       2       1       1       2
       1       1       2       1       1       2       1       1       2       1
       1       2       1       1       2       1       1       2       1       1
       2       1       1       2       1       1       2       1       1       2
       1       1       2       1       1       2       1       1       2       1
       1       2       1       1       2       1       1       2       1       1
       2       1       1       2       1       1       2       1       1       2
       1       1       2       1       1       2       1       1       2       1
       1       2       1       1       2       1       1       2       1       1
       2       1       1       2       1       1       2       1       1       2
       1       1       2       1       1       2       1       1       2       1
       1       2       1       1       2       1       1       2       1       1
       2       1       1       2       1       1       2       1       1       2
       1       1       2       1       1       2       1       1       2       1
       1       2       1       1       2       1       1       2       1       1
       2       1       1       2       1       1       2       1       1       2
       1       1       2       1       1       2       1       1       2       1
       1       2       1       1       2       1       1       2       1       1
       2       1       1       2       1       1       2       1       1       2
       1       1       2       1       1       2       1       1       2       1
       1       2       1       1       2       1       1       2       1       1
       2       1       1       2       1       1       2       1       1       2
       1       1       2       1       1       2       1       1       2       1
       1       2       1       1       2       1       1       2       1       1
       2       1       1       2       1       1       2       1       1       2
       1       1       2       1       1       2       1       1       2       1
       1       2       1       1       2       1       1       2       1       1
       2       1       1       2       1       1       2       1       1       2
       1       1       2       1       1       2       1       1       2       1
       1       2       1       1       2       1       1       2       1       1
       2       1       1       2       1       1       2       1       1       2
       1       1       2       1       1       2       1       1       2       1
       1       2       1       1       2       1       1       2       1       1
       2       1       1       2       1       1       2       1       1       2
       1       1       2       1       1       2       1       1       2       1
       1       2       1       1       2       1       1       2       1       1
       2       1       1       2       1       1       2       1       1       2
       1       1       2       1       1       2       1       1       2       1
       1       2       1       1       2       1       1       2       1       1
       2       1       1       2       1       1       2       1       1       2
       1       1       2       1       1       2       1       1       2       1
       1       2       1       1       2       1       1       2       1       1
       2       1       1       2       1       1       2       1       1       2
       1       1       2       1       1       2       1       1       2       1
       1       2       1       1       2       1       1       2       1       1
       2       1       1       2       1       1       2       1       1       2
       1       1       2       1       1       2       1       1       2       1
       1       2       1       1       2       1       1       2       1       1
       2       1       1       2       1       1       2       1       1       2
       1       1       2       1       1       2       1       1       2       1
       1       2       1       1       2       1       1       2       1       1
       2       1       1       2       1       1       2       1       1       2
       1       1       2       1       1       2       1       1       2       1
       1       2       1       1       2       1       1       2       1       1
       2       1       1       2       1       1       2       1       1       2
       1       1       2       1       1       2       1       1       2       1
       1       2       1       1       2       1       1       2       1       1
       2       1       1       2       1       1       2       1       1       2
       1       1       2       1       1       2       1       1       2       1
       1       2       1       1       2       1       1       2       1       1
       2       1       1       2       1       1       2       1       1       2
       1       1       2       1       1       2       1       1       2       1
       1       2       1       1       2       1       1       2       1       1
       2       1       1       2       1       1       2       1       1       2
       1       1       2       1       1       2       1       1       2       1
       1       2       1       1       2       1       1       2       1       1
       2       1       1       2       1       1       2       1       1       2
       1       1       2       1       1       2       1       1       2       1
       1       2       1       1       2       1       1       2       1       1
       2       1       1       2       1       1       2       1       1       2
       1       1       2       1       1       2       1       1       2       1
       1       2       1       1       2       1       1       2       1       1
       2       1       1       2       1       1       2       1       1       2
       1       1       2       1       1       2       1       1       2       1
       1       2       1       1       2       1       1       2       1       1
       2       1       1       2       1       1       2       1       1       2
       1       1       2       1       1       2       1       1       2       1
       1       2       1       1       2       1       1       2       1       1
       2       1       1       2       1       1       2       1       1       2
       1       1       2       1       1       2       1       1       2       1
       1       2       1       1       2       1       1       2       1       1
       2       1       1       2       1       1       2       1       1       2
       1       1       2       1       1       2       1       1       2       1
       1       2       1       1       2       1       1       2       1       1
       2       1       1       2       1       1       2       1       1       2
       1       1       2       1       1       2       1       1       2       1
       1       2       1       1       2       1       1       2       1       1
       2       1       1       2       1       1       2       1       1       2
       1       1       2       1       1       2       1       1       2       1
       1       2       1       1       2       1       1       2       1       1
       2       1       1       2       1       1       2       1       1       2
       1       1       2       1       1       2       1       1       2       1
       1       2       1       1       2       1       1       2       1       1
       2       1       1       2       1       1       2       1       1       2
       1       1       2       1       1       2       1       1       2       1
       1       2       1       1       2       1       1       2       1       1
       2       1       1       2       1       1       2       1       1       2
       1       1       2       1       1       2       1       1       2       1
       1       2       1       1       2       1       1       2       1       1
       2       1       1       2       1       1       2       1       1       2
       1       1       2       1       1       2       1       1       2       1
       1       2       1       1       2       1       1       2       1       1
       2       1       1       2       1       1       2       1       1       2
       1       1       2       1       1       2       1       1       2       1
       1       2       1       1       2       1       1       2       1       1
       2       1       1       2       1       1       2       1       1       2
       1       1       2       1       1       2       1       1       2       1
       1       2       1       1       2       1       1       2       1       1
       2       1       1       2       1       1       2       1       1       2
       1       1       2       1       1       2       1       1       2       1
       1       2       1       1       2       1       1       2       1       1
       2       1       1       2       1       1       2       1       1       2
       1       1       2       1       1       2       1       1       2       1
       1       2       1       1       2       1       1       2       1       1
       2       1       1       2       1       1       2       1       1       2
       1       1       2       1       1       2       1       1       2       1
       1       2       1       1       2       1       1       2       1       1
       2       1       1       2       1       1       2       1       1       2
       1       1       2       1       1       2       1       1       2       1
       1       2       1       1       2       1       1       2       1       1
       2       1       1       2       1       1       2       1       1       2
       1       1       2       1       1       2       1       1       2       1
       1       2       1       1       2       1       1       2       1       1
       2       1       1       2       1       1       2       1       1       2
       1       1       2       1       1       2       1       1       2       1
       1       2       1       1       2       1       1       2       1       1
       2       1       1       2       1       1       2       1       1       2
       1       1       2       1       1       2       1       1       2       1
       1       2       1       1       2       1       1       2       1       1
       2       1       1       2       1       1       2       1       1       2
       1       1       2       1       1       2       1       1       2       1
       1       2       1       1       2       1       1       2       1       1
       2       1       1       2       1       1       2       1       1       2
       1       1       2       1       1       2       1       1       2       1
       1       2       1       1       2       1       1       2       1       1
       2       1       1       2       1       1       2       1       1       2
       1       1       2       1       1       2       1       1       2       1
       1       2       1       1       2       1       1       2       1       1
       2       1       1       2       1       1       2       1       1       2
       1       1       2       1       1       2       1       1       2       1
       1       2       1       1       2       1       1       2       1       1
       2       1       1       2       1       1       2       1       1       2
       1       1       2       1       1       2       1       1       2       1
       1       2       1       1       2       1       1       2       1       1
       2       1       1       2       1       1       2       1       1       2
       1       1       2       1       1       2       1       1       2       1
       1       2       1       1       2       1       1       2       1       1
       2       1       1       2       1       1       2       1       1       2
       1       1       2       1       1       2       1       1       2       1
       1       2       1       1       2       1       1       2       1       1
       2       1       1       2       1       1       2       1       1       2
       1       1       2       1       1       2       1       1       2       1
       1       2       1       1       2       1       1       2       1       1
       2       1       1       2       1       1       2       1       1       2
       1       1       2       1       1       2       1       1       2       1
       1       2       1       1       2       1       1       2       1       1
       2       1       1       2       1       1       2       1       1       2
       1       1       2       1       1       2       1       1       2       1
       1       2       1       1       2       1       1       2       1       1
       2       1       1       2       1       1       2       1       1       2
       1       1       2       1       1       2       1       1       2       1
       1       2       1       1       2       1       1       2       1       1
       2       1       1       2       1       1       2       1       1       2
       1       1       2       1       1       2       1       1       2       1
       1       2       1       1       2       1       1       2       1       1
       2       1       1       2       1       1       2       1       1       2
       1       1       2       1       1       2       1       1       2       1
       1       2       1       1       2       1       1       2       1       1
       2       1       1       2       1       1       2       1       1       2
       1       1       2       1       1       2       1       1       2       1
       1       2       1       1       2       1       1       2       1       1
       2       1       1       2       1       1       2       1       1       2
       1       1       2       1       1       2       1       1       2       1
       1       2       1       1       2       1       1       2       1       1
       2       1       1       2       1       1       2       1       1       2
       1       1       2       1       1       2       1       1       2       1
       1       2       1       1       2       1       1       2       1       1
       2       1       1       2       1       1       2       1       1       2
       1       1       2       1       1       2       1       1       2       1
       1       2       1       1       2       1       1       2       1       1
       2       1       1       2       1       1       2       1       1       2
       1       1       2       1       1       2       1       1       2       1
       1       2       1       1       2       1       1       2       1       1
       2       1       1       2       1       1       2       1       1       2
       1       1       2       1       1       2       1       1       2       1
       1       2       1       1       2       1       1       2       1       1
       2       1       1       2       1       1       2       1       1       2
       1       1       2       1       1       2       1       1       2       1
       1       2       1       1       2       1       1       2       1       1
       2       1       1       2       1       1       2       1       1       2
       1       1       2       1       1       2       1       1       2       1
       1       2       1       1       2       1       1       2       1       1
       2       1       1       2       1       1       2       1       1       2
       1       1       2       1       1       2       1       1       2       1
       1       2       1       1       2       1       1       2       1       1
       2       1       1       2       1       1       2       1       1       2
       1       1       2       1       1       2       1       1       2       1
       1       2       1       1       2       1       1       2       1       1
       2       1       1       2       1       1       2       1       1       2
       1       1       2       1       1       2       1       1       2       1
       1       2       1       1       2       1       1       2       1       1
       2       1       1       2       1       1       2       1       1       2
       1       1       2       1       1       2       1       1       2       1
       1       2       1       1       2       1       1       2       1       1
       2       1       1       2       1       1       2       1       1       2
       1       1       2       1       1       2       1       1       2       1
       1       2       1       1       2       1       1       2       1       1
       2       1       1       2       1       1       2       1       1       2
       1       1       2       1       1       2       1       1       2       1
       1       2       1       1       2       1       1       2       1       1
       2       1       1       2       1       1       2       1       1       2
       1       1       2       1       1       2       1       1       2       1
       1       2       1       1       2       1       1       2       1       1
       2       1       1       2       1       1       2       1       1       2
       1       1       2       1       1       2       1       1       2       1
       1       2       1       1       2       1       1       2       1       1
       2       1       1       2       1       1       2       1       1       2
       1       1       2       1       1       2       1       1       2       1
       1       2       1       1       2       1       1       2       1       1
       2       1       1       2       1       1       2       1       1       2
       1       1       2       1       1       2       1       1       2       1
       1       2       1       1       2       1       1       2       1       1
       2       1       1       2       1       1       2       1       1       2
       1       1       2       1       1       2       1       1       2       1
       1       2       1       1       2       1       1       2       1       1
       2       1       1       2       1       1       2       1       1       2
       1       1       2       1       1       2       1       1       2       1
       1       2       1       1       2       1       1       2       1       1
       2       1       1       2       1       1       2       1       1       2
       1       1       2       1       1       2       1       1       2       1
       1       2       1       1       2       1       1       2       1       1
       2       1       1       2       1       1       2       1       1       2
       1       1       2       1       1       2       1       1       2       1
       1       2       1       1       2       1       1       2       1       1
       2       1       1       2       1       1       2       1       1       2
       1       1       2       1       1       2       1       1       2       1
       1       2       1       1       2       1       1       2       1       1
       2       1       1       2       1       1       2       1       1       2
       1       1       2       1       1       2       1       1       2       1
       1       2       1       1       2       1       1       2       1       1
       2       1       1       2       1       1       2       1       1       2
       1       1       2       1       1       2       1       1       2       1
       1       2       1       1       2       1       1       2       1       1
       2       1       1       2       1       1       2       1       1       2
       1       1       2       1       1       2       1       1       2       1
       1       2       1       1       2       1       1       2       1       1
       2       1       1       2       1       1       2       1       1       2
       1       1       2       1       1       2       1       1       2       1
       1       2       1       1       2       1       1       2       1       1
       2       1       1       2       1       1       2       1       1       2
       1       1       2       1       1       2       1       1       2       1
       1       2       1       1       2       1       1       2       1       1
       2       1       1       2       1       1       2       1       1       2
       1       1       2       1       1       2       1       1       2       1
       1       2       1       1       2       1       1       2       1       1
       2       1       1       2       1       1       2       1       1       2
       1       1       2       1       1       2       1       1       2       1
       1       2       1       1       2       1       1       2       1       1
       2       1       1       2       1       1       2       1       1       2
       1       1       2       1       1       2       1       1       2       1
       1       2       1       1       2       1       1       2       1       1
       2       1       1       2       1       1       2       1       1       2
       1       1       2       1       1       2       1       1       2       1
       1       2       1       1       2       1       1       2       1       1
       2       1       1       2       1       1       2       1       1       2
       1       1       2       1       1       2       1       1       2       1
       1       2       1       1       2       1       1       2       1       1
       2       1       1       2       1       1       2       1       1       2
       1       1       2       1       1       2       1       1       2       1
       1       2       1       1       2       1       1       2       1       1
       2       1       1       2       1       1       2       1       1       2
       1       1       2       1       1       2       1       1       2       1
       1       2       1       1       2       1       1       2       1       1
       2       1       1       2       1       1       2       1       1       2
       1       1       2       1       1       2       1       1       2       1
       1       2       1       1       2       1       1       2       1       1
       2       1       1       2       1       1       2       1       1       2
       1       1       2       1       1       2       1       1       2       1
       1       2       1       1       2       1       1       2       1       1
       2       1       1       2       1       1       2       1       1       2
       1       1       2       1       1       2       1       1       2       1
       1       2       1       1       2       1       1       2       1       1
       2       1       1       2       1       1       2       1       1       2
       1       1       2       1       1       2       1       1       2       1
       1       2       1       1       2       1       1       2       1       1
       2       1       1       2       1       1       2       1       1       2
       1       1       2       1       1       2       1       1       2       1
       1       2       1       1       2       1       1       2       1       1
       2       1       1       2       1       1       2       1       1       2
       1       1       2       1       1       2       1       1       2       1
       1       2       1       1       2       1       1       2       1       1
       2       1       1       2       1       1       2       1       1       2
       1       1       2       1       1       2       1       1       2       1
       1       2       1       1       2       1       1       2       1       1
       2       1       1       2       1       1       2       1       1       2
       1       1       2       1       1       2       1       1       2       1
       1       2       1       1       2       1       1       2       1       1
       2       1       1       2       1       1       2       1       1       2
       1       1       2       1       1       2       1       1       2       1
       1       2       1       1       2       1       1       2       1       1
       2       1       1       2       1       1       2       1       1       2
       1       1       2       1       1       2       1       1       2       1
       1       2       1       1       2       1       1       2       1       1
       2       1       1       2       1       1       2       1       1       2
       1       1       2       1       1       2       1       1       2       1
       1       2       1       1       2       1       1       2       1       1
       2       1       1       2       1       1       2       1       1       2
       1       1       2       1       1       2       1       1       2       1
       1       2       1       1       2       1       1       2       1       1
       2       1       1       2       1       1       2       1       1       2
       1       1       2       1       1       2       1       1       2       1
       1       2       1       1       2       1       1       2       1       1
       2       1       1       2       1       1       2       1       1       2
       1       1       2       1       1       2       1       1       2       1
       1       2       1       1       2       1       1       2       1       1
       2       1       1       2       1       1       2       1       1       2
       1       1       2       1       1       2       1       1       2       1
       1       2       1       1       2       1       1       2       1       1
       2       1       1       2       1       1       2       1       1       2
       1       1       2       1       1       2       1       1       2       1
       1       2       1       1       2       1       1       2       1       1
       2       1       1       2       1       1       2       1       1       2
       1       1       2       1       1       2       1       1       2       1
       1       2       1       1       2       1       1       2       1       1
       2       1       1       2       1       1       2       1       1       2
       1       1       2       1       1       2       1       1       2       1
       1       2       1       1       2       1       1       2       1       1
       2       1       1       2       1       1       2       1       1       2
       1       1       2       1       1       2       1       1       2       1
       1       2       1       1       2       1       1       2       1       1
       2       1       1       2       1       1       2       1       1       2
       1       1       2       1       1       2       1       1       2       1
       1       2       1       1       2       1       1       2       1       1
       2       1       1       2       1       1       2       1       1       2
       1       1       2       1       1       2       1       1       2       1
       1       2       1       1       2       1       1       2       1       1
       2       1       1       2       1       1       2       1       1       2
       1       1       2       1       1       2       1       1       2       1
       1       2       1       1       2       1       1       2       1       1
       2       1       1       2       1       1       2       1       1       2
       1       1       2       1       1       2       1       1       2       1
       1       2       1       1       2       1       1       2       1       1
       2       1       1       2       1       1       2       1       1       2
       1       1       2       1       1       2       1       1       2       1
       1       2       1       1       2       1       1       2       1       1
       2       1       1       2       1       1       2       1       1       2
       1       1       2       1       1       2       1       1       2       1
       1       2       1       1       2       1       1       2       1       1
       2       1       1       2       1       1       2       1       1       2
       1       1       2       1       1       2       1       1       2       1
       1       2       1       1       2       1       1       2       1       1
       2       1       1       2       1       1       2       1       1       2
       1       1       2       1       1       2       1       1       2       1
       1       2       1       1       2       1       1       2       1       1
       2       1       1       2       1       1       2       1       1       2
       1       1       2       1       1       2       1       1       2       1
       1       2       1       1       2       1       1       2       1       1
       2       1       1       2       1       1       2       1       1       2
       1       1       2       1       1       2       1       1       2       1
       1       2       1       1       2       1       1       2       1       1
       2       1       1       2       1       1       2       1       1       2
       1       1       2       1       1       2       1       1       2       1
       1       2       1       1       2       1       1       2       1       1
       2       1       1       2       1       1       2       1       1       2
       1       1       2       1       1       2       1       1       2       1
       1       2       1       1       2       1       1       2       1       1
       2       1       1       2       1       1       2       1       1       2
       1       1       2       1       1       2       1       1       2       1
       1       2       1       1       2       1       1       2       1       1
       2       1       1       2       1       1       2       1       1       2
       1       1       2       1       1       2       1       1       2       1
       1       2       1       1       2       1       1       2       1       1
       2       1       1       2       1       1       2       1       1       2
       1       1       2       1       1       2       1       1       2       1
       1       2       1       1       2       1       1       2       1       1
       2       1       1       2       1       1       2       1       1       2
       1       1       2       1       1       2       1       1       2       1
       1       2       1       1       2       1       1       2       1       1
       2       1       1       2       1       1       2       1       1       2
       1       1       2       1       1       2       1       1       2       1
       1       2       1       1       2       1       1       2       1       1
       2       1       1       2       1       1       2       1       1       2
       1       1       2       1       1       2       1       1       2       1
       1       2       1       1       2       1       1       2       1       1
       2       1       1       2       1       1       2       1       1       2
       1       1       2       1       1       2       1       1       2       1
       1       2       1       1       2       1       1       2       1       1
       2       1       1       2       1       1       2       1       1       2
       1       1       2       1       1       2       1       1       2       1
       1       2       1       1       2       1       1       2       1       1
       2       1       1       2       1       1       2       1       1       2
       1       1       2       1       1       2       1       1       2       1
       1       2       1       1       2       1       1       2       1       1
       2       1       1       2       1       1       2       1       1       2
       1       1       2       1       1       2       1       1       2       1
       1       2       1       1       2       1       1       2       1       1
       2       1       1       2       1       1       2       1       1       2
       1       1       2       1       1       2       1       1       2       1
       1       2       1       1       2       1       1       2       1       1
       2       1       1       2       1       1       2       1       1       2
       1       1       2       1       1       2       1       1       2       1
       1       2       1       1       2       1       1       2       1       1
       2       1       1       2       1       1       2       1       1       2
       1       1       2       1       1       2       1       1       2       1
       1       2       1       1       2       1       1       2       1       1
       2       1       1       2       1       1       2       1       1       2
       1       1       2       1       1       2       1       1       2       1
       1       2       1       1       2       1       1       2       1       1
       2       1       1       2       1       1       2       1       1       2
       1       1       2       1       1       2       1       1       2       1
       1       2       1       1       2       1       1       2       1       1
       2       1       1       2       1       1       2       1       1       2
       1       1       2       1       1       2       1       1       2       1
       1       2       1       1       2       1       1       2       1       1
       2       1       1       2       1       1       2       1       1       2
       1       1       2       1       1       2       1       1       2       1
       1       2       1       1       2       1       1       2       1       1
       2       1       1       2       1       1       2       1       1       2
       1       1       2       1       1       2       1       1       2       1
       1       2       1       1       2       1       1       2       1       1
       2       1       1       2       1       1       2       1       1       2
       1       1       2       1       1       2       1       1       2       1
       1       2       1       1       2       1       1       2       1       1
       2       1       1       2       1       1       2       1       1       2
       1       1       2       1       1       2       1       1       2       1
       1       2       1       1       2       1       1       2       1       1
       2       1       1       2       1       1       2       1       1       2
       1       1       2       1       1       2       1       1       2       1
       1       2       1       1       2       1       1       2       1       1
       2       1       1       2       1       1       2       1       1       2
       1       1       2       1       1       2       1       1       2       1
       1       2       1       1       2       1       1       2       1       1
       2       1       1       2       1       1       2       1       1       2
       1       1       2       1       1       2       1       1       2       1
       1       2       1       1       2       1       1       2       1       1
       2       1       1       2       1       1       2       1       1       2
       1       1       2       1       1       2       1       1       2       1
       1       2       1       1       2       1       1       2       1       1
       2       1       1       2       1       1       2       1       1       2
       1       1       2       1       1       2       1       1       2       1
       1       2       1       1       2       1       1       2       1       1
       2       1       1       2       1       1       2       1       1       2
       1       1       2       1       1       2       1       1       2       1
       1       2       1       1       2       1       1       2       1       1
       2       1       1       2       1       1       2       1       1       2
       1       1       2       1       1       2       1       1       2       1
       1       2       1       1       2       1       1       2       1       1
       2       1       1       2       1       1       2       1       1       2
       1       1       2       1       1       2       1       1       2       1
       1       2       1       1       2       1       1       2       1       1
       2       1       1       2       1       1       2       1       1       2
       1       1       2       1       1       2       1       1       2       1
       1       2       1       1       2       1       1       2       1       1
       2       1       1       2       1       1       2       1       1       2
       1       1       2       1       1       2       1       1       2       1
       1       2       1       1       2       1       1       2       1       1
       2       1       1       2       1       1       2       1       1       2
       1       1       2       1       1       2       1       1       2       1
       1       2       1       1       2       1       1       2       1       1
       2       1       1       2       1       1       2       1       1       2
       1       1       2       1       1       2       1       1       2       1
       1       2       1       1       2       1       1       2       1       1
       2       1       1       2       1       1       2       1       1       2
       1       1       2       1       1       2       1       1       2       1
       1       2       1       1       2       1       1       2       1       1
       2       1       1       2       1       1       2       1       1       2
       1       1       2       1       1       2       1       1       2       1
       1       2       1       1       2       1       1       2       1       1
       2       1       1       2       1       1       2       1       1       2
       1       1       2       1       1       2       1       1       2       1
       1       2       1       1       2       1       1       2       1       1
       2       1       1       2       1       1       2       1       1       2
       1       1       2       1       1       2       1       1       2       1
       1       2       1       1       2       1       1       2       1       1
       2       1       1       2       1       1       2       1       1       2
       1       1       2       1       1       2       1       1       2       1
       1       2       1       1       2       1       1       2       1       1
       2       1       1       2       1       1       2       1       1       2
       1       1       2       1       1       2       1       1       2       1
       1       2       1       1       2       1       1       2       1       1
       2       1       1       2       1       1       2       1       1       2
       1       1       2       1       1       2       1       1       2       1
       1       2       1       1       2       1       1       2       1       1
       2       1       1       2       1       1       2       1       1       2
       1       1       2       1       1       2       1       1       2       1
       1       2       1       1       2       1       1       2       1       1
       2       1       1       2       1       1       2       1       1       2
       1       1       2       1       1       2       1       1       2       1
       1       2       1       1       2       1       1       2       1       1
       2       1       1       2       1       1       2       1       1       2
       1       1       2       1       1       2       1       1       2       1
       1       2       1       1       2       1       1       2       1       1
       2       1       1       2       1       1       2       1       1       2
       1       1       2       1       1       2       1       1       2       1
       1       2       1       1       2       1       1       2       1       1
       2       1       1       2       1       1       2       1       1       2
       1       1       2       1       1       2       1       1       2       1
       1       2       1       1       2       1       1       2       1       1
       2       1       1       2       1       1       2       1       1       2
       1       1       2       1       1       2       1       1       2       1
       1       2       1       1       2       1       1       2       1       1
       2       1       1       2       1       1       2       1       1       2
       1       1       2       1       1       2       1       1       2       1
       1       2       1       1       2       1       1       2       1       1
       2       1       1       2       1       1       2       1       1       2
       1       1       2       1       1       2       1       1       2       1
       1       2       1       1       2       1       1       2       1       1
       2       1       1       2       1       1       2       1       1       2
       1       1       2       1       1       2       1       1       2       1
       1       2       1       1       2       1       1       2       1       1
       2       1       1       2       1       1       2       1       1       2
       1       1       2       1       1       2       1       1       2       1
       1       2       1       1       2       1       1       2       1       1
       2       1       1       2       1       1       2       1       1       2
       1       1       2       1       1       2       1       1       2       1
       1       2       1       1       2       1       1       2       1       1
       2       1       1       2       1       1       2       1       1       2
       1       1       2       1       1       2       1       1       2       1
       1       2       1       1       2       1       1       2       1       1
       2       1       1       2       1       1       2       1       1       2
       1       1       2       1       1       2       1       1       2       1
       1       2       1       1       2       1       1       2       1       1
       2       1       1       2       1       1       2       1       1       2
       1       1       2       1       1       2       1       1       2       1
       1       2       1       1       2       1       1       2       1       1
       2       1       1       2       1       1       2       1       1       2
       1       1       2       1       1       2       1       1       2       1
       1       2       1       1       2       1       1       2       1       1
       2       1       1       2       1       1       2       1       1       2
       1       1       2       1       1       2       1       1       2       1
       1       2       1       1       2       1       1       2       1       1
       2       1       1       2       1       1       2       1       1       2
       1       1       2       1       1       2       1       1       2       1
       1       2       1       1       2       1       1       2       1       1
       2       1       1       2       1       1       2       1       1       2
       1       1       2       1       1       2       1       1       2       1
       1       2       1       1       2       1       1       2       1       1
       2       1       1       2       1       1       2       1       1       2
       1       1       2       1       1       2       1       1       2       1
       1       2       1       1       2       1       1       2       1       1
       2       1       1       2       1       1       2       1       1       2
       1       1       2       1       1       2       1       1       2       1
       1       2       1       1       2       1       1       2       1       1
       2       1       1       2       1       1       2       1       1       2
       1       1       2       1       1       2       1       1       2       1
       1       2       1       1       2       1       1       2       1       1
       2       1       1       2       1       1       2       1       1       2
       1       1       2       1       1       2       1       1       2       1
       1       2       1       1       2       1       1       2       1       1
       2       1       1       2       1       1       2       1       1       2
       1       1       2       1       1       2       1       1       2       1
       1       2       1       1       2       1       1       2       1       1
       2       1       1       2       1       1       2       1       1       2
       1       1       2       1       1       2       1       1       2       1
       1       2       1       1       2       1       1       2       1       1
       2       1       1       2       1       1       2       1       1       2
       1       1       2       1       1       2       1       1       2       1
       1       2       1       1       2       1       1       2       1       1
       2       1       1       2       1       1       2       1       1       2
       1       1       2       1       1       2       1       1       2       1
       1       2       1       1       2       1       1       2       1       1
       2       1       1       2       1       1       2       1       1       2
       1       1       2       1       1       2       1       1       2       1
       1       2       1       1       2       1       1       2       1       1
       2       1       1       2       1       1       2       1       1       2
       1       1       2       1       1       2       1       1       2       1
       1       2       1       1       2       1       1       2       1       1
       2       1       1       2       1       1       2       1       1       2
       1       1       2       1       1       2       1       1       2       1
       1       2       1       1       2       1       1       2       1       1
       2       1       1       2       1       1       2       1       1       2
       1       1       2       1       1       2       1       1       2       1
       1       2       1       1       2       1       1       2       1       1
       2       1       1       2       1       1       2       1       1       2
       1       1       2       1       1       2       1       1       2       1
       1       2       1       1       2       1       1       2       1       1
       2       1       1       2       1       1       2       1       1       2
       1       1       2       1       1       2       1       1       2       1
       1       2       1       1       2       1       1       2       1       1
       2       1       1       2       1       1       2       1       1       2
       1       1       2       1       1       2       1       1       2       1
       1       2       1       1       2       1       1       2       1       1
       2       1       1       2       1       1       2       1       1       2
       1       1       2       1       1       2       1       1       2       1
       1       2       1       1       2       1       1       2       1       1
       2       1       1       2       1       1       2       1       1       2
       1       1       2       1       1       2       1       1       2       1
       1       2       1       1       2       1       1       2       1       1
       2       1       1       2       1       1       2       1       1       2
       1       1       2       1       1       2       1       1       2       1
       1       2       1       1       2       1       1       2       1       1
       2       1       1       2       1       1       2       1       1       2
       1       1       2       1       1       2       1       1       2       1
       1       2       1       1       2       1       1       2       1       1
       2       1       1       2       1       1       2       1       1       2
       1       1       2       1       1       2       1       1       2       1
       1       2       1       1       2       1       1       2       1       1
       2       1       1       2       1       1       2       1       1       2
       1       1       2       1       1       2       1       1       2       1
       1       2       1       1       2       1       1       2       1       1
       2       1       1       2       1       1       2       1       1       2
       1       1       2       1       1       2       1       1       2       1
       1       2       1       1       2       1       1       2       1       1
       2       1       1       2       1       1       2       1       1       2
       1       1       2       1       1       2       1       1       2       1
       1       2       1       1       2       1       1       2       1       1
       2       1       1       2       1       1       2       1       1       2
       1       1       2       1       1       2       1       1       2       1
       1       2       1       1       2       1       1       2       1       1
       2       1       1       2       1       1       2       1       1       2
       1       1       2       1       1       2       1       1       2       1
       1       2       1       1       2       1       1       2       1       1
       2       1       1       2       1       1       2       1       1       2
       1       1       2       1       1       2       1       1       2       1
       1       2       1       1       2       1       1       2       1       1
       2       1       1       2       1       1       2       1       1       2
       1       1       2       1       1       2       1       1       2       1
       1       2       1       1       2       1       1       2       1       1
       2       1       1       2       1       1       2       1       1       2
       1       1       2       1       1       2       1       1       2       1
       1       2       1       1       2       1       1       2       1       1
       2       1       1       2       1       1       2       1       1       2
       1       1       2       1       1       2       1       1       2       1
       1       2       1       1       2       1       1       2       1       1
       2       1       1       2       1       1       2       1       1       2
       1       1       2       1       1       2       1       1       2       1
       1       2       1       1       2       1       1       2       1       1
       2       1       1       2       1       1       2       1       1       2
       1       1       2       1       1       2       1       1       2       1
       1       2       1       1       2       1       1       2       1       1
       2       1       1       2       1       1       2       1       1       2
       1       1       2       1       1       2       1       1       2       1
       1       2       1       1       2       1       1       2       1       1
       2       1       1       2       1       1       2       1       1       2
       1       1       2       1       1       2       1       1       2       1
       1       2       1       1       2       1       1       2       1       1
       2       1       1       2       1       1       2       1       1       2
       1       1       2       1       1       2       1       1       2       1
       1       2       1       1       2       1       1       2       1       1
       2       1       1       2       1       1       2       1       1       2
       1       1       2       1       1       2       1       1       2       1
       1       2       1       1       2       1       1       2       1       1
       2       1       1       2       1       1       2       1       1       2
       1       1       2       1       1       2       1       1       2       1
       1       2       1       1       2       1       1       2       1       1
       2       1       1       2       1       1       2       1       1       2
       1       1       2       1       1       2       1       1       2       1
       1       2       1       1       2       1       1       2       1       1
       2       1       1       2       1       1       2       1       1       2
       1       1       2       1       1       2       1       1       2       1
       1       2       1       1       2       1       1       2       1       1
       2       1       1       2       1       1       2       1       1       2
       1       1       2       1       1       2       1       1       2       1
       1       2       1       1       2       1       1       2       1       1
       2       1       1       2       1       1       2       1       1       2
       1       1       2       1       1       2       1       1       2       1
       1       2       1       1       2       1       1       2       1       1
       2       1       1       2       1       1       2       1       1       2
       1       1       2       1       1       2       1       1       2       1
       1       2       1       1       2       1       1       2       1       1
       2       1       1       2       1       1       2       1       1       2
       1       1       2       1       1       2       1       1       2       1
       1       2       1       1       2       1       1       2       1       1
       2       1       1       2       1       1       2       1       1       2
       1       1       2       1       1       2       1       1       2       1
       1       2       1       1       2       1       1       2       1       1
       2       1       1       2       1       1       2       1       1       2
       1       1       2       1       1       2       1       1       2       1
       1       2       1       1       2       1       1       2       1       1
       2       1       1       2       1       1       2       1       1       2
       1       1       2       1       1       2       1       1       2       1
       1       2       1       1       2       1       1       2       1       1
       2       1       1       2       1       1       2       1       1       2
       1       1       2       1       1       2       1       1       2       1
       1       2       1       1       2       1       1       2       1       1
       2       1       1       2       1       1       2       1       1       2
       1       1       2       1       1       2       1       1       2       1
       1       2       1       1       2       1       1       2       1       1
       2       1       1       2       1       1       2       1       1       2
       1       1       2       1       1       2       1       1       2       1
       1       2       1       1       2       1       1       2       1       1
       2       1       1       2       1       1       2       1       1       2
       1       1       2       1       1       2       1       1       2       1
       1       2       1       1       2       1       1       2       1       1
       2       1       1       2       1       1       2       1       1       2
       1       1       2       1       1       2       1       1       2       1
       1       2       1       1       2       1       1       2       1       1
       2       1       1       2       1       1       2       1       1       2
       1       1       2       1       1       2       1       1       2       1
       1       2       1       1       2       1       1       2       1       1
       2       1       1       2       1       1       2       1       1       2
       1       1       2       1       1       2       1       1       2       1
       1       2       1       1       2       1       1       2       1       1
       2       1       1       2       1       1       2       1       1       2
       1       1       2       1       1       2       1       1       2       1
       1       2       1       1       2       1       1       2       1       1
       2       1       1       2       1       1       2       1       1       2
       1       1       2       1       1       2       1       1       2       1
       1       2       1       1       2       1       1       2       1       1
       2       1       1       2       1       1       2       1       1       2
       1       1       2       1       1       2       1       1       2       1
       1       2       1       1       2       1       1       2       1       1
       2       1       1       2       1       1       2       1       1       2
       1       1       2       1       1       2       1       1       2       1
       1       2       1       1       2       1       1       2       1       1
       2       1       1       2       1       1       2       1       1       2
       1       1       2       1       1       2       1       1       2       1
       1       2       1       1       2       1       1       2       1       1
       2       1       1       2       1       1       2       1       1       2
       1       1       2       1       1       2       1       1       2       1
       1       2       1       1       2       1       1       2       1       1
       2       1       1       2       1       1       2       1       1       2
       1       1       2       1       1       2       1       1       2       1
       1       2       1       1       2       1       1       2       1       1
       2       1       1       2       1       1       2       1       1       2
       1       1       2       1       1       2       1       1       2       1
       1       2       1       1       2       1       1       2       1       1
       2       1       1       2       1       1       2       1       1       2
       1       1       2       1       1       2       1       1       2       1
       1       2       1       1       2       1       1       2       1       1
       2       1       1       2       1       1       2       1       1       2
       1       1       2       1       1       2       1       1       2       1
       1       2       1       1       2       1       1       2       1       1
       2       1       1       2       1       1       2       1       1       2
       1       1       2       1       1       2       1       1       2       1
       1       2       1       1       2       1       1       2       1       1
       2       1       1       2       1       1       2       1       1       2
       1       1       2       1       1       2       1       1       2       1
       1       2       1       1       2       1       1       2       1       1
       2       1       1       2       1       1       2       1       1       2
       1       1       2       1       1       2       1       1       2       1
       1       2       1       1       2       1       1       2       1       1
       2       1       1       2       1       1       2       1       1       2
       1       1       2       1       1       2       1       1       2       1
       1       2       1       1       2       1       1       2       1       1
       2       1       1       2       1       1       2       1       1       2
       1       1       2       1       1       2       1       1       2       1
       1       2       1       1       2       1       1       2       1       1
       2       1       1       2       1       1       2       1       1       2
       1       1       2       1       1       2       1       1       2       1
       1       2       1       1       2       1       1       2       1       1
       2       1       1       2       1       1       2       1       1       2
       1       1       2       1       1       2       1       1       2       1
       1       2       1       1       2       1       1       2       1       1
       2       1       1       2       1       1       2       1       1       2
       1       1       2       1       1       2       1       1       2       1
       1       2       1       1       2       1       1       2       1       1
       2       1       1       2       1       1       2       1       1       2
       1       1       2       1       1       2       1       1       2       1
       1       2       1       1       2       1       1       2       1       1
       2       1       1       2       1       1       2       1       1       2
       1       1       2       1       1       2       1       1       2       1
       1       2       1       1       2       1       1       2       1       1
       2       1       1       2       1       1       2       1       1       2
       1       1       2       1       1       2       1       1       2       1
       1       2       1       1       2       1       1       2       1       1
       2       1       1       2       1       1       2       1       1       2
       1       1       2       1       1       2       1       1       2       1
       1       2       1       1       2       1       1       2       1       1
       2       1       1       2       1       1       2       1       1       2
       1       1       2       1       1       2       1       1       2       1
       1       2       1       1       2       1       1       2       1       1
       2       1       1       2       1       1       2       1       1       2
       1       1       2       1       1       2       1       1       2       1
       1       2       1       1       2       1       1       2       1       1
       2       1       1       2       1       1       2       1       1       2
       1       1       2       1       1       2       1       1       2       1
       1       2       1       1       2       1       1       2       1       1
       2       1       1       2       1       1       2       1       1       2
       1       1       2       1       1       2       1       1       2       1
       1       2       1       1       2       1       1       2       1       1
       2       1       1       2       1       1       2       1       1       2
       1       1       2       1       1       2       1       1       2       1
       1       2       1       1       2       1       1       2       1       1
       2       1       1       2       1       1       2       1       1       2
       1       1       2       1       1       2       1       1       2       1
       1       2       1       1       2       1       1       2       1       1
       2       1       1       2       1       1       2       1       1       2
       1       1       2       1       1       2       1       1       2       1
       1       2       1       1       2       1       1       2       1       1
       2       1       1       2       1       1       2       1       1       2
       1       1       2       1       1       2       1       1       2       1
       1       2       1       1       2       1       1       2       1       1
       2       1       1       2       1       1       2       1       1       2
       1       1       2       1       1       2       1       1       2       1
       1       2       1       1       2       1       1       2       1       1
       2       1       1       2       1       1       2       1       1       2
       1       1       2       1       1       2       1       1       2       1
       1       2       1       1       2       1       1       2       1       1
       2       1       1       2       1       1       2       1       1       2
       1       1       2       1       1       2       1       1       2       1
       1       2       1       1       2       1       1       2       1       1
       2       1       1       2       1       1       2       1       1       2
       1       1       2       1       1       2       1       1       2       1
       1       2       1       1       2       1       1       2       1       1
       2       1       1       2       1       1       2       1       1       2
       1       1       2       1       1       2       1       1       2       1
       1       2       1       1       2       1       1       2       1       1
       2       1       1       2       1       1       2       1       1       2
       1       1       2       1       1       2       1       1       2       1
       1       2       1       1       2       1       1       2       1       1
       2       1       1       2       1       1       2       1       1       2
       1       1       2       1       1       2       1       1       2       1
       1       2       1       1       2       1       1       2       1       1
       2       1       1       2       1       1       2       1       1       2
       1       1       2       1       1       2       1       1       2       1
       1       2       1       1       2       1       1       2       1       1
       2       1       1       2       1       1       2       1       1       2
       1       1       2       1       1       2       1       1       2       1
       1       2       1       1       2       1       1       2       1       1
       2       1       1       2       1       1       2       1       1       2
       1       1       2       1       1       2       1       1       2       1
       1       2       1       1       2       1       1       2       1       1
       2       1       1       2       1       1       2       1       1       2
       1       1       2       1       1       2       1       1       2       1
       1       2       1       1       2       1       1       2       1       1
       2       1       1       2       1       1       2       1       1       2
       1       1       2       1       1       2       1       1       2       1
       1       2       1       1       2       1       1       2       1       1
       2       1       1       2       1       1       2       1       1       2
       1       1       2       1       1       2       1       1       2       1
       1       2       1       1       2       1       1       2       1       1
       2       1       1       2       1       1       2       1       1       2
       1       1       2       1       1       2       1       1       2       1
       1       2       1       1       2       1       1       2       1       1
       2       1       1       2       1       1       2       1       1       2
       1       1       2       1       1       2       1       1       2       1
       1       2       1       1       2       1       1       2       1       1
       2       1       1       2       1       1       2       1       1       2
       1       1       2       1       1       2       1       1       2       1
       1       2       1       1       2       1       1       2       1       1
       2       1       1       2       1       1       2       1       1       2
       1       1       2       1       1       2       1       1       2       1
       1       2       1       1       2       1       1       2       1       1
       2       1       1       2       1       1       2       1       1       2
       1       1       2       1       1       2       1       1       2       1
       1       2       1       1       2       1       1       2       1       1
       2       1       1       2       1       1       2       1       1       2
       1       1       2       1       1       2       1       1       2       1
       1       2       1       1       2       1       1       2       1       1
       2       1       1       2       1       1       2       1       1       2
       1       1       2       1       1       2       1       1       2       1
       1       2       1       1       2       1       1       2       1       1
       2       1       1       2       1       1       2       1       1       2
       1       1       2       1       1       2       1       1       2       1
       1       2       1       1       2       1       1       2       1       1
       2       1       1       2       1       1       2       1       1       2
       1       1       2       1       1       2       1       1       2       1
       1       2       1       1       2       1       1       2       1       1
       2       1       1       2       1       1       2       1       1       2
       1       1       2       1       1       2       1       1       2       1
       1       2       1       1       2       1       1       2       1       1
       2       1       1       2       1       1       2       1       1       2
       1       1       2       1       1       2       1       1       2       1
       1       2       1       1       2       1       1       2       1       1
       2       1       1       2       1       1       2       1       1       2
       1       1       2       1       1       2       1       1       2       1
       1       2       1       1       2       1       1       2       1       1
       2       1       1       2       1       1       2       1       1       2
       1       1       2       1       1       2       1       1       2       1
       1       2       1       1       2       1       1       2       1       1
       2       1       1       2       1       1       2       1       1       2
       1       1       2       1       1       2       1       1       2       1
       1       2       1       1       2       1       1       2       1       1
       2       1       1       2       1       1       2       1       1       2
       1       1       2       1       1       2       1       1       2       1
       1       2       1       1       2       1       1       2       1       1
       2       1       1       2       1       1       2       1       1       2
       1       1       2       1       1       2       1       1       2       1
       1       2       1       1       2       1       1       2       1       1
       2       1       1       2       1       1       2       1       1       2
       1       1       2       1       1       2       1       1       2       1
       1       2       1       1       2       1       1       2       1       1
       2       1       1       2       1       1       2       1       1       2
       1       1       2       1       1       2       1       1       2       1
       1       2       1       1       2       1       1       2       1       1
       2       1       1       2       1       1       2       1       1       2
       1       1       2       1       1       2       1       1       2       1
       1       2       1       1       2       1       1       2       1       1
       2       1       1       2       1       1       2       1       1       2
       1       1       2       1       1       2       1       1       2       1
       1       2       1       1       2       1       1       2       1       1
       2       1       1       2       1       1       2       1       1       2
       1       1       2       1       1       2       1       1       2       1
       1       2       1       1       2       1       1       2       1       1
       2       1       1       2       1       1       2       1       1       2
       1       1       2       1       1       2       1       1       2       1
       1       2       1       1       2       1       1       2       1       1
       2       1       1       2       1       1       2       1       1       2
       1       1       2       1       1       2       1       1       2       1
       1       2       1       1       2       1       1       2       1       1
       2       1       1       2       1       1       2       1       1       2
       1       1       2       1       1       2       1       1       2       1
       1       2       1       1       2       1       1       2       1       1
       2       1       1       2       1       1       2       1       1       2
       1       1       2       1       1       2       1       1       2       1
       1       2       1       1       2       1       1       2       1       1
       2       1       1       2       1       1       2       1       1       2
       1       1       2       1       1       2       1       1       2       1
       1       2       1       1       2       1       1       2       1       1
       2       1       1       2       1       1       2       1       1       2
       1       1       2       1       1       2       1       1       2       1
       1       2       1       1       2       1       1       2       1       1
       2       1       1       2       1       1       2       1       1       2
       1       1       2       1       1       2       1       1       2       1
       1       2       1       1       2       1       1       2       1       1
       2       1       1       2       1       1       2       1       1       2
       1       1       2       1       1       2       1       1       2       1
       1       2       1       1       2       1       1       2       1       1
       2       1       1       2       1       1       2       1       1       2
       1       1       2       1       1       2       1       1       2       1
       1       2       1       1       2       1       1       2       1       1
       2       1       1       2       1       1       2       1       1       2
       1       1       2       1       1       2       1       1       2       1
       1       2       1       1       2       1       1       2       1       1
       2       1       1       2       1       1       2       1       1       2
       1       1       2       1       1       2       1       1       2       1
       1       2       1       1       2       1       1       2       1       1
       2       1       1       2       1       1       2       1       1       2
       1       1       2       1       1       2       1       1       2       1
       1       2       1       1       2       1       1       2       1       1
       2       1       1       2       1       1       2       1       1       2
       1       1       2       1       1       2       1       1       2       1
       1       2       1       1       2       1       1       2       1       1
       2       1       1       2       1       1       2       1       1       2
       1       1       2       1       1       2       1       1       2       1
       1       2       1       1       2       1       1       2       1       1
       2       1       1       2       1       1       2       1       1       2
       1       1       2       1       1       2       1       1       2       1
       1       2       1       1       2       1       1       2       1       1
       2       1       1       2       1       1       2       1       1       2
       1       1       2       1       1       2       1       1       2       1
       1       2       1       1       2       1       1       2       1       1
       2       1       1       2       1       1       2       1       1       2
       1       1       2       1       1       2       1       1       2       1
       1       2       1       1       2       1       1       2       1       1
       2       1       1       2       1       1       2       1       1       2
       1       1       2       1       1       2       1       1       2       1
       1       2       1       1       2       1       1       2       1       1
       2       1       1       2       1       1       2       1       1       2
       1       1       2       1       1       2       1       1       2       1
       1       2       1       1       2       1       1       2       1       1
       2       1       1       2       1       1       2       1       1       2
       1       1       2       1       1       2       1       1       2       1
       1       2       1       1       2       1       1       2       1       1
       2       1       1       2       1       1       2       1       1       2
       1       1       2       1       1       2       1       1       2       1
       1       2       1       1       2       1       1       2       1       1
       2       1       1       2       1       1       2       1       1       2
       1       1       2       1       1       2       1       1       2       1
       1       2       1       1       2       1       1       2       1       1
       2       1       1       2       1       1       2       1       1       2
       1       1       2       1       1       2       1       1       2       1
       1       2       1       1       2       1       1       2       1       1
       2       1       1       2       1       1       2       1       1       2
       1       1       2       1       1       2       1       1       2       1
       1       2       1       1       2       1       1       2       1       1
       2       1       1       2       1       1       2       1       1       2
       1       1       2       1       1       2       1       1       2       1
       1       2       1       1       2       1       1       2       1       1
       2       1       1       2       1       1       2       1       1       2
       1       1       2       1       1       2       1       1       2       1
       1       2       1       1       2       1       1       2       1       1
       2       1       1       2       1       1       2       1       1       2
       1       1       2       1       1       2       1       1       2       1
       1       2       1       1       2       1       1       2       1       1
       2       1       1       2       1       1       2       1       1       2
       1       1       2       1       1       2       1       1       2       1
       1       2       1       1       2       1       1       2       1       1
       2       1       1       2       1       1       2       1       1       2
       1       1       2       1       1       2       1       1       2       1
       1       2       1       1       2       1       1       2       1       1
       2       1       1       2       1       1       2       1       1       2
       1       1       2       1       1       2       1       1       2       1
       1       2       1       1       2       1       1       2       1       1
       2       1       1       2       1       1       2       1       1       2
       1       1       2       1       1       2       1       1       2       1
       1       2       1       1       2       1       1       2       1       1
       2       1       1       2       1       1       2       1       1       2
       1       1       2       1       1       2       1       1       2       1
       1       2       1       1       2       1       1       2       1       1
       2       1       1       2       1       1       2       1       1       2
       1       1       2       1       1       2       1       1       2       1
       1       2       1       1       2       1       1       2       1       1
       2       1       1       2       1       1       2       1       1       2
       1       1       2       1       1       2       1       1       2       1
       1       2       1       1       2       1       1       2       1       1
       2       1       1       2       1       1       2       1       1       2
       1       1       2       1       1       2       1       1       2       1
       1       2       1       1       2       1       1       2       1       1
       2       1       1       2       1       1       2       1       1       2
       1       1       2       1       1       2       1       1       2       1
       1       2       1       1       2       1       1       2       1       1
       2       1       1       2       1       1       2       1       1       2
       1       1       2       1       1       2       1       1       2       1
       1       2       1       1       2       1       1       2       1       1
       2       1       1       2       1       1       2       1       1       2
       1       1       2       1       1       2       1       1       2       1
       1       2       1       1       2       1       1       2       1       1
       2       1       1       2       1       1       2       1       1       2
       1       1       2       1       1       2       1       1       2       1
       1       2       1       1       2       1       1       2       1       1
       2       1       1       2       1       1       2       1       1       2
       1       1       2       1       1       2       1       1       2       1
       1       2       1       1       2       1       1       2       1       1
       2       1       1       2       1       1       2       1       1       2
       1       1       2       1       1       2       1       1       2       1
       1       2       1       1       2       1       1       2       1       1
       2       1       1       2       1       1       2       1       1       2
       1       1       2       1       1       2       1       1       2       1
       1       2       1       1       2       1       1       2       1       1
       2       1       1       2       1       1       2       1       1       2
       1       1       2       1       1       2       1       1       2       1
       1       2       1       1       2       1       1       2       1       1
       2       1       1       2       1       1       2       1       1       2
       1       1       2       1       1       2       1       1       2       1
       1       2       1       1       2       1       1       2       1       1
       2       1       1       2       1       1       2       1       1       2
       1       1       2       1       1       2       1       1       2       1
       1       2       1       1       2       1       1       2       1       1
       2       1       1       2       1       1       2       1       1       2
       1       1       2       1       1       2       1       1       2       1
       1       2       1       1       2       1       1       2       1       1
       2       1       1       2       1       1       2       1       1       2
       1       1       2       1       1       2       1       1       2       1
       1       2       1       1       2       1       1       2       1       1
       2       1       1       2       1       1       2       1       1       2
       1       1       2       1       1       2       1       1       2       1
       1       2       1       1       2       1       1       2       1       1
       2       1       1       2       1       1       2       1       1       2
       1       1       2       1       1       2       1       1       2       1
       1       2       1       1       2       1       1       2       1       1
       2       1       1       2       1       1       2       1       1       2
       1       1       2       1       1       2       1       1       2       1
       1       2       1       1       2       1       1       2       1       1
       2       1       1       2       1       1       2       1       1       2
       1       1       2       1       1       2       1       1       2       1
       1       2       1       1       2       1       1       2       1       1
       2       1       1       2       1       1       2       1       1       2
       1       1       2       1       1       2       1       1       2       1
       1       2       1       1       2       1       1       2       1       1
       2       1       1       2       1       1       2       1       1       2
       1       1       2       1       1       2       1       1       2       1
       1       2       1       1       2       1       1       2       1       1
       2       1       1       2       1       1       2       1       1       2
       1       1       2       1       1       2       1       1       2       1
       1       2       1       1       2       1       1       2       1       1
       2       1       1       2       1       1       2       1       1       2
       1       1       2       1       1       2       1       1       2       1
       1       2       1       1       2       1       1       2       1       1
       2       1       1       2       1       1       2       1       1       2
       1       1       2       1       1       2       1       1       2       1
       1       2       1       1       2       1       1       2       1       1
       2       1       1       2       1       1       2       1       1       2
       1       1       2       1       1       2       1       1       2       1
       1       2       1       1       2       1       1       2       1       1
       2       1       1       2       1       1       2       1       1       2
       1       1       2       1       1       2       1       1       2       1
       1       2       1       1       2       1       1       2       1       1
       2       1       1       2       1       1       2       1       1       2
       1       1       2       1       1       2       1       1       2       1
       1       2       1       1       2       1       1       2       1       1
       2       1       1       2       1       1       2       1       1       2
       1       1       2       1       1       2       1       1       2       1
       1       2       1       1       2       1       1       2       1       1
       2       1       1       2       1       1       2       1       1       2
       1       1       2       1       1       2       1       1       2       1
       1       2       1       1       2       1       1       2       1       1
       2       1       1       2       1       1       2       1       1       2
       1       1       2       1       1       2       1       1       2       1
       1       2       1       1       2       1       1       2       1       1
       2       1       1       2       1       1       2       1       1       2
       1       1       2       1       1       2       1       1       2       1
       1       2       1       1       2       1       1       2       1       1
       2       1       1       2       1       1       2       1       1       2
       1       1       2       1       1       2       1       1       2       1
       1       2       1       1       2       1       1       2       1       1
       2       1       1       2       1       1       2       1       1       2
       1       1       2       1       1       2       1       1       2       1
       1       2       1       1       2       1       1       2       1       1
       2       1       1       2       1       1       2       1       1       2
       1       1       2       1       1       2       1       1       2       1
       1       2       1       1       2       1       1       2       1       1
       2       1       1       2       1       1       2       1       1       2
       1       1       2       1       1       2       1       1       2       1
       1       2       1       1       2       1       1       2       1       1
       2       1       1       2       1       1       2       1       1       2
       1       1       2       1       1       2       1       1       2       1
       1       2       1       1       2       1       1       2       1       1
       2       1       1       2       1       1       2       1       1       2
       1       1       2       1       1       2       1       1       2       1
       1       2       1       1       2       1       1       2       1       1
       2       1       1       2       1       1       2       1       1       2
       1       1       2       1       1       2       1       1       2       1
       1       2       1       1       2       1       1       2       1       1
       2       1       1       2       1       1       2       1       1       2
       1       1       2       1       1       2       1       1       2       1
       1       2       1       1       2       1       1       2       1       1
       2       1       1       2       1       1       2       1       1       2
       1       1       2       1       1       2       1       1       2       1
       1       2       1       1       2       1       1       2       1       1
       2       1       1       2       1       1       2       1       1       2
       1       1       2       1       1       2       1       1       2       1
       1       2       1       1       2       1       1       2       1       1
       2       1       1       2       1       1       2       1       1       2
       1       1       2       1       1       2       1       1       2       1
       1       2       1       1       2       1       1       2       1       1
       2       1       1       2       1       1       2       1       1       2
       1       1       2       1       1       2       1       1       2       1
       1       2       1       1       2       1       1       2       1       1
       2       1       1       2       1       1       2       1       1       2
       1       1       2       1       1       2       1       1       2       1
       1       2       1       1       2       1       1       2       1       1
       2       1       1       2       1       1       2       1       1       2
       1       1       2       1       1       2       1       1       2       1
       1       2       1       1       2       1       1       2       1       1
       2       1       1       2       1       1       2       1       1       2
       1       1       2       1       1       2       1       1       2       1
       1       2       1       1       2       1       1       2       1       1
       2       1       1       2       1       1       2       1       1       2
       1       1       2       1       1       2       1       1       2       1
       1       2       1       1       2       1       1       2       1       1
       2       1       1       2       1       1       2       1       1       2
       1       1       2       1       1       2       1       1       2       1
       1       2       1       1       2       1       1       2       1       1
       2       1       1       2       1       1       2       1       1       2
       1       1       2       1       1       2       1       1       2       1
       1       2       1       1       2       1       1       2       1       1
       2       1       1       2       1       1       2       1       1       2
       1       1       2       1       1       2       1       1       2       1
       1       2       1       1       2       1       1       2       1       1
       2       1       1       2       1       1       2       1       1       2
       1       1       2       1       1       2       1       1       2       1
       1       2       1       1       2       1       1       2       1       1
       2       1       1       2       1       1       2       1       1       2
       1       1       2       1       1       2       1       1       2       1
       1       2       1       1       2       1       1       2       1       1
       2       1       1       2       1       1       2       1       1       2
       1       1       2       1       1       2       1       1       2       1
       1       2       1       1       2       1       1       2       1       1
       2       1       1       2       1       1       2       1       1       2
       1       1       2       1       1       2       1       1       2       1
       1       2       1       1       2       1       1       2       1       1
       2       1       1       2       1       1       2       1       1       2
       1       1       2       1       1       2       1       1       2       1
       1       2       1       1       2       1       1       2       1       1
       2       1       1       2       1       1       2       1       1       2
       1       1       2       1       1       2       1       1       2       1
       1       2       1       1       2       1       1       2       1       1
       2       1       1       2       1       1       2       1       1       2
       1       1       2       1       1       2       1       1       2       1
       1       2       1       1       2       1       1       2       1       1
       2       1       1       2       1       1       2       1       1       2
       1       1       2       1       1       2       1       1       2       1
       1       2       1       1       2       1       1       2       1       1
       2       1       1       2       1       1       2       1       1       2
       1       1       2       1       1       2       1       1       2       1
       1       2       1       1       2       1       1       2       1       1
       2       1       1       2       1       1       2       1       1       2
       1       1       2       1       1       2       1       1       2       1
       1       2       1       1       2       1       1       2       1       1
       2       1       1       2       1       1       2       1       1       2
       1       1       2       1       1       2       1       1       2       1
       1       2       1       1       2       1       1       2       1       1
       2       1       1       2       1       1       2       1       1       2
       1       1       2       1       1       2       1       1       2       1
       1       2       1       1       2       1       1       2       1       1
       2       1       1       2       1       1       2       1       1       2
       1       1       2       1       1       2       1       1       2       1
       1       2       1       1       2       1       1       2       1       1
       2       1       1       2       1       1       2       1       1       2
       1       1       2       1       1       2       1       1       2       1
       1       2       1       1       2       1       1       2       1       1
       2       1       1       2       1       1       2       1       1       2
       1       1       2       1       1       2       1       1       2       1
       1       2       1       1       2       1       1       2       1       1
       2       1       1       2       1       1       2       1       1       2
       1       1       2       1       1       2       1       1       2       1
       1       2       1       1       2       1       1       2       1       1
       2       1       1       2       1       1       2       1       1       2
       1       1       2       1       1       2       1       1       2       1
       1       2       1       1       2       1       1       2       1       1
       2       1       1       2       1       1       2       1       1       2
       1       1       2       1       1       2       1       1       2       1
       1       2       1       1       2       1       1       2       1       1
       2       1       1       2       1       1       2       1       1       2
       1       1       2       1       1       2       1       1       2       1
       1       2       1       1       2       1       1       2       1       1
       2       1       1       2       1       1       2       1       1       2
       1       1       2       1       1       2       1       1       2       1
       1       2       1       1       2       1       1       2       1       1
       2       1       1       2       1       1       2       1       1       2
       1       1       2       1       1       2       1       1       2       1
       1       2       1       1       2       1       1       2       1       1
       2       1       1       2       1       1       2       1       1       2
       1       1       2       1       1       2       1       1       2       1
       1       2       1       1       2       1       1       2       1       1
       2       1       1       2       1       1       2       1       1       2
       1       1       2       1       1       2       1       1       2       1
       1       2       1       1       2       1       1       2       1       1
       2       1       1       2       1       1       2       1       1       2
       1       1       2       1       1       2       1       1       2       1
       1       2       1       1       2       1       1       2       1       1
       2       1       1       2       1       1       2       1       1       2
       1       1       2       1       1       2       1       1       2       1
       1       2       1       1       2       1       1       2       1       1
       2       1       1       2       1       1       2       1       1       2
       1       1       2       1       1       2       1       1       2       1
       1       2       1       1       2       1       1       2       1       1
       2       1       1       2       1       1       2       1       1       2
       1       1       2       1       1       2       1       1       2       1
       1       2       1       1       2       1       1       2       1       1
       2       1       1       2       1       1       2       1       1       2
       1       1       2       1       1       2       1       1       2       1
       1       2       1       1       2       1       1       2       1       1
       2       1       1       2       1       1       2       1       1       2
       1       1       2       1       1       2       1       1       2       1
       1       2       1       1       2       1       1       2       1       1
       2       1       1       2       1       1       2       1       1       2
       1       1       2       1       1       2       1       1       2       1
       1       2       1       1       2       1       1       2       1       1
       2       1       1       2       1       1       2       1       1       2
       1       1       2       1       1       2       1       1       2       1
       1       2       1       1       2       1       1       2       1       1
       2       1       1       2       1       1       2       1       1       2
       1       1       2       1       1       2       1       1       2       1
       1       2       1       1       2       1       1       2       1       1
       2       1       1       2       1       1       2       1       1       2
       1       1       2       1       1       2       1       1       2       1
       1       2       1       1       2       1       1       2       1       1
       2       1       1       2       1       1       2       1       1       2
       1       1       2       1       1       2       1       1       2       1
       1       2       1       1       2       1       1       2       1       1
       2       1       1       2       1       1       2       1       1       2
       1       1       2       1       1       2       1       1       2       1
       1       2       1       1       2       1       1       2       1       1
       2       1       1       2       1       1       2       1       1       2
       1       1       2       1       1       2       1       1       2       1
       1       2       1       1       2       1       1       2       1       1
       2       1       1       2       1       1       2       1       1       2
       1       1       2       1       1       2       1       1       2       1
       1       2       1       1       2       1       1       2       1       1
       2       1       1       2       1       1       2       1       1       2
       1       1       2       1       1       2       1       1       2       1
       1       2       1       1       2       1       1       2       1       1
       2       1       1       2       1       1       2       1       1       2
       1       1       2       1       1       2       1       1       2       1
       1       2       1       1       2       1       1       2       1       1
       2       1       1       2       1       1       2       1       1       2
       1       1       2       1       1       2       1       1       2       1
       1       2       1       1       2       1       1       2       1       1
       2       1       1       2       1       1       2       1       1       2
       1       1       2       1       1       2       1       1       2       1
       1       2       1       1       2       1       1       2       1       1
       2       1       1       2       1       1       2       1       1       2
       1       1       2       1       1       2       1       1       2       1
       1       2       1       1       2       1       1       2       1       1
       2       1       1       2       1       1       2       1       1       2
       1       1       2       1       1       2       1       1       2       1
       1       2       1       1       2       1       1       2       1       1
       2       1       1       2       1       1       2       1       1       2
       1       1       2       1       1       2       1       1       2       1
       1       2       1       1       2       1       1       2       1       1
       2       1       1       2       1       1       2       1       1       2
       1       1       2       1       1       2       1       1       2       1
       1       2       1       1       2       1       1       2       1       1
       2       1       1       2       1       1       2       1       1       2
       1       1       2       1       1       2       1       1       2       1
       1       2       1       1       2       1       1       2       1       1
       2       1       1       2       1       1       2       1       1       2
       1       1       2       1       1       2       1       1       2       1
       1       2       1       1       2       1       1       2       1       1
       2       1       1       2       1       1       2       1       1       2
       1       1       2       1       1       2       1       1       2       1
       1       2       1       1       2       1       1       2       1       1
       2       1       1       2       1       1       2       1       1       2
       1       1       2       1       1       2       1       1       2       1
       1       2       1       1       2       1       1       2       1       1
       2       1       1       2       1       1       2       1       1       2
       1       1       2       1       1       2       1       1       2       1
       1       2       1       1       2       1       1       2       1       1
       2       1       1       2       1       1       2       1       1       2
       1       1       2       1       1       2       1       1       2       1
       1       2       1       1       2       1       1       2       1       1
       2       1       1       2       1       1       2       1       1       2
       1       1       2       1       1       2       1       1       2       1
       1       2       1       1       2       1       1       2       1       1
       2       1       1       2       1       1       2       1       1       2
       1       1       2       1       1       2       1       1       2       1
       1       2       1       1       2       1       1       2       1       1
       2       1       1       2       1       1       2       1       1       2
       1       1       2       1       1       2       1       1       2       1
       1       2       1       1       2       1       1       2       1       1
       2       1       1       2       1       1       2       1       1       2
       1       1       2       1       1       2       1       1       2       1
       1       2       1       1       2       1       1       2       1       1
       2       1       1       2       1       1       2       1       1       2
       1       1       2       1       1       2       1       1       2       1
       1       2       1       1       2       1       1       2       1       1
       2       1       1       2       1       1       2       1       1       2
       1       1       2       1       1       2       1       1       2       1
       1       2       1       1       2       1       1       2       1       1
       2       1       1       2       1       1       2       1       1       2
       1       1       2       1       1       2       1       1       2       1
       1       2       1       1       2       1       1       2       1       1
       2       1       1       2       1       1       2       1       1       2
       1       1       2       1       1       2       1       1       2       1
       1       2       1       1       2       1       1       2       1       1
       2       1       1       2       1       1       2       1       1       2
       1       1       2       1       1       2       1       1       2       1
       1       2       1       1       2       1       1       2       1       1
       2       1       1       2       1       1       2       1       1       2
       1       1       2       1       1       2       1       1       2       1
       1       2       1       1       2       1       1       2       1       1
       2       1       1       2       1       1       2       1       1       2
       1       1       2       1       1       2       1       1       2       1
       1       2       1       1       2       1       1       2       1       1
       2       1       1       2       1       1       2       1       1       2
       1       1       2       1       1       2       1       1       2       1
       1       2       1       1       2       1       1       2       1       1
       2       1       1       2       1       1       2       1       1       2
       1       1       2       1       1       2       1       1       2       1
       1       2       1       1       2       1       1       2       1       1
       2       1       1       2       1       1       2       1       1       2
       1       1       2       1       1       2       1       1       2       1
       1       2       1       1       2       1       1       2       1       1
       2       1       1       2       1       1       2       1       1       2
       1       1       2       1       1       2       1       1       2       1
       1       2       1       1       2       1       1       2       1       1
       2       1       1       2       1       1       2       1       1       2
       1       1       2       1       1       2       1       1       2       1
       1       2       1       1       2       1       1       2       1       1
       2       1       1       2       1       1       2       1       1       2
       1       1       2       1       1       2       1       1       2       1
       1       2       1       1       2       1       1       2       1       1
       2       1       1       2       1       1       2       1       1       2
       1       1       2       1       1       2       1       1       2       1
       1       2       1       1       2       1       1       2       1       1
       2       1       1       2       1       1       2       1       1       2
       1       1       2       1       1       2       1       1       2       1
       1       2       1       1       2       1       1       2       1       1
       2       1       1       2       1       1       2       1       1       2
       1       1       2       1       1       2       1       1       2       1
       1       2       1       1       2       1       1       2       1       1
       2       1       1       2       1       1       2       1       1       2
       1       1       2       1       1       2       1       1       2       1
       1       2       1       1       2       1       1       2       1       1
       2       1       1       2       1       1       2       1       1       2
       1       1       2       1       1       2       1       1       2       1
       1       2       1       1       2       1       1       2       1       1
       2       1       1       2       1       1       2       1       1       2
       1       1       2       1       1       2       1       1       2       1
       1       2       1       1       2       1       1       2       1       1
       2       1       1       2       1       1       2       1       1       2
       1       1       2       1       1       2       1       1       2       1
       1       2       1       1       2       1       1       2       1       1
       2       1       1       2       1       1       2       1       1       2
       1       1       2       1       1       2       1       1       2       1
       1       2       1       1       2       1       1       2       1       1
       2       1       1       2       1       1       2       1       1       2
       1       1       2       1       1       2       1       1       2       1
       1       2       1       1       2       1       1       2       1       1
       2       1       1       2       1       1       2       1       1       2
       1       1       2       1       1       2       1       1       2       1
       1       2       1       1       2       1       1       2       1       1
       2       1       1       2       1       1       2       1       1       2
       1       1       2       1       1       2       1       1       2       1
       1       2       1       1       2       1       1       2       1       1
       2       1       1       2       1       1       2       1       1       2
       1       1       2       1       1       2       1       1       2       1
       1       2       1       1       2       1       1       2       1       1
       2       1       1       2       1       1       2       1       1       2
       1       1       2       1       1       2       1       1       2       1
       1       2       1       1       2       1       1       2       1       1
       2       1       1       2       1       1       2       1       1       2
       1       1       2       1       1       2       1       1       2       1
       1       2       1       1       2       1       1       2       1       1
       2       1       1       2       1       1       2       1       1       2
       1       1       2       1       1       2       1       1       2       1
       1       2       1       1       2       1       1       2       1       1
       2       1       1       2       1       1       2       1       1       2
       1       1       2       1       1       2       1       1       2       1
       1       2       1       1       2       1       1       2       1       1
       2       1       1       2       1       1       2       1       1       2
       1       1       2       1       1       2       1       1       2       1
       1       2       1       1       2       1       1       2       1       1
       2       1       1       2       1       1       2       1       1       2
       1       1       2       1       1       2       1       1       2       1
       1       2       1       1       2       1       1       2       1       1
       2       1       1       2       1       1       2       1       1       2
       1       1       2       1       1       2       1       1       2       1
       1       2       1       1       2       1       1       2       1       1
       2       1       1       2       1       1       2       1       1       2
       1       1       2       1       1       2       1       1       2       1
       1       2       1       1       2       1       1       2       1       1
       2       1       1       2       1       1       2       1       1       2
       1       1       2       1       1       2       1       1       2       1
       1       2       1       1       2       1       1       2       1       1
       2       1       1       2       1       1       2       1       1       2
       1       1       2       1       1       2       1       1       2       1
       1       2       1       1       2       1       1       2       1       1
       2       1       1       2       1       1       2       1       1       2
       1       1       2       1       1       2       1       1       2       1
       1       2       1       1       2       1       1       2       1       1
       2       1       1       2       1       1       2       1       1       2
       1       1       2       1       1       2       1       1       2       1
       1       2       1       1       2       1       1       2       1       1
       2       1       1       2       1       1       2       1       1       2
       1       1       2       1       1       2       1       1       2       1
       1       2       1       1       2       1       1       2       1       1
       2       1       1       2       1       1       2       1       1       2
       1       1       2       1       1       2       1       1       2       1
       1       2       1       1       2       1       1       2       1       1
       2       1       1       2       1       1       2       1       1       2
       1       1       2       1       1       2       1       1       2       1
       1       2       1       1       2       1       1       2       1       1
       2       1       1       2       1       1       2       1       1       2
       1       1       2       1       1       2       1       1       2       1
       1       2       1       1       2       1       1       2       1       1
       2       1       1       2       1       1       2       1       1       2
       1       1       2       1       1       2       1       1       2       1
       1       2       1       1       2       1       1       2       1       1
       2       1       1       2       1       1       2       1       1       2
       1       1       2       1       1       2       1       1       2       1
       1       2       1       1       2       1       1       2       1       1
       2       1       1       2       1       1       2       1       1       2
       1       1       2       1       1       2       1       1       2       1
       1       2       1       1       2       1       1       2       1       1
       2       1       1       2       1       1       2       1       1       2
       1       1       2       1       1       2       1       1       2       1
       1       2       1       1       2       1       1       2       1       1
       2       1       1       2       1       1       2       1       1       2
       1       1       2       1       1       2       1       1       2       1
       1       2       1       1       2       1       1       2       1       1
       2       1       1       2       1       1       2       1       1       2
       1       1       2       1       1       2       1       1       2       1
       1       2       1       1       2       1       1       2       1       1
       2       1       1       2       1       1       2       1       1       2
       1       1       2       1       1       2       1       1       2       1
       1       2       1       1       2       1       1       2       1       1
       2       1       1       2       1       1       2       1       1       2
       1       1       2       1       1       2       1       1       2       1
       1       2       1       1       2       1       1       2       1       1
       2       1       1       2       1       1       2       1       1       2
       1       1       2       1       1       2       1       1       2       1
       1       2       1       1       2       1       1       2       1       1
       2       1       1       2       1       1       2       1       1       2
       1       1       2       1       1       2       1       1       2       1
       1       2       1       1       2       1       1       2       1       1
       2       1       1       2       1       1       2       1       1       2
       1       1       2       1       1       2       1       1       2       1
       1       2       1       1       2       1       1       2       1       1
       2       1       1       2       1       1       2       1       1       2
       1       1       2       1       1       2       1       1       2       1
       1       2       1       1       2       1       1       2       1       1
       2       1       1       2       1       1       2       1       1       2
       1       1       2       1       1       2       1       1       2       1
       1       2       1       1       2       1       1       2       1       1
       2       1       1       2       1       1       2       1       1       2
       1       1       2       1       1       2       1       1       2       1
       1       2       1       1       2       1       1       2       1       1
       2       1       1       2       1       1       2       1       1       2
       1       1       2       1       1       2       1       1       2       1
       1       2       1       1       2       1       1       2       1       1
       2       1       1       2       1       1       2       1       1       2
       1       1       2       1       1       2       1       1       2       1
       1       2       1       1       2       1       1       2       1       1
       2       1       1       2       1       1       2       1       1       2
       1       1       2       1       1       2       1       1       2       1
       1       2       1       1       2       1       1       2       1       1
       2       1       1       2       1       1       2       1       1       2
       1       1       2       1       1       2       1       1       2       1
       1       2       1       1       2       1       1       2       1       1
       2       1       1       2       1       1       2       1       1       2
       1       1       2       1       1       2       1       1       2       1
       1       2       1       1       2       1       1       2       1       1
       2       1       1       2       1       1       2       1       1       2
       1       1       2       1       1       2       1       1       2       1
       1       2       1       1       2       1       1       2       1       1
       2       1       1       2       1       1       2       1       1       2
       1       1       2       1       1       2       1       1       2       1
       1       2       1       1       2       1       1       2       1       1
       2       1       1       2       1       1       2       1       1       2
       1       1       2       1       1       2       1       1       2       1
       1       2       1       1       2       1       1       2       1       1
       2       1       1       2       1       1       2       1       1       2
       1       1       2       1       1       2       1       1       2       1
       1       2       1       1       2       1       1       2       1       1
       2       1       1       2       1       1       2       1       1       2
       1       1       2       1       1       2       1       1       2       1
       1       2       1       1       2       1       1       2       1       1
       2       1       1       2       1       1       2       1       1       2
       1       1       2       1       1       2       1       1       2       1
       1       2       1       1       2       1       1       2       1       1
       2       1       1       2       1       1       2       1       1       2
       1       1       2       1       1       2       1       1       2       1
       1       2       1       1       2       1       1       2       1       1
       2       1       1       2       1       1       2       1       1       2
       1       1       2       1       1       2       1       1       2       1
       1       2       1       1       2       1       1       2       1       1
       2       1       1       2       1       1       2       1       1       2
       1       1       2       1       1       2       1       1       2       1
       1       2       1       1       2       1       1       2       1       1
       2       1       1       2       1       1       2       1       1       2
       1       1       2       1       1       2       1       1       2       1
       1       2       1       1       2       1       1       2       1       1
       2       1       1       2       1       1       2       1       1       2
       1       1       2       1       1       2       1       1       2       1
       1       2       1       1       2       1       1       2       1       1
       2       1       1       2       1       1       2       1       1       2
       1       1       2       1       1       2       1       1       2       1
       1       2       1       1       2       1       1       2       1       1
       2       1       1       2       1       1       2       1       1       2
       1       1       2       1       1       2       1       1       2       1
       1       2       1       1       2       1       1       2       1       1
       2       1       1       2       1       1       2       1       1       2
       1       1       2       1       1       2       1       1       2       1
       1       2       1       1       2       1       1       2       1       1
       2       1       1       2       1       1       2       1       1       2
       1       1       2       1       1       2       1       1       2       1
       1       2       1       1       2       1       1       2       1       1
       2       1       1       2       1       1       2       1       1       2
       1       1       2       1       1       2       1       1       2       1
       1       2       1       1       2       1       1       2       1       1
       2       1       1       2       1       1       2       1       1       2
       1       1       2       1       1       2       1       1       2       1
       1       2       1       1       2       1       1       2       1       1
       2       1       1       2       1       1       2       1       1       2
       1       1       2       1       1       2       1       1       2       1
       1       2       1       1       2       1       1       2       1       1
       2       1       1       2       1       1       2       1       1       2
       1       1       2       1       1       2       1       1       2       1
       1       2       1       1       2       1       1       2       1       1
       2       1       1       2       1       1       2       1       1       2
       1       1       2       1       1       2       1       1       2       1
       1       2       1       1       2       1       1       2       1       1
       2       1       1       2       1       1       2       1       1       2
       1       1       2       1       1       2       1       1       2       1
       1       2       1       1       2       1       1       2       1       1
       2       1       1       2       1       1       2       1       1       2
       1       1       2       1       1       2       1       1       2       1
       1       2       1       1       2       1       1       2       1       1
       2       1       1       2       1       1       2       1       1       2
       1       1       2       1       1       2       1       1       2       1
       1       2       1       1       2       1       1       2       1       1
       2       1       1       2       1       1       2       1       1       2
       1       1       2       1       1       2       1       1       2       1
       1       2       1       1       2       1       1       2       1       1
       2       1       1       2       1       1       2       1       1       2
       1       1       2       1       1       2       1       1       2       1
       1       2       1       1       2       1       1       2       1       1
       2       1       1       2       1       1       2       1       1       2
       1       1       2       1       1       2       1       1       2       1
       1       2       1       1       2       1       1       2       1       1
       2       1       1       2       1       1       2       1       1       2
       1       1       2       1       1       2       1       1       2       1
       1       2       1       1       2       1       1       2       1       1
       2       1       1       2       1       1       2       1       1       2
       1       1       2       1       1       2       1       1       2       1
       1       2       1       1       2       1       1       2       1       1
       2       1       1       2       1       1       2       1       1       2
       1       1       2       1       1       2       1       1       2       1
       1       2       1       1       2       1       1       2       1       1
       2       1       1       2       1       1       2       1       1       2
       1       1       2       1       1       2       1       1       2       1
       1       2       1       1       2       1       1       2       1       1
       2       1       1       2       1       1       2       1       1       2
       1       1       2       1       1       2       1       1       2       1
       1       2       1       1       2       1       1       2       1       1
       2       1       1       2       1       1       2       1       1       2
       1       1       2       1       1       2       1       1       2       1
       1       2       1       1       2       1       1       2       1       1
       2       1       1       2       1       1       2       1       1       2
       1       1       2       1       1       2       1       1       2       1
       1       2       1       1       2       1       1       2       1       1
       2       1       1       2       1       1       2       1       1       2
       1       1       2       1       1       2       1       1       2       1
       1       2       1       1       2       1       1       2       1       1
       2       1       1       2       1       1       2       1       1       2
       1       1       2       1       1       2       1       1       2       1
       1       2       1       1       2       1       1       2       1       1
       2       1       1       2       1       1       2       1       1       2
       1       1       2       1       1       2       1       1       2       1
       1       2       1       1       2       1       1       2       1       1
       2       1       1       2       1       1       2       1       1       2
       1       1       2       1       1       2       1       1       2       1
       1       2       1       1       2       1       1       2       1       1
       2       1       1       2       1       1       2       1       1       2
       1       1       2       1       1       2       1       1       2       1
       1       2       1       1       2       1       1       2       1       1
       2       1       1       2       1       1       2       1       1       2
       1       1       2       1       1       2       1       1       2       1
       1       2       1       1       2       1       1       2       1       1
       2       1       1       2       1       1       2       1       1       2
       1       1       2       1       1       2       1       1       2       1
       1       2       1       1       2       1       1       2       1       1
       2       1       1       2       1       1       2       1       1       2
       1       1       2       1       1       2       1       1       2       1
       1       2       1       1       2       1       1       2       1       1
       2       1       1       2       1       1       2       1       1       2
       1       1       2       1       1       2       1       1       2       1
       1       2       1       1       2       1       1       2       1       1
       2       1       1       2       1       1       2       1       1       2
       1       1       2       1       1       2       1       1       2       1
       1       2       1       1       2       1       1       2       1       1
       2       1       1       2       1       1       2       1       1       2
       1       1       2       1       1       2       1       1       2       1
       1       2       1       1       2       1       1       2       1       1
       2       1       1       2       1       1       2       1       1       2
       1       1       2       1       1       2       1       1       2       1
       1       2       1       1       2       1       1       2       1       1
       2       1       1       2       1       1       2       1       1       2
       1       1       2       1       1       2       1       1       2       1
       1       2       1       1       2       1       1       2       1       1
       2       1       1       2       1       1       2       1       1       2
       1       1       2       1       1       2       1       1       2       1
       1       2       1       1       2       1       1       2       1       1
       2       1       1       2       1       1       2       1       1       2
       1       1       2       1       1       2       1       1       2       1
       1       2       1       1       2       1       1       2       1       1
       2       1       1       2       1       1       2       1       1       2
       1       1       2       1       1       2       1       1       2       1
       1       2       1       1       2       1       1       2       1       1
       2       1       1       2       1       1       2       1       1       2
       1       1       2       1       1       2       1       1       2       1
       1       2       1       1       2       1       1       2       1       1
       2       1       1       2       1       1       2       1       1       2
       1       1       2       1       1       2       1       1       2       1
       1       2       1       1       2       1       1       2       1       1
       2       1       1       2       1       1       2       1       1       2
       1       1       2       1       1       2       1       1       2       1
       1       2       1       1       2       1       1       2       1       1
       2       1       1       2       1       1       2       1       1       2
       1       1       2       1       1       2       1       1       2       1
       1       2       1       1       2       1       1       2       1       1
       2       1       1       2       1       1       2       1       1       2
       1       1       2       1       1       2       1       1       2       1
       1       2       1       1       2       1       1       2       1       1
       2       1       1       2       1       1       2       1       1       2
       1       1       2       1       1       2       1       1       2       1
       1       2       1       1       2       1       1       2       1       1
       2       1       1       2       1       1       2       1       1       2
       1       1       2       1       1       2       1       1       2       1
       1       2       1       1       2       1       1       2       1       1
       2       1       1       2       1       1       2       1       1       2
       1       1       2       1       1       2       1       1       2       1
       1       2       1       1       2       1       1       2       1       1
       2       1       1       2       1       1       2       1       1       2
       1       1       2       1       1       2       1       1       2       1
       1       2       1       1       2       1       1       2       1       1
       2       1       1       2       1       1       2       1       1       2
       1       1       2       1       1       2       1       1       2       1
       1       2       1       1       2       1       1       2       1       1
       2       1       1       2       1       1       2       1       1       2
       1       1       2       1       1       2       1       1       2       1
       1       2       1       1       2       1       1       2       1       1
       2       1       1       2       1       1       2       1       1       2
       1       1       2       1       1       2       1       1       2       1
       1       2       1       1       2       1       1       2       1       1
       2       1       1       2       1       1       2       1       1       2
       1       1       2       1       1       2       1       1       2       1
       1       2       1       1       2       1       1       2       1       1
       2       1       1       2       1       1       2       1       1       2
       1       1       2       1       1       2       1       1       2       1
       1       2       1       1       2       1       1       2       1       1
       2       1       1       2       1       1       2       1       1       2
       1       1       2       1       1       2       1       1       2       1
       1       2       1       1       2       1       1       2       1       1
       2       1       1       2       1       1       2       1       1       2
       1       1       2       1       1       2       1       1       2       1
       1       2       1       1       2       1       1       2       1       1
       2       1       1       2       1       1       2       1       1       2
       1       1       2       1       1       2       1       1       2       1
       1       2       1       1       2       1       1       2       1       1
       2       1       1       2       1       1       2       1       1       2
       1       1       2       1       1       2       1       1       2       1
       1       2       1       1       2       1       1       2       1       1
       2       1       1       2       1       1       2       1       1       2
       1       1       2       1       1       2       1       1       2       1
       1       2       1       1       2       1       1       2       1       1
       2       1       1       2       1       1       2       1       1       2
       1       1       2       1       1       2       1       1       2       1
       1       2       1       1       2       1       1       2       1       1
       2       1       1       2       1       1       2       1       1       2
       1       1       2       1       1       2       1       1       2       1
       1       2       1       1       2       1       1       2       1       1
       2       1       1       2       1       1       2       1       1       2
       1       1       2       1       1       2       1       1       2       1
       1       2       1       1       2       1       1       2       1       1
       2       1       1       2       1       1       2       1       1       2
       1       1       2       1       1       2       1       1       2       1
       1       2       1       1       2       1       1       2       1       1
       2       1       1       2       1       1       2       1       1       2
       1       1       2       1       1       2       1       1       2       1
       1       2       1       1       2       1       1       2       1       1
       2       1       1       2       1       1       2       1       1       2
       1       1       2       1       1       2       1       1       2       1
       1       2       1       1       2       1       1       2       1       1
       2       1       1       2       1       1       2       1       1       2
       1       1       2       1       1       2       1       1       2       1
       1       2       1       1       2       1       1       2       1       1
       2       1       1       2       1       1       2       1       1       2
       1       1       2       1       1       2       1       1       2       1
       1       2       1       1       2       1       1       2       1       1
       2       1       1       2       1       1       2       1       1       2
       1       1       2       1       1       2       1       1       2       1
       1       2       1       1       2       1       1       2       1       1
       2       1       1       2       1       1       2       1       1       2
       1       1       2       1       1       2       1       1       2       1
       1       2       1       1       2       1       1       2       1       1
       2       1       1       2       1       1       2       1       1       2
       1       1       2       1       1       2       1       1       2       1
       1       2       1       1       2       1       1       2       1       1
       2       1       1       2       1       1       2       1       1       2
       1       1       2       1       1       2       1       1       2       1
       1       2       1       1       2       1       1       2       1       1
       2       1       1       2       1       1       2       1       1       2
       1       1       2       1       1       2       1       1       2       1
       1       2       1       1       2       1       1       2       1       1
       2       1       1       2       1       1       2       1       1       2
       1       1       2       1       1       2       1       1       2       1
       1       2       1       1       2       1       1       2       1       1
       2       1       1       2       1       1       2       1       1       2
       1       1       2       1       1       2       1       1       2       1
       1       2       1       1       2       1       1       2       1       1
       2       1       1       2       1       1       2       1       1       2
       1       1       2       1       1       2       1       1       2       1
       1       2       1       1       2       1       1       2       1       1
       2       1       1       2       1       1       2       1       1       2
       1       1       2       1       1       2       1       1       2       1
       1       2       1       1       2       1       1       2       1       1
       2       1       1       2       1       1       2       1       1       2
       1       1       2       1       1       2       1       1       2       1
       1       2       1       1       2       1       1       2       1       1
       2       1       1       2       1       1       2       1       1       2
       1       1       2       1       1       2       1       1       2       1
       1       2       1       1       2       1       1       2       1       1
       2       1       1       2       1       1       2       1       1       2
       1       1       2       1       1       2       1       1       2       1
       1       2       1       1       2       1       1       2       1       1
       2       1       1       2       1       1       2       1       1       2
       1       1       2       1       1       2       1       1       2       1
       1       2       1       1       2       1       1       2       1       1
       2       1       1       2       1       1       2       1       1       2
       1       1       2       1       1       2       1       1       2       1
       1       2       1       1       2       1       1       2       1       1
       2       1       1       2       1       1       2       1       1       2
       1       1       2       1       1       2       1       1       2       1
       1       2       1       1       2       1       1       2       1       1
       2       1       1       2       1       1       2       1       1       2
       1       1       2       1       1       2       1       1       2       1
       1       2       1       1       2       1       1       2       1       1
       2       1       1       2       1       1       2       1       1       2
       1       1       2       1       1       2       1       1       2       1
       1       2       1       1       2       1       1       2       1       1
       2       1       1       2       1       1       2       1       1       2
       1       1       2       1       1       2       1       1       2       1
       1       2       1       1       2       1       1       2       1       1
       2       1       1       2       1       1       2       1       1       2
       1       1       2       1       1       2       1       1       2       1
       1       2       1       1       2       1       1       2       1       1
       2       1       1       2       1       1       2       1       1       2
       1       1       2       1       1       2       1       1       2       1
       1       2       1       1       2       1       1       2       1       1
       2       1       1       2       1       1       2       1       1       2
       1       1       2       1       1       2       1       1       2       1
       1       2       1       1       2       1       1       2       1       1
       2       1       1       2       1       1       2       1       1       2
       1       1       2       1       1       2       1       1       2       1
       1       2       1       1       2       1       1       2       1       1
       2       1       1       2       1       1       2       1       1       2
       1       1       2       1       1       2       1       1       2       1
       1       2       1       1       2       1       1       2       1       1
       2       1       1       2       1       1       2       1       1       2
       1       1       2       1       1       2       1       1       2       1
       1       2       1       1       2       1       1       2       1       1
       2       1       1       2       1       1       2       1       1       2
       1       1       2       1       1       2       1       1       2       1
       1       2       1       1       2       1       1       2       1       1
       2       1       1       2       1       1       2       1       1       2
       1       1       2       1       1       2       1       1       2       1
       1       2       1       1       2       1       1       2       1       1
       2       1       1       2       1       1       2       1       1       2
       1       1       2       1       1       2       1       1       2       1
       1       2       1       1       2       1       1       2       1       1
       2       1       1       2       1       1       2       1       1       2
       1       1       2       1       1       2       1       1       2       1
       1       2       1       1       2       1       1       2       1       1
       2       1       1       2       1       1       2       1       1       2
       1       1       2       1       1       2       1       1       2       1
       1       2       1       1       2       1       1       2       1       1
       2       1       1       2       1       1       2       1       1       2
       1       1       2       1       1       2       1       1       2       1
       1       2       1       1       2       1       1       2       1       1
       2       1       1       2       1       1       2       1       1       2
       1       1       2       1       1       2       1       1       2       1
       1       2       1       1       2       1       1       2       1       1
       2       1       1       2       1       1       2       1       1       2
       1       1       2       1       1       2       1       1       2       1
       1       2       1       1       2       1       1       2       1       1
       2       1       1       2       1       1       2       1       1       2
       1       1       2       1       1       2       1       1       2       1
       1       2       1       1       2       1       1       2       1       1
       2       1       1       2       1       1       2       1       1       2
       1       1       2       1       1       2       1       1       2       1
       1       2       1       1       2       1       1       2       1       1
       2       1       1       2       1       1       2       1       1       2
       1       1       2       1       1       2       1       1       2       1
       1       2       1       1       2       1       1       2       1       1
       2       1       1       2       1       1       2       1       1       2
       1       1       2       1       1       2       1       1       2       1
       1       2       1       1       2       1       1       2       1       1
       2       1       1       2       1       1       2       1       1       2
       1       1       2       1       1       2       1       1       2       1
       1       2       1       1       2       1       1       2       1       1
       2       1       1       2       1       1       2       1       1       2
       1       1       2       1       1       2       1       1       2       1
       1       2       1       1       2       1       1       2       1       1
       2       1       1       2       1       1       2       1       1       2
       1       1       2       1       1       2       1       1       2       1
       1       2       1       1       2       1       1       2       1       1
       2       1       1       2       1       1       2       1       1       2
       1       1       2       1       1       2       1       1       2       1
       1       2       1       1       2       1       1       2       1       1
       2       1       1       2       1       1       2       1       1       2
       1       1       2       1       1       2       1       1       2       1
       1       2       1       1       2       1       1       2       1       1
       2       1       1       2       1       1       2       1       1       2
       1       1       2       1       1       2       1       1       2       1
       1       2       1       1       2       1       1       2       1       1
       2       1       1       2       1       1       2       1       1       2
       1       1       2       1       1       2       1       1       2       1
       1       2       1       1       2       1       1       2       1       1
       2       1       1       2       1       1       2       1       1       2
       1       1       2       1       1       2       1       1       2       1
       1       2       1       1       2       1       1       2       1       1
       2       1       1       2       1       1       2       1       1       2
       1       1       2       1       1       2       1       1       2       1
       1       2       1       1       2       1       1       2       1       1
       2       1       1       2       1       1       2       1       1       2
       1       1       2       1       1       2       1       1       2       1
       1       2       1       1       2       1       1       2       1       1
       2       1       1       2       1       1       2       1       1       2
       1       1       2       1       1       2       1       1       2       1
       1       2       1       1       2       1       1       2       1       1
       2       1       1       2       1       1       2       1       1       2
       1       1       2       1       1       2       1       1       2       1
       1       2       1       1       2       1       1       2       1       1
       2       1       1       2       1       1       2       1       1       2
       1       1       2       1       1       2       1       1       2       1
       1       2       1       1       2       1       1       2       1       1
       2       1       1       2       1       1       2       1       1       2
       1       1       2       1       1       2       1       1       2       1
       1       2       1       1       2       1       1       2       1       1
       2       1       1       2       1       1       2       1       1       2
       1       1       2       1       1       2       1       1       2       1
       1       2       1       1       2       1       1       2       1       1
       2       1       1       2       1       1       2       1       1       2
       1       1       2       1       1       2       1       1       2       1
       1       2       1       1       2       1       1       2       1       1
       2       1       1       2       1       1       2       1       1       2
       1       1       2       1       1       2       1       1       2       1
       1       2       1       1       2       1       1       2       1       1
       2       1       1       2       1       1       2       1       1       2
       1       1       2       1       1       2       1       1       2       1
       1       2       1       1       2       1       1       2       1       1
       2       1       1       2       1       1       2       1       1       2
       1       1       2       1       1       2       1       1       2       1
       1       2       1       1       2       1       1       2       1       1
       2       1       1       2       1       1       2       1       1       2
       1       1       2       1       1       2       1       1       2       1
       1       2       1       1       2       1       1       2       1       1
       2       1       1       2       1       1       2       1       1       2
       1       1       2       1       1       2       1       1       2       1
       1       2       1       1       2       1       1       2       1       1
       2       1       1       2       1       1       2       1       1       2
       1       1       2       1       1       2       1       1       2       1
       1       2       1       1       2       1       1       2       1       1
       2       1       1       2       1       1       2       1       1       2
       1       1       2       1       1       2       1       1       2       1
       1       2       1       1       2       1       1       2       1       1
       2       1       1       2       1       1       2       1       1       2
       1       1       2       1       1       2       1       1       2       1
       1       2       1       1       2       1       1       2       1       1
       2       1       1       2       1       1       2       1       1       2
       1       1       2       1       1       2       1       1       2       1
       1       2       1       1       2       1       1       2       1       1
       2       1       1       2       1       1       2       1       1       2
       1       1       2       1       1       2       1       1       2       1
       1       2       1       1       2       1       1       2       1       1
       2       1       1       2       1       1       2       1       1       2
       1       1       2       1       1       2       1       1       2       1
       1       2       1       1       2       1       1       2       1       1
       2       1       1       2       1       1       2       1       1       2
       1       1       2       1       1       2       1       1       2       1
       1       2       1       1       2       1       1       2       1       1
       2       1       1       2       1       1       2       1       1       2
       1       1       2       1       1       2       1       1       2       1
       1       2       1       1       2       1       1       2       1       1
       2       1       1       2       1       1       2       1       1       2
       1       1       2       1       1       2       1       1       2       1
       1       2       1       1       2       1       1       2       1       1
       2       1       1       2       1       1       2       1       1       2
       1       1       2       1       1       2       1       1       2       1
       1       2       1       1       2       1       1       2       1       1
       2       1       1       2       1       1       2       1       1       2
       1       1       2       1       1       2       1       1       2       1
       1       2       1       1       2       1       1       2       1       1
       2       1       1       2       1       1       2       1       1       2
       1       1       2       1       1       2       1       1       2       1
       1       2       1       1       2       1       1       2       1       1
       2       1       1       2       1       1       2       1       1       2
       1       1       2       1       1       2       1       1       2       1
       1       2       1       1       2       1       1       2       1       1
       2       1       1       2       1       1       2       1       1       2
       1       1       2       1       1       2       1       1       2       1
       1       2       1       1       2       1       1       2       1       1
       2       1       1       2       1       1       2       1       1       2
       1       1       2       1       1       2       1       1       2       1
       1       2       1       1       2       1       1       2       1       1
       2       1       1       2       1       1       2       1       1       2
       1       1       2       1       1       2       1       1       2       1
       1       2       1       1       2       1       1       2       1       1
       2       1       1       2       1       1       2       1       1       2
       1       1       2       1       1       2       1       1       2       1
       1       2       1       1       2       1       1       2       1       1
       2       1       1       2       1       1       2       1       1       2
       1       1       2       1       1       2       1       1       2       1
       1       2       1       1       2       1       1       2       1       1
       2       1       1       2       1       1       2       1       1       2
       1       1       2       1       1       2       1       1       2       1
       1       2       1       1       2       1       1       2       1       1
       2       1       1       2       1       1       2       1       1       2
       1       1       2       1       1       2       1       1       2       1
       1       2       1       1       2       1       1       2       1       1
       2       1       1       2       1       1       2       1       1       2
       1       1       2       1       1       2       1       1       2       1
       1       2       1       1       2       1       1       2       1       1
       2       1       1       2       1       1       2       1       1       2
       1       1       2       1       1       2       1       1       2       1
       1       2       1       1       2       1       1       2       1       1
       2       1       1       2       1       1       2       1       1       2
       1       1       2       1       1       2       1       1       2       1
       1       2       1       1       2       1       1       2       1       1
       2       1       1       2       1       1       2       1       1       2
       1       1       2       1       1       2       1       1       2       1
       1       2       1       1       2       1       1       2       1       1
       2       1       1       2       1       1       2       1       1       2
       1       1       2       1       1       2       1       1       2       1
       1       2       1       1       2       1       1       2       1       1
       2       1       1       2       1       1       2       1       1       2
       1       1       2       1       1       2       1       1       2       1
       1       2       1       1       2       1       1       2       1       1
       2       1       1       2       1       1       2       1       1       2
       1       1       2       1       1       2       1       1       2       1
       1       2       1       1       2       1       1       2       1       1
       2       1       1       2       1       1       2       1       1       2
       1       1       2       1       1       2       1       1       2       1
       1       2       1       1       2       1       1       2       1       1
       2       1       1       2       1       1       2       1       1       2
       1       1       2       1       1       2       1       1       2       1
       1       2       1       1       2       1       1       2       1       1
       2       1       1       2       1       1       2       1       1       2
       1       1       2       1       1       2       1       1       2       1
       1       2       1       1       2       1       1       2       1       1
       2       1       1       2       1       1       2       1       1       2
       1       1       2       1       1       2       1       1       2       1
       1       2       1       1       2       1       1       2       1       1
       2       1       1       2       1       1       2       1       1       2
       1       1       2       1       1       2       1       1       2       1
       1       2       1       1       2       1       1       2       1       1
       2       1       1       2       1       1       2       1       1       2
       1       1       2       1       1       2       1       1       2       1
       1       2       1       1       2       1       1       2       1       1
       2       1       1       2       1       1       2       1       1       2
       1       1       2       1       1       2       1       1       2       1
       1       2       1       1       2       1       1       2       1       1
       2       1       1       2       1       1       2       1       1       2
       1       1       2       1       1       2       1       1       2       1
       1       2       1       1       2       1       1       2       1       1
       2       1       1       2       1       1       2       1       1       2
       1       1       2       1       1       2       1       1       2       1
       1       2       1       1       2       1       1       2       1       1
       2       1       1       2       1       1       2       1       1       2
       1       1       2       1       1       2       1       1       2       1
       1       2       1       1       2       1       1       2       1       1
       2       1       1       2       1       1       2       1       1       2
       1       1       2       1       1       2       1       1       2       1
       1       2       1       1       2       1       1       2       1       1
       2       1       1       2       1       1       2       1       1       2
       1       1       2       1       1       2       1       1       2       1
       1       2       1       1       2       1       1       2       1       1
       2       1       1       2       1       1       2       1       1       2
       1       1       2       1       1       2       1       1       2       1
       1       2       1       1       2       1       1       2       1       1
       2       1       1       2       1       1       2       1       1       2
       1       1       2       1       1       2       1       1       2       1
       1       2       1       1       2       1       1       2       1       1
       2       1       1       2       1       1       2       1       1       2
       1       1       2       1       1       2       1       1       2       1
       1       2       1       1       2       1       1       2       1       1
       2       1       1       2       1       1       2       1       1       2
       1       1       2       1       1       2       1       1       2       1
       1       2       1       1       2       1       1       2       1       1
       2       1       1       2       1       1       2       1       1       2
       1       1       2       1       1       2       1       1       2       1
       1       2       1       1       2       1       1       2       1       1
       2       1       1       2       1       1       2       1       1       2
       1       1       2       1       1       2       1       1       2       1
       1       2       1       1       2       1       1       2       1       1
       2       1       1       2       1       1       2       1       1       2
       1       1       2       1       1       2       1       1       2       1
       1       2       1       1       2       1       1       2       1       1
       2       1       1       2       1       1       2       1       1       2
       1       1       2       1       1       2       1       1       2       1
       1       2       1       1       2       1       1       2       1       1
       2       1       1       2       1       1       2       1       1       2
       1       1       2       1       1       2       1       1       2       1
       1       2       1       1       2       1       1       2       1       1
       2       1       1       2       1       1       2       1       1       2
       1       1       2       1       1       2       1       1       2       1
       1       2       1       1       2       1       1       2       1       1
       2       1       1       2       1       1       2       1       1       2
       1       1       2       1       1       2       1       1       2       1
       1       2       1       1       2       1       1       2       1       1
       2       1       1       2       1       1       2       1       1       2
       1       1       2       1       1       2       1       1       2       1
       1       2       1       1       2       1       1       2       1       1
       2       1       1       2       1       1       2       1       1       2
       1       1       2       1       1       2       1       1       2       1
       1       2       1       1       2       1       1       2       1       1
       2       1       1       2       1       1       2       1       1       2
       1       1       2       1       1       2       1       1       2       1
       1       2       1       1       2       1       1       2       1       1
       2       1       1       2       1       1       2       1       1       2
       1       1       2       1       1       2       1       1       2       1
       1       2       1       1       2       1       1       2       1       1
       2       1       1       2       1       1       2       1       1       2
       1       1       2       1       1       2       1       1       2       1
       1       2       1       1       2       1       1       2       1       1
       2       1       1       2       1       1       2       1       1       2
       1       1       2       1       1       2       1       1       2       1
       1       2       1       1       2       1       1       2       1       1
       2       1       1       2       1       1       2       1       1       2
       1       1       2       1       1       2       1       1       2       1
       1       2       1       1       2       1       1       2       1       1
       2       1       1       2       1       1       2       1       1       2
       1       1       2       1       1       2       1       1       2       1
       1       2       1       1       2       1       1       2       1       1
       2       1       1       2       1       1       2       1       1       2
       1       1       2       1       1       2       1       1       2       1
       1       2       1       1       2       1       1       2       1       1
       2       1       1       2       1       1       2       1       1       2
       1       1       2       1       1       2       1       1       2       1
       1       2       1       1       2       1       1       2       1       1
       2       1       1       2       1       1       2       1       1       2
       1       1       2       1       1       2       1       1       2       1
       1       2       1       1       2       1       1       2       1       1
       2       1       1       2       1       1       2       1       1       2
       1       1       2       1       1       2       1       1       2       1
       1       2       1       1       2       1       1       2       1       1
       2       1       1       2       1       1       2       1       1       2
       1       1       2       1       1       2       1       1       2       1
       1       2       1       1       2       1       1       2       1       1
       2       1       1       2       1       1       2       1       1       2
       1       1       2       1       1       2       1       1       2       1
       1       2       1       1       2       1       1       2       1       1
       2       1       1       2       1       1       2       1       1       2
       1       1       2       1       1       2       1       1       2       1
       1       2       1       1       2       1       1       2       1       1
       2       1       1       2       1       1       2       1       1       2
       1       1       2       1       1       2       1       1       2       1
       1       2       1       1       2       1       1       2       1       1
       2       1       1       2       1       1       2       1       1       2
       1       1       2       1       1       2       1       1       2       1
       1       2       1       1       2       1       1       2       1       1
       2       1       1       2       1       1       2       1       1       2
       1       1       2       1       1       2       1       1       2       1
       1       2       1       1       2       1       1       2       1       1
       2       1       1       2       1       1       2       1       1       2
       1       1       2       1       1       2       1       1       2       1
       1       2       1       1       2       1       1       2       1       1
       2       1       1       2       1       1       2       1       1       2
       1       1       2       1       1       2       1       1       2       1
       1       2       1       1       2       1       1       2       1       1
       2       1       1       2       1       1       2       1       1       2
       1       1       2       1       1       2       1       1       2       1
       1       2       1       1       2       1       1       2       1       1
       2       1       1       2       1       1       2       1       1       2
       1       1       2       1       1       2       1       1       2       1
       1       2       1       1       2       1       1       2       1       1
       2       1       1       2       1       1       2       1       1       2
       1       1       2       1       1       2       1       1       2       1
       1       2       1       1       2       1       1       2       1       1
       2       1       1       2       1       1       2       1       1       2
       1       1       2       1       1       2       1       1       2       1
       1       2       1       1       2       1       1       2       1       1
       2       1       1       2       1       1       2       1       1       2
       1       1       2       1       1       2       1       1       2       1
       1       2       1       1       2       1       1       2       1       1
       2       1       1       2       1       1       2       1       1       2
       1       1       2       1       1       2       1       1       2       1
       1       2       1       1       2       1       1       2       1       1
       2       1       1       2       1       1       2       1       1       2
       1       1       2       1       1       2       1       1       2       1
       1       2       1       1       2       1       1       2       1       1
       2       1       1       2       1       1       2       1       1       2
       1       1       2       1       1       2       1       1       2       1
       1       2       1       1       2       1       1       2       1       1
       2       1       1       2       1       1       2       1       1       2
       1       1       2       1       1       2       1       1       2       1
       1       2       1       1       2       1       1       2       1       1
       2       1       1       2       1       1       2       1       1       2
       1       1       2       1       1       2       1       1       2       1
       1       2       1       1       2       1       1       2       1       1
       2       1       1       2       1       1       2       1       1       2
       1       1       2       1       1       2       1       1       2       1
       1       2       1       1       2       1       1       2       1       1
       2       1       1       2       1       1       2       1       1       2
       1       1       2       1       1       2       1       1       2       1
       1       2       1       1       2       1       1       2       1       1
       2       1       1       2       1       1       2       1       1       2
       1       1       2       1       1       2       1       1       2       1
       1       2       1       1       2       1       1       2       1       1
       2       1       1       2       1       1       2       1       1       2
       1       1       2       1       1       2       1       1       2       1
       1       2       1       1       2       1       1       2       1       1
       2       1       1       2       1       1       2       1       1       2
       1       1       2       1       1       2       1       1       2       1
       1       2       1       1       2       1       1       2       1       1
       2       1       1       2       1       1       2       1       1       2
       1       1       2       1       1       2       1       1       2       1
       1       2       1       1       2       1       1       2       1       1
       2       1       1       2       1       1       2       1       1       2
       1       1       2       1       1       2       1       1       2       1
       1       2       1       1       2       1       1       2       1       1
       2       1       1       2       1       1       2       1       1       2
       1       1       2       1       1       2       1       1       2       1
       1       2       1       1       2       1       1       2       1       1
       2       1       1       2       1       1       2       1       1       2
       1       1       2       1       1       2       1       1       2       1
       1       2       1       1       2       1       1       2       1       1
       2       1       1       2       1       1       2       1       1       2
       1       1       2       1       1       2       1       1       2       1
       1       2       1       1       2       1       1       2       1       1
       2       1       1       2       1       1       2       1       1       2
       1       1       2       1       1       2       1       1       2       1
       1       2       1       1       2       1       1       2       1       1
       2       1       1       2       1       1       2       1       1       2
       1       1       2       1       1       2       1       1       2       1
       1       2       1       1       2       1       1       2       1       1
       2       1       1       2       1       1       2       1       1       2
       1       1       2       1       1       2       1       1       2       1
       1       2       1       1       2       1       1       2       1       1
       2       1       1       2       1       1       2       1       1       2
       1       1       2       1       1       2       1       1       2       1
       1       2       1       1       2       1       1       2       1       1
       2       1       1       2       1       1       2       1       1       2
       1       1       2       1       1       2       1       1       2       1
       1       2       1       1       2       1       1       2       1       1
       2       1       1       2       1       1       2       1       1       2
       1       1       2       1       1       2       1       1       2       1
       1       2       1       1       2       1       1       2       1       1
       2       1       1       2       1       1       2       1       1       2
       1       1       2       1       1       2       1       1       2       1
       1       2       1       1       2       1       1       2       1       1
       2       1       1       2       1       1       2       1       1       2
       1       1       2       1       1       2       1       1       2       1
       1       2       1       1       2       1       1       2       1       1
       2       1       1       2       1       1       2       1       1       2
       1       1       2       1       1       2       1       1       2       1
       1       2       1       1       2       1       1       2       1       1
       2       1       1       2       1       1       2       1       1       2
       1       1       2       1       1       2       1       1       2       1
       1       2       1       1       2       1       1       2       1       1
       2       1       1       2       1       1       2       1       1       2
       1       1       2       1       1       2       1       1       2       1
       1       2       1       1       2       1       1       2       1       1
       2       1       1       2       1       1       2       1       1       2
       1       1       2       1       1       2       1       1       2       1
       1       2       1       1       2       1       1       2       1       1
       2       1       1       2       1       1       2       1       1       2
       1       1       2       1       1       2       1       1       2       1
       1       2       1       1       2       1       1       2       1       1
       2       1       1       2       1       1       2       1       1       2
       1       1       2       1       1       2       1       1       2       1
       1       2       1       1       2       1       1       2       1       1
       2       1       1       2       1       1       2       1       1       2
       1       1       2       1       1       2       1       1       2       1
       1       2       1       1       2       1       1       2       1       1
       2       1       1       2       1       1       2       1       1       2
       1       1       2       1       1       2       1       1       2       1
       1       2       1       1       2       1       1       2       1       1
       2       1       1       2       1       1       2       1       1       2
       1       1       2       1       1       2       1       1       2       1
       1       2       1       1       2       1       1       2       1       1
       2       1       1       2       1       1       2       1       1       2
       1       1       2       1       1       2       1       1       2       1
       1       2       1       1       2       1       1       2       1       1
       2       1       1       2       1       1       2       1       1       2
       1       1       2       1       1       2       1       1       2       1
       1       2       1       1       2       1       1       2       1       1
       2       1       1       2       1       1       2       1       1       2
       1       1       2       1       1       2       1       1       2       1
       1       2       1       1       2       1       1       2       1       1
       2       1       1       2       1       1       2       1       1       2
       1       1       2       1       1       2       1       1       2       1
       1       2       1       1       2       1       1       2       1       1
       2       1       1       2       1       1       2       1       1       2
       1       1       2       1       1       2       1       1       2       1
       1       2       1       1       2       1       1       2       1       1
       2       1       1       2       1       1       2       1       1       2
       1       1       2       1       1       2       1       1       2       1
       1       2       1       1       2       1       1       2       1       1
       2       1       1       2       1       1       2       1       1       2
       1       1       2       1       1       2       1       1       2       1
       1       2       1       1       2       1       1       2       1       1
       2       1       1       2       1       1       2       1       1       2
       1       1       2       1       1       2       1       1       2       1
       1       2       1       1       2       1       1       2       1       1
       2       1       1       2       1       1       2       1       1       2
       1       1       2       1       1       2       1       1       2       1
       1       2       1       1       2       1       1       2       1       1
       2       1       1       2       1       1       2       1       1       2
       1       1       2       1       1       2       1       1       2       1
       1       2       1       1       2       1       1       2       1       1
       2       1       1       2       1       1       2       1       1       2
       1       1       2       1       1       2       1       1       2       1
       1       2       1       1       2       1       1       2       1       1
       2       1       1       2       1       1       2       1       1       2
       1       1       2       1       1       2       1       1       2       1
       1       2       1       1       2       1       1       2       1       1
       2       1       1       2       1       1       2       1       1       2
       1       1       2       1       1       2       1       1       2       1
       1       2       1       1       2       1       1       2       1       1
       2       1       1       2       1       1       2       1       1       2
       1       1       2       1       1       2       1       1       2       1
       1       2       1       1       2       1       1       2       1       1
       2       1       1       2       1       1       2       1       1       2
       1       1       2       1       1       2       1       1       2       1
       1       2       1       1       2       1       1       2       1       1
       2       1       1       2       1       1       2       1       1       2
       1       1       2       1       1       2       1       1       2       1
       1       2       1       1       2       1       1       2       1       1
       2       1       1       2       1       1       2       1       1       2
       1       1       2       1       1       2       1       1       2       1
       1       2       1       1       2       1       1       2       1       1
       2       1       1       2       1       1       2       1       1       2
       1       1       2       1       1       2       1       1       2       1
       1       2       1       1       2       1       1       2       1       1
       2       1       1       2       1       1       2       1       1       2
       1       1       2       1       1       2       1       1       2       1
       1       2       1       1       2       1       1       2       1       1
       2       1       1       2       1       1       2       1       1       2
       1       1       2       1       1       2       1       1       2       1
       1       2       1       1       2       1       1       2       1       1
       2       1       1       2       1       1       2       1       1       2
       1       1       2       1       1       2       1       1       2       1
       1       2       1       1       2       1       1       2       1       1
       2       1       1       2       1       1       2       1       1       2
       1       1       2       1       1       2       1       1       2       1
       1       2       1       1       2       1       1       2       1       1
       2       1       1       2       1       1       2       1       1       2
       1       1       2       1       1       2       1       1       2       1
       1       2       1       1       2       1       1       2       1       1
       2       1       1       2       1       1       2       1       1       2
       1       1       2       1       1       2       1       1       2       1
       1       2       1       1       2       1       1       2       1       1
       2       1       1       2       1       1       2       1       1       2
       1       1       2       1       1       2       1       1       2       1
       1       2       1       1       2       1       1       2       1       1
       2       1       1       2       1       1       2       1       1       2
       1       1       2       1       1       2       1       1       2       1
       1       2       1       1       2       1       1       2       1       1
       2       1       1       2       1       1       2       1       1       2
       1       1       2       1       1       2       1       1       2       1
       1       2       1       1       2       1       1       2       1       1
       2       1       1       2       1       1       2       1       1       2
       1       1       2       1       1       2       1       1       2       1
       1       2       1       1       2       1       1       2       1       1
       2       1       1       2       1       1       2       1       1       2
       1       1       2       1       1       2       1       1       2       1
       1       2       1       1       2       1       1       2       1       1
       2       1       1       2       1       1       2       1       1       2
       1       1       2       1       1       2       1       1       2       1
       1       2       1       1       2       1       1       2       1       1
       2       1       1       2       1       1       2       1       1       2
       1       1       2       1       1       2       1       1       2       1
       1       2       1       1       2       1       1       2       1       1
       2       1       1       2       1       1       2       1       1       2
       1       1       2       1       1       2       1       1       2       1
       1       2       1       1       2       1       1       2       1       1
       2       1       1       2       1       1       2       1       1       2
       1       1       2       1       1       2       1       1       2       1
       1       2       1       1       2       1       1       2       1       1
       2       1       1       2       1       1       2       1       1       2
       1       1       2       1       1       2       1       1       2       1
       1       2       1       1       2       1       1       2       1       1
       2       1       1       2       1       1       2       1       1       2
       1       1       2       1       1       2       1       1       2       1
       1       2       1       1       2       1       1       2       1       1
       2       1       1       2       1       1       2       1       1       2
       1       1       2       1       1       2       1       1       2       1
       1       2       1       1       2       1       1       2       1       1
       2       1       1       2       1       1       2       1       1       2
       1       1       2       1       1       2       1       1       2       1
       1       2       1       1       2       1       1       2       1       1
       2       1       1       2       1       1       2       1       1       2
       1       1       2       1       1       2       1       1       2       1
       1       2       1       1       2       1       1       2       1       1
       2       1       1       2       1       1       2       1       1       2
       1       1       2       1       1       2       1       1       2       1
       1       2       1       1       2       1       1       2       1       1
       2       1       1       2       1       1       2       1       1       2
       1       1       2       1       1       2       1       1       2       1
       1       2       1       1       2       1       1       2       1       1
       2       1       1       2       1       1       2       1       1       2
       1       1       2       1       1       2       1       1       2       1
       1       2       1       1       2       1       1       2       1       1
       2       1       1       2       1       1       2       1       1       2
       1       1       2       1       1       2       1       1       2       1
       1       2       1       1       2       1       1       2       1       1
       2       1       1       2       1       1       2       1       1       2
       1       1       2       1       1       2       1       1       2       1
       1       2       1       1       2       1       1       2       1       1
       2       1       1       2       1       1       2       1       1       2
       1       1       2       1       1       2       1       1       2       1
       1       2       1       1       2       1       1       2       1       1
       2       1       1       2       1       1       2       1       1       2
       1       1       2       1       1       2       1       1       2       1
       1       2       1       1       2       1       1       2       1       1
       2       1       1       2       1       1       2       1       1       2
       1       1       2       1       1       2       1       1       2       1
       1       2       1       1       2       1       1       2       1       1
       2       1       1       2       1       1       2       1       1       2
       1       1       2       1       1       2       1       1       2       1
       1       2       1       1       2       1       1       2       1       1
       2       1       1       2       1       1       2       1       1       2
       1       1       2       1       1       2       1       1       2       1
       1       2       1       1       2       1       1       2       1       1
       2       1       1       2       1       1       2       1       1       2
       1       1       2       1       1       2       1       1       2       1
       1       2       1       1       2       1       1       2       1       1
       2       1       1       2       1       1       2       1       1       2
       1       1       2       1       1       2       1       1       2       1
       1       2       1       1       2       1       1       2       1       1
       2       1       1       2       1       1       2       1       1       2
       1       1       2       1       1       2       1       1       2       1
       1       2       1       1       2       1       1       2       1       1
       2       1       1       2       1       1       2       1       1       2
       1       1       2       1       1       2       1       1       2       1
       1       2       1       1       2       1       1       2       1       1
       2       1       1       2       1       1       2       1       1       2
       1       1       2       1       1       2       1       1       2       1
       1       2       1       1       2       1       1       2       1       1
       2       1       1       2       1       1       2       1       1       2
       1       1       2       1       1       2       1       1       2       1
       1       2       1       1       2       1       1       2       1       1
       2       1       1       2       1       1       2       1       1       2
       1       1       2       1       1       2       1       1       2       1
       1       2       1       1       2       1       1       2       1       1
       2       1       1       2       1       1       2       1       1       2
       1       1       2       1       1       2       1       1       2       1
       1       2       1       1       2       1       1       2       1       1
       2       1       1       2       1       1       2       1       1       2
       1       1       2       1       1       2       1       1       2       1
       1       2       1       1       2       1       1       2       1       1
       2       1       1       2       1       1       2       1       1       2
       1       1       2       1       1       2       1       1       2       1
       1       2       1       1       2       1       1       2       1       1
       2       1       1       2       1       1       2       1       1       2
       1       1       2       1       1       2       1       1       2       1
       1       2       1       1       2       1       1       2       1       1
       2       1       1       2       1       1       2       1       1       2
       1       1       2       1       1       2       1       1       2       1
       1       2       1       1       2       1       1       2       1       1
       2       1       1       2       1       1       2       1       1       2
       1       1       2       1       1       2       1       1       2       1
       1       2       1       1       2       1       1       2       1       1
       2       1       1       2       1       1       2       1       1       2
       1       1       2       1       1       2       1       1       2       1
       1       2       1       1       2       1       1       2       1       1
       2       1       1       2       1       1       2       1       1       2
       1       1       2       1       1       2       1       1       2       1
       1       2       1       1       2       1       1       2       1       1
       2       1       1       2       1       1       2       1       1       2
       1       1       2       1       1       2       1       1       2       1
       1       2       1       1       2       1       1       2       1       1
       2       1       1       2       1       1       2       1       1       2
       1       1       2       1       1       2       1       1       2       1
       1       2       1       1       2       1       1       2       1       1
       2       1       1       2       1       1       2       1       1       2
       1       1       2       1       1       2       1       1       2       1
       1       2       1       1       2       1       1       2       1       1
       2       1       1       2       1       1       2       1       1       2
       1       1       2       1       1       2       1       1       2       1
       1       2       1       1       2       1       1       2       1       1
       2       1       1       2       1       1       2       1       1       2
       1       1       2       1       1       2       1       1       2       1
       1       2       1       1       2       1       1       2       1       1
       2       1       1       2       1       1       2       1       1       2
       1       1       2       1       1       2       1       1       2       1
       1       2       1       1       2       1       1       2       1       1
       2       1       1       2       1       1       2       1       1       2
       1       1       2       1       1       2       1       1       2       1
       1       2       1       1       2       1       1       2       1       1
       2       1       1       2       1       1       2       1       1       2
       1       1       2       1       1       2       1       1       2       1
       1       2       1       1       2       1       1       2       1       1
       2       1       1       2       1       1       2       1       1       2
       1       1       2       1       1       2       1       1       2       1
       1       2       1       1       2       1       1       2       1       1
       2       1       1       2       1       1       2       1       1       2
       1       1       2       1       1       2       1       1       2       1
       1       2       1       1       2       1       1       2       1       1
       2       1       1       2       1       1       2       1       1       2
       1       1       2       1       1       2       1       1       2       1
       1       2       1       1       2       1       1       2       1       1
       2       1       1       2       1       1       2       1       1       2
       1       1       2       1       1       2       1       1       2       1
       1       2       1       1       2       1       1       2       1       1
       2       1       1       2       1       1       2       1       1       2
       1       1       2       1       1       2       1       1       2       1
       1       2       1       1       2       1       1       2       1       1
       2       1       1       2       1       1       2       1       1       2
       1       1       2       1       1       2       1       1       2       1
       1       2       1       1       2       1       1       2       1       1
       2       1       1       2       1       1       2       1       1       2
       1       1       2       1       1       2       1       1       2       1
       1       2       1       1       2       1       1       2       1       1
       2       1       1       2       1       1       2       1       1       2
       1       1       2       1       1       2       1       1       2       1
       1       2       1       1       2       1       1       2       1       1
       2       1       1       2       1       1       2       1       1       2
       1       1       2       1       1       2       1       1       2       1
       1       2       1       1       2       1       1       2       1       1
       2       1       1       2       1       1       2       1       1       2
       1       1       2       1       1       2       1       1       2       1
       1       2       1       1       2       1       1       2       1       1
       2       1       1       2       1       1       2       1       1       2
       1       1       2       1       1       2       1       1       2       1
       1       2       1       1       2       1       1       2       1       1
       2       1       1       2       1       1       2       1       1       2
       1       1       2       1       1       2       1       1       2       1
       1       2       1       1       2       1       1       2       1       1
       2       1       1       2       1       1       2       1       1       2
       1       1       2       1       1       2       1       1       2       1
       1       2       1       1       2       1       1       2       1       1
       2       1       1       2       1       1       2       1       1       2
       1       1       2       1       1       2       1       1       2       1
       1       2       1       1       2       1       1       2       1       1
       2       1       1       2       1       1       2       1       1       2
       1       1       2       1       1       2       1       1       2       1
       1       2       1       1       2       1       1       2       1       1
       2       1       1       2       1       1       2       1       1       2
       1       1       2       1       1       2       1       1       2       1
       1       2       1       1       2       1       1       2       1       1
       2       1       1       2       1       1       2       1       1       2
       1       1       2       1       1       2       1       1       2       1
       1       2       1       1       2       1       1       2       1       1
       2       1       1       2       1       1       2       1       1       2
       1       1       2       1       1       2       1       1       2       1
       1       2       1       1       2       1       1       2       1       1
       2       1       1       2       1       1       2       1       1       2
       1       1       2       1       1       2       1       1       2       1
       1       2       1       1       2       1       1       2       1       1
       2       1       1       2       1       1       2       1       1       2
       1       1       2       1       1       2       1       1       2       1
       1       2       1       1       2       1       1       2       1       1
       2       1       1       2       1       1       2       1       1       2
       1       1       2       1       1       2       1       1       2       1
       1       2       1       1       2       1       1       2       1       1
       2       1       1       2       1       1       2       1       1       2
       1       1       2       1       1       2       1       1       2       1
       1       2       1       1       2       1       1       2       1       1
       2       1       1       2       1       1       2       1       1       2
       1       1       2       1       1       2       1       1       2       1
       1       2       1       1       2       1       1       2       1       1
       2       1       1       2       1       1       2       1       1       2
       1       1       2       1       1       2       1       1       2       1
       1       2       1       1       2       1       1       2       1       1
       2       1       1       2       1       1       2       1       1       2
       1       1       2       1       1       2       1       1       2       1
       1       2       1       1       2       1       1       2       1       1
       2       1       1       2       1       1       2       1       1       2
       1       1       2       1       1       2       1       1       2       1
       1       2       1       1       2       1       1       2       1       1
       2       1       1       2       1       1       2       1       1       2
       1       1       2       1       1       2       1       1       2       1
       1       2       1       1       2       1       1       2       1       1
       2       1       1       2       1       1       2       1       1       2
       1       1       2       1       1       2       1       1       2       1
       1       2       1       1       2       1       1       2       1       1
       2       1       1       2       1       1       2       1       1       2
       1       1       2       1       1       2       1       1       2       1
       1       2       1       1       2       1       1       2       1       1
       2       1       1       2       1       1       2       1       1       2
       1       1       2       1       1       2       1       1       2       1
       1       2       1       1       2       1       1       2       1       1
       2       1       1       2       1       1       2       1       1       2
       1       1       2       1       1       2       1       1       2       1
       1       2       1       1       2       1       1       2       1       1
       2       1       1       2       1       1       2       1       1       2
       1       1       2       1       1       2       1       1       2       1
       1       2       1       1       2       1       1       2       1       1
       2       1       1       2       1       1       2       1       1       2
       1       1       2       1       1       2       1       1       2       1
       1       2       1       1       2       1       1       2       1       1
       2       1       1       2       1       1       2       1       1       2
       1       1       2       1       1       2       1       1       2       1
       1       2       1       1       2       1       1       2       1       1
       2       1       1       2       1       1       2       1       1       2
       1       1       2       1       1       2       1       1       2       1
       1       2       1       1       2       1       1       2       1       1
       2       1       1       2       1       1       2       1       1       2
       1       1       2       1       1       2       1       1       2       1
       1       2       1       1       2       1       1       2       1       1
       2       1       1       2       1       1       2       1       1       2
       1       1       2       1       1       2       1       1       2       1
       1       2       1       1       2       1       1       2       1       1
       2       1       1       2       1       1       2       1       1       2
       1       1       2       1       1       2       1       1       2       1
       1       2       1       1       2       1       1       2       1       1
       2       1       1       2       1       1       2       1       1       2
       1       1       2       1       1       2       1       1       2       1
       1       2       1       1       2       1       1       2       1       1
       2       1       1       2       1       1       2       1       1       2
       1       1       2       1       1       2       1       1       2       1
       1       2       1       1       2       1       1       2       1       1
       2       1       1       2       1       1       2       1       1       2
       1       1       2       1       1       2       1       1       2       1
       1       2       1       1       2       1       1       2       1       1
       2       1       1       2       1       1       2       1       1       2
       1       1       2       1       1       2       1       1       2       1
       1       2       1       1       2       1       1       2       1       1
       2       1       1       2       1       1       2       1       1       2
       1       1       2       1       1       2       1       1       2       1
       1       2       1       1       2       1       1       2       1       1
       2       1       1       2       1       1       2       1       1       2
       1       1       2       1       1       2       1       1       2       1
       1       2       1       1       2       1       1       2       1       1
       2       1       1       2       1       1       2       1       1       2
       1       1       2       1       1       2       1       1       2       1
       1       2       1       1       2       1       1       2       1       1
       2       1       1       2       1       1       2       1       1       2
       1       1       2       1       1       2       1       1       2       1
       1       2       1       1       2       1       1       2       1       1
%FLAG NONBONDED_PARM_INDEX                                                      
%FORMAT(10I8)                                                                   
       1       2       4       7      11      16      22      29      37       2
       3       5       8      12      17      23      30      38       4       5
       6       9      13      18      24      31      39       7       8       9
      10      14      19      25      32      40      11      12      13      14
      15      20      26      33      41      16      17      18      19      20
      21      27      34      42      22      23      24      25      26      27
      28      35      43      29      30      31      32      33      34      35
      36      44      37      38      39      40      41      42      43      44
      45
%FLAG RESIDUE_LABEL                                                             
%FORMAT(20a4)                                                                   
R48 Cl- Cl- Cl- Cl- Cl- Cl- Cl- Cl- Cl- Cl- Cl- Cl- Cl- Cl- Cl- Cl- Cl- Cl- Cl- 
Cl- Cl- Cl- Cl- Cl- Cl- Cl- Cl- Cl- Cl- Cl- Cl- Cl- Cl- Cl- Cl- Cl- Cl- Cl- Cl- 
Cl- Cl- Cl- Cl- Cl- Cl- Cl- Cl- Cl- WAT WAT WAT WAT WAT WAT WAT WAT WAT WAT WAT 
WAT WAT WAT WAT WAT WAT WAT WAT WAT WAT WAT WAT WAT WAT WAT WAT WAT WAT WAT WAT 
WAT WAT WAT WAT WAT WAT WAT WAT WAT WAT WAT WAT WAT WAT WAT WAT WAT WAT WAT WAT 
WAT WAT WAT WAT WAT WAT WAT WAT WAT WAT WAT WAT WAT WAT WAT WAT WAT WAT WAT WAT 
WAT WAT WAT WAT WAT WAT WAT WAT WAT WAT WAT WAT WAT WAT WAT WAT WAT WAT WAT WAT 
WAT WAT WAT WAT WAT WAT WAT WAT WAT WAT WAT WAT WAT WAT WAT WAT WAT WAT WAT WAT 
WAT WAT WAT WAT WAT WAT WAT WAT WAT WAT WAT WAT WAT WAT WAT WAT WAT WAT WAT WAT 
WAT WAT WAT WAT WAT WAT WAT WAT WAT WAT WAT WAT WAT WAT WAT WAT WAT WAT WAT WAT 
WAT WAT WAT WAT WAT WAT WAT WAT WAT WAT WAT WAT WAT WAT WAT WAT WAT WAT WAT WAT 
WAT WAT WAT WAT WAT WAT WAT WAT WAT WAT WAT WAT WAT WAT WAT WAT WAT WAT WAT WAT 
WAT WAT WAT WAT WAT WAT WAT WAT WAT WAT WAT WAT WAT WAT WAT WAT WAT WAT WAT WAT 
WAT WAT WAT WAT WAT WAT WAT WAT WAT WAT WAT WAT WAT WAT WAT WAT WAT WAT WAT WAT 
WAT WAT WAT WAT WAT WAT WAT WAT WAT WAT WAT WAT WAT WAT WAT WAT WAT WAT WAT WAT 
WAT WAT WAT WAT WAT WAT WAT WAT WAT WAT WAT WAT WAT WAT WAT WAT WAT WAT WAT WAT 
WAT WAT WAT WAT WAT WAT WAT WAT WAT WAT WAT WAT WAT WAT WAT WAT WAT WAT WAT WAT 
WAT WAT WAT WAT WAT WAT WAT WAT WAT WAT WAT WAT WAT WAT WAT WAT WAT WAT WAT WAT 
WAT WAT WAT WAT WAT WAT WAT WAT WAT WAT WAT WAT WAT WAT WAT WAT WAT WAT WAT WAT 
WAT WAT WAT WAT WAT WAT WAT WAT WAT WAT WAT WAT WAT WAT WAT WAT WAT WAT WAT WAT 
WAT WAT WAT WAT WAT WAT WAT WAT WAT WAT WAT WAT WAT WAT WAT WAT WAT WAT WAT WAT 
WAT WAT WAT WAT WAT WAT WAT WAT WAT WAT WAT WAT WAT WAT WAT WAT WAT WAT WAT WAT 
WAT WAT WAT WAT WAT WAT WAT WAT WAT WAT WAT WAT WAT WAT WAT WAT WAT WAT WAT WAT 
WAT WAT WAT WAT WAT WAT WAT WAT WAT WAT WAT WAT WAT WAT WAT WAT WAT WAT WAT WAT 
WAT WAT WAT WAT WAT WAT WAT WAT WAT WAT WAT WAT WAT WAT WAT WAT WAT WAT WAT WAT 
WAT WAT WAT WAT WAT WAT WAT WAT WAT WAT WAT WAT WAT WAT WAT WAT WAT WAT WAT WAT 
WAT WAT WAT WAT WAT WAT WAT WAT WAT WAT WAT WAT WAT WAT WAT WAT WAT WAT WAT WAT 
WAT WAT WAT WAT WAT WAT WAT WAT WAT WAT WAT WAT WAT WAT WAT WAT WAT WAT WAT WAT 
WAT WAT WAT WAT WAT WAT WAT WAT WAT WAT WAT WAT WAT WAT WAT WAT WAT WAT WAT WAT 
WAT WAT WAT WAT WAT WAT WAT WAT WAT WAT WAT WAT WAT WAT WAT WAT WAT WAT WAT WAT 
WAT WAT WAT WAT WAT WAT WAT WAT WAT WAT WAT WAT WAT WAT WAT WAT WAT WAT WAT WAT 
WAT WAT WAT WAT WAT WAT WAT WAT WAT WAT WAT WAT WAT WAT WAT WAT WAT WAT WAT WAT 
WAT WAT WAT WAT WAT WAT WAT WAT WAT WAT WAT WAT WAT WAT WAT WAT WAT WAT WAT WAT 
WAT WAT WAT WAT WAT WAT WAT WAT WAT WAT WAT WAT WAT WAT WAT WAT WAT WAT WAT WAT 
WAT WAT WAT WAT WAT WAT WAT WAT WAT WAT WAT WAT WAT WAT WAT WAT WAT WAT WAT WAT 
WAT WAT WAT WAT WAT WAT WAT WAT WAT WAT WAT WAT WAT WAT WAT WAT WAT WAT WAT WAT 
WAT WAT WAT WAT WAT WAT WAT WAT WAT WAT WAT WAT WAT WAT WAT WAT WAT WAT WAT WAT 
WAT WAT WAT WAT WAT WAT WAT WAT WAT WAT WAT WAT WAT WAT WAT WAT WAT WAT WAT WAT 
WAT WAT WAT WAT WAT WAT WAT WAT WAT WAT WAT WAT WAT WAT WAT WAT WAT WAT WAT WAT 
WAT WAT WAT WAT WAT WAT WAT WAT WAT WAT WAT WAT WAT WAT WAT WAT WAT WAT WAT WAT 
WAT WAT WAT WAT WAT WAT WAT WAT WAT WAT WAT WAT WAT WAT WAT WAT WAT WAT WAT WAT 
WAT WAT WAT WAT WAT WAT WAT WAT WAT WAT WAT WAT WAT WAT WAT WAT WAT WAT WAT WAT 
WAT WAT WAT WAT WAT WAT WAT WAT WAT WAT WAT WAT WAT WAT WAT WAT WAT WAT WAT WAT 
WAT WAT WAT WAT WAT WAT WAT WAT WAT WAT WAT WAT WAT WAT WAT WAT WAT WAT WAT WAT 
WAT WAT WAT WAT WAT WAT WAT WAT WAT WAT WAT WAT WAT WAT WAT WAT WAT WAT WAT WAT 
WAT WAT WAT WAT WAT WAT WAT WAT WAT WAT WAT WAT WAT WAT WAT WAT WAT WAT WAT WAT 
WAT WAT WAT WAT WAT WAT WAT WAT WAT WAT WAT WAT WAT WAT WAT WAT WAT WAT WAT WAT 
WAT WAT WAT WAT WAT WAT WAT WAT WAT WAT WAT WAT WAT WAT WAT WAT WAT WAT WAT WAT 
WAT WAT WAT WAT WAT WAT WAT WAT WAT WAT WAT WAT WAT WAT WAT WAT WAT WAT WAT WAT 
WAT WAT WAT WAT WAT WAT WAT WAT WAT WAT WAT WAT WAT WAT WAT WAT WAT WAT WAT WAT 
WAT WAT WAT WAT WAT WAT WAT WAT WAT WAT WAT WAT WAT WAT WAT WAT WAT WAT WAT WAT 
WAT WAT WAT WAT WAT WAT WAT WAT WAT WAT WAT WAT WAT WAT WAT WAT WAT WAT WAT WAT 
WAT WAT WAT WAT WAT WAT WAT WAT WAT WAT WAT WAT WAT WAT WAT WAT WAT WAT WAT WAT 
WAT WAT WAT WAT WAT WAT WAT WAT WAT WAT WAT WAT WAT WAT WAT WAT WAT WAT WAT WAT 
WAT WAT WAT WAT WAT WAT WAT WAT WAT WAT WAT WAT WAT WAT WAT WAT WAT WAT WAT WAT 
WAT WAT WAT WAT WAT WAT WAT WAT WAT WAT WAT WAT WAT WAT WAT WAT WAT WAT WAT WAT 
WAT WAT WAT WAT WAT WAT WAT WAT WAT WAT WAT WAT WAT WAT WAT WAT WAT WAT WAT WAT 
WAT WAT WAT WAT WAT WAT WAT WAT WAT WAT WAT WAT WAT WAT WAT WAT WAT WAT WAT WAT 
WAT WAT WAT WAT WAT WAT WAT WAT WAT WAT WAT WAT WAT WAT WAT WAT WAT WAT WAT WAT 
WAT WAT WAT WAT WAT WAT WAT WAT WAT WAT WAT WAT WAT WAT WAT WAT WAT WAT WAT WAT 
WAT WAT WAT WAT WAT WAT WAT WAT WAT WAT WAT WAT WAT WAT WAT WAT WAT WAT WAT WAT 
WAT WAT WAT WAT WAT WAT WAT WAT WAT WAT WAT WAT WAT WAT WAT WAT WAT WAT WAT WAT 
WAT WAT WAT WAT WAT WAT WAT WAT WAT WAT WAT WAT WAT WAT WAT WAT WAT WAT WAT WAT 
WAT WAT WAT WAT WAT WAT WAT WAT WAT WAT WAT WAT WAT WAT WAT WAT WAT WAT WAT WAT 
WAT WAT WAT WAT WAT WAT WAT WAT WAT WAT WAT WAT WAT WAT WAT WAT WAT WAT WAT WAT 
WAT WAT WAT WAT WAT WAT WAT WAT WAT WAT WAT WAT WAT WAT WAT WAT WAT WAT WAT WAT 
WAT WAT WAT WAT WAT WAT WAT WAT WAT WAT WAT WAT WAT WAT WAT WAT WAT WAT WAT WAT 
WAT WAT WAT WAT WAT WAT WAT WAT WAT WAT WAT WAT WAT WAT WAT WAT WAT WAT WAT WAT 
WAT WAT WAT WAT WAT WAT WAT WAT WAT WAT WAT WAT WAT WAT WAT WAT WAT WAT WAT WAT 
WAT WAT WAT WAT WAT WAT WAT WAT WAT WAT WAT WAT WAT WAT WAT WAT WAT WAT WAT WAT 
WAT WAT WAT WAT WAT WAT WAT WAT WAT WAT WAT WAT WAT WAT WAT WAT WAT WAT WAT WAT 
WAT WAT WAT WAT WAT WAT WAT WAT WAT WAT WAT WAT WAT WAT WAT WAT WAT WAT WAT WAT 
WAT WAT WAT WAT WAT WAT WAT WAT WAT WAT WAT WAT WAT WAT WAT WAT WAT WAT WAT WAT 
WAT WAT WAT WAT WAT WAT WAT WAT WAT WAT WAT WAT WAT WAT WAT WAT WAT WAT WAT WAT 
WAT WAT WAT WAT WAT WAT WAT WAT WAT WAT WAT WAT WAT WAT WAT WAT WAT WAT WAT WAT 
WAT WAT WAT WAT WAT WAT WAT WAT WAT WAT WAT WAT WAT WAT WAT WAT WAT WAT WAT WAT 
WAT WAT WAT WAT WAT WAT WAT WAT WAT WAT WAT WAT WAT WAT WAT WAT WAT WAT WAT WAT 
WAT WAT WAT WAT WAT WAT WAT WAT WAT WAT WAT WAT WAT WAT WAT WAT WAT WAT WAT WAT 
WAT WAT WAT WAT WAT WAT WAT WAT WAT WAT WAT WAT WAT WAT WAT WAT WAT WAT WAT WAT 
WAT WAT WAT WAT WAT WAT WAT WAT WAT WAT WAT WAT WAT WAT WAT WAT WAT WAT WAT WAT 
WAT WAT WAT WAT WAT WAT WAT WAT WAT WAT WAT WAT WAT WAT WAT WAT WAT WAT WAT WAT 
WAT WAT WAT WAT WAT WAT WAT WAT WAT WAT WAT WAT WAT WAT WAT WAT WAT WAT WAT WAT 
WAT WAT WAT WAT WAT WAT WAT WAT WAT WAT WAT WAT WAT WAT WAT WAT WAT WAT WAT WAT 
WAT WAT WAT WAT WAT WAT WAT WAT WAT WAT WAT WAT WAT WAT WAT WAT WAT WAT WAT WAT 
WAT WAT WAT WAT WAT WAT WAT WAT WAT WAT WAT WAT WAT WAT WAT WAT WAT WAT WAT WAT 
WAT WAT WAT WAT WAT WAT WAT WAT WAT WAT WAT WAT WAT WAT WAT WAT WAT WAT WAT WAT 
WAT WAT WAT WAT WAT WAT WAT WAT WAT WAT WAT WAT WAT WAT WAT WAT WAT WAT WAT WAT 
WAT WAT WAT WAT WAT WAT WAT WAT WAT WAT WAT WAT WAT WAT WAT WAT WAT WAT WAT WAT 
WAT WAT WAT WAT WAT WAT WAT WAT WAT WAT WAT WAT WAT WAT WAT WAT WAT WAT WAT WAT 
WAT WAT WAT WAT WAT WAT WAT WAT WAT WAT WAT WAT WAT WAT WAT WAT WAT WAT WAT WAT 
WAT WAT WAT WAT WAT WAT WAT WAT WAT WAT WAT WAT WAT WAT WAT WAT WAT WAT WAT WAT 
WAT WAT WAT WAT WAT WAT WAT WAT WAT WAT WAT WAT WAT WAT WAT WAT WAT WAT WAT WAT 
WAT WAT WAT WAT WAT WAT WAT WAT WAT WAT WAT WAT WAT WAT WAT WAT WAT WAT WAT WAT 
WAT WAT WAT WAT WAT WAT WAT WAT WAT WAT WAT WAT WAT WAT WAT WAT WAT WAT WAT WAT 
WAT WAT WAT WAT WAT WAT WAT WAT WAT WAT WAT WAT WAT WAT WAT WAT WAT WAT WAT WAT 
WAT WAT WAT WAT WAT WAT WAT WAT WAT WAT WAT WAT WAT WAT WAT WAT WAT WAT WAT WAT 
WAT WAT WAT WAT WAT WAT WAT WAT WAT WAT WAT WAT WAT WAT WAT WAT WAT WAT WAT WAT 
WAT WAT WAT WAT WAT WAT WAT WAT WAT WAT WAT WAT WAT WAT WAT WAT WAT WAT WAT WAT 
WAT WAT WAT WAT WAT WAT WAT WAT WAT WAT WAT WAT WAT WAT WAT WAT WAT WAT WAT WAT 
WAT WAT WAT WAT WAT WAT WAT WAT WAT WAT WAT WAT WAT WAT WAT WAT WAT WAT WAT WAT 
WAT WAT WAT WAT WAT WAT WAT WAT WAT WAT WAT WAT WAT WAT WAT WAT WAT WAT WAT WAT 
WAT WAT WAT WAT WAT WAT WAT WAT WAT WAT WAT WAT WAT WAT WAT WAT WAT WAT WAT WAT 
WAT WAT WAT WAT WAT WAT WAT WAT WAT WAT WAT WAT WAT WAT WAT WAT WAT WAT WAT WAT 
WAT WAT WAT WAT WAT WAT WAT WAT WAT WAT WAT WAT WAT WAT WAT WAT WAT WAT WAT WAT 
WAT WAT WAT WAT WAT WAT WAT WAT WAT WAT WAT WAT WAT WAT WAT WAT WAT WAT WAT WAT 
WAT WAT WAT WAT WAT WAT WAT WAT WAT WAT WAT WAT WAT WAT WAT WAT WAT WAT WAT WAT 
WAT WAT WAT WAT WAT WAT WAT WAT WAT WAT WAT WAT WAT WAT WAT WAT WAT WAT WAT WAT 
WAT WAT WAT WAT WAT WAT WAT WAT WAT WAT WAT WAT WAT WAT WAT WAT WAT WAT WAT WAT 
WAT WAT WAT WAT WAT WAT WAT WAT WAT WAT WAT WAT WAT WAT WAT WAT WAT WAT WAT WAT 
WAT WAT WAT WAT WAT WAT WAT WAT WAT WAT WAT WAT WAT WAT WAT WAT WAT WAT WAT WAT 
WAT WAT WAT WAT WAT WAT WAT WAT WAT WAT WAT WAT WAT WAT WAT WAT WAT WAT WAT WAT 
WAT WAT WAT WAT WAT WAT WAT WAT WAT WAT WAT WAT WAT WAT WAT WAT WAT WAT WAT WAT 
WAT WAT WAT WAT WAT WAT WAT WAT WAT WAT WAT WAT WAT WAT WAT WAT WAT WAT WAT WAT 
WAT WAT WAT WAT WAT WAT WAT WAT WAT WAT WAT WAT WAT WAT WAT WAT WAT WAT WAT WAT 
WAT WAT WAT WAT WAT WAT WAT WAT WAT WAT WAT WAT WAT WAT WAT WAT WAT WAT WAT WAT 
WAT WAT WAT WAT WAT WAT WAT WAT WAT WAT WAT WAT WAT WAT WAT WAT WAT WAT WAT WAT 
WAT WAT WAT WAT WAT WAT WAT WAT WAT WAT WAT WAT WAT WAT WAT WAT WAT WAT WAT WAT 
WAT WAT WAT WAT WAT WAT WAT WAT WAT WAT WAT WAT WAT WAT WAT WAT WAT WAT WAT WAT 
WAT WAT WAT WAT WAT WAT WAT WAT WAT WAT WAT WAT WAT WAT WAT WAT WAT WAT WAT WAT 
WAT WAT WAT WAT WAT WAT WAT WAT WAT WAT WAT WAT WAT WAT WAT WAT WAT WAT WAT WAT 
WAT WAT WAT WAT WAT WAT WAT WAT WAT WAT WAT WAT WAT WAT WAT WAT WAT WAT WAT WAT 
WAT WAT WAT WAT WAT WAT WAT WAT WAT WAT WAT WAT WAT WAT WAT WAT WAT WAT WAT WAT 
WAT WAT WAT WAT WAT WAT WAT WAT WAT WAT WAT WAT WAT WAT WAT WAT WAT WAT WAT WAT 
WAT WAT WAT WAT WAT WAT WAT WAT WAT WAT WAT WAT WAT WAT WAT WAT WAT WAT WAT WAT 
WAT WAT WAT WAT WAT WAT WAT WAT WAT WAT WAT WAT WAT WAT WAT WAT WAT WAT WAT WAT 
WAT WAT WAT WAT WAT WAT WAT WAT WAT WAT WAT WAT WAT WAT WAT WAT WAT WAT WAT WAT 
WAT WAT WAT WAT WAT WAT WAT WAT WAT WAT WAT WAT WAT WAT WAT WAT WAT WAT WAT WAT 
WAT WAT WAT WAT WAT WAT WAT WAT WAT WAT WAT WAT WAT WAT WAT WAT WAT WAT WAT WAT 
WAT WAT WAT WAT WAT WAT WAT WAT WAT WAT WAT WAT WAT WAT WAT WAT WAT WAT WAT WAT 
WAT WAT WAT WAT WAT WAT WAT WAT WAT WAT WAT WAT WAT WAT WAT WAT WAT WAT WAT WAT 
WAT WAT WAT WAT WAT WAT WAT WAT WAT WAT WAT WAT WAT WAT WAT WAT WAT WAT WAT WAT 
WAT WAT WAT WAT WAT WAT WAT WAT WAT WAT WAT WAT WAT WAT WAT WAT WAT WAT WAT WAT 
WAT WAT WAT WAT WAT WAT WAT WAT WAT WAT WAT WAT WAT WAT WAT WAT WAT WAT WAT WAT 
WAT WAT WAT WAT WAT WAT WAT WAT WAT WAT WAT WAT WAT WAT WAT WAT WAT WAT WAT WAT 
WAT WAT WAT WAT WAT WAT WAT WAT WAT WAT WAT WAT WAT WAT WAT WAT WAT WAT WAT WAT 
WAT WAT WAT WAT WAT WAT WAT WAT WAT WAT WAT WAT WAT WAT WAT WAT WAT WAT WAT WAT 
WAT WAT WAT WAT WAT WAT WAT WAT WAT WAT WAT WAT WAT WAT WAT WAT WAT WAT WAT WAT 
WAT WAT WAT WAT WAT WAT WAT WAT WAT WAT WAT WAT WAT WAT WAT WAT WAT WAT WAT WAT 
WAT WAT WAT WAT WAT WAT WAT WAT WAT WAT WAT WAT WAT WAT WAT WAT WAT WAT WAT WAT 
WAT WAT WAT WAT WAT WAT WAT WAT WAT WAT WAT WAT WAT WAT WAT WAT WAT WAT WAT WAT 
WAT WAT WAT WAT WAT WAT WAT WAT WAT WAT WAT WAT WAT WAT WAT WAT WAT WAT WAT WAT 
WAT WAT WAT WAT WAT WAT WAT WAT WAT WAT WAT WAT WAT WAT WAT WAT WAT WAT WAT WAT 
WAT WAT WAT WAT WAT WAT WAT WAT WAT WAT WAT WAT WAT WAT WAT WAT WAT WAT WAT WAT 
WAT WAT WAT WAT WAT WAT WAT WAT WAT WAT WAT WAT WAT WAT WAT WAT WAT WAT WAT WAT 
WAT WAT WAT WAT WAT WAT WAT WAT WAT WAT WAT WAT WAT WAT WAT WAT WAT WAT WAT WAT 
WAT WAT WAT WAT WAT WAT WAT WAT WAT WAT WAT WAT WAT WAT WAT WAT WAT WAT WAT WAT 
WAT WAT WAT WAT WAT WAT WAT WAT WAT WAT WAT WAT WAT WAT WAT WAT WAT WAT WAT WAT 
WAT WAT WAT WAT WAT WAT WAT WAT WAT WAT WAT WAT WAT WAT WAT WAT WAT WAT WAT WAT 
WAT WAT WAT WAT WAT WAT WAT WAT WAT WAT WAT WAT WAT WAT WAT WAT WAT WAT WAT WAT 
WAT WAT WAT WAT WAT WAT WAT WAT WAT WAT WAT WAT WAT WAT WAT WAT WAT WAT WAT WAT 
WAT WAT WAT WAT WAT WAT WAT WAT WAT WAT WAT WAT WAT WAT WAT WAT WAT WAT WAT WAT 
WAT WAT WAT WAT WAT WAT WAT WAT WAT WAT WAT WAT WAT WAT WAT WAT WAT WAT WAT WAT 
WAT WAT WAT WAT WAT WAT WAT WAT WAT WAT WAT WAT WAT WAT WAT WAT WAT WAT WAT WAT 
WAT WAT WAT WAT WAT WAT WAT WAT WAT WAT WAT WAT WAT WAT WAT WAT WAT WAT WAT WAT 
WAT WAT WAT WAT WAT WAT WAT WAT WAT WAT WAT WAT WAT WAT WAT WAT WAT WAT WAT WAT 
WAT WAT WAT WAT WAT WAT WAT WAT WAT WAT WAT WAT WAT WAT WAT WAT WAT WAT WAT WAT 
WAT WAT WAT WAT WAT WAT WAT WAT WAT WAT WAT WAT WAT WAT WAT WAT WAT WAT WAT WAT 
WAT WAT WAT WAT WAT WAT WAT WAT WAT WAT WAT WAT WAT WAT WAT WAT WAT WAT WAT WAT 
WAT WAT WAT WAT WAT WAT WAT WAT WAT WAT WAT WAT WAT WAT WAT WAT WAT WAT WAT WAT 
WAT WAT WAT WAT WAT WAT WAT WAT WAT WAT WAT WAT WAT WAT WAT WAT WAT WAT WAT WAT 
WAT WAT WAT WAT WAT WAT WAT WAT WAT WAT WAT WAT WAT WAT WAT WAT WAT WAT WAT WAT 
WAT WAT WAT WAT WAT WAT WAT WAT WAT WAT WAT WAT WAT WAT WAT WAT WAT WAT WAT WAT 
WAT WAT WAT WAT WAT WAT WAT WAT WAT WAT WAT WAT WAT WAT WAT WAT WAT WAT WAT WAT 
WAT WAT WAT WAT WAT WAT WAT WAT WAT WAT WAT WAT WAT WAT WAT WAT WAT WAT WAT WAT 
WAT WAT WAT WAT WAT WAT WAT WAT WAT WAT WAT WAT WAT WAT WAT WAT WAT WAT WAT WAT 
WAT WAT WAT WAT WAT WAT WAT WAT WAT WAT WAT WAT WAT WAT WAT WAT WAT WAT WAT WAT 
WAT WAT WAT WAT WAT WAT WAT WAT WAT WAT WAT WAT WAT WAT WAT WAT WAT WAT WAT WAT 
WAT WAT WAT WAT WAT WAT WAT WAT WAT WAT WAT WAT WAT WAT WAT WAT WAT WAT WAT WAT 
WAT WAT WAT WAT WAT WAT WAT WAT WAT WAT WAT WAT WAT WAT WAT WAT WAT WAT WAT WAT 
WAT WAT WAT WAT WAT WAT WAT WAT WAT WAT WAT WAT WAT WAT WAT WAT WAT WAT WAT WAT 
WAT WAT WAT WAT WAT WAT WAT WAT WAT WAT WAT WAT WAT WAT WAT WAT WAT WAT WAT WAT 
WAT WAT WAT WAT WAT WAT WAT WAT WAT WAT WAT WAT WAT WAT WAT WAT WAT WAT WAT WAT 
WAT WAT WAT WAT WAT WAT WAT WAT WAT WAT WAT WAT WAT WAT WAT WAT WAT WAT WAT WAT 
WAT WAT WAT WAT WAT WAT WAT WAT WAT WAT WAT WAT WAT WAT WAT WAT WAT WAT WAT WAT 
WAT WAT WAT WAT WAT WAT WAT WAT WAT WAT WAT WAT WAT WAT WAT WAT WAT WAT WAT WAT 
WAT WAT WAT WAT WAT WAT WAT WAT WAT WAT WAT WAT WAT WAT WAT WAT WAT WAT WAT WAT 
WAT WAT WAT WAT WAT WAT WAT WAT WAT WAT WAT WAT WAT WAT WAT WAT WAT WAT WAT WAT 
WAT WAT WAT WAT WAT WAT WAT WAT WAT WAT WAT WAT WAT WAT WAT WAT WAT WAT WAT WAT 
WAT WAT WAT WAT WAT WAT WAT WAT WAT WAT WAT WAT WAT WAT WAT WAT WAT WAT WAT WAT 
WAT WAT WAT WAT WAT WAT WAT WAT WAT WAT WAT WAT WAT WAT WAT WAT WAT WAT WAT WAT 
WAT WAT WAT WAT WAT WAT WAT WAT WAT WAT WAT WAT WAT WAT WAT WAT WAT WAT WAT WAT 
WAT WAT WAT WAT WAT WAT WAT WAT WAT WAT WAT WAT WAT WAT WAT WAT WAT WAT WAT WAT 
WAT WAT WAT WAT WAT WAT WAT WAT WAT WAT WAT WAT WAT WAT WAT WAT WAT WAT WAT WAT 
WAT WAT WAT WAT WAT WAT WAT WAT WAT WAT WAT WAT WAT WAT WAT WAT WAT WAT WAT WAT 
WAT WAT WAT WAT WAT WAT WAT WAT WAT WAT WAT WAT WAT WAT WAT WAT WAT WAT WAT WAT 
WAT WAT WAT WAT WAT WAT WAT WAT WAT WAT WAT WAT WAT WAT WAT WAT WAT WAT WAT WAT 
WAT WAT WAT WAT WAT WAT WAT WAT WAT WAT WAT WAT WAT WAT WAT WAT WAT WAT WAT WAT 
WAT WAT WAT WAT WAT WAT WAT WAT WAT WAT WAT WAT WAT WAT WAT WAT WAT WAT WAT WAT 
WAT WAT WAT WAT WAT WAT WAT WAT WAT WAT WAT WAT WAT WAT WAT WAT WAT WAT WAT WAT 
WAT WAT WAT WAT WAT WAT WAT WAT WAT WAT WAT WAT WAT WAT WAT WAT WAT WAT WAT WAT 
WAT WAT WAT WAT WAT WAT WAT WAT WAT WAT WAT WAT WAT WAT WAT WAT WAT WAT WAT WAT 
WAT WAT WAT WAT WAT WAT WAT WAT WAT WAT WAT WAT WAT WAT WAT WAT WAT WAT WAT WAT 
WAT WAT WAT WAT WAT WAT WAT WAT WAT WAT WAT WAT WAT WAT WAT WAT WAT WAT WAT WAT 
WAT WAT WAT WAT WAT WAT WAT WAT WAT WAT WAT WAT WAT WAT WAT WAT WAT WAT WAT WAT 
WAT WAT WAT WAT WAT WAT WAT WAT WAT WAT WAT WAT WAT WAT WAT WAT WAT WAT WAT WAT 
WAT WAT WAT WAT WAT WAT WAT WAT WAT WAT WAT WAT WAT WAT WAT WAT WAT WAT WAT WAT 
WAT WAT WAT WAT WAT WAT WAT WAT WAT WAT WAT WAT WAT WAT WAT WAT WAT WAT WAT WAT 
WAT WAT WAT WAT WAT WAT WAT WAT WAT WAT WAT WAT WAT WAT WAT WAT WAT WAT WAT WAT 
WAT WAT WAT WAT WAT WAT WAT WAT WAT WAT WAT WAT WAT WAT WAT WAT WAT WAT WAT WAT 
WAT WAT WAT WAT WAT WAT WAT WAT WAT WAT WAT WAT WAT WAT WAT WAT WAT WAT WAT WAT 
WAT WAT WAT WAT WAT WAT WAT WAT WAT WAT WAT WAT WAT WAT WAT WAT WAT WAT WAT WAT 
WAT WAT WAT WAT WAT WAT WAT WAT WAT WAT WAT WAT WAT WAT WAT WAT WAT WAT WAT WAT 
WAT WAT WAT WAT WAT WAT WAT WAT WAT WAT WAT WAT WAT WAT WAT WAT WAT WAT WAT WAT 
WAT WAT WAT WAT WAT WAT WAT WAT WAT WAT WAT WAT WAT WAT WAT WAT WAT WAT WAT WAT 
WAT WAT WAT WAT WAT WAT WAT WAT WAT WAT WAT WAT WAT WAT WAT WAT WAT WAT WAT WAT 
WAT WAT WAT WAT WAT WAT WAT WAT WAT WAT WAT WAT WAT WAT WAT WAT WAT WAT WAT WAT 
WAT WAT WAT WAT WAT WAT WAT WAT WAT WAT WAT WAT WAT WAT WAT WAT WAT WAT WAT WAT 
WAT WAT WAT WAT WAT WAT WAT WAT WAT WAT WAT WAT WAT WAT WAT WAT WAT WAT WAT WAT 
WAT WAT WAT WAT WAT WAT WAT WAT WAT WAT WAT WAT WAT WAT WAT WAT WAT WAT WAT WAT 
WAT WAT WAT WAT WAT WAT WAT WAT WAT WAT WAT WAT WAT WAT WAT WAT WAT WAT WAT WAT 
WAT WAT WAT WAT WAT WAT WAT WAT WAT WAT WAT WAT WAT WAT WAT WAT WAT WAT WAT WAT 
WAT WAT WAT WAT WAT WAT WAT WAT WAT WAT WAT WAT WAT WAT WAT WAT WAT WAT WAT WAT 
WAT WAT WAT WAT WAT WAT WAT WAT WAT WAT WAT WAT WAT WAT WAT WAT WAT WAT WAT WAT 
WAT WAT WAT WAT WAT WAT WAT WAT WAT WAT WAT WAT WAT WAT WAT WAT WAT WAT WAT WAT 
WAT WAT WAT WAT WAT WAT WAT WAT WAT WAT WAT WAT WAT WAT WAT WAT WAT WAT WAT WAT 
WAT WAT WAT WAT WAT WAT WAT WAT WAT WAT WAT WAT WAT WAT WAT WAT WAT WAT WAT WAT 
WAT WAT WAT WAT WAT WAT WAT WAT WAT WAT WAT WAT WAT WAT WAT WAT WAT WAT WAT WAT 
WAT WAT WAT WAT WAT WAT WAT WAT WAT WAT WAT WAT WAT WAT WAT WAT WAT WAT WAT WAT 
WAT WAT WAT WAT WAT WAT WAT WAT WAT WAT WAT WAT WAT WAT WAT WAT WAT WAT WAT WAT 
WAT WAT WAT WAT WAT WAT WAT WAT WAT WAT WAT WAT WAT WAT WAT WAT WAT WAT WAT WAT 
WAT WAT WAT WAT WAT WAT WAT WAT WAT WAT WAT WAT WAT WAT WAT WAT WAT WAT WAT WAT 
WAT WAT WAT WAT WAT WAT WAT WAT WAT WAT WAT WAT WAT WAT WAT WAT WAT WAT WAT WAT 
WAT WAT WAT WAT WAT WAT WAT WAT WAT WAT WAT WAT WAT WAT WAT WAT WAT WAT WAT WAT 
WAT WAT WAT WAT WAT WAT WAT WAT WAT WAT WAT WAT WAT WAT WAT WAT WAT WAT WAT WAT 
WAT WAT WAT WAT WAT WAT WAT WAT WAT WAT WAT WAT WAT WAT WAT WAT WAT WAT WAT WAT 
WAT WAT WAT WAT WAT WAT WAT WAT WAT WAT WAT WAT WAT WAT WAT WAT WAT WAT WAT WAT 
WAT WAT WAT WAT WAT WAT WAT WAT WAT WAT WAT WAT WAT WAT WAT WAT WAT WAT WAT WAT 
WAT WAT WAT WAT WAT WAT WAT WAT WAT WAT WAT WAT WAT WAT WAT WAT WAT WAT WAT WAT 
WAT WAT WAT WAT WAT WAT WAT WAT WAT WAT WAT WAT WAT WAT WAT WAT WAT WAT WAT WAT 
WAT WAT WAT WAT WAT WAT WAT WAT WAT WAT WAT WAT WAT WAT WAT WAT WAT WAT WAT WAT 
WAT WAT WAT WAT WAT WAT WAT WAT WAT WAT WAT WAT WAT WAT WAT WAT WAT WAT WAT WAT 
WAT WAT WAT WAT WAT WAT WAT WAT WAT WAT WAT WAT WAT WAT WAT WAT WAT WAT WAT WAT 
WAT WAT WAT WAT WAT WAT WAT WAT WAT WAT WAT WAT WAT WAT WAT WAT WAT WAT WAT WAT 
WAT WAT WAT WAT WAT WAT WAT WAT WAT WAT WAT WAT WAT WAT WAT WAT WAT WAT WAT WAT 
WAT WAT WAT WAT WAT WAT WAT WAT WAT WAT WAT WAT WAT WAT WAT WAT WAT WAT WAT WAT 
WAT WAT WAT WAT WAT WAT WAT WAT WAT WAT WAT WAT WAT WAT WAT WAT WAT WAT WAT WAT 
WAT WAT WAT WAT WAT WAT WAT WAT WAT WAT WAT WAT WAT WAT WAT WAT WAT WAT WAT WAT 
WAT WAT WAT WAT WAT WAT WAT WAT WAT WAT WAT WAT WAT WAT WAT WAT WAT WAT WAT WAT 
WAT WAT WAT WAT WAT WAT WAT WAT WAT WAT WAT WAT WAT WAT WAT WAT WAT WAT WAT WAT 
WAT WAT WAT WAT WAT WAT WAT WAT WAT WAT WAT WAT WAT WAT WAT WAT WAT WAT WAT WAT 
WAT WAT WAT WAT WAT WAT WAT WAT WAT WAT WAT WAT WAT WAT WAT WAT WAT WAT WAT WAT 
WAT WAT WAT WAT WAT WAT WAT WAT WAT WAT WAT WAT WAT WAT WAT WAT WAT WAT WAT WAT 
WAT WAT WAT WAT WAT WAT WAT WAT WAT WAT WAT WAT WAT WAT WAT WAT WAT WAT WAT WAT 
WAT WAT WAT WAT WAT WAT WAT WAT WAT WAT WAT WAT WAT WAT WAT WAT WAT WAT WAT WAT 
WAT WAT WAT WAT WAT WAT WAT WAT WAT WAT WAT WAT WAT WAT WAT WAT WAT WAT WAT WAT 
WAT WAT WAT WAT WAT WAT WAT WAT WAT WAT WAT WAT WAT WAT WAT WAT WAT WAT WAT WAT 
WAT WAT WAT WAT WAT WAT WAT WAT WAT WAT WAT WAT WAT WAT WAT WAT WAT WAT WAT WAT 
WAT WAT WAT WAT WAT WAT WAT WAT WAT WAT WAT WAT WAT WAT WAT WAT WAT WAT WAT WAT 
WAT WAT WAT WAT WAT WAT WAT WAT WAT WAT WAT WAT WAT WAT WAT WAT WAT WAT WAT WAT 
WAT WAT WAT WAT WAT WAT WAT WAT WAT WAT WAT WAT WAT WAT WAT WAT WAT WAT WAT WAT 
WAT WAT WAT WAT WAT WAT WAT WAT WAT WAT WAT WAT WAT WAT WAT WAT WAT WAT WAT WAT 
WAT WAT WAT WAT WAT WAT WAT WAT WAT WAT WAT WAT WAT WAT WAT WAT WAT WAT WAT WAT 
WAT WAT WAT WAT WAT WAT WAT WAT WAT WAT WAT WAT WAT WAT WAT WAT WAT WAT WAT WAT 
WAT WAT WAT WAT WAT WAT WAT WAT WAT WAT WAT WAT WAT WAT WAT WAT WAT WAT WAT WAT 
WAT WAT WAT WAT WAT WAT WAT WAT WAT WAT WAT WAT WAT WAT WAT WAT WAT WAT WAT WAT 
WAT WAT WAT WAT WAT WAT WAT WAT WAT WAT WAT WAT WAT WAT WAT WAT WAT WAT WAT WAT 
WAT WAT WAT WAT WAT WAT WAT WAT WAT WAT WAT WAT WAT WAT WAT WAT WAT WAT WAT WAT 
WAT WAT WAT WAT WAT WAT WAT WAT WAT WAT WAT WAT WAT WAT WAT WAT WAT WAT WAT WAT 
WAT WAT WAT WAT WAT WAT WAT WAT WAT WAT WAT WAT WAT WAT WAT WAT WAT WAT WAT WAT 
WAT WAT WAT WAT WAT WAT WAT WAT WAT WAT WAT WAT WAT WAT WAT WAT WAT WAT WAT WAT 
WAT WAT WAT WAT WAT WAT WAT WAT WAT WAT WAT WAT WAT WAT WAT WAT WAT WAT WAT WAT 
WAT WAT WAT WAT WAT WAT WAT WAT WAT WAT WAT WAT WAT WAT WAT WAT WAT WAT WAT WAT 
WAT WAT WAT WAT WAT WAT WAT WAT WAT WAT WAT WAT WAT WAT WAT WAT WAT WAT WAT WAT 
WAT WAT WAT WAT WAT WAT WAT WAT WAT WAT WAT WAT WAT WAT WAT WAT WAT WAT WAT WAT 
WAT WAT WAT WAT WAT WAT WAT WAT WAT WAT WAT WAT WAT WAT WAT WAT WAT WAT WAT WAT 
WAT WAT WAT WAT WAT WAT WAT WAT WAT WAT WAT WAT WAT WAT WAT WAT WAT WAT WAT WAT 
WAT WAT WAT WAT WAT WAT WAT WAT WAT WAT WAT WAT WAT WAT WAT WAT WAT WAT WAT WAT 
WAT WAT WAT WAT WAT WAT WAT WAT WAT WAT WAT WAT WAT WAT WAT WAT WAT WAT WAT WAT 
WAT WAT WAT WAT WAT WAT WAT WAT WAT WAT WAT WAT WAT WAT WAT WAT WAT WAT WAT WAT 
WAT WAT WAT WAT WAT WAT WAT WAT WAT WAT WAT WAT WAT WAT WAT WAT WAT WAT WAT WAT 
WAT WAT WAT WAT WAT WAT WAT WAT WAT WAT WAT WAT WAT WAT WAT WAT WAT WAT WAT WAT 
WAT WAT WAT WAT WAT WAT WAT WAT WAT WAT WAT WAT WAT WAT WAT WAT WAT WAT WAT WAT 
WAT WAT WAT WAT WAT WAT WAT WAT WAT WAT WAT WAT WAT WAT WAT WAT WAT WAT WAT WAT 
WAT WAT WAT WAT WAT WAT WAT WAT WAT WAT WAT WAT WAT WAT WAT WAT WAT WAT WAT WAT 
WAT WAT WAT WAT WAT WAT WAT WAT WAT WAT WAT WAT WAT WAT WAT WAT WAT WAT WAT WAT 
WAT WAT WAT WAT WAT WAT WAT WAT WAT WAT WAT WAT WAT WAT WAT WAT WAT WAT WAT WAT 
WAT WAT WAT WAT WAT WAT WAT WAT WAT WAT WAT WAT WAT WAT WAT WAT WAT WAT WAT WAT 
WAT WAT WAT WAT WAT WAT WAT WAT WAT WAT WAT WAT WAT WAT WAT WAT WAT WAT WAT WAT 
WAT WAT WAT WAT WAT WAT WAT WAT WAT WAT WAT WAT WAT WAT WAT WAT WAT WAT WAT WAT 
WAT WAT WAT WAT WAT WAT WAT WAT WAT WAT WAT WAT WAT WAT WAT WAT WAT WAT WAT WAT 
WAT WAT WAT WAT WAT WAT WAT WAT WAT WAT WAT WAT WAT WAT WAT WAT WAT WAT WAT WAT 
WAT WAT WAT WAT WAT WAT WAT WAT WAT WAT WAT WAT WAT WAT WAT WAT WAT WAT WAT WAT 
WAT WAT WAT WAT WAT WAT WAT WAT WAT WAT WAT WAT WAT WAT WAT WAT WAT WAT WAT WAT 
WAT WAT WAT WAT WAT WAT WAT WAT WAT WAT WAT WAT WAT WAT WAT WAT WAT WAT WAT WAT 
WAT WAT WAT WAT WAT WAT WAT WAT WAT WAT WAT WAT WAT WAT WAT WAT WAT WAT WAT WAT 
WAT WAT WAT WAT WAT WAT WAT WAT WAT WAT WAT WAT WAT WAT WAT WAT WAT WAT WAT WAT 
WAT WAT WAT WAT WAT WAT WAT WAT WAT WAT WAT WAT WAT WAT WAT WAT WAT WAT WAT WAT 
WAT WAT WAT WAT WAT WAT WAT WAT WAT WAT WAT WAT WAT WAT WAT WAT WAT WAT WAT WAT 
WAT WAT WAT WAT WAT WAT WAT WAT WAT WAT WAT WAT WAT WAT WAT WAT WAT WAT WAT WAT 
WAT WAT WAT WAT WAT WAT WAT WAT WAT WAT WAT WAT WAT WAT WAT WAT WAT WAT WAT WAT 
WAT WAT WAT WAT WAT WAT WAT WAT WAT WAT WAT WAT WAT WAT WAT WAT WAT WAT WAT WAT 
WAT WAT WAT WAT WAT WAT WAT WAT WAT WAT WAT WAT WAT WAT WAT WAT WAT WAT WAT WAT 
WAT WAT WAT WAT WAT WAT WAT WAT WAT WAT WAT WAT WAT WAT WAT WAT WAT WAT WAT WAT 
WAT WAT WAT WAT WAT WAT WAT WAT WAT WAT WAT WAT WAT WAT WAT WAT WAT WAT WAT WAT 
WAT WAT WAT WAT WAT WAT WAT WAT WAT WAT WAT WAT WAT WAT WAT WAT WAT WAT WAT WAT 
WAT WAT WAT WAT WAT WAT WAT WAT WAT WAT WAT WAT WAT WAT WAT WAT WAT WAT WAT WAT 
WAT WAT WAT WAT WAT WAT WAT WAT WAT WAT WAT WAT WAT WAT WAT WAT WAT WAT WAT WAT 
WAT WAT WAT WAT WAT WAT WAT WAT WAT WAT WAT WAT WAT WAT WAT WAT WAT WAT WAT WAT 
WAT WAT WAT WAT WAT WAT WAT WAT WAT WAT WAT WAT WAT WAT WAT WAT WAT WAT WAT WAT 
WAT WAT WAT WAT WAT WAT WAT WAT WAT WAT WAT WAT WAT WAT WAT WAT WAT WAT WAT WAT 
WAT WAT WAT WAT WAT WAT WAT WAT WAT WAT WAT WAT WAT WAT WAT WAT WAT WAT WAT WAT 
WAT WAT WAT WAT WAT WAT WAT WAT WAT WAT WAT WAT WAT WAT WAT WAT WAT WAT WAT WAT 
WAT WAT WAT WAT WAT WAT WAT WAT WAT WAT WAT WAT WAT WAT WAT WAT WAT WAT WAT WAT 
WAT WAT WAT WAT WAT WAT WAT WAT WAT WAT WAT WAT WAT WAT WAT WAT WAT WAT WAT WAT 
WAT WAT WAT WAT WAT WAT WAT WAT WAT WAT WAT WAT WAT WAT WAT WAT WAT WAT WAT WAT 
WAT WAT WAT WAT WAT WAT WAT WAT WAT WAT WAT WAT WAT WAT WAT WAT WAT WAT WAT WAT 
WAT WAT WAT WAT WAT WAT WAT WAT WAT WAT WAT WAT WAT WAT WAT WAT WAT WAT WAT WAT 
WAT WAT WAT WAT WAT WAT WAT WAT WAT WAT WAT WAT WAT WAT WAT WAT WAT WAT WAT WAT 
WAT WAT WAT WAT WAT WAT WAT WAT WAT WAT WAT WAT WAT WAT WAT WAT WAT WAT WAT WAT 
WAT WAT WAT WAT WAT WAT WAT WAT WAT WAT WAT WAT WAT WAT WAT WAT WAT WAT WAT WAT 
WAT WAT WAT WAT WAT WAT WAT WAT WAT WAT WAT WAT WAT WAT WAT WAT WAT WAT WAT WAT 
WAT WAT WAT WAT WAT WAT WAT WAT WAT WAT WAT WAT WAT WAT WAT WAT WAT WAT WAT WAT 
WAT WAT WAT WAT WAT WAT WAT WAT WAT WAT WAT WAT WAT WAT WAT WAT WAT WAT WAT WAT 
WAT WAT WAT WAT WAT WAT WAT WAT WAT WAT WAT WAT WAT WAT WAT WAT WAT WAT WAT WAT 
WAT WAT WAT WAT WAT WAT WAT WAT WAT WAT WAT WAT WAT WAT WAT WAT WAT WAT WAT WAT 
WAT WAT WAT WAT WAT WAT WAT WAT WAT WAT WAT WAT WAT WAT WAT WAT WAT WAT WAT WAT 
WAT WAT WAT WAT WAT WAT WAT WAT WAT WAT WAT WAT WAT WAT WAT WAT WAT WAT WAT WAT 
WAT WAT WAT WAT WAT WAT WAT WAT WAT WAT WAT WAT WAT WAT WAT WAT WAT WAT WAT WAT 
WAT WAT WAT WAT WAT WAT WAT WAT WAT WAT WAT WAT WAT WAT WAT WAT WAT WAT WAT WAT 
WAT WAT WAT WAT WAT WAT WAT WAT WAT WAT WAT WAT WAT WAT WAT WAT WAT WAT WAT WAT 
WAT WAT WAT WAT WAT WAT WAT WAT WAT WAT WAT WAT WAT WAT WAT WAT WAT WAT WAT WAT 
WAT WAT WAT WAT WAT WAT WAT WAT WAT WAT WAT WAT WAT WAT WAT WAT WAT WAT WAT WAT 
WAT WAT WAT WAT WAT WAT WAT WAT WAT WAT WAT WAT WAT WAT WAT WAT WAT WAT WAT WAT 
WAT WAT WAT WAT WAT WAT WAT WAT WAT WAT WAT WAT WAT WAT WAT WAT WAT WAT WAT WAT 
WAT WAT WAT WAT WAT WAT WAT WAT WAT WAT WAT WAT WAT WAT WAT WAT WAT WAT WAT WAT 
WAT WAT WAT WAT WAT WAT WAT WAT WAT WAT WAT WAT WAT WAT WAT WAT WAT WAT WAT WAT 
WAT WAT WAT WAT WAT WAT WAT WAT WAT WAT WAT WAT WAT WAT WAT WAT WAT WAT WAT WAT 
WAT WAT WAT WAT WAT WAT WAT WAT WAT WAT WAT WAT WAT WAT WAT WAT WAT WAT WAT WAT 
WAT WAT WAT WAT WAT WAT WAT WAT WAT WAT WAT WAT WAT WAT WAT WAT WAT WAT WAT WAT 
WAT WAT WAT WAT WAT WAT WAT WAT WAT WAT WAT WAT WAT WAT WAT WAT WAT WAT WAT WAT 
WAT WAT WAT WAT WAT WAT WAT WAT WAT WAT WAT WAT WAT WAT WAT WAT WAT WAT WAT WAT 
WAT WAT WAT WAT WAT WAT WAT WAT WAT WAT WAT WAT WAT WAT WAT WAT WAT WAT WAT WAT 
WAT WAT WAT WAT WAT WAT WAT WAT WAT WAT WAT WAT WAT WAT WAT WAT WAT WAT WAT WAT 
WAT WAT WAT WAT WAT WAT WAT WAT WAT WAT WAT WAT WAT WAT WAT WAT WAT WAT WAT WAT 
WAT WAT WAT WAT WAT WAT WAT WAT WAT WAT WAT WAT WAT WAT WAT WAT WAT WAT WAT WAT 
WAT WAT WAT WAT WAT WAT WAT WAT WAT WAT WAT WAT WAT WAT WAT WAT WAT WAT WAT WAT 
WAT WAT WAT WAT WAT WAT WAT WAT WAT WAT WAT WAT WAT WAT WAT WAT WAT WAT WAT WAT 
WAT WAT WAT WAT WAT WAT WAT WAT WAT WAT WAT WAT WAT WAT WAT WAT WAT WAT WAT WAT 
WAT WAT WAT WAT WAT WAT WAT WAT WAT WAT WAT WAT WAT WAT WAT WAT WAT WAT WAT WAT 
WAT WAT WAT WAT WAT WAT WAT WAT WAT WAT WAT WAT WAT WAT WAT WAT WAT WAT WAT WAT 
WAT WAT WAT WAT WAT WAT WAT WAT WAT WAT WAT WAT WAT WAT WAT WAT WAT WAT WAT WAT 
WAT WAT WAT WAT WAT WAT WAT WAT WAT WAT WAT WAT WAT WAT WAT WAT WAT WAT WAT WAT 
WAT WAT WAT WAT WAT WAT WAT WAT WAT WAT WAT WAT WAT WAT WAT WAT WAT WAT WAT WAT 
WAT WAT WAT WAT WAT WAT WAT WAT WAT WAT WAT WAT WAT WAT WAT WAT WAT WAT WAT WAT 
WAT WAT WAT WAT WAT WAT WAT WAT WAT WAT WAT WAT WAT WAT WAT WAT WAT WAT WAT WAT 
WAT WAT WAT WAT WAT WAT WAT WAT WAT WAT WAT WAT WAT WAT WAT WAT WAT WAT WAT WAT 
WAT WAT WAT WAT WAT WAT WAT WAT WAT WAT WAT WAT WAT WAT WAT WAT WAT WAT WAT WAT 
WAT WAT WAT WAT WAT WAT WAT WAT WAT WAT WAT WAT WAT WAT WAT WAT WAT WAT WAT WAT 
WAT WAT WAT WAT WAT WAT WAT WAT WAT WAT WAT WAT WAT WAT WAT WAT WAT WAT WAT WAT 
WAT WAT WAT WAT WAT WAT WAT WAT WAT WAT WAT WAT WAT WAT WAT WAT WAT WAT WAT WAT 
WAT WAT WAT WAT WAT WAT WAT WAT WAT WAT WAT WAT WAT WAT WAT WAT WAT WAT WAT WAT 
WAT WAT WAT WAT WAT WAT WAT WAT WAT WAT WAT WAT WAT WAT WAT WAT WAT WAT WAT WAT 
WAT WAT WAT WAT WAT WAT WAT WAT WAT WAT WAT WAT WAT WAT WAT WAT WAT WAT WAT WAT 
WAT WAT WAT WAT WAT WAT WAT WAT WAT WAT WAT WAT WAT WAT WAT WAT WAT WAT WAT WAT 
WAT WAT WAT WAT WAT WAT WAT WAT WAT WAT WAT WAT WAT WAT WAT WAT WAT WAT WAT WAT 
WAT WAT WAT WAT WAT WAT WAT WAT WAT WAT WAT WAT WAT WAT WAT WAT WAT WAT WAT WAT 
WAT WAT WAT WAT WAT WAT WAT WAT WAT WAT WAT WAT WAT WAT WAT WAT WAT WAT WAT WAT 
WAT WAT WAT WAT WAT WAT WAT WAT WAT WAT WAT WAT WAT WAT WAT WAT WAT WAT WAT WAT 
WAT WAT WAT WAT WAT WAT WAT WAT WAT WAT WAT WAT WAT WAT WAT WAT WAT WAT WAT WAT 
WAT WAT WAT WAT WAT WAT WAT WAT WAT WAT WAT WAT WAT WAT WAT WAT WAT WAT WAT WAT 
WAT WAT WAT WAT WAT WAT WAT WAT WAT WAT WAT WAT WAT WAT WAT WAT WAT WAT WAT WAT 
WAT WAT WAT WAT WAT WAT WAT WAT WAT WAT WAT WAT WAT WAT WAT WAT WAT WAT WAT WAT 
WAT WAT WAT WAT WAT WAT WAT WAT WAT WAT WAT WAT WAT WAT WAT WAT WAT WAT WAT WAT 
WAT WAT WAT WAT WAT WAT WAT WAT WAT WAT WAT WAT WAT WAT WAT WAT WAT WAT WAT WAT 
WAT WAT WAT WAT WAT WAT WAT WAT WAT WAT WAT WAT WAT WAT WAT WAT WAT WAT WAT WAT 
WAT WAT WAT WAT WAT WAT WAT WAT WAT WAT WAT WAT WAT WAT WAT WAT WAT WAT WAT WAT 
WAT WAT WAT WAT WAT WAT WAT WAT WAT WAT WAT WAT WAT WAT WAT WAT WAT WAT WAT WAT 
WAT WAT WAT WAT WAT WAT WAT WAT WAT WAT WAT WAT WAT WAT WAT WAT WAT WAT WAT WAT 
WAT WAT WAT WAT WAT WAT WAT WAT WAT WAT WAT WAT WAT WAT WAT WAT WAT WAT WAT WAT 
WAT WAT WAT WAT WAT WAT WAT WAT WAT WAT WAT WAT WAT WAT WAT WAT WAT WAT WAT WAT 
WAT WAT WAT WAT WAT WAT WAT WAT WAT WAT WAT WAT WAT WAT WAT WAT WAT WAT WAT WAT 
WAT WAT WAT WAT WAT WAT WAT WAT WAT WAT WAT WAT WAT WAT WAT WAT WAT WAT WAT WAT 
WAT WAT WAT WAT WAT WAT WAT WAT WAT WAT WAT WAT WAT WAT WAT WAT WAT WAT WAT WAT 
WAT WAT WAT WAT WAT WAT WAT WAT WAT WAT WAT WAT WAT WAT WAT WAT WAT WAT WAT WAT 
WAT WAT WAT WAT WAT WAT WAT WAT WAT WAT WAT WAT WAT WAT WAT WAT WAT WAT WAT WAT 
WAT WAT WAT WAT WAT WAT WAT WAT WAT WAT WAT WAT WAT WAT WAT WAT WAT WAT WAT WAT 
WAT WAT WAT WAT WAT WAT WAT WAT WAT WAT WAT WAT WAT WAT WAT WAT WAT WAT WAT WAT 
WAT WAT WAT WAT WAT WAT WAT WAT WAT WAT WAT WAT WAT WAT WAT WAT WAT WAT WAT WAT 
WAT WAT WAT WAT WAT WAT WAT WAT WAT WAT WAT WAT WAT WAT WAT WAT WAT WAT WAT WAT 
WAT WAT WAT WAT WAT WAT WAT WAT WAT WAT WAT WAT WAT WAT WAT WAT WAT WAT WAT WAT 
WAT WAT WAT WAT WAT WAT WAT WAT WAT WAT WAT WAT WAT WAT WAT WAT WAT WAT WAT WAT 
WAT WAT WAT WAT WAT WAT WAT WAT WAT WAT WAT WAT WAT WAT WAT WAT WAT WAT WAT WAT 
WAT WAT WAT WAT WAT WAT WAT WAT WAT WAT WAT WAT WAT WAT WAT WAT WAT WAT WAT WAT 
WAT WAT WAT WAT WAT WAT WAT WAT WAT WAT WAT WAT WAT WAT WAT WAT WAT WAT WAT WAT 
WAT WAT WAT WAT WAT WAT WAT WAT WAT WAT WAT WAT WAT WAT WAT WAT WAT WAT WAT WAT 
WAT WAT WAT WAT WAT WAT WAT WAT WAT WAT WAT WAT WAT WAT WAT WAT WAT WAT WAT WAT 
WAT WAT WAT WAT WAT WAT WAT WAT WAT WAT WAT WAT WAT WAT WAT WAT WAT WAT WAT WAT 
WAT WAT WAT WAT WAT WAT WAT WAT WAT WAT WAT WAT WAT WAT WAT WAT WAT WAT WAT WAT 
WAT WAT WAT WAT WAT WAT WAT WAT WAT WAT WAT WAT WAT WAT WAT WAT WAT WAT WAT WAT 
WAT WAT WAT WAT WAT WAT WAT WAT WAT WAT WAT WAT WAT WAT WAT WAT WAT WAT WAT WAT 
WAT WAT WAT WAT WAT WAT WAT WAT WAT WAT WAT WAT WAT WAT WAT WAT WAT WAT WAT WAT 
WAT WAT WAT WAT WAT WAT WAT WAT WAT WAT WAT WAT WAT WAT WAT WAT WAT WAT WAT WAT 
WAT WAT WAT WAT WAT WAT WAT WAT WAT WAT WAT WAT WAT WAT WAT WAT WAT WAT WAT WAT 
WAT WAT WAT WAT WAT WAT WAT WAT WAT WAT WAT WAT WAT WAT WAT WAT WAT WAT WAT WAT 
WAT WAT WAT WAT WAT WAT WAT WAT WAT WAT WAT WAT WAT WAT WAT WAT WAT WAT WAT WAT 
WAT WAT WAT WAT WAT WAT WAT WAT WAT WAT WAT WAT WAT WAT WAT WAT WAT WAT WAT WAT 
WAT WAT WAT WAT WAT WAT WAT WAT WAT WAT WAT WAT WAT WAT WAT WAT WAT WAT WAT WAT 
WAT WAT WAT WAT WAT WAT WAT WAT WAT WAT WAT WAT WAT WAT WAT WAT WAT WAT WAT WAT 
WAT WAT WAT WAT WAT WAT WAT WAT WAT WAT WAT WAT WAT WAT WAT WAT WAT WAT WAT WAT 
WAT WAT WAT WAT WAT WAT WAT WAT WAT WAT WAT WAT WAT WAT WAT WAT WAT WAT WAT WAT 
WAT WAT WAT WAT WAT WAT WAT WAT WAT WAT WAT WAT WAT WAT WAT WAT WAT WAT WAT WAT 
WAT WAT WAT WAT WAT WAT WAT WAT WAT WAT WAT WAT WAT WAT WAT WAT WAT WAT WAT WAT 
WAT WAT WAT WAT WAT WAT WAT WAT WAT WAT WAT WAT WAT WAT WAT WAT WAT WAT WAT WAT 
WAT WAT WAT WAT WAT WAT WAT WAT WAT WAT WAT WAT WAT WAT WAT WAT WAT WAT WAT WAT 
WAT WAT WAT WAT WAT WAT WAT WAT WAT WAT WAT WAT WAT WAT WAT WAT WAT WAT WAT WAT 
WAT WAT WAT WAT WAT WAT WAT WAT WAT WAT WAT WAT WAT WAT WAT WAT WAT WAT WAT WAT 
WAT WAT WAT WAT WAT WAT WAT WAT WAT WAT WAT WAT WAT WAT WAT WAT WAT WAT WAT WAT 
WAT WAT WAT WAT WAT WAT WAT WAT WAT WAT WAT WAT WAT WAT WAT WAT WAT WAT WAT WAT 
WAT WAT WAT WAT WAT WAT WAT WAT WAT WAT WAT WAT WAT WAT WAT WAT WAT WAT WAT WAT 
WAT WAT WAT WAT WAT WAT WAT WAT WAT WAT WAT WAT WAT WAT WAT WAT WAT WAT WAT WAT 
WAT WAT WAT WAT WAT WAT WAT WAT WAT WAT WAT WAT WAT WAT WAT WAT WAT WAT WAT WAT 
WAT WAT WAT WAT WAT WAT WAT WAT WAT WAT WAT WAT WAT WAT WAT WAT WAT WAT WAT WAT 
WAT WAT WAT WAT WAT WAT WAT WAT WAT WAT WAT WAT WAT WAT WAT WAT WAT WAT WAT WAT 
WAT WAT WAT WAT WAT WAT WAT WAT WAT WAT WAT WAT WAT WAT WAT WAT WAT WAT WAT WAT 
WAT WAT WAT WAT WAT WAT WAT WAT WAT WAT WAT WAT WAT WAT WAT WAT WAT WAT WAT WAT 
WAT WAT WAT WAT WAT WAT WAT WAT WAT WAT WAT WAT WAT WAT WAT WAT WAT WAT WAT WAT 
WAT WAT WAT WAT WAT WAT WAT WAT WAT WAT WAT WAT WAT WAT WAT WAT WAT WAT WAT WAT 
WAT WAT WAT WAT WAT WAT WAT WAT WAT WAT WAT WAT WAT WAT WAT WAT WAT WAT WAT WAT 
WAT WAT WAT WAT WAT WAT WAT WAT WAT WAT WAT WAT WAT WAT WAT WAT WAT WAT WAT WAT 
WAT WAT WAT WAT WAT WAT WAT WAT WAT WAT WAT WAT WAT WAT WAT WAT WAT WAT WAT WAT 
WAT WAT WAT WAT WAT WAT WAT WAT WAT WAT WAT WAT WAT WAT WAT WAT WAT WAT WAT WAT 
WAT WAT WAT WAT WAT WAT WAT WAT WAT WAT WAT WAT WAT WAT WAT WAT WAT WAT WAT WAT 
WAT WAT WAT WAT WAT WAT WAT WAT WAT WAT WAT WAT WAT WAT WAT WAT WAT WAT WAT WAT 
WAT WAT WAT WAT WAT WAT WAT WAT WAT WAT WAT WAT WAT WAT WAT WAT WAT WAT WAT WAT 
WAT WAT WAT WAT WAT WAT WAT WAT WAT WAT WAT WAT WAT WAT WAT WAT WAT WAT WAT WAT 
WAT WAT WAT WAT WAT WAT WAT WAT WAT WAT WAT WAT WAT WAT WAT WAT WAT WAT WAT WAT 
WAT WAT WAT WAT WAT WAT WAT WAT WAT WAT WAT WAT WAT WAT WAT WAT WAT WAT WAT WAT 
WAT WAT WAT WAT WAT WAT WAT WAT WAT WAT WAT WAT WAT WAT WAT WAT WAT WAT WAT WAT 
WAT WAT WAT WAT WAT WAT WAT WAT WAT WAT WAT WAT WAT WAT WAT WAT WAT WAT WAT WAT 
WAT WAT WAT WAT WAT WAT WAT WAT WAT WAT WAT WAT WAT WAT WAT WAT WAT WAT WAT WAT 
WAT WAT WAT WAT WAT WAT WAT WAT WAT WAT WAT WAT WAT WAT WAT WAT WAT WAT WAT WAT 
WAT WAT WAT WAT WAT WAT WAT WAT WAT WAT WAT WAT WAT WAT WAT WAT WAT WAT WAT WAT 
WAT WAT WAT WAT WAT WAT WAT WAT WAT WAT WAT WAT WAT WAT WAT WAT WAT WAT WAT WAT 
WAT WAT WAT WAT WAT WAT WAT WAT WAT WAT WAT WAT WAT WAT WAT WAT WAT WAT WAT WAT 
WAT WAT WAT WAT WAT WAT WAT WAT WAT WAT WAT WAT WAT WAT WAT WAT WAT WAT WAT WAT 
WAT WAT WAT WAT WAT WAT WAT WAT WAT WAT WAT WAT WAT WAT WAT WAT WAT WAT WAT WAT 
WAT WAT WAT WAT WAT WAT WAT WAT WAT WAT WAT WAT WAT WAT WAT WAT WAT WAT WAT WAT 
WAT WAT WAT WAT WAT WAT WAT WAT WAT WAT WAT WAT WAT WAT WAT WAT WAT WAT WAT WAT 
WAT WAT WAT WAT WAT WAT WAT WAT WAT WAT WAT WAT WAT WAT WAT WAT WAT WAT WAT WAT 
WAT WAT WAT WAT WAT WAT WAT WAT WAT WAT WAT WAT WAT WAT WAT WAT WAT WAT WAT WAT 
WAT WAT WAT WAT WAT WAT WAT WAT WAT WAT WAT WAT WAT WAT WAT WAT WAT WAT WAT WAT 
WAT WAT WAT WAT WAT WAT WAT WAT WAT WAT WAT WAT WAT WAT WAT WAT WAT WAT WAT WAT 
WAT WAT WAT WAT WAT WAT WAT WAT WAT WAT WAT WAT WAT WAT WAT WAT WAT WAT WAT WAT 
WAT WAT WAT WAT WAT WAT WAT WAT WAT WAT WAT WAT WAT WAT WAT WAT WAT WAT WAT WAT 
WAT WAT WAT WAT WAT WAT WAT WAT WAT WAT WAT WAT WAT WAT WAT WAT WAT WAT WAT WAT 
WAT WAT WAT WAT WAT WAT WAT WAT WAT WAT WAT WAT WAT WAT WAT WAT WAT WAT WAT WAT 
WAT WAT WAT WAT WAT WAT WAT WAT WAT WAT WAT WAT WAT WAT WAT WAT WAT WAT WAT WAT 
WAT WAT WAT WAT WAT WAT WAT WAT WAT WAT WAT WAT WAT WAT WAT WAT WAT WAT WAT WAT 
WAT WAT WAT WAT WAT WAT WAT WAT WAT WAT WAT WAT WAT WAT WAT WAT WAT WAT WAT WAT 
WAT WAT WAT WAT WAT WAT WAT WAT WAT WAT WAT WAT WAT WAT WAT WAT WAT WAT WAT WAT 
WAT WAT WAT WAT WAT WAT WAT WAT WAT WAT WAT WAT WAT WAT WAT WAT WAT WAT WAT WAT 
WAT WAT WAT WAT WAT WAT WAT WAT WAT WAT WAT WAT WAT WAT WAT WAT WAT WAT WAT WAT 
WAT WAT WAT WAT WAT WAT WAT WAT WAT WAT WAT WAT WAT WAT WAT WAT WAT WAT WAT WAT 
WAT WAT WAT WAT WAT WAT WAT WAT WAT WAT WAT WAT WAT WAT WAT WAT WAT WAT WAT WAT 
WAT WAT WAT WAT WAT WAT WAT WAT WAT WAT WAT WAT WAT WAT WAT WAT WAT WAT WAT WAT 
WAT WAT WAT WAT WAT WAT WAT WAT WAT WAT WAT WAT WAT WAT WAT WAT WAT WAT WAT WAT 
WAT WAT WAT WAT WAT WAT WAT WAT WAT WAT WAT WAT WAT WAT WAT WAT WAT WAT WAT WAT 
WAT WAT WAT WAT WAT WAT WAT WAT WAT WAT WAT WAT WAT WAT WAT WAT WAT WAT WAT WAT 
WAT WAT WAT WAT WAT WAT WAT WAT WAT WAT WAT WAT WAT WAT WAT WAT WAT WAT WAT WAT 
WAT WAT WAT WAT WAT WAT WAT WAT WAT WAT WAT WAT WAT WAT WAT WAT WAT WAT WAT WAT 
WAT WAT WAT WAT WAT WAT WAT WAT WAT WAT WAT WAT WAT WAT WAT WAT WAT WAT WAT WAT 
WAT WAT WAT WAT WAT WAT WAT WAT WAT WAT WAT WAT WAT WAT WAT WAT WAT WAT WAT WAT 
WAT WAT WAT WAT WAT WAT WAT WAT WAT WAT WAT WAT WAT WAT WAT WAT WAT WAT WAT WAT 
WAT WAT WAT WAT WAT WAT WAT WAT WAT WAT WAT WAT WAT WAT WAT WAT WAT WAT WAT WAT 
WAT WAT WAT WAT WAT WAT WAT WAT WAT WAT WAT WAT WAT WAT WAT WAT WAT WAT WAT WAT 
WAT WAT WAT WAT WAT WAT WAT WAT WAT WAT WAT WAT WAT WAT WAT WAT WAT WAT WAT WAT 
WAT WAT WAT WAT WAT WAT WAT WAT WAT WAT WAT WAT WAT WAT WAT WAT WAT WAT WAT WAT 
WAT WAT WAT WAT WAT WAT WAT WAT WAT WAT WAT WAT WAT WAT WAT WAT WAT WAT WAT WAT 
WAT WAT WAT WAT WAT WAT WAT WAT WAT WAT WAT WAT WAT WAT WAT WAT WAT WAT WAT WAT 
WAT WAT WAT WAT WAT WAT WAT WAT WAT WAT WAT WAT WAT WAT WAT WAT WAT WAT WAT WAT 
WAT WAT WAT WAT WAT WAT WAT WAT WAT WAT WAT WAT WAT WAT WAT WAT WAT WAT WAT WAT 
WAT WAT WAT WAT WAT WAT WAT WAT WAT WAT WAT WAT WAT WAT WAT WAT WAT WAT WAT WAT 
WAT WAT WAT WAT WAT WAT WAT WAT WAT WAT WAT WAT WAT WAT WAT WAT WAT WAT WAT WAT 
WAT WAT WAT WAT WAT WAT WAT WAT WAT WAT WAT WAT WAT WAT WAT WAT WAT WAT WAT WAT 
WAT WAT WAT WAT WAT WAT WAT WAT WAT WAT WAT WAT WAT WAT WAT WAT WAT WAT WAT WAT 
WAT WAT WAT WAT WAT WAT WAT WAT WAT WAT WAT WAT WAT WAT WAT WAT WAT WAT WAT WAT 
WAT WAT WAT WAT WAT WAT WAT WAT WAT WAT WAT WAT WAT WAT WAT WAT WAT WAT WAT WAT 
WAT WAT WAT WAT WAT WAT WAT WAT WAT WAT WAT WAT WAT WAT WAT WAT WAT WAT WAT WAT 
WAT WAT WAT WAT WAT WAT WAT WAT WAT WAT WAT WAT WAT WAT WAT WAT WAT WAT WAT WAT 
WAT WAT WAT WAT WAT WAT WAT WAT WAT WAT WAT WAT WAT WAT WAT WAT WAT WAT WAT WAT 
WAT WAT WAT WAT WAT WAT WAT WAT WAT WAT WAT WAT WAT WAT WAT WAT WAT WAT WAT WAT 
WAT WAT WAT WAT WAT WAT WAT WAT WAT WAT WAT WAT WAT WAT WAT WAT WAT WAT WAT WAT 
WAT WAT WAT WAT WAT WAT WAT WAT WAT WAT WAT WAT WAT WAT WAT WAT WAT WAT WAT WAT 
WAT WAT WAT WAT WAT WAT WAT WAT WAT WAT WAT WAT WAT WAT WAT WAT WAT WAT WAT WAT 
WAT WAT WAT WAT WAT WAT WAT WAT WAT WAT WAT WAT WAT WAT WAT WAT WAT WAT WAT WAT 
WAT WAT WAT WAT WAT WAT WAT WAT WAT WAT WAT WAT WAT WAT WAT WAT WAT WAT WAT WAT 
WAT WAT WAT WAT WAT WAT WAT WAT WAT WAT WAT WAT WAT WAT WAT WAT WAT WAT WAT WAT 
WAT WAT WAT WAT WAT WAT WAT WAT WAT WAT WAT WAT WAT WAT WAT WAT WAT WAT WAT WAT 
WAT WAT WAT WAT WAT WAT WAT WAT WAT WAT WAT WAT WAT WAT WAT WAT WAT WAT WAT WAT 
WAT WAT WAT WAT WAT WAT WAT WAT WAT WAT WAT WAT WAT WAT WAT WAT WAT WAT WAT WAT 
WAT WAT WAT WAT WAT WAT WAT WAT WAT WAT WAT WAT WAT WAT WAT WAT WAT WAT WAT WAT 
WAT WAT WAT WAT WAT WAT WAT WAT WAT WAT WAT WAT WAT WAT WAT WAT WAT WAT WAT WAT 
WAT WAT WAT WAT WAT WAT WAT WAT WAT WAT WAT WAT WAT WAT WAT WAT WAT WAT WAT WAT 
WAT WAT WAT WAT WAT WAT WAT WAT WAT WAT WAT WAT WAT WAT WAT WAT WAT WAT WAT WAT 
WAT WAT WAT WAT WAT WAT WAT WAT WAT WAT WAT WAT WAT WAT WAT WAT WAT WAT WAT WAT 
WAT WAT WAT WAT WAT WAT WAT WAT WAT WAT WAT WAT WAT WAT WAT WAT WAT WAT WAT WAT 
WAT WAT WAT WAT WAT WAT WAT WAT WAT WAT WAT WAT WAT WAT WAT WAT WAT WAT WAT WAT 
WAT WAT WAT WAT WAT WAT WAT WAT WAT WAT WAT WAT WAT WAT WAT WAT WAT WAT WAT WAT 
WAT WAT WAT WAT WAT WAT WAT WAT WAT WAT WAT WAT WAT WAT WAT WAT WAT WAT WAT WAT 
WAT WAT WAT WAT WAT WAT WAT WAT WAT WAT WAT WAT WAT WAT WAT WAT WAT WAT WAT WAT 
WAT WAT WAT WAT WAT WAT WAT WAT WAT WAT WAT WAT WAT WAT WAT WAT WAT WAT WAT WAT 
WAT WAT WAT WAT WAT WAT WAT WAT WAT WAT WAT WAT WAT WAT WAT WAT WAT WAT WAT WAT 
WAT WAT WAT WAT WAT WAT WAT WAT WAT WAT WAT WAT WAT WAT WAT WAT WAT WAT WAT WAT 
WAT WAT WAT WAT WAT WAT WAT WAT WAT WAT WAT WAT WAT WAT WAT WAT WAT WAT WAT WAT 
WAT WAT WAT WAT WAT WAT WAT WAT WAT WAT WAT WAT WAT WAT WAT WAT WAT WAT WAT WAT 
WAT WAT WAT WAT WAT WAT WAT WAT WAT WAT WAT WAT WAT WAT WAT WAT WAT WAT WAT WAT 
WAT WAT WAT WAT WAT WAT WAT WAT WAT WAT WAT WAT WAT WAT WAT WAT WAT WAT WAT WAT 
WAT WAT WAT WAT WAT WAT WAT WAT WAT WAT WAT WAT WAT WAT WAT WAT WAT WAT WAT WAT 
WAT WAT WAT WAT WAT WAT WAT WAT WAT WAT WAT WAT WAT WAT WAT WAT WAT WAT WAT WAT 
WAT WAT WAT WAT WAT WAT WAT WAT WAT WAT WAT WAT WAT WAT WAT WAT WAT WAT WAT WAT 
WAT WAT WAT WAT WAT WAT WAT WAT WAT WAT WAT WAT WAT WAT WAT WAT WAT WAT WAT WAT 
WAT WAT WAT WAT WAT WAT WAT WAT WAT WAT WAT WAT WAT WAT WAT WAT WAT WAT WAT WAT 
WAT WAT WAT WAT WAT WAT WAT WAT WAT WAT WAT WAT WAT WAT WAT WAT WAT WAT WAT WAT 
WAT WAT WAT WAT WAT WAT WAT WAT WAT WAT WAT WAT WAT WAT WAT WAT WAT WAT WAT WAT 
WAT WAT WAT WAT WAT WAT WAT WAT WAT WAT WAT WAT WAT WAT WAT WAT WAT WAT WAT WAT 
WAT WAT WAT WAT WAT WAT WAT WAT WAT WAT WAT WAT WAT WAT WAT WAT WAT WAT WAT WAT 
WAT WAT WAT WAT WAT WAT WAT WAT WAT WAT WAT WAT WAT WAT WAT WAT WAT WAT WAT WAT 
WAT WAT WAT WAT WAT WAT WAT WAT WAT WAT WAT WAT WAT WAT WAT WAT WAT WAT WAT WAT 
WAT WAT WAT WAT WAT WAT WAT WAT WAT WAT WAT WAT WAT WAT WAT WAT WAT WAT WAT WAT 
WAT WAT WAT WAT WAT WAT WAT WAT WAT WAT WAT WAT WAT WAT WAT WAT WAT WAT WAT WAT 
WAT WAT WAT WAT WAT WAT WAT WAT WAT WAT WAT WAT WAT WAT WAT WAT WAT WAT WAT WAT 
WAT WAT WAT WAT WAT WAT WAT WAT WAT WAT WAT WAT WAT WAT WAT WAT WAT WAT WAT WAT 
WAT WAT WAT WAT WAT WAT WAT WAT WAT WAT WAT WAT WAT WAT WAT WAT WAT WAT WAT WAT 
WAT WAT WAT WAT WAT WAT WAT WAT WAT WAT WAT WAT WAT WAT WAT WAT WAT WAT WAT WAT 
WAT WAT WAT WAT WAT WAT WAT WAT WAT WAT WAT WAT WAT WAT WAT WAT WAT WAT WAT WAT 
WAT WAT WAT WAT WAT WAT WAT WAT WAT WAT WAT WAT WAT WAT WAT WAT WAT WAT WAT WAT 
WAT WAT WAT WAT WAT WAT WAT WAT WAT WAT WAT WAT WAT WAT WAT WAT WAT WAT WAT WAT 
WAT WAT WAT WAT WAT WAT WAT WAT WAT WAT WAT WAT WAT WAT WAT WAT WAT WAT WAT WAT 
WAT WAT WAT WAT WAT WAT WAT WAT WAT WAT WAT WAT WAT WAT WAT WAT WAT WAT WAT WAT 
WAT WAT WAT WAT WAT WAT WAT WAT WAT WAT WAT WAT WAT WAT WAT WAT WAT WAT WAT WAT 
WAT WAT WAT WAT WAT WAT WAT WAT WAT WAT WAT WAT WAT WAT WAT WAT WAT WAT WAT WAT 
WAT WAT WAT WAT WAT WAT WAT WAT WAT WAT WAT WAT WAT WAT WAT WAT WAT WAT WAT WAT 
WAT WAT WAT WAT WAT WAT WAT WAT WAT WAT WAT WAT WAT WAT WAT WAT WAT WAT WAT WAT 
WAT WAT WAT WAT WAT WAT WAT WAT WAT WAT WAT WAT WAT WAT WAT WAT WAT WAT WAT WAT 
WAT WAT WAT WAT WAT WAT WAT WAT WAT WAT WAT WAT WAT WAT WAT WAT WAT WAT WAT WAT 
WAT WAT WAT WAT WAT WAT WAT WAT WAT WAT WAT WAT WAT WAT WAT WAT WAT WAT WAT WAT 
WAT WAT WAT WAT WAT WAT WAT WAT WAT WAT WAT WAT WAT WAT WAT WAT WAT WAT WAT WAT 
WAT WAT WAT WAT WAT WAT WAT WAT WAT WAT WAT WAT WAT WAT WAT WAT WAT WAT WAT WAT 
WAT WAT WAT WAT WAT WAT WAT WAT WAT WAT WAT WAT WAT WAT WAT WAT WAT WAT WAT WAT 
WAT WAT WAT WAT WAT WAT WAT WAT WAT WAT WAT WAT WAT WAT WAT WAT WAT WAT WAT WAT 
WAT WAT WAT WAT WAT WAT WAT WAT WAT WAT WAT WAT WAT WAT WAT WAT WAT WAT WAT WAT 
WAT WAT WAT WAT WAT WAT WAT WAT WAT WAT WAT WAT WAT WAT WAT WAT WAT WAT WAT WAT 
WAT WAT WAT WAT WAT WAT WAT WAT WAT WAT WAT WAT WAT WAT WAT WAT WAT WAT WAT WAT 
WAT WAT WAT WAT WAT WAT WAT WAT WAT WAT WAT WAT WAT WAT WAT WAT WAT WAT WAT WAT 
WAT WAT WAT WAT WAT WAT WAT WAT WAT WAT WAT WAT WAT WAT WAT WAT WAT WAT WAT WAT 
WAT WAT WAT WAT WAT WAT WAT WAT WAT WAT WAT WAT WAT WAT WAT WAT WAT WAT WAT WAT 
WAT WAT WAT WAT WAT WAT WAT WAT WAT WAT WAT WAT WAT WAT WAT WAT WAT WAT WAT WAT 
WAT WAT WAT WAT WAT WAT WAT WAT WAT WAT WAT WAT WAT WAT WAT WAT WAT WAT WAT WAT 
WAT WAT WAT WAT WAT WAT WAT WAT WAT WAT WAT WAT WAT WAT WAT WAT WAT WAT WAT WAT 
WAT WAT WAT WAT WAT WAT WAT WAT WAT WAT WAT WAT WAT WAT WAT WAT WAT WAT WAT WAT 
WAT WAT WAT WAT WAT WAT WAT WAT WAT WAT WAT WAT WAT WAT WAT WAT WAT WAT WAT WAT 
WAT WAT WAT WAT WAT WAT WAT WAT WAT WAT WAT WAT WAT WAT WAT WAT WAT WAT WAT WAT 
WAT WAT WAT WAT WAT WAT WAT WAT WAT WAT WAT WAT WAT WAT WAT WAT WAT WAT WAT WAT 
WAT WAT WAT WAT WAT WAT WAT WAT WAT WAT WAT WAT WAT WAT WAT WAT WAT WAT WAT WAT 
WAT WAT WAT WAT WAT WAT WAT WAT WAT WAT WAT WAT WAT WAT WAT WAT WAT WAT WAT WAT 
WAT WAT WAT WAT WAT WAT WAT WAT WAT WAT WAT WAT WAT WAT WAT WAT WAT WAT WAT WAT 
WAT WAT WAT WAT WAT WAT WAT WAT WAT WAT WAT WAT WAT WAT WAT WAT WAT WAT WAT WAT 
WAT WAT WAT WAT WAT WAT WAT WAT WAT WAT WAT WAT WAT WAT WAT WAT WAT WAT WAT WAT 
WAT WAT WAT WAT WAT WAT WAT WAT WAT WAT WAT WAT WAT WAT WAT WAT WAT WAT WAT WAT 
WAT WAT WAT WAT WAT WAT WAT WAT WAT WAT WAT WAT WAT WAT WAT WAT WAT WAT WAT WAT 
WAT WAT WAT WAT WAT WAT WAT WAT WAT WAT WAT WAT WAT WAT WAT WAT WAT WAT WAT WAT 
WAT WAT WAT WAT WAT WAT WAT WAT WAT WAT WAT WAT WAT WAT WAT WAT WAT WAT WAT WAT 
WAT WAT WAT WAT WAT WAT WAT WAT WAT WAT WAT WAT WAT WAT WAT WAT WAT WAT WAT WAT 
WAT WAT WAT WAT WAT WAT WAT WAT WAT WAT WAT WAT WAT WAT WAT WAT WAT WAT WAT WAT 
WAT WAT WAT WAT WAT WAT WAT WAT WAT WAT WAT WAT WAT WAT WAT WAT WAT WAT WAT WAT 
WAT WAT WAT WAT WAT WAT WAT WAT WAT WAT WAT WAT WAT WAT WAT WAT WAT WAT WAT WAT 
WAT WAT WAT WAT WAT WAT WAT WAT WAT WAT WAT WAT WAT WAT WAT WAT WAT WAT WAT WAT 
WAT WAT WAT WAT WAT WAT WAT WAT WAT WAT WAT WAT WAT WAT WAT WAT WAT WAT WAT WAT 
WAT WAT WAT WAT WAT WAT WAT WAT WAT WAT WAT WAT WAT WAT WAT WAT WAT WAT WAT WAT 
WAT WAT WAT WAT WAT WAT WAT WAT WAT WAT WAT WAT WAT WAT WAT WAT WAT WAT WAT WAT 
WAT WAT WAT WAT WAT WAT WAT WAT WAT WAT WAT WAT WAT WAT WAT WAT WAT WAT WAT WAT 
WAT WAT WAT WAT WAT WAT WAT WAT WAT WAT WAT WAT WAT WAT WAT WAT WAT WAT WAT WAT 
WAT WAT WAT WAT WAT WAT WAT WAT WAT WAT WAT WAT WAT WAT WAT WAT WAT WAT WAT WAT 
WAT WAT WAT WAT WAT WAT WAT WAT WAT WAT WAT WAT WAT WAT WAT WAT WAT WAT WAT WAT 
WAT WAT WAT WAT WAT WAT WAT WAT WAT WAT WAT WAT WAT WAT WAT WAT WAT WAT WAT WAT 
WAT WAT WAT WAT WAT WAT WAT WAT WAT WAT WAT WAT WAT WAT WAT WAT WAT WAT WAT WAT 
WAT WAT WAT WAT WAT WAT WAT WAT WAT WAT WAT WAT WAT WAT WAT WAT WAT WAT WAT WAT 
WAT WAT WAT WAT WAT WAT WAT WAT WAT WAT WAT WAT WAT WAT WAT WAT WAT WAT WAT WAT 
WAT WAT WAT WAT WAT WAT WAT WAT WAT WAT WAT WAT WAT WAT WAT WAT WAT WAT WAT WAT 
WAT WAT WAT WAT WAT WAT WAT WAT WAT WAT WAT WAT WAT WAT WAT WAT WAT WAT WAT WAT 
WAT WAT WAT WAT WAT WAT WAT WAT WAT WAT WAT WAT WAT WAT WAT WAT WAT WAT WAT WAT 
WAT WAT WAT WAT WAT WAT WAT WAT WAT WAT WAT WAT WAT WAT WAT WAT WAT WAT WAT WAT 
WAT WAT WAT WAT WAT WAT WAT WAT WAT WAT WAT WAT WAT WAT WAT WAT WAT WAT WAT WAT 
WAT WAT WAT WAT WAT WAT WAT WAT WAT WAT WAT WAT WAT WAT WAT WAT WAT WAT WAT WAT 
WAT WAT WAT WAT WAT WAT WAT WAT WAT WAT WAT WAT WAT WAT WAT WAT WAT WAT WAT WAT 
WAT WAT WAT WAT WAT WAT WAT WAT WAT WAT WAT WAT WAT WAT WAT WAT WAT WAT WAT WAT 
WAT WAT WAT WAT WAT WAT WAT WAT WAT WAT WAT WAT WAT WAT WAT WAT WAT WAT WAT WAT 
WAT WAT WAT WAT WAT WAT WAT WAT WAT WAT WAT WAT WAT WAT WAT WAT WAT WAT WAT WAT 
WAT WAT WAT WAT WAT WAT WAT WAT WAT WAT WAT WAT WAT WAT WAT WAT WAT WAT WAT WAT 
WAT WAT WAT WAT WAT WAT WAT WAT WAT WAT WAT WAT WAT WAT WAT WAT WAT WAT WAT WAT 
WAT WAT WAT WAT WAT WAT WAT WAT WAT WAT WAT WAT WAT WAT WAT WAT WAT WAT WAT WAT 
WAT WAT WAT WAT WAT WAT WAT WAT WAT WAT WAT WAT WAT WAT WAT WAT WAT WAT WAT WAT 
WAT WAT WAT WAT WAT WAT WAT WAT WAT WAT WAT WAT WAT WAT WAT WAT WAT WAT WAT WAT 
WAT WAT WAT WAT WAT WAT WAT WAT WAT WAT WAT WAT WAT WAT WAT WAT WAT WAT WAT WAT 
WAT WAT WAT WAT WAT WAT WAT WAT WAT WAT WAT WAT WAT WAT WAT WAT WAT WAT WAT WAT 
WAT WAT WAT WAT WAT WAT WAT WAT WAT WAT WAT WAT WAT WAT WAT WAT WAT WAT WAT WAT 
WAT WAT WAT WAT WAT WAT WAT WAT WAT WAT WAT WAT WAT WAT WAT WAT WAT WAT WAT WAT 
WAT WAT WAT WAT WAT WAT WAT WAT WAT WAT WAT WAT WAT WAT WAT WAT WAT WAT WAT WAT 
WAT WAT WAT WAT WAT WAT WAT WAT WAT WAT WAT WAT WAT WAT WAT WAT WAT WAT WAT WAT 
WAT WAT WAT WAT WAT WAT WAT WAT WAT WAT WAT WAT WAT WAT WAT WAT WAT WAT WAT WAT 
WAT WAT WAT WAT WAT WAT WAT WAT WAT WAT WAT WAT WAT WAT WAT WAT WAT WAT WAT WAT 
WAT WAT WAT WAT WAT WAT WAT WAT WAT WAT WAT WAT WAT WAT WAT WAT WAT WAT WAT WAT 
WAT WAT WAT WAT WAT WAT WAT WAT WAT WAT WAT WAT WAT WAT WAT WAT WAT WAT WAT WAT 
WAT WAT WAT WAT WAT WAT WAT WAT WAT WAT WAT WAT WAT WAT WAT WAT WAT WAT WAT WAT 
WAT WAT WAT WAT WAT WAT WAT WAT WAT WAT WAT WAT WAT WAT WAT WAT WAT WAT WAT WAT 
WAT WAT WAT WAT WAT WAT WAT WAT WAT WAT WAT WAT WAT WAT WAT WAT WAT WAT WAT WAT 
WAT WAT WAT WAT WAT WAT WAT WAT WAT WAT WAT WAT WAT WAT WAT WAT WAT WAT WAT WAT 
WAT WAT WAT WAT WAT WAT WAT WAT WAT WAT WAT WAT WAT WAT WAT WAT WAT WAT WAT WAT 
WAT WAT WAT WAT WAT WAT WAT WAT WAT WAT WAT WAT WAT WAT WAT WAT WAT WAT WAT WAT 
WAT WAT WAT WAT WAT WAT WAT WAT WAT WAT WAT WAT WAT WAT WAT WAT WAT WAT WAT WAT 
WAT WAT WAT WAT WAT WAT WAT WAT WAT WAT WAT WAT WAT WAT WAT WAT WAT WAT WAT WAT 
WAT WAT WAT WAT WAT WAT WAT WAT WAT WAT WAT WAT WAT WAT WAT WAT WAT WAT WAT WAT 
WAT WAT WAT WAT WAT WAT WAT WAT WAT WAT WAT WAT WAT WAT WAT WAT WAT WAT WAT WAT 
WAT WAT WAT WAT WAT WAT WAT WAT WAT WAT WAT WAT WAT WAT WAT WAT WAT WAT WAT WAT 
WAT WAT WAT WAT WAT WAT WAT WAT WAT WAT WAT WAT WAT WAT WAT WAT WAT WAT WAT WAT 
WAT WAT WAT WAT WAT WAT WAT WAT WAT WAT WAT WAT WAT WAT WAT WAT WAT WAT WAT WAT 
WAT WAT WAT WAT WAT WAT WAT WAT WAT WAT WAT WAT WAT WAT WAT WAT WAT WAT WAT WAT 
WAT WAT WAT WAT WAT WAT WAT WAT WAT WAT WAT WAT WAT WAT WAT WAT WAT WAT WAT WAT 
WAT WAT WAT WAT WAT WAT WAT WAT WAT WAT WAT WAT WAT WAT WAT WAT WAT WAT WAT WAT 
WAT WAT WAT WAT WAT WAT WAT WAT WAT WAT WAT WAT WAT WAT WAT WAT WAT WAT WAT WAT 
WAT WAT WAT WAT WAT WAT WAT WAT WAT WAT WAT WAT WAT WAT WAT WAT WAT WAT WAT WAT 
WAT WAT WAT WAT WAT WAT WAT WAT WAT WAT WAT WAT WAT WAT WAT WAT WAT WAT WAT WAT 
WAT WAT WAT WAT WAT WAT WAT WAT WAT WAT WAT WAT WAT WAT WAT WAT WAT WAT WAT WAT 
WAT WAT WAT WAT WAT WAT WAT WAT WAT WAT WAT WAT WAT WAT WAT WAT WAT WAT WAT WAT 
WAT WAT WAT WAT WAT WAT WAT WAT WAT WAT WAT WAT WAT WAT WAT WAT WAT WAT WAT WAT 
WAT WAT WAT WAT WAT WAT WAT WAT WAT WAT WAT WAT WAT WAT WAT WAT WAT WAT WAT WAT 
WAT WAT WAT WAT WAT WAT WAT WAT WAT WAT WAT WAT WAT WAT WAT WAT WAT WAT WAT WAT 
WAT WAT WAT WAT WAT WAT WAT WAT WAT WAT WAT WAT WAT WAT WAT WAT WAT WAT WAT WAT 
WAT WAT WAT WAT WAT WAT WAT WAT WAT WAT WAT WAT WAT WAT WAT WAT WAT WAT WAT WAT 
WAT WAT WAT WAT WAT WAT WAT WAT WAT WAT WAT WAT WAT WAT WAT WAT WAT WAT WAT WAT 
WAT WAT WAT WAT WAT WAT WAT WAT WAT WAT WAT WAT WAT WAT WAT WAT WAT WAT WAT WAT 
WAT WAT WAT WAT WAT WAT WAT WAT WAT WAT WAT WAT WAT WAT WAT WAT WAT WAT WAT WAT 
WAT WAT WAT WAT WAT WAT WAT WAT WAT WAT WAT WAT WAT WAT WAT WAT WAT WAT WAT WAT 
WAT WAT WAT WAT WAT WAT WAT WAT WAT WAT WAT WAT WAT WAT WAT WAT WAT WAT WAT WAT 
WAT WAT WAT WAT WAT WAT WAT WAT WAT WAT WAT WAT WAT WAT WAT WAT WAT WAT WAT WAT 
WAT WAT WAT WAT WAT WAT WAT WAT WAT WAT WAT WAT WAT WAT WAT WAT WAT WAT WAT WAT 
WAT WAT WAT WAT WAT WAT WAT WAT WAT WAT WAT WAT WAT WAT WAT WAT WAT WAT WAT WAT 
WAT WAT WAT WAT WAT WAT WAT WAT WAT WAT WAT WAT WAT WAT WAT WAT WAT WAT WAT WAT 
WAT WAT WAT WAT WAT WAT WAT WAT WAT WAT WAT WAT WAT WAT WAT WAT WAT WAT WAT WAT 
WAT WAT WAT WAT WAT WAT WAT WAT WAT WAT WAT WAT WAT WAT WAT WAT WAT WAT WAT WAT 
WAT WAT WAT WAT WAT WAT WAT WAT WAT WAT WAT WAT WAT WAT WAT WAT WAT WAT WAT WAT 
WAT WAT WAT WAT WAT WAT WAT WAT WAT WAT WAT WAT WAT WAT WAT WAT WAT WAT WAT WAT 
WAT WAT WAT WAT WAT WAT WAT WAT WAT WAT WAT WAT WAT WAT WAT WAT WAT WAT WAT WAT 
WAT WAT WAT WAT WAT WAT WAT WAT WAT WAT WAT WAT WAT WAT WAT WAT WAT WAT WAT WAT 
WAT WAT WAT WAT WAT WAT WAT WAT WAT WAT WAT WAT WAT WAT WAT WAT WAT WAT WAT WAT 
WAT WAT WAT WAT WAT WAT WAT WAT WAT WAT WAT WAT WAT WAT WAT WAT WAT WAT WAT WAT 
WAT WAT WAT WAT WAT WAT WAT WAT WAT WAT WAT WAT WAT WAT WAT WAT WAT WAT WAT WAT 
WAT WAT WAT WAT WAT WAT WAT WAT WAT WAT WAT WAT WAT WAT WAT WAT WAT WAT WAT WAT 
WAT WAT WAT WAT WAT WAT WAT WAT WAT WAT WAT WAT WAT WAT WAT WAT WAT WAT WAT WAT 
WAT WAT WAT WAT WAT WAT WAT WAT WAT WAT WAT WAT WAT WAT WAT WAT WAT WAT WAT WAT 
WAT WAT WAT WAT WAT WAT WAT WAT WAT WAT WAT WAT WAT WAT WAT WAT WAT WAT WAT WAT 
WAT WAT WAT WAT WAT WAT WAT WAT WAT WAT WAT WAT WAT WAT WAT WAT WAT WAT WAT WAT 
WAT WAT WAT WAT WAT WAT WAT WAT WAT WAT WAT WAT WAT WAT WAT WAT WAT WAT WAT WAT 
WAT WAT WAT WAT WAT WAT WAT WAT WAT WAT WAT WAT WAT WAT WAT WAT WAT WAT WAT WAT 
WAT WAT WAT WAT WAT WAT WAT WAT WAT WAT WAT WAT WAT WAT WAT WAT WAT WAT WAT WAT 
WAT WAT WAT WAT WAT WAT WAT WAT WAT WAT WAT WAT WAT WAT WAT WAT WAT WAT WAT WAT 
WAT WAT WAT WAT WAT WAT WAT WAT WAT WAT WAT WAT WAT WAT WAT WAT WAT WAT WAT WAT 
WAT WAT WAT WAT WAT WAT WAT WAT WAT WAT WAT WAT WAT WAT WAT WAT WAT WAT WAT WAT 
WAT WAT WAT WAT WAT WAT WAT WAT WAT WAT WAT WAT WAT WAT WAT WAT WAT WAT WAT WAT 
WAT WAT WAT WAT WAT WAT WAT WAT WAT WAT WAT WAT WAT WAT WAT WAT WAT WAT WAT WAT 
WAT WAT WAT WAT WAT WAT WAT WAT WAT WAT WAT WAT WAT WAT WAT WAT WAT WAT WAT WAT 
WAT WAT WAT WAT WAT WAT WAT WAT WAT WAT WAT WAT WAT WAT WAT WAT WAT WAT WAT WAT 
WAT WAT WAT WAT WAT WAT WAT WAT WAT WAT WAT WAT WAT WAT WAT WAT WAT WAT WAT WAT 
WAT WAT WAT WAT WAT WAT WAT WAT WAT WAT WAT WAT WAT WAT WAT WAT WAT WAT WAT WAT 
WAT WAT WAT WAT WAT WAT WAT WAT WAT WAT WAT WAT WAT WAT WAT WAT WAT WAT WAT WAT 
WAT WAT WAT WAT WAT WAT WAT WAT WAT WAT WAT WAT WAT WAT WAT WAT WAT WAT WAT WAT 
WAT WAT WAT WAT WAT WAT WAT WAT WAT WAT WAT WAT WAT WAT WAT WAT WAT WAT WAT WAT 
WAT WAT WAT WAT WAT WAT WAT WAT WAT WAT WAT WAT WAT WAT WAT WAT WAT WAT WAT WAT 
WAT WAT WAT WAT WAT WAT WAT WAT WAT WAT WAT WAT WAT WAT WAT WAT WAT WAT WAT WAT 
WAT WAT WAT WAT WAT WAT WAT WAT WAT WAT WAT WAT WAT WAT WAT WAT WAT WAT WAT WAT 
WAT WAT WAT WAT WAT WAT WAT WAT WAT WAT WAT WAT WAT WAT WAT WAT WAT WAT WAT WAT 
WAT WAT WAT WAT WAT WAT WAT WAT WAT WAT WAT WAT WAT WAT WAT WAT WAT WAT WAT WAT 
WAT WAT WAT WAT WAT WAT WAT WAT WAT WAT WAT WAT WAT WAT WAT WAT WAT WAT WAT WAT 
WAT WAT WAT WAT WAT WAT WAT WAT WAT WAT WAT WAT WAT WAT WAT WAT WAT WAT WAT WAT 
WAT WAT WAT WAT WAT WAT WAT WAT WAT WAT WAT WAT WAT WAT WAT WAT WAT WAT WAT WAT 
WAT WAT WAT WAT WAT WAT WAT WAT WAT WAT WAT WAT WAT WAT WAT WAT WAT WAT WAT WAT 
WAT WAT WAT WAT WAT WAT WAT WAT WAT WAT WAT WAT WAT WAT WAT WAT WAT WAT WAT WAT 
WAT WAT WAT WAT WAT WAT WAT WAT WAT WAT WAT WAT WAT WAT WAT WAT WAT WAT WAT WAT 
WAT WAT WAT WAT WAT WAT WAT WAT WAT WAT WAT WAT WAT WAT WAT WAT WAT WAT WAT WAT 
WAT WAT WAT WAT WAT WAT WAT WAT WAT WAT WAT WAT WAT WAT WAT WAT WAT WAT WAT WAT 
WAT WAT WAT WAT WAT WAT WAT WAT WAT WAT WAT WAT WAT WAT WAT WAT WAT WAT WAT WAT 
WAT WAT WAT WAT WAT WAT WAT WAT WAT WAT WAT WAT WAT WAT WAT WAT WAT WAT WAT WAT 
WAT WAT WAT WAT WAT WAT WAT WAT WAT WAT WAT WAT WAT WAT WAT WAT WAT WAT WAT WAT 
WAT WAT WAT WAT WAT WAT WAT WAT WAT WAT WAT WAT WAT WAT WAT WAT WAT WAT WAT WAT 
WAT WAT WAT WAT WAT WAT WAT WAT WAT WAT WAT WAT WAT WAT WAT WAT WAT WAT WAT WAT 
WAT WAT WAT WAT WAT WAT WAT WAT WAT WAT WAT WAT WAT WAT WAT WAT WAT WAT WAT WAT 
WAT WAT WAT WAT WAT WAT WAT WAT WAT WAT WAT WAT WAT WAT WAT WAT WAT WAT WAT WAT 
WAT WAT WAT WAT WAT WAT WAT WAT WAT WAT WAT WAT WAT WAT WAT WAT WAT WAT WAT WAT 
WAT WAT WAT WAT WAT WAT WAT WAT WAT WAT WAT WAT WAT WAT WAT WAT WAT WAT WAT WAT 
WAT WAT WAT WAT WAT WAT WAT WAT WAT WAT WAT WAT WAT WAT WAT WAT WAT WAT WAT WAT 
WAT WAT WAT WAT WAT WAT WAT WAT WAT WAT WAT WAT WAT WAT WAT WAT WAT WAT WAT WAT 
WAT WAT WAT WAT WAT WAT WAT WAT WAT WAT WAT WAT WAT WAT WAT WAT WAT WAT WAT WAT 
WAT WAT WAT WAT WAT WAT WAT WAT WAT WAT WAT WAT WAT WAT WAT WAT WAT WAT WAT WAT 
WAT WAT WAT WAT WAT WAT WAT WAT WAT WAT WAT WAT WAT WAT WAT WAT WAT WAT WAT WAT 
WAT WAT WAT WAT WAT WAT WAT WAT WAT WAT WAT WAT WAT WAT WAT WAT WAT WAT WAT WAT 
WAT WAT WAT WAT WAT WAT WAT WAT WAT WAT WAT WAT WAT WAT WAT WAT WAT WAT WAT WAT 
WAT WAT WAT WAT WAT WAT WAT WAT WAT WAT WAT WAT WAT WAT WAT WAT WAT WAT WAT WAT 
WAT WAT WAT WAT WAT WAT WAT WAT WAT WAT WAT WAT WAT WAT WAT WAT WAT WAT WAT WAT 
WAT WAT WAT WAT WAT WAT WAT WAT WAT WAT WAT WAT WAT WAT WAT WAT WAT WAT WAT WAT 
WAT WAT WAT WAT WAT WAT WAT WAT WAT WAT WAT WAT WAT WAT WAT WAT WAT WAT WAT WAT 
WAT WAT WAT WAT WAT WAT WAT WAT WAT WAT WAT WAT WAT WAT WAT WAT WAT WAT WAT WAT 
WAT WAT WAT WAT WAT WAT WAT WAT WAT WAT WAT WAT WAT WAT WAT WAT WAT WAT WAT WAT 
WAT WAT WAT WAT WAT WAT WAT WAT WAT WAT WAT WAT WAT WAT WAT WAT WAT WAT WAT WAT 
WAT WAT WAT WAT WAT WAT WAT WAT WAT WAT WAT WAT WAT WAT WAT WAT WAT WAT WAT WAT 
WAT WAT WAT WAT WAT WAT WAT WAT WAT WAT WAT WAT WAT WAT WAT WAT WAT WAT WAT WAT 
WAT WAT WAT WAT WAT WAT WAT WAT WAT WAT WAT WAT WAT WAT WAT WAT WAT WAT WAT WAT 
WAT WAT WAT WAT WAT WAT WAT WAT WAT WAT WAT WAT WAT WAT WAT WAT WAT WAT WAT WAT 
WAT WAT WAT WAT WAT WAT WAT WAT WAT WAT WAT WAT WAT WAT WAT WAT WAT WAT WAT WAT 
WAT WAT WAT WAT WAT WAT WAT WAT WAT WAT WAT WAT WAT WAT WAT WAT WAT WAT WAT WAT 
WAT WAT WAT WAT WAT WAT WAT WAT WAT WAT WAT WAT WAT WAT WAT WAT WAT WAT WAT WAT 
WAT WAT WAT WAT WAT WAT WAT WAT WAT WAT WAT WAT WAT WAT WAT WAT WAT WAT WAT WAT 
WAT WAT WAT WAT WAT WAT WAT WAT WAT WAT WAT WAT WAT WAT WAT WAT WAT WAT WAT WAT 
WAT WAT WAT WAT WAT WAT WAT WAT WAT WAT WAT WAT WAT WAT WAT WAT WAT WAT WAT WAT 
WAT WAT WAT WAT WAT WAT WAT WAT WAT WAT WAT WAT WAT WAT WAT WAT WAT WAT WAT WAT 
WAT WAT WAT WAT WAT WAT WAT WAT WAT WAT WAT WAT WAT WAT WAT WAT WAT WAT WAT WAT 
WAT WAT WAT WAT WAT WAT WAT WAT WAT WAT WAT WAT WAT WAT WAT WAT WAT WAT WAT WAT 
WAT WAT WAT WAT WAT WAT WAT WAT WAT WAT WAT WAT WAT WAT WAT WAT WAT WAT WAT WAT 
WAT WAT WAT WAT WAT WAT WAT WAT WAT WAT WAT WAT WAT WAT WAT WAT WAT WAT WAT WAT 
WAT WAT WAT WAT WAT WAT WAT WAT WAT WAT WAT WAT WAT WAT WAT WAT WAT WAT WAT WAT 
WAT WAT WAT WAT WAT WAT WAT WAT WAT WAT WAT WAT WAT WAT WAT WAT WAT WAT WAT WAT 
WAT WAT WAT WAT WAT WAT WAT WAT WAT WAT WAT WAT WAT WAT WAT WAT WAT WAT WAT WAT 
WAT WAT WAT WAT WAT WAT WAT WAT WAT WAT WAT WAT WAT WAT WAT WAT WAT WAT WAT WAT 
WAT WAT WAT WAT WAT WAT WAT WAT WAT WAT WAT WAT WAT WAT WAT WAT WAT WAT WAT WAT 
WAT WAT WAT WAT WAT WAT WAT WAT WAT WAT WAT WAT WAT WAT WAT WAT WAT WAT WAT WAT 
WAT WAT WAT WAT WAT WAT WAT WAT WAT WAT WAT WAT WAT WAT WAT WAT WAT WAT WAT WAT 
WAT WAT WAT WAT WAT WAT WAT WAT WAT WAT WAT WAT WAT WAT WAT WAT WAT WAT WAT WAT 
WAT WAT WAT WAT WAT WAT WAT WAT WAT WAT WAT WAT WAT WAT WAT WAT WAT WAT WAT WAT 
WAT WAT WAT WAT WAT WAT WAT WAT WAT WAT WAT WAT WAT WAT WAT WAT WAT WAT WAT WAT 
WAT WAT WAT WAT WAT WAT WAT WAT WAT WAT WAT WAT WAT WAT WAT WAT WAT WAT WAT WAT 
WAT WAT WAT WAT WAT WAT WAT WAT WAT WAT WAT WAT WAT WAT WAT WAT WAT WAT WAT WAT 
WAT WAT WAT WAT WAT WAT WAT WAT WAT WAT WAT WAT WAT WAT WAT WAT WAT WAT WAT WAT 
WAT WAT WAT WAT WAT WAT WAT WAT WAT WAT WAT WAT WAT WAT WAT WAT WAT WAT WAT WAT 
WAT WAT WAT WAT WAT WAT WAT WAT WAT WAT WAT WAT WAT WAT WAT WAT WAT WAT WAT WAT 
WAT WAT WAT WAT WAT WAT WAT WAT WAT WAT WAT WAT WAT WAT WAT WAT WAT WAT WAT WAT 
WAT WAT WAT WAT WAT WAT WAT WAT WAT WAT WAT WAT WAT WAT WAT WAT WAT WAT WAT WAT 
WAT WAT WAT WAT WAT WAT WAT WAT WAT WAT WAT WAT WAT WAT WAT WAT WAT WAT WAT WAT 
WAT WAT WAT WAT WAT WAT WAT WAT WAT WAT WAT WAT WAT WAT WAT WAT WAT WAT WAT WAT 
WAT WAT WAT WAT WAT WAT WAT WAT WAT WAT WAT WAT WAT WAT WAT WAT WAT WAT WAT WAT 
WAT WAT WAT WAT WAT WAT WAT WAT WAT WAT WAT WAT WAT WAT WAT WAT WAT WAT WAT WAT 
WAT WAT WAT WAT WAT WAT WAT WAT WAT WAT WAT WAT WAT WAT WAT WAT WAT WAT WAT WAT 
WAT WAT WAT WAT WAT WAT WAT WAT WAT WAT WAT WAT WAT WAT WAT WAT WAT WAT WAT WAT 
WAT WAT WAT WAT WAT WAT WAT WAT WAT WAT WAT WAT WAT WAT WAT WAT WAT WAT WAT WAT 
WAT WAT WAT WAT WAT WAT WAT WAT WAT WAT WAT WAT WAT WAT WAT WAT WAT WAT WAT WAT 
WAT WAT WAT WAT WAT WAT WAT WAT WAT WAT WAT WAT WAT WAT WAT WAT WAT WAT WAT WAT 
WAT WAT WAT WAT WAT WAT WAT WAT WAT WAT WAT WAT WAT WAT WAT WAT WAT WAT WAT WAT 
WAT WAT WAT WAT WAT WAT WAT WAT WAT WAT WAT WAT WAT WAT WAT WAT WAT WAT WAT WAT 
WAT WAT WAT WAT WAT WAT WAT WAT WAT WAT WAT WAT WAT WAT WAT WAT WAT WAT WAT WAT 
WAT WAT WAT WAT WAT WAT WAT WAT WAT WAT WAT WAT WAT WAT WAT WAT WAT WAT WAT WAT 
WAT WAT WAT WAT WAT WAT WAT WAT WAT WAT WAT WAT WAT WAT WAT WAT WAT WAT WAT WAT 
WAT WAT WAT WAT WAT WAT WAT WAT WAT WAT WAT WAT WAT WAT WAT WAT WAT WAT WAT WAT 
WAT WAT WAT WAT WAT WAT WAT WAT WAT WAT WAT WAT WAT WAT WAT WAT WAT WAT WAT WAT 
WAT WAT WAT WAT WAT WAT WAT WAT WAT WAT WAT WAT WAT WAT WAT WAT WAT WAT WAT WAT 
WAT WAT WAT WAT WAT WAT WAT WAT WAT WAT WAT WAT WAT WAT WAT WAT WAT WAT WAT WAT 
WAT WAT WAT WAT WAT WAT WAT WAT WAT WAT WAT WAT WAT WAT WAT WAT WAT WAT WAT WAT 
WAT WAT WAT WAT WAT WAT WAT WAT WAT WAT WAT WAT WAT WAT WAT WAT WAT WAT WAT WAT 
WAT WAT WAT WAT WAT WAT WAT WAT WAT WAT WAT WAT WAT WAT WAT WAT WAT WAT WAT WAT 
WAT WAT WAT WAT WAT WAT WAT WAT WAT WAT WAT WAT WAT WAT WAT WAT WAT WAT WAT WAT 
WAT WAT WAT WAT WAT WAT WAT WAT WAT WAT WAT WAT WAT WAT WAT WAT WAT WAT WAT WAT 
WAT WAT WAT WAT WAT WAT WAT WAT WAT WAT WAT WAT WAT WAT WAT WAT WAT WAT WAT WAT 
WAT WAT WAT WAT WAT WAT WAT WAT WAT WAT WAT WAT WAT WAT WAT WAT WAT WAT WAT WAT 
WAT WAT WAT WAT WAT WAT WAT WAT WAT WAT WAT WAT WAT WAT WAT WAT WAT WAT WAT WAT 
WAT WAT WAT WAT WAT WAT WAT WAT WAT WAT WAT WAT WAT WAT WAT WAT WAT WAT WAT WAT 
WAT WAT WAT WAT WAT WAT WAT WAT WAT WAT WAT WAT WAT WAT WAT WAT WAT WAT WAT WAT 
WAT WAT WAT WAT WAT WAT WAT WAT WAT WAT WAT WAT WAT WAT WAT WAT WAT WAT WAT WAT 
WAT WAT WAT WAT WAT WAT WAT WAT WAT WAT WAT WAT WAT WAT WAT WAT WAT WAT WAT WAT 
WAT WAT WAT WAT WAT WAT WAT WAT WAT WAT WAT WAT WAT WAT WAT WAT WAT WAT WAT WAT 
WAT WAT WAT WAT WAT WAT WAT WAT WAT WAT WAT WAT WAT WAT WAT WAT WAT WAT WAT WAT 
WAT WAT WAT WAT WAT WAT WAT WAT WAT WAT WAT WAT WAT WAT WAT WAT WAT WAT WAT WAT 
WAT WAT WAT WAT WAT WAT WAT WAT WAT WAT WAT WAT WAT WAT WAT WAT WAT WAT WAT WAT 
WAT WAT WAT WAT WAT WAT WAT WAT WAT WAT WAT WAT WAT WAT WAT WAT WAT WAT WAT WAT 
WAT WAT WAT WAT WAT WAT WAT WAT WAT WAT WAT WAT WAT WAT WAT WAT WAT WAT WAT WAT 
WAT WAT WAT WAT WAT WAT WAT WAT WAT WAT WAT WAT WAT WAT WAT WAT WAT WAT WAT WAT 
WAT WAT WAT WAT WAT WAT WAT WAT WAT WAT WAT WAT WAT WAT WAT WAT WAT WAT WAT WAT 
WAT WAT WAT WAT WAT WAT WAT WAT WAT WAT WAT WAT WAT WAT WAT WAT WAT WAT WAT WAT 
WAT WAT WAT WAT WAT WAT WAT WAT WAT WAT WAT WAT WAT WAT WAT WAT WAT WAT WAT WAT 
WAT WAT WAT WAT WAT WAT WAT WAT WAT WAT WAT WAT WAT WAT WAT WAT WAT WAT WAT WAT 
WAT WAT WAT WAT WAT WAT WAT WAT WAT WAT WAT WAT WAT WAT WAT WAT WAT WAT WAT WAT 
WAT WAT WAT WAT WAT WAT WAT WAT WAT WAT WAT WAT WAT WAT WAT WAT WAT WAT WAT WAT 
WAT WAT WAT WAT WAT WAT WAT WAT WAT WAT WAT WAT WAT WAT WAT WAT WAT WAT WAT WAT 
WAT WAT WAT WAT WAT WAT WAT WAT WAT WAT WAT WAT WAT WAT WAT WAT WAT WAT WAT WAT 
WAT WAT WAT WAT WAT WAT WAT WAT WAT WAT WAT WAT WAT WAT WAT WAT WAT WAT WAT WAT 
WAT WAT WAT WAT WAT WAT WAT WAT WAT WAT WAT WAT WAT WAT WAT WAT WAT WAT WAT WAT 
WAT WAT WAT WAT WAT WAT WAT WAT WAT WAT WAT WAT WAT WAT WAT WAT WAT WAT WAT WAT 
WAT WAT WAT WAT WAT WAT WAT WAT WAT WAT WAT WAT WAT WAT WAT WAT WAT WAT WAT WAT 
WAT WAT WAT WAT WAT WAT WAT WAT WAT WAT WAT WAT WAT WAT WAT WAT WAT WAT WAT WAT 
WAT WAT WAT WAT WAT WAT WAT WAT WAT WAT WAT WAT WAT WAT WAT WAT WAT WAT WAT WAT 
WAT WAT WAT WAT WAT WAT WAT WAT WAT WAT WAT WAT WAT WAT WAT WAT WAT WAT WAT WAT 
WAT WAT WAT WAT WAT WAT WAT WAT WAT WAT WAT WAT WAT WAT WAT WAT WAT WAT WAT WAT 
WAT WAT WAT WAT WAT WAT WAT WAT WAT WAT WAT WAT WAT WAT WAT WAT WAT WAT WAT WAT 
WAT WAT WAT WAT WAT WAT WAT WAT WAT WAT WAT WAT WAT WAT WAT WAT WAT WAT WAT WAT 
WAT WAT WAT WAT WAT WAT WAT WAT WAT WAT WAT WAT WAT WAT WAT WAT WAT WAT WAT WAT 
WAT WAT WAT WAT WAT WAT WAT WAT WAT WAT WAT WAT WAT WAT WAT WAT WAT WAT WAT WAT 
WAT WAT WAT WAT WAT WAT WAT WAT WAT WAT WAT WAT WAT WAT WAT WAT WAT WAT WAT WAT 
WAT WAT WAT WAT WAT WAT WAT WAT WAT WAT WAT WAT WAT WAT WAT WAT WAT WAT WAT WAT 
WAT WAT WAT WAT WAT WAT WAT WAT WAT WAT WAT WAT WAT WAT WAT WAT WAT WAT WAT WAT 
WAT WAT WAT WAT WAT WAT WAT WAT WAT WAT WAT WAT WAT WAT WAT WAT WAT WAT WAT WAT 
WAT WAT WAT WAT WAT WAT WAT WAT WAT WAT WAT WAT WAT WAT WAT WAT WAT WAT WAT WAT 
WAT WAT WAT WAT WAT WAT WAT WAT WAT WAT WAT WAT WAT WAT WAT WAT WAT WAT WAT WAT 
WAT WAT WAT WAT WAT WAT WAT WAT WAT WAT WAT WAT WAT WAT WAT WAT WAT WAT WAT WAT 
WAT WAT WAT WAT WAT WAT WAT WAT WAT WAT WAT WAT WAT WAT WAT WAT WAT WAT WAT WAT 
WAT WAT WAT WAT WAT WAT WAT WAT WAT WAT WAT WAT WAT WAT WAT WAT WAT WAT WAT WAT 
WAT WAT WAT WAT WAT WAT WAT WAT WAT WAT WAT WAT WAT WAT WAT WAT WAT WAT WAT WAT 
WAT WAT WAT WAT WAT WAT WAT WAT WAT WAT WAT WAT WAT WAT WAT WAT WAT WAT WAT WAT 
WAT WAT WAT WAT WAT WAT WAT WAT WAT WAT WAT WAT WAT WAT WAT WAT WAT WAT WAT WAT 
WAT WAT WAT WAT WAT WAT WAT WAT WAT WAT WAT WAT WAT WAT WAT WAT WAT WAT WAT WAT 
WAT WAT WAT WAT WAT WAT WAT WAT WAT WAT WAT WAT WAT WAT WAT WAT WAT WAT WAT WAT 
WAT WAT WAT WAT WAT WAT WAT WAT WAT WAT WAT WAT WAT WAT WAT WAT WAT WAT WAT WAT 
WAT WAT WAT WAT WAT WAT WAT WAT WAT WAT WAT WAT WAT WAT WAT WAT WAT WAT WAT WAT 
WAT WAT WAT WAT WAT WAT WAT WAT WAT WAT WAT WAT WAT WAT WAT WAT WAT WAT WAT WAT 
WAT WAT WAT WAT WAT WAT WAT WAT WAT WAT WAT WAT WAT WAT WAT WAT WAT WAT WAT WAT 
WAT WAT WAT WAT WAT WAT WAT WAT WAT WAT WAT WAT WAT WAT WAT WAT WAT WAT WAT WAT 
WAT WAT WAT WAT WAT WAT WAT WAT WAT WAT WAT WAT WAT WAT WAT WAT WAT WAT WAT WAT 
WAT WAT WAT WAT WAT WAT WAT WAT WAT WAT WAT WAT WAT WAT WAT WAT WAT WAT WAT WAT 
WAT WAT WAT WAT WAT WAT WAT WAT WAT WAT WAT WAT WAT WAT WAT WAT WAT WAT WAT WAT 
WAT WAT WAT WAT WAT WAT WAT WAT WAT WAT WAT WAT WAT WAT WAT WAT WAT WAT WAT WAT 
WAT WAT WAT WAT WAT WAT WAT WAT WAT WAT WAT WAT WAT WAT WAT WAT WAT WAT WAT WAT 
WAT WAT WAT WAT WAT WAT WAT WAT WAT WAT WAT WAT WAT WAT WAT WAT WAT WAT WAT WAT 
WAT WAT WAT WAT WAT WAT WAT WAT WAT WAT WAT WAT WAT WAT WAT WAT WAT WAT WAT WAT 
WAT WAT WAT WAT WAT WAT WAT WAT WAT WAT WAT WAT WAT WAT WAT WAT WAT WAT WAT WAT 
WAT WAT WAT WAT WAT WAT WAT WAT WAT WAT WAT WAT WAT WAT WAT WAT WAT WAT WAT WAT 
WAT WAT WAT WAT WAT WAT WAT WAT WAT WAT WAT WAT WAT WAT WAT WAT WAT WAT WAT WAT 
WAT WAT WAT WAT WAT WAT WAT WAT WAT WAT WAT WAT WAT WAT WAT WAT WAT WAT WAT WAT 
WAT WAT WAT WAT WAT WAT WAT WAT WAT WAT WAT WAT WAT WAT WAT WAT WAT WAT WAT WAT 
WAT WAT WAT WAT WAT WAT WAT WAT WAT WAT WAT WAT WAT WAT WAT WAT WAT WAT WAT WAT 
WAT WAT WAT WAT WAT WAT WAT WAT WAT WAT WAT WAT WAT WAT WAT WAT WAT WAT WAT WAT 
WAT WAT WAT WAT WAT WAT WAT WAT WAT WAT WAT WAT WAT WAT WAT WAT WAT WAT WAT WAT 
WAT WAT WAT WAT WAT WAT WAT WAT WAT WAT WAT WAT WAT WAT WAT WAT WAT WAT WAT WAT 
WAT WAT WAT WAT WAT WAT WAT WAT WAT WAT WAT WAT WAT WAT WAT WAT WAT WAT WAT WAT 
WAT WAT WAT WAT WAT WAT WAT WAT WAT WAT WAT WAT WAT WAT WAT WAT WAT WAT WAT WAT 
WAT WAT WAT WAT WAT WAT WAT WAT WAT WAT WAT WAT WAT WAT WAT WAT WAT WAT WAT WAT 
WAT WAT WAT WAT WAT WAT WAT WAT WAT WAT WAT WAT WAT WAT WAT WAT WAT WAT WAT WAT 
WAT WAT WAT WAT WAT WAT WAT WAT WAT WAT WAT WAT WAT WAT WAT WAT WAT WAT WAT WAT 
WAT WAT WAT WAT WAT WAT WAT WAT WAT WAT WAT WAT WAT WAT WAT WAT WAT WAT WAT WAT 
WAT WAT WAT WAT WAT WAT WAT WAT WAT WAT WAT WAT WAT WAT WAT WAT WAT WAT WAT WAT 
WAT WAT WAT WAT WAT WAT WAT WAT WAT WAT WAT WAT WAT WAT WAT WAT WAT WAT WAT WAT 
WAT WAT WAT WAT WAT WAT WAT WAT WAT WAT WAT WAT WAT WAT WAT WAT WAT WAT WAT WAT 
WAT WAT WAT WAT WAT WAT WAT WAT WAT WAT WAT WAT WAT WAT WAT WAT WAT WAT WAT WAT 
WAT WAT WAT WAT WAT WAT WAT WAT WAT WAT WAT WAT WAT WAT WAT WAT WAT WAT WAT WAT 
WAT WAT WAT WAT WAT WAT WAT WAT WAT WAT WAT WAT WAT WAT WAT WAT WAT WAT WAT WAT 
WAT WAT WAT WAT WAT WAT WAT WAT WAT WAT WAT WAT WAT WAT WAT WAT WAT WAT WAT WAT 
WAT WAT WAT WAT WAT WAT WAT WAT WAT WAT WAT WAT WAT WAT WAT WAT WAT WAT WAT WAT 
WAT WAT WAT WAT WAT WAT WAT WAT WAT WAT WAT WAT WAT WAT WAT WAT WAT WAT WAT WAT 
WAT WAT WAT WAT WAT WAT WAT WAT WAT WAT WAT WAT WAT WAT WAT WAT WAT WAT WAT WAT 
WAT WAT WAT WAT WAT WAT WAT WAT WAT WAT WAT WAT WAT WAT WAT WAT WAT WAT WAT WAT 
WAT WAT WAT WAT WAT WAT WAT WAT WAT WAT WAT WAT WAT WAT WAT WAT WAT WAT WAT WAT 
WAT WAT WAT WAT WAT WAT WAT WAT WAT WAT WAT WAT WAT WAT WAT WAT WAT WAT WAT WAT 
WAT WAT WAT WAT WAT WAT WAT WAT WAT WAT WAT WAT WAT WAT WAT WAT WAT WAT WAT WAT 
WAT WAT WAT WAT WAT WAT WAT WAT WAT WAT WAT WAT WAT WAT WAT WAT WAT WAT WAT WAT 
WAT WAT WAT WAT WAT WAT WAT WAT WAT WAT WAT WAT WAT WAT WAT WAT WAT WAT WAT WAT 
WAT WAT WAT WAT WAT WAT WAT WAT WAT WAT WAT WAT WAT WAT WAT WAT WAT WAT WAT WAT 
WAT WAT WAT WAT WAT WAT WAT WAT WAT WAT WAT WAT WAT WAT WAT WAT WAT WAT WAT WAT 
WAT WAT WAT WAT WAT WAT WAT WAT WAT WAT WAT WAT WAT WAT WAT WAT WAT WAT WAT WAT 
WAT WAT WAT WAT WAT WAT WAT WAT WAT WAT WAT WAT WAT WAT WAT WAT WAT WAT WAT WAT 
WAT WAT WAT WAT WAT WAT WAT WAT WAT WAT WAT WAT WAT WAT WAT WAT WAT WAT WAT WAT 
WAT WAT WAT WAT WAT WAT WAT WAT WAT WAT WAT WAT WAT WAT WAT WAT WAT WAT WAT WAT 
WAT WAT WAT WAT WAT WAT WAT WAT WAT WAT WAT WAT WAT WAT WAT WAT WAT WAT WAT WAT 
WAT WAT WAT WAT WAT WAT WAT WAT WAT WAT WAT WAT WAT WAT WAT WAT WAT WAT WAT WAT 
WAT WAT WAT WAT WAT WAT WAT WAT WAT WAT WAT WAT WAT WAT WAT WAT WAT WAT WAT WAT 
WAT WAT WAT WAT WAT WAT WAT WAT WAT WAT WAT WAT WAT WAT WAT WAT WAT WAT WAT WAT 
WAT WAT WAT WAT WAT WAT WAT WAT WAT WAT WAT WAT WAT WAT WAT WAT WAT WAT WAT WAT 
WAT WAT WAT WAT WAT WAT WAT WAT WAT WAT WAT WAT WAT WAT WAT WAT WAT WAT WAT WAT 
WAT WAT WAT WAT WAT WAT WAT WAT WAT WAT WAT WAT WAT WAT WAT WAT WAT WAT WAT WAT 
WAT WAT WAT WAT WAT WAT WAT WAT WAT WAT WAT WAT WAT WAT WAT WAT WAT WAT WAT WAT 
WAT WAT WAT WAT WAT WAT WAT WAT WAT WAT WAT WAT WAT WAT WAT WAT WAT WAT WAT WAT 
WAT WAT WAT WAT WAT WAT WAT WAT WAT WAT WAT WAT WAT WAT WAT WAT WAT WAT WAT WAT 
WAT WAT WAT WAT WAT WAT WAT WAT WAT WAT WAT WAT WAT WAT WAT WAT WAT WAT WAT WAT 
WAT WAT WAT WAT WAT WAT WAT WAT WAT WAT WAT WAT WAT WAT WAT WAT WAT WAT WAT WAT 
WAT WAT WAT WAT WAT WAT WAT WAT WAT WAT WAT WAT WAT WAT WAT WAT WAT WAT WAT WAT 
WAT WAT WAT WAT WAT WAT WAT WAT WAT WAT WAT WAT WAT WAT WAT WAT WAT WAT WAT WAT 
WAT WAT WAT WAT WAT WAT WAT WAT WAT WAT WAT WAT WAT WAT WAT WAT WAT WAT WAT WAT 
WAT WAT WAT WAT WAT WAT WAT WAT WAT WAT WAT WAT WAT WAT WAT WAT WAT WAT WAT WAT 
WAT WAT WAT WAT WAT WAT WAT WAT WAT WAT WAT WAT WAT WAT WAT WAT WAT WAT WAT WAT 
WAT WAT WAT WAT WAT WAT WAT WAT WAT WAT WAT WAT WAT WAT WAT WAT WAT WAT WAT WAT 
WAT WAT WAT WAT WAT WAT WAT WAT WAT WAT WAT WAT WAT WAT WAT WAT WAT WAT WAT WAT 
WAT WAT WAT WAT WAT WAT WAT WAT WAT WAT WAT WAT WAT WAT WAT WAT WAT WAT WAT WAT 
WAT WAT WAT WAT WAT WAT WAT WAT WAT WAT WAT WAT WAT WAT WAT WAT WAT WAT WAT WAT 
WAT WAT WAT WAT WAT WAT WAT WAT WAT WAT WAT WAT WAT WAT WAT WAT WAT WAT WAT WAT 
WAT WAT WAT WAT WAT WAT WAT WAT WAT WAT WAT WAT WAT WAT WAT WAT WAT WAT WAT WAT 
WAT WAT WAT WAT WAT WAT WAT WAT WAT WAT WAT WAT WAT WAT WAT WAT WAT WAT WAT WAT 
WAT WAT WAT WAT WAT WAT WAT WAT WAT WAT WAT WAT WAT WAT WAT WAT WAT WAT WAT WAT 
WAT WAT WAT WAT WAT WAT WAT WAT WAT WAT WAT WAT WAT WAT WAT WAT WAT WAT WAT WAT 
WAT WAT WAT WAT WAT WAT WAT WAT WAT WAT WAT WAT WAT WAT WAT WAT WAT WAT WAT WAT 
WAT WAT WAT WAT WAT WAT WAT WAT WAT WAT WAT WAT WAT WAT WAT WAT WAT WAT WAT WAT 
WAT WAT WAT WAT WAT WAT WAT WAT WAT WAT WAT WAT WAT WAT WAT WAT WAT WAT WAT WAT 
WAT WAT WAT WAT WAT WAT WAT WAT WAT WAT WAT WAT WAT WAT WAT WAT WAT WAT WAT WAT 
WAT WAT WAT WAT WAT WAT WAT WAT WAT WAT WAT WAT WAT WAT WAT WAT WAT WAT WAT WAT 
WAT WAT WAT WAT WAT WAT WAT WAT WAT WAT WAT WAT WAT WAT WAT WAT WAT WAT WAT WAT 
WAT WAT WAT WAT WAT WAT WAT WAT WAT WAT WAT WAT WAT WAT WAT WAT WAT WAT WAT WAT 
WAT WAT WAT WAT WAT WAT WAT WAT WAT WAT WAT WAT WAT WAT WAT WAT WAT WAT WAT WAT 
WAT WAT WAT WAT WAT WAT WAT WAT WAT WAT WAT WAT WAT WAT WAT WAT WAT WAT WAT WAT 
WAT WAT WAT WAT WAT WAT WAT WAT WAT WAT WAT WAT WAT WAT WAT WAT WAT WAT WAT WAT 
WAT WAT WAT WAT WAT WAT WAT WAT WAT WAT WAT WAT WAT WAT WAT WAT WAT WAT WAT WAT 
WAT WAT WAT WAT WAT WAT WAT WAT WAT WAT WAT WAT WAT WAT WAT WAT WAT WAT WAT WAT 
WAT WAT WAT WAT WAT WAT WAT WAT WAT WAT WAT WAT WAT WAT WAT WAT WAT WAT WAT WAT 
WAT WAT WAT WAT WAT WAT WAT WAT WAT WAT WAT WAT WAT WAT WAT WAT WAT WAT WAT WAT 
WAT WAT WAT WAT WAT WAT WAT WAT WAT WAT WAT WAT WAT WAT WAT WAT WAT WAT WAT WAT 
WAT WAT WAT WAT WAT WAT WAT WAT WAT WAT WAT WAT WAT WAT WAT WAT WAT WAT WAT WAT 
WAT WAT WAT WAT WAT WAT WAT WAT WAT WAT WAT WAT WAT WAT WAT WAT WAT WAT WAT WAT 
WAT WAT WAT WAT WAT WAT WAT WAT WAT WAT WAT WAT WAT WAT WAT WAT WAT WAT WAT WAT 
WAT WAT WAT WAT WAT WAT WAT WAT WAT WAT WAT WAT WAT WAT WAT WAT WAT WAT WAT WAT 
WAT WAT WAT WAT WAT WAT WAT WAT WAT WAT WAT WAT WAT WAT WAT WAT WAT WAT WAT WAT 
WAT WAT WAT WAT WAT WAT WAT WAT WAT WAT WAT WAT WAT WAT WAT WAT WAT WAT WAT WAT 
WAT WAT WAT WAT WAT WAT WAT WAT WAT WAT WAT WAT WAT WAT WAT WAT WAT WAT WAT WAT 
WAT WAT WAT WAT WAT WAT WAT WAT WAT WAT WAT WAT WAT WAT WAT WAT WAT WAT WAT WAT 
WAT WAT WAT WAT WAT WAT WAT WAT WAT WAT WAT WAT WAT WAT WAT WAT WAT WAT WAT WAT 
WAT WAT WAT WAT WAT WAT WAT WAT WAT WAT WAT WAT WAT WAT WAT WAT WAT WAT WAT WAT 
WAT WAT WAT WAT WAT WAT WAT WAT WAT WAT WAT WAT WAT WAT WAT WAT WAT WAT WAT WAT 
WAT WAT WAT WAT WAT WAT WAT WAT WAT WAT WAT WAT WAT WAT WAT WAT WAT WAT WAT WAT 
WAT WAT WAT WAT WAT WAT WAT WAT WAT WAT WAT WAT WAT WAT WAT WAT WAT WAT WAT WAT 
WAT WAT WAT WAT WAT WAT WAT WAT WAT WAT WAT WAT WAT WAT WAT WAT WAT WAT WAT WAT 
WAT WAT WAT WAT WAT WAT WAT WAT WAT WAT WAT WAT WAT WAT WAT WAT WAT WAT WAT WAT 
WAT WAT WAT WAT WAT WAT WAT WAT WAT WAT WAT WAT WAT WAT WAT WAT WAT WAT WAT WAT 
WAT WAT WAT WAT WAT WAT WAT WAT WAT WAT WAT WAT WAT WAT WAT WAT WAT WAT WAT WAT 
WAT WAT WAT WAT WAT WAT WAT WAT WAT WAT WAT WAT WAT WAT WAT WAT WAT WAT WAT WAT 
WAT WAT WAT WAT WAT WAT WAT WAT WAT WAT WAT WAT WAT WAT WAT WAT WAT WAT WAT WAT 
WAT WAT WAT WAT WAT WAT WAT WAT WAT WAT WAT WAT WAT WAT WAT WAT WAT WAT WAT WAT 
WAT WAT WAT WAT WAT WAT WAT WAT WAT WAT WAT WAT WAT WAT WAT WAT WAT WAT WAT WAT 
WAT WAT WAT WAT WAT WAT WAT WAT WAT WAT WAT WAT WAT WAT WAT WAT WAT WAT WAT WAT 
WAT WAT WAT WAT WAT WAT WAT WAT WAT WAT WAT WAT WAT WAT WAT WAT WAT WAT WAT WAT 
WAT WAT WAT WAT WAT WAT WAT WAT WAT WAT WAT WAT WAT WAT WAT WAT WAT WAT WAT WAT 
WAT WAT WAT WAT WAT WAT WAT WAT WAT WAT WAT WAT WAT WAT WAT WAT WAT WAT WAT WAT 
WAT WAT WAT WAT WAT WAT WAT WAT WAT WAT WAT WAT WAT WAT WAT WAT WAT WAT WAT WAT 
WAT WAT WAT WAT WAT WAT WAT WAT WAT WAT WAT WAT WAT WAT WAT WAT WAT WAT WAT WAT 
WAT WAT WAT WAT WAT WAT WAT WAT WAT WAT WAT WAT WAT WAT WAT WAT WAT WAT WAT WAT 
WAT WAT WAT WAT WAT WAT WAT WAT WAT WAT WAT WAT WAT WAT WAT WAT WAT WAT WAT WAT 
WAT WAT WAT WAT WAT WAT WAT WAT WAT WAT WAT WAT WAT WAT WAT WAT WAT WAT WAT WAT 
WAT WAT WAT WAT WAT WAT WAT WAT WAT WAT WAT WAT WAT WAT WAT WAT WAT WAT WAT WAT 
WAT WAT WAT WAT WAT WAT WAT WAT WAT WAT WAT WAT WAT WAT WAT WAT WAT WAT WAT WAT 
WAT WAT WAT WAT WAT WAT WAT WAT WAT WAT WAT WAT WAT WAT WAT WAT WAT WAT WAT WAT 
WAT WAT WAT WAT WAT WAT WAT WAT WAT WAT WAT WAT WAT WAT WAT WAT WAT WAT WAT WAT 
WAT WAT WAT WAT WAT WAT WAT WAT WAT WAT WAT WAT WAT WAT WAT WAT WAT WAT WAT WAT 
WAT WAT WAT WAT WAT WAT WAT WAT WAT WAT WAT WAT WAT WAT WAT WAT WAT WAT WAT WAT 
WAT WAT WAT WAT WAT WAT WAT WAT WAT WAT WAT WAT WAT WAT WAT WAT WAT WAT WAT WAT 
WAT WAT WAT WAT WAT WAT WAT WAT WAT WAT WAT WAT WAT WAT WAT WAT WAT WAT WAT WAT 
WAT WAT WAT WAT WAT WAT WAT WAT WAT WAT WAT WAT WAT WAT WAT WAT WAT WAT WAT WAT 
WAT WAT WAT WAT WAT WAT WAT WAT WAT WAT WAT WAT WAT WAT WAT WAT WAT WAT WAT WAT 
WAT WAT WAT WAT WAT WAT WAT WAT WAT WAT WAT WAT WAT WAT WAT WAT WAT WAT WAT WAT 
WAT WAT WAT WAT WAT WAT WAT WAT WAT WAT WAT WAT WAT WAT WAT WAT WAT WAT WAT WAT 
WAT WAT WAT WAT WAT WAT WAT WAT WAT WAT WAT WAT WAT WAT WAT WAT WAT WAT WAT WAT 
WAT WAT WAT WAT WAT WAT WAT WAT WAT WAT WAT WAT WAT WAT WAT WAT WAT WAT WAT WAT 
WAT WAT WAT WAT WAT WAT WAT WAT WAT WAT WAT WAT WAT WAT WAT WAT WAT WAT WAT WAT 
WAT WAT WAT WAT WAT WAT WAT WAT WAT WAT WAT WAT WAT WAT WAT WAT WAT WAT WAT WAT 
WAT WAT WAT WAT WAT WAT WAT WAT WAT WAT WAT WAT WAT WAT WAT WAT WAT WAT WAT WAT 
WAT WAT WAT WAT WAT WAT WAT WAT WAT WAT WAT WAT WAT WAT WAT WAT WAT WAT WAT WAT 
WAT WAT WAT WAT WAT WAT WAT WAT WAT WAT WAT WAT WAT WAT WAT WAT WAT WAT WAT WAT 
WAT WAT WAT WAT WAT WAT WAT WAT WAT WAT WAT WAT WAT WAT WAT WAT WAT WAT WAT WAT 
WAT WAT WAT WAT WAT WAT WAT WAT WAT WAT WAT WAT WAT WAT WAT WAT WAT WAT WAT WAT 
WAT WAT WAT WAT WAT WAT WAT WAT WAT WAT WAT WAT WAT WAT WAT WAT WAT WAT WAT WAT 
WAT WAT WAT WAT WAT WAT WAT WAT WAT WAT WAT WAT WAT WAT WAT WAT WAT WAT WAT WAT 
WAT WAT WAT WAT WAT WAT WAT WAT WAT WAT WAT WAT WAT WAT WAT WAT WAT WAT WAT WAT 
WAT WAT WAT WAT WAT WAT WAT WAT WAT WAT WAT WAT WAT WAT WAT WAT WAT WAT WAT WAT 
WAT WAT WAT WAT WAT WAT WAT WAT WAT WAT WAT WAT WAT WAT WAT WAT WAT WAT WAT WAT 
WAT WAT WAT WAT WAT WAT WAT WAT WAT WAT WAT WAT WAT WAT WAT WAT WAT WAT WAT WAT 
WAT WAT WAT WAT WAT WAT WAT WAT WAT WAT WAT WAT WAT WAT WAT WAT WAT WAT WAT WAT 
WAT WAT WAT WAT WAT WAT WAT WAT WAT WAT WAT WAT WAT WAT WAT WAT WAT WAT WAT WAT 
WAT WAT WAT WAT WAT WAT WAT WAT WAT WAT WAT WAT WAT WAT WAT WAT WAT WAT WAT WAT 
WAT WAT WAT WAT WAT WAT WAT WAT WAT WAT WAT WAT WAT WAT WAT WAT WAT WAT WAT WAT 
WAT WAT WAT WAT WAT WAT WAT WAT WAT WAT WAT WAT WAT WAT WAT WAT WAT WAT WAT WAT 
WAT WAT WAT WAT WAT WAT WAT WAT WAT WAT WAT WAT WAT WAT WAT WAT WAT WAT WAT WAT 
WAT WAT WAT WAT WAT WAT WAT WAT WAT WAT WAT WAT WAT WAT WAT WAT WAT WAT WAT WAT 
WAT WAT WAT WAT WAT WAT WAT WAT WAT WAT WAT WAT WAT WAT WAT WAT WAT WAT WAT WAT 
WAT WAT WAT WAT WAT WAT WAT WAT WAT WAT WAT WAT WAT WAT WAT WAT WAT WAT WAT WAT 
WAT WAT WAT WAT WAT WAT WAT WAT WAT WAT WAT WAT WAT WAT WAT WAT WAT WAT WAT WAT 
WAT WAT WAT WAT WAT WAT WAT WAT WAT WAT WAT WAT WAT WAT WAT WAT WAT WAT WAT WAT 
WAT WAT WAT WAT WAT WAT WAT WAT WAT WAT WAT WAT WAT WAT WAT WAT WAT WAT WAT WAT 
WAT WAT WAT WAT WAT WAT WAT WAT WAT WAT WAT WAT WAT WAT WAT WAT WAT WAT WAT WAT 
WAT WAT WAT WAT WAT WAT WAT WAT WAT WAT WAT WAT WAT WAT WAT WAT WAT WAT WAT WAT 
WAT WAT WAT WAT WAT WAT WAT WAT WAT WAT WAT WAT WAT WAT WAT WAT WAT WAT WAT WAT 
WAT WAT WAT WAT WAT WAT WAT WAT WAT WAT WAT WAT WAT WAT WAT WAT WAT WAT WAT WAT 
WAT WAT WAT WAT WAT WAT WAT WAT WAT WAT WAT WAT WAT WAT WAT WAT WAT WAT WAT WAT 
WAT WAT WAT WAT WAT WAT WAT WAT WAT WAT WAT WAT WAT WAT WAT WAT WAT WAT WAT WAT 
WAT WAT WAT WAT WAT WAT WAT WAT WAT WAT WAT WAT WAT WAT WAT WAT WAT WAT WAT WAT 
WAT WAT WAT WAT WAT WAT WAT WAT WAT WAT WAT WAT WAT WAT WAT WAT WAT WAT WAT WAT 
WAT WAT WAT WAT WAT WAT WAT WAT WAT WAT WAT WAT WAT WAT WAT WAT WAT WAT WAT WAT 
WAT WAT WAT WAT WAT WAT WAT WAT WAT WAT WAT WAT WAT WAT WAT WAT WAT WAT WAT WAT 
WAT WAT WAT WAT WAT WAT WAT WAT WAT WAT WAT WAT WAT WAT WAT WAT WAT WAT WAT WAT 
WAT WAT WAT WAT WAT WAT WAT WAT WAT WAT WAT WAT WAT WAT WAT WAT WAT WAT WAT WAT 
WAT WAT WAT WAT WAT WAT WAT WAT WAT WAT WAT WAT WAT WAT WAT WAT WAT WAT WAT WAT 
WAT WAT WAT WAT WAT WAT WAT WAT WAT WAT WAT WAT WAT WAT WAT WAT WAT WAT WAT WAT 
WAT WAT WAT WAT WAT WAT WAT WAT WAT WAT WAT WAT WAT WAT WAT WAT WAT WAT WAT WAT 
WAT WAT WAT WAT WAT WAT WAT WAT WAT WAT WAT WAT WAT WAT WAT WAT WAT WAT WAT WAT 
WAT WAT WAT WAT WAT WAT WAT WAT WAT WAT WAT WAT WAT WAT WAT WAT WAT WAT WAT WAT 
WAT WAT WAT WAT WAT WAT WAT WAT WAT WAT WAT WAT WAT WAT WAT WAT WAT WAT WAT WAT 
WAT WAT WAT WAT WAT WAT WAT WAT WAT WAT WAT WAT WAT WAT WAT WAT WAT WAT WAT WAT 
WAT WAT WAT WAT WAT WAT WAT WAT WAT WAT WAT WAT WAT WAT WAT WAT WAT WAT WAT WAT 
WAT WAT WAT WAT WAT WAT WAT WAT WAT WAT WAT WAT WAT WAT WAT WAT WAT WAT WAT WAT 
WAT WAT WAT WAT WAT WAT WAT WAT WAT WAT WAT WAT WAT WAT WAT WAT WAT WAT WAT WAT 
WAT WAT WAT WAT WAT WAT WAT WAT WAT WAT WAT WAT WAT WAT WAT WAT WAT WAT WAT WAT 
WAT WAT WAT WAT WAT WAT WAT WAT WAT WAT WAT WAT WAT WAT WAT WAT WAT WAT WAT WAT 
WAT WAT WAT WAT WAT WAT WAT WAT WAT WAT WAT WAT WAT WAT WAT WAT WAT WAT WAT WAT 
WAT WAT WAT WAT WAT WAT WAT WAT WAT WAT WAT WAT WAT WAT WAT WAT WAT WAT WAT WAT 
WAT WAT WAT WAT WAT WAT WAT WAT WAT WAT WAT WAT WAT WAT WAT WAT WAT WAT WAT WAT 
WAT WAT WAT WAT WAT WAT WAT WAT WAT WAT WAT WAT WAT WAT WAT WAT WAT WAT WAT WAT 
WAT WAT WAT WAT WAT WAT WAT WAT WAT WAT WAT WAT WAT WAT WAT WAT WAT WAT WAT WAT 
WAT WAT WAT WAT WAT WAT WAT WAT WAT WAT WAT WAT WAT WAT WAT WAT WAT WAT WAT WAT 
WAT WAT WAT WAT WAT WAT WAT WAT WAT WAT WAT WAT WAT WAT WAT WAT WAT WAT WAT WAT 
WAT WAT WAT WAT WAT WAT WAT WAT WAT WAT WAT WAT WAT WAT WAT WAT WAT WAT WAT WAT 
WAT WAT WAT WAT WAT WAT WAT WAT WAT WAT WAT WAT WAT WAT WAT WAT WAT WAT WAT WAT 
WAT WAT WAT WAT WAT WAT WAT WAT WAT WAT WAT WAT WAT WAT WAT WAT WAT WAT WAT WAT 
WAT WAT WAT WAT WAT WAT WAT WAT WAT WAT WAT WAT WAT WAT WAT WAT WAT WAT WAT WAT 
WAT WAT WAT WAT WAT WAT WAT WAT WAT WAT WAT WAT WAT WAT WAT WAT WAT WAT WAT WAT 
WAT WAT WAT WAT WAT WAT WAT WAT WAT WAT WAT WAT WAT WAT WAT WAT WAT WAT WAT WAT 
WAT WAT WAT WAT WAT WAT WAT WAT WAT WAT WAT WAT WAT WAT WAT WAT WAT WAT WAT WAT 
WAT WAT WAT WAT WAT WAT WAT WAT WAT WAT WAT WAT WAT WAT WAT WAT WAT WAT WAT WAT 
WAT WAT WAT WAT WAT WAT WAT WAT WAT WAT WAT WAT WAT WAT WAT WAT WAT WAT WAT WAT 
WAT WAT WAT WAT WAT WAT WAT WAT WAT WAT WAT WAT WAT WAT WAT WAT WAT WAT WAT WAT 
WAT WAT WAT WAT WAT WAT WAT WAT WAT WAT WAT WAT WAT WAT WAT WAT WAT WAT WAT WAT 
WAT WAT WAT WAT WAT WAT WAT WAT WAT WAT WAT WAT WAT WAT WAT WAT WAT WAT WAT WAT 
WAT WAT WAT WAT WAT WAT WAT WAT WAT WAT WAT WAT WAT WAT WAT WAT WAT WAT WAT WAT 
WAT WAT WAT WAT WAT WAT WAT WAT WAT WAT WAT WAT WAT WAT WAT WAT WAT WAT WAT WAT 
WAT WAT WAT WAT WAT WAT WAT WAT WAT WAT WAT WAT WAT WAT WAT WAT WAT WAT WAT WAT 
WAT WAT WAT WAT WAT WAT WAT WAT WAT WAT WAT WAT WAT WAT WAT WAT WAT WAT WAT WAT 
WAT WAT WAT WAT WAT WAT WAT WAT WAT WAT WAT WAT WAT WAT WAT WAT WAT WAT WAT WAT 
WAT WAT WAT WAT WAT WAT WAT WAT WAT WAT WAT WAT WAT WAT WAT WAT WAT WAT WAT WAT 
WAT WAT WAT WAT WAT WAT WAT WAT WAT WAT WAT WAT WAT WAT WAT WAT WAT WAT WAT WAT 
WAT WAT WAT WAT WAT WAT WAT WAT WAT WAT WAT WAT WAT WAT WAT WAT WAT WAT WAT WAT 
WAT WAT WAT WAT WAT WAT WAT WAT WAT WAT WAT WAT WAT WAT WAT WAT WAT WAT WAT WAT 
WAT WAT WAT WAT WAT WAT WAT WAT WAT WAT WAT WAT WAT WAT WAT WAT WAT WAT WAT WAT 
WAT WAT WAT WAT WAT WAT WAT WAT WAT WAT WAT WAT WAT WAT WAT WAT WAT WAT WAT WAT 
WAT WAT WAT WAT WAT WAT WAT WAT WAT WAT WAT WAT WAT WAT WAT WAT WAT WAT WAT WAT 
WAT WAT WAT WAT WAT WAT WAT WAT WAT WAT WAT WAT WAT WAT WAT WAT WAT WAT WAT WAT 
WAT WAT WAT WAT WAT WAT WAT WAT WAT WAT WAT WAT WAT WAT WAT WAT WAT WAT WAT WAT 
WAT WAT WAT WAT WAT WAT WAT WAT WAT WAT WAT WAT WAT WAT WAT WAT WAT WAT WAT WAT 
WAT WAT WAT WAT WAT WAT WAT WAT WAT WAT WAT WAT WAT WAT WAT WAT WAT WAT WAT WAT 
WAT WAT WAT WAT WAT WAT WAT WAT WAT WAT WAT WAT WAT WAT WAT WAT WAT WAT WAT WAT 
WAT WAT WAT WAT WAT WAT WAT WAT WAT WAT WAT WAT WAT WAT WAT WAT WAT WAT WAT WAT 
WAT WAT WAT WAT WAT WAT WAT WAT WAT WAT WAT WAT WAT WAT WAT WAT WAT WAT WAT WAT 
WAT WAT WAT WAT WAT WAT WAT WAT WAT WAT WAT WAT WAT WAT WAT WAT WAT WAT WAT WAT 
WAT WAT WAT WAT WAT WAT WAT WAT WAT WAT WAT WAT WAT WAT WAT WAT WAT WAT WAT WAT 
WAT WAT WAT WAT WAT WAT WAT WAT WAT WAT WAT WAT WAT WAT WAT WAT WAT WAT WAT WAT 
WAT WAT WAT WAT WAT WAT WAT WAT WAT WAT WAT WAT WAT WAT WAT WAT WAT WAT WAT WAT 
WAT WAT WAT WAT WAT WAT WAT WAT WAT WAT WAT WAT WAT WAT WAT WAT WAT WAT WAT WAT 
WAT WAT WAT WAT WAT WAT WAT WAT WAT WAT WAT WAT WAT WAT WAT WAT WAT WAT WAT WAT 
WAT WAT WAT WAT WAT WAT WAT WAT WAT WAT WAT WAT WAT WAT WAT WAT WAT WAT WAT WAT 
WAT WAT WAT WAT WAT WAT WAT WAT WAT WAT WAT WAT WAT WAT WAT WAT WAT WAT WAT WAT 
WAT WAT WAT WAT WAT WAT WAT WAT WAT WAT WAT WAT WAT WAT WAT WAT WAT WAT WAT WAT 
WAT WAT WAT WAT WAT WAT WAT WAT WAT WAT WAT WAT WAT WAT WAT WAT WAT WAT WAT WAT 
WAT WAT WAT WAT WAT WAT WAT WAT WAT WAT WAT WAT WAT WAT WAT WAT WAT WAT WAT WAT 
WAT WAT WAT WAT WAT WAT WAT WAT WAT WAT WAT WAT WAT WAT WAT WAT WAT WAT WAT WAT 
WAT WAT WAT WAT WAT WAT WAT WAT WAT WAT WAT WAT WAT WAT WAT WAT WAT WAT WAT WAT 
WAT WAT WAT WAT WAT WAT WAT WAT WAT WAT WAT WAT WAT WAT WAT 
%FLAG RESIDUE_POINTER                                                           
%FORMAT(10I8)                                                                   
       1    1645    1646    1647    1648    1649    1650    1651    1652    1653
    1654    1655    1656    1657    1658    1659    1660    1661    1662    1663
    1664    1665    1666    1667    1668    1669    1670    1671    1672    1673
    1674    1675    1676    1677    1678    1679    1680    1681    1682    1683
    1684    1685    1686    1687    1688    1689    1690    1691    1692    1693
    1696    1699    1702    1705    1708    1711    1714    1717    1720    1723
    1726    1729    1732    1735    1738    1741    1744    1747    1750    1753
    1756    1759    1762    1765    1768    1771    1774    1777    1780    1783
    1786    1789    1792    1795    1798    1801    1804    1807    1810    1813
    1816    1819    1822    1825    1828    1831    1834    1837    1840    1843
    1846    1849    1852    1855    1858    1861    1864    1867    1870    1873
    1876    1879    1882    1885    1888    1891    1894    1897    1900    1903
    1906    1909    1912    1915    1918    1921    1924    1927    1930    1933
    1936    1939    1942    1945    1948    1951    1954    1957    1960    1963
    1966    1969    1972    1975    1978    1981    1984    1987    1990    1993
    1996    1999    2002    2005    2008    2011    2014    2017    2020    2023
    2026    2029    2032    2035    2038    2041    2044    2047    2050    2053
    2056    2059    2062    2065    2068    2071    2074    2077    2080    2083
    2086    2089    2092    2095    2098    2101    2104    2107    2110    2113
    2116    2119    2122    2125    2128    2131    2134    2137    2140    2143
    2146    2149    2152    2155    2158    2161    2164    2167    2170    2173
    2176    2179    2182    2185    2188    2191    2194    2197    2200    2203
    2206    2209    2212    2215    2218    2221    2224    2227    2230    2233
    2236    2239    2242    2245    2248    2251    2254    2257    2260    2263
    2266    2269    2272    2275    2278    2281    2284    2287    2290    2293
    2296    2299    2302    2305    2308    2311    2314    2317    2320    2323
    2326    2329    2332    2335    2338    2341    2344    2347    2350    2353
    2356    2359    2362    2365    2368    2371    2374    2377    2380    2383
    2386    2389    2392    2395    2398    2401    2404    2407    2410    2413
    2416    2419    2422    2425    2428    2431    2434    2437    2440    2443
    2446    2449    2452    2455    2458    2461    2464    2467    2470    2473
    2476    2479    2482    2485    2488    2491    2494    2497    2500    2503
    2506    2509    2512    2515    2518    2521    2524    2527    2530    2533
    2536    2539    2542    2545    2548    2551    2554    2557    2560    2563
    2566    2569    2572    2575    2578    2581    2584    2587    2590    2593
    2596    2599    2602    2605    2608    2611    2614    2617    2620    2623
    2626    2629    2632    2635    2638    2641    2644    2647    2650    2653
    2656    2659    2662    2665    2668    2671    2674    2677    2680    2683
    2686    2689    2692    2695    2698    2701    2704    2707    2710    2713
    2716    2719    2722    2725    2728    2731    2734    2737    2740    2743
    2746    2749    2752    2755    2758    2761    2764    2767    2770    2773
    2776    2779    2782    2785    2788    2791    2794    2797    2800    2803
    2806    2809    2812    2815    2818    2821    2824    2827    2830    2833
    2836    2839    2842    2845    2848    2851    2854    2857    2860    2863
    2866    2869    2872    2875    2878    2881    2884    2887    2890    2893
    2896    2899    2902    2905    2908    2911    2914    2917    2920    2923
    2926    2929    2932    2935    2938    2941    2944    2947    2950    2953
    2956    2959    2962    2965    2968    2971    2974    2977    2980    2983
    2986    2989    2992    2995    2998    3001    3004    3007    3010    3013
    3016    3019    3022    3025    3028    3031    3034    3037    3040    3043
    3046    3049    3052    3055    3058    3061    3064    3067    3070    3073
    3076    3079    3082    3085    3088    3091    3094    3097    3100    3103
    3106    3109    3112    3115    3118    3121    3124    3127    3130    3133
    3136    3139    3142    3145    3148    3151    3154    3157    3160    3163
    3166    3169    3172    3175    3178    3181    3184    3187    3190    3193
    3196    3199    3202    3205    3208    3211    3214    3217    3220    3223
    3226    3229    3232    3235    3238    3241    3244    3247    3250    3253
    3256    3259    3262    3265    3268    3271    3274    3277    3280    3283
    3286    3289    3292    3295    3298    3301    3304    3307    3310    3313
    3316    3319    3322    3325    3328    3331    3334    3337    3340    3343
    3346    3349    3352    3355    3358    3361    3364    3367    3370    3373
    3376    3379    3382    3385    3388    3391    3394    3397    3400    3403
    3406    3409    3412    3415    3418    3421    3424    3427    3430    3433
    3436    3439    3442    3445    3448    3451    3454    3457    3460    3463
    3466    3469    3472    3475    3478    3481    3484    3487    3490    3493
    3496    3499    3502    3505    3508    3511    3514    3517    3520    3523
    3526    3529    3532    3535    3538    3541    3544    3547    3550    3553
    3556    3559    3562    3565    3568    3571    3574    3577    3580    3583
    3586    3589    3592    3595    3598    3601    3604    3607    3610    3613
    3616    3619    3622    3625    3628    3631    3634    3637    3640    3643
    3646    3649    3652    3655    3658    3661    3664    3667    3670    3673
    3676    3679    3682    3685    3688    3691    3694    3697    3700    3703
    3706    3709    3712    3715    3718    3721    3724    3727    3730    3733
    3736    3739    3742    3745    3748    3751    3754    3757    3760    3763
    3766    3769    3772    3775    3778    3781    3784    3787    3790    3793
    3796    3799    3802    3805    3808    3811    3814    3817    3820    3823
    3826    3829    3832    3835    3838    3841    3844    3847    3850    3853
    3856    3859    3862    3865    3868    3871    3874    3877    3880    3883
    3886    3889    3892    3895    3898    3901    3904    3907    3910    3913
    3916    3919    3922    3925    3928    3931    3934    3937    3940    3943
    3946    3949    3952    3955    3958    3961    3964    3967    3970    3973
    3976    3979    3982    3985    3988    3991    3994    3997    4000    4003
    4006    4009    4012    4015    4018    4021    4024    4027    4030    4033
    4036    4039    4042    4045    4048    4051    4054    4057    4060    4063
    4066    4069    4072    4075    4078    4081    4084    4087    4090    4093
    4096    4099    4102    4105    4108    4111    4114    4117    4120    4123
    4126    4129    4132    4135    4138    4141    4144    4147    4150    4153
    4156    4159    4162    4165    4168    4171    4174    4177    4180    4183
    4186    4189    4192    4195    4198    4201    4204    4207    4210    4213
    4216    4219    4222    4225    4228    4231    4234    4237    4240    4243
    4246    4249    4252    4255    4258    4261    4264    4267    4270    4273
    4276    4279    4282    4285    4288    4291    4294    4297    4300    4303
    4306    4309    4312    4315    4318    4321    4324    4327    4330    4333
    4336    4339    4342    4345    4348    4351    4354    4357    4360    4363
    4366    4369    4372    4375    4378    4381    4384    4387    4390    4393
    4396    4399    4402    4405    4408    4411    4414    4417    4420    4423
    4426    4429    4432    4435    4438    4441    4444    4447    4450    4453
    4456    4459    4462    4465    4468    4471    4474    4477    4480    4483
    4486    4489    4492    4495    4498    4501    4504    4507    4510    4513
    4516    4519    4522    4525    4528    4531    4534    4537    4540    4543
    4546    4549    4552    4555    4558    4561    4564    4567    4570    4573
    4576    4579    4582    4585    4588    4591    4594    4597    4600    4603
    4606    4609    4612    4615    4618    4621    4624    4627    4630    4633
    4636    4639    4642    4645    4648    4651    4654    4657    4660    4663
    4666    4669    4672    4675    4678    4681    4684    4687    4690    4693
    4696    4699    4702    4705    4708    4711    4714    4717    4720    4723
    4726    4729    4732    4735    4738    4741    4744    4747    4750    4753
    4756    4759    4762    4765    4768    4771    4774    4777    4780    4783
    4786    4789    4792    4795    4798    4801    4804    4807    4810    4813
    4816    4819    4822    4825    4828    4831    4834    4837    4840    4843
    4846    4849    4852    4855    4858    4861    4864    4867    4870    4873
    4876    4879    4882    4885    4888    4891    4894    4897    4900    4903
    4906    4909    4912    4915    4918    4921    4924    4927    4930    4933
    4936    4939    4942    4945    4948    4951    4954    4957    4960    4963
    4966    4969    4972    4975    4978    4981    4984    4987    4990    4993
    4996    4999    5002    5005    5008    5011    5014    5017    5020    5023
    5026    5029    5032    5035    5038    5041    5044    5047    5050    5053
    5056    5059    5062    5065    5068    5071    5074    5077    5080    5083
    5086    5089    5092    5095    5098    5101    5104    5107    5110    5113
    5116    5119    5122    5125    5128    5131    5134    5137    5140    5143
    5146    5149    5152    5155    5158    5161    5164    5167    5170    5173
    5176    5179    5182    5185    5188    5191    5194    5197    5200    5203
    5206    5209    5212    5215    5218    5221    5224    5227    5230    5233
    5236    5239    5242    5245    5248    5251    5254    5257    5260    5263
    5266    5269    5272    5275    5278    5281    5284    5287    5290    5293
    5296    5299    5302    5305    5308    5311    5314    5317    5320    5323
    5326    5329    5332    5335    5338    5341    5344    5347    5350    5353
    5356    5359    5362    5365    5368    5371    5374    5377    5380    5383
    5386    5389    5392    5395    5398    5401    5404    5407    5410    5413
    5416    5419    5422    5425    5428    5431    5434    5437    5440    5443
    5446    5449    5452    5455    5458    5461    5464    5467    5470    5473
    5476    5479    5482    5485    5488    5491    5494    5497    5500    5503
    5506    5509    5512    5515    5518    5521    5524    5527    5530    5533
    5536    5539    5542    5545    5548    5551    5554    5557    5560    5563
    5566    5569    5572    5575    5578    5581    5584    5587    5590    5593
    5596    5599    5602    5605    5608    5611    5614    5617    5620    5623
    5626    5629    5632    5635    5638    5641    5644    5647    5650    5653
    5656    5659    5662    5665    5668    5671    5674    5677    5680    5683
    5686    5689    5692    5695    5698    5701    5704    5707    5710    5713
    5716    5719    5722    5725    5728    5731    5734    5737    5740    5743
    5746    5749    5752    5755    5758    5761    5764    5767    5770    5773
    5776    5779    5782    5785    5788    5791    5794    5797    5800    5803
    5806    5809    5812    5815    5818    5821    5824    5827    5830    5833
    5836    5839    5842    5845    5848    5851    5854    5857    5860    5863
    5866    5869    5872    5875    5878    5881    5884    5887    5890    5893
    5896    5899    5902    5905    5908    5911    5914    5917    5920    5923
    5926    5929    5932    5935    5938    5941    5944    5947    5950    5953
    5956    5959    5962    5965    5968    5971    5974    5977    5980    5983
    5986    5989    5992    5995    5998    6001    6004    6007    6010    6013
    6016    6019    6022    6025    6028    6031    6034    6037    6040    6043
    6046    6049    6052    6055    6058    6061    6064    6067    6070    6073
    6076    6079    6082    6085    6088    6091    6094    6097    6100    6103
    6106    6109    6112    6115    6118    6121    6124    6127    6130    6133
    6136    6139    6142    6145    6148    6151    6154    6157    6160    6163
    6166    6169    6172    6175    6178    6181    6184    6187    6190    6193
    6196    6199    6202    6205    6208    6211    6214    6217    6220    6223
    6226    6229    6232    6235    6238    6241    6244    6247    6250    6253
    6256    6259    6262    6265    6268    6271    6274    6277    6280    6283
    6286    6289    6292    6295    6298    6301    6304    6307    6310    6313
    6316    6319    6322    6325    6328    6331    6334    6337    6340    6343
    6346    6349    6352    6355    6358    6361    6364    6367    6370    6373
    6376    6379    6382    6385    6388    6391    6394    6397    6400    6403
    6406    6409    6412    6415    6418    6421    6424    6427    6430    6433
    6436    6439    6442    6445    6448    6451    6454    6457    6460    6463
    6466    6469    6472    6475    6478    6481    6484    6487    6490    6493
    6496    6499    6502    6505    6508    6511    6514    6517    6520    6523
    6526    6529    6532    6535    6538    6541    6544    6547    6550    6553
    6556    6559    6562    6565    6568    6571    6574    6577    6580    6583
    6586    6589    6592    6595    6598    6601    6604    6607    6610    6613
    6616    6619    6622    6625    6628    6631    6634    6637    6640    6643
    6646    6649    6652    6655    6658    6661    6664    6667    6670    6673
    6676    6679    6682    6685    6688    6691    6694    6697    6700    6703
    6706    6709    6712    6715    6718    6721    6724    6727    6730    6733
    6736    6739    6742    6745    6748    6751    6754    6757    6760    6763
    6766    6769    6772    6775    6778    6781    6784    6787    6790    6793
    6796    6799    6802    6805    6808    6811    6814    6817    6820    6823
    6826    6829    6832    6835    6838    6841    6844    6847    6850    6853
    6856    6859    6862    6865    6868    6871    6874    6877    6880    6883
    6886    6889    6892    6895    6898    6901    6904    6907    6910    6913
    6916    6919    6922    6925    6928    6931    6934    6937    6940    6943
    6946    6949    6952    6955    6958    6961    6964    6967    6970    6973
    6976    6979    6982    6985    6988    6991    6994    6997    7000    7003
    7006    7009    7012    7015    7018    7021    7024    7027    7030    7033
    7036    7039    7042    7045    7048    7051    7054    7057    7060    7063
    7066    7069    7072    7075    7078    7081    7084    7087    7090    7093
    7096    7099    7102    7105    7108    7111    7114    7117    7120    7123
    7126    7129    7132    7135    7138    7141    7144    7147    7150    7153
    7156    7159    7162    7165    7168    7171    7174    7177    7180    7183
    7186    7189    7192    7195    7198    7201    7204    7207    7210    7213
    7216    7219    7222    7225    7228    7231    7234    7237    7240    7243
    7246    7249    7252    7255    7258    7261    7264    7267    7270    7273
    7276    7279    7282    7285    7288    7291    7294    7297    7300    7303
    7306    7309    7312    7315    7318    7321    7324    7327    7330    7333
    7336    7339    7342    7345    7348    7351    7354    7357    7360    7363
    7366    7369    7372    7375    7378    7381    7384    7387    7390    7393
    7396    7399    7402    7405    7408    7411    7414    7417    7420    7423
    7426    7429    7432    7435    7438    7441    7444    7447    7450    7453
    7456    7459    7462    7465    7468    7471    7474    7477    7480    7483
    7486    7489    7492    7495    7498    7501    7504    7507    7510    7513
    7516    7519    7522    7525    7528    7531    7534    7537    7540    7543
    7546    7549    7552    7555    7558    7561    7564    7567    7570    7573
    7576    7579    7582    7585    7588    7591    7594    7597    7600    7603
    7606    7609    7612    7615    7618    7621    7624    7627    7630    7633
    7636    7639    7642    7645    7648    7651    7654    7657    7660    7663
    7666    7669    7672    7675    7678    7681    7684    7687    7690    7693
    7696    7699    7702    7705    7708    7711    7714    7717    7720    7723
    7726    7729    7732    7735    7738    7741    7744    7747    7750    7753
    7756    7759    7762    7765    7768    7771    7774    7777    7780    7783
    7786    7789    7792    7795    7798    7801    7804    7807    7810    7813
    7816    7819    7822    7825    7828    7831    7834    7837    7840    7843
    7846    7849    7852    7855    7858    7861    7864    7867    7870    7873
    7876    7879    7882    7885    7888    7891    7894    7897    7900    7903
    7906    7909    7912    7915    7918    7921    7924    7927    7930    7933
    7936    7939    7942    7945    7948    7951    7954    7957    7960    7963
    7966    7969    7972    7975    7978    7981    7984    7987    7990    7993
    7996    7999    8002    8005    8008    8011    8014    8017    8020    8023
    8026    8029    8032    8035    8038    8041    8044    8047    8050    8053
    8056    8059    8062    8065    8068    8071    8074    8077    8080    8083
    8086    8089    8092    8095    8098    8101    8104    8107    8110    8113
    8116    8119    8122    8125    8128    8131    8134    8137    8140    8143
    8146    8149    8152    8155    8158    8161    8164    8167    8170    8173
    8176    8179    8182    8185    8188    8191    8194    8197    8200    8203
    8206    8209    8212    8215    8218    8221    8224    8227    8230    8233
    8236    8239    8242    8245    8248    8251    8254    8257    8260    8263
    8266    8269    8272    8275    8278    8281    8284    8287    8290    8293
    8296    8299    8302    8305    8308    8311    8314    8317    8320    8323
    8326    8329    8332    8335    8338    8341    8344    8347    8350    8353
    8356    8359    8362    8365    8368    8371    8374    8377    8380    8383
    8386    8389    8392    8395    8398    8401    8404    8407    8410    8413
    8416    8419    8422    8425    8428    8431    8434    8437    8440    8443
    8446    8449    8452    8455    8458    8461    8464    8467    8470    8473
    8476    8479    8482    8485    8488    8491    8494    8497    8500    8503
    8506    8509    8512    8515    8518    8521    8524    8527    8530    8533
    8536    8539    8542    8545    8548    8551    8554    8557    8560    8563
    8566    8569    8572    8575    8578    8581    8584    8587    8590    8593
    8596    8599    8602    8605    8608    8611    8614    8617    8620    8623
    8626    8629    8632    8635    8638    8641    8644    8647    8650    8653
    8656    8659    8662    8665    8668    8671    8674    8677    8680    8683
    8686    8689    8692    8695    8698    8701    8704    8707    8710    8713
    8716    8719    8722    8725    8728    8731    8734    8737    8740    8743
    8746    8749    8752    8755    8758    8761    8764    8767    8770    8773
    8776    8779    8782    8785    8788    8791    8794    8797    8800    8803
    8806    8809    8812    8815    8818    8821    8824    8827    8830    8833
    8836    8839    8842    8845    8848    8851    8854    8857    8860    8863
    8866    8869    8872    8875    8878    8881    8884    8887    8890    8893
    8896    8899    8902    8905    8908    8911    8914    8917    8920    8923
    8926    8929    8932    8935    8938    8941    8944    8947    8950    8953
    8956    8959    8962    8965    8968    8971    8974    8977    8980    8983
    8986    8989    8992    8995    8998    9001    9004    9007    9010    9013
    9016    9019    9022    9025    9028    9031    9034    9037    9040    9043
    9046    9049    9052    9055    9058    9061    9064    9067    9070    9073
    9076    9079    9082    9085    9088    9091    9094    9097    9100    9103
    9106    9109    9112    9115    9118    9121    9124    9127    9130    9133
    9136    9139    9142    9145    9148    9151    9154    9157    9160    9163
    9166    9169    9172    9175    9178    9181    9184    9187    9190    9193
    9196    9199    9202    9205    9208    9211    9214    9217    9220    9223
    9226    9229    9232    9235    9238    9241    9244    9247    9250    9253
    9256    9259    9262    9265    9268    9271    9274    9277    9280    9283
    9286    9289    9292    9295    9298    9301    9304    9307    9310    9313
    9316    9319    9322    9325    9328    9331    9334    9337    9340    9343
    9346    9349    9352    9355    9358    9361    9364    9367    9370    9373
    9376    9379    9382    9385    9388    9391    9394    9397    9400    9403
    9406    9409    9412    9415    9418    9421    9424    9427    9430    9433
    9436    9439    9442    9445    9448    9451    9454    9457    9460    9463
    9466    9469    9472    9475    9478    9481    9484    9487    9490    9493
    9496    9499    9502    9505    9508    9511    9514    9517    9520    9523
    9526    9529    9532    9535    9538    9541    9544    9547    9550    9553
    9556    9559    9562    9565    9568    9571    9574    9577    9580    9583
    9586    9589    9592    9595    9598    9601    9604    9607    9610    9613
    9616    9619    9622    9625    9628    9631    9634    9637    9640    9643
    9646    9649    9652    9655    9658    9661    9664    9667    9670    9673
    9676    9679    9682    9685    9688    9691    9694    9697    9700    9703
    9706    9709    9712    9715    9718    9721    9724    9727    9730    9733
    9736    9739    9742    9745    9748    9751    9754    9757    9760    9763
    9766    9769    9772    9775    9778    9781    9784    9787    9790    9793
    9796    9799    9802    9805    9808    9811    9814    9817    9820    9823
    9826    9829    9832    9835    9838    9841    9844    9847    9850    9853
    9856    9859    9862    9865    9868    9871    9874    9877    9880    9883
    9886    9889    9892    9895    9898    9901    9904    9907    9910    9913
    9916    9919    9922    9925    9928    9931    9934    9937    9940    9943
    9946    9949    9952    9955    9958    9961    9964    9967    9970    9973
    9976    9979    9982    9985    9988    9991    9994    9997   10000   10003
   10006   10009   10012   10015   10018   10021   10024   10027   10030   10033
   10036   10039   10042   10045   10048   10051   10054   10057   10060   10063
   10066   10069   10072   10075   10078   10081   10084   10087   10090   10093
   10096   10099   10102   10105   10108   10111   10114   10117   10120   10123
   10126   10129   10132   10135   10138   10141   10144   10147   10150   10153
   10156   10159   10162   10165   10168   10171   10174   10177   10180   10183
   10186   10189   10192   10195   10198   10201   10204   10207   10210   10213
   10216   10219   10222   10225   10228   10231   10234   10237   10240   10243
   10246   10249   10252   10255   10258   10261   10264   10267   10270   10273
   10276   10279   10282   10285   10288   10291   10294   10297   10300   10303
   10306   10309   10312   10315   10318   10321   10324   10327   10330   10333
   10336   10339   10342   10345   10348   10351   10354   10357   10360   10363
   10366   10369   10372   10375   10378   10381   10384   10387   10390   10393
   10396   10399   10402   10405   10408   10411   10414   10417   10420   10423
   10426   10429   10432   10435   10438   10441   10444   10447   10450   10453
   10456   10459   10462   10465   10468   10471   10474   10477   10480   10483
   10486   10489   10492   10495   10498   10501   10504   10507   10510   10513
   10516   10519   10522   10525   10528   10531   10534   10537   10540   10543
   10546   10549   10552   10555   10558   10561   10564   10567   10570   10573
   10576   10579   10582   10585   10588   10591   10594   10597   10600   10603
   10606   10609   10612   10615   10618   10621   10624   10627   10630   10633
   10636   10639   10642   10645   10648   10651   10654   10657   10660   10663
   10666   10669   10672   10675   10678   10681   10684   10687   10690   10693
   10696   10699   10702   10705   10708   10711   10714   10717   10720   10723
   10726   10729   10732   10735   10738   10741   10744   10747   10750   10753
   10756   10759   10762   10765   10768   10771   10774   10777   10780   10783
   10786   10789   10792   10795   10798   10801   10804   10807   10810   10813
   10816   10819   10822   10825   10828   10831   10834   10837   10840   10843
   10846   10849   10852   10855   10858   10861   10864   10867   10870   10873
   10876   10879   10882   10885   10888   10891   10894   10897   10900   10903
   10906   10909   10912   10915   10918   10921   10924   10927   10930   10933
   10936   10939   10942   10945   10948   10951   10954   10957   10960   10963
   10966   10969   10972   10975   10978   10981   10984   10987   10990   10993
   10996   10999   11002   11005   11008   11011   11014   11017   11020   11023
   11026   11029   11032   11035   11038   11041   11044   11047   11050   11053
   11056   11059   11062   11065   11068   11071   11074   11077   11080   11083
   11086   11089   11092   11095   11098   11101   11104   11107   11110   11113
   11116   11119   11122   11125   11128   11131   11134   11137   11140   11143
   11146   11149   11152   11155   11158   11161   11164   11167   11170   11173
   11176   11179   11182   11185   11188   11191   11194   11197   11200   11203
   11206   11209   11212   11215   11218   11221   11224   11227   11230   11233
   11236   11239   11242   11245   11248   11251   11254   11257   11260   11263
   11266   11269   11272   11275   11278   11281   11284   11287   11290   11293
   11296   11299   11302   11305   11308   11311   11314   11317   11320   11323
   11326   11329   11332   11335   11338   11341   11344   11347   11350   11353
   11356   11359   11362   11365   11368   11371   11374   11377   11380   11383
   11386   11389   11392   11395   11398   11401   11404   11407   11410   11413
   11416   11419   11422   11425   11428   11431   11434   11437   11440   11443
   11446   11449   11452   11455   11458   11461   11464   11467   11470   11473
   11476   11479   11482   11485   11488   11491   11494   11497   11500   11503
   11506   11509   11512   11515   11518   11521   11524   11527   11530   11533
   11536   11539   11542   11545   11548   11551   11554   11557   11560   11563
   11566   11569   11572   11575   11578   11581   11584   11587   11590   11593
   11596   11599   11602   11605   11608   11611   11614   11617   11620   11623
   11626   11629   11632   11635   11638   11641   11644   11647   11650   11653
   11656   11659   11662   11665   11668   11671   11674   11677   11680   11683
   11686   11689   11692   11695   11698   11701   11704   11707   11710   11713
   11716   11719   11722   11725   11728   11731   11734   11737   11740   11743
   11746   11749   11752   11755   11758   11761   11764   11767   11770   11773
   11776   11779   11782   11785   11788   11791   11794   11797   11800   11803
   11806   11809   11812   11815   11818   11821   11824   11827   11830   11833
   11836   11839   11842   11845   11848   11851   11854   11857   11860   11863
   11866   11869   11872   11875   11878   11881   11884   11887   11890   11893
   11896   11899   11902   11905   11908   11911   11914   11917   11920   11923
   11926   11929   11932   11935   11938   11941   11944   11947   11950   11953
   11956   11959   11962   11965   11968   11971   11974   11977   11980   11983
   11986   11989   11992   11995   11998   12001   12004   12007   12010   12013
   12016   12019   12022   12025   12028   12031   12034   12037   12040   12043
   12046   12049   12052   12055   12058   12061   12064   12067   12070   12073
   12076   12079   12082   12085   12088   12091   12094   12097   12100   12103
   12106   12109   12112   12115   12118   12121   12124   12127   12130   12133
   12136   12139   12142   12145   12148   12151   12154   12157   12160   12163
   12166   12169   12172   12175   12178   12181   12184   12187   12190   12193
   12196   12199   12202   12205   12208   12211   12214   12217   12220   12223
   12226   12229   12232   12235   12238   12241   12244   12247   12250   12253
   12256   12259   12262   12265   12268   12271   12274   12277   12280   12283
   12286   12289   12292   12295   12298   12301   12304   12307   12310   12313
   12316   12319   12322   12325   12328   12331   12334   12337   12340   12343
   12346   12349   12352   12355   12358   12361   12364   12367   12370   12373
   12376   12379   12382   12385   12388   12391   12394   12397   12400   12403
   12406   12409   12412   12415   12418   12421   12424   12427   12430   12433
   12436   12439   12442   12445   12448   12451   12454   12457   12460   12463
   12466   12469   12472   12475   12478   12481   12484   12487   12490   12493
   12496   12499   12502   12505   12508   12511   12514   12517   12520   12523
   12526   12529   12532   12535   12538   12541   12544   12547   12550   12553
   12556   12559   12562   12565   12568   12571   12574   12577   12580   12583
   12586   12589   12592   12595   12598   12601   12604   12607   12610   12613
   12616   12619   12622   12625   12628   12631   12634   12637   12640   12643
   12646   12649   12652   12655   12658   12661   12664   12667   12670   12673
   12676   12679   12682   12685   12688   12691   12694   12697   12700   12703
   12706   12709   12712   12715   12718   12721   12724   12727   12730   12733
   12736   12739   12742   12745   12748   12751   12754   12757   12760   12763
   12766   12769   12772   12775   12778   12781   12784   12787   12790   12793
   12796   12799   12802   12805   12808   12811   12814   12817   12820   12823
   12826   12829   12832   12835   12838   12841   12844   12847   12850   12853
   12856   12859   12862   12865   12868   12871   12874   12877   12880   12883
   12886   12889   12892   12895   12898   12901   12904   12907   12910   12913
   12916   12919   12922   12925   12928   12931   12934   12937   12940   12943
   12946   12949   12952   12955   12958   12961   12964   12967   12970   12973
   12976   12979   12982   12985   12988   12991   12994   12997   13000   13003
   13006   13009   13012   13015   13018   13021   13024   13027   13030   13033
   13036   13039   13042   13045   13048   13051   13054   13057   13060   13063
   13066   13069   13072   13075   13078   13081   13084   13087   13090   13093
   13096   13099   13102   13105   13108   13111   13114   13117   13120   13123
   13126   13129   13132   13135   13138   13141   13144   13147   13150   13153
   13156   13159   13162   13165   13168   13171   13174   13177   13180   13183
   13186   13189   13192   13195   13198   13201   13204   13207   13210   13213
   13216   13219   13222   13225   13228   13231   13234   13237   13240   13243
   13246   13249   13252   13255   13258   13261   13264   13267   13270   13273
   13276   13279   13282   13285   13288   13291   13294   13297   13300   13303
   13306   13309   13312   13315   13318   13321   13324   13327   13330   13333
   13336   13339   13342   13345   13348   13351   13354   13357   13360   13363
   13366   13369   13372   13375   13378   13381   13384   13387   13390   13393
   13396   13399   13402   13405   13408   13411   13414   13417   13420   13423
   13426   13429   13432   13435   13438   13441   13444   13447   13450   13453
   13456   13459   13462   13465   13468   13471   13474   13477   13480   13483
   13486   13489   13492   13495   13498   13501   13504   13507   13510   13513
   13516   13519   13522   13525   13528   13531   13534   13537   13540   13543
   13546   13549   13552   13555   13558   13561   13564   13567   13570   13573
   13576   13579   13582   13585   13588   13591   13594   13597   13600   13603
   13606   13609   13612   13615   13618   13621   13624   13627   13630   13633
   13636   13639   13642   13645   13648   13651   13654   13657   13660   13663
   13666   13669   13672   13675   13678   13681   13684   13687   13690   13693
   13696   13699   13702   13705   13708   13711   13714   13717   13720   13723
   13726   13729   13732   13735   13738   13741   13744   13747   13750   13753
   13756   13759   13762   13765   13768   13771   13774   13777   13780   13783
   13786   13789   13792   13795   13798   13801   13804   13807   13810   13813
   13816   13819   13822   13825   13828   13831   13834   13837   13840   13843
   13846   13849   13852   13855   13858   13861   13864   13867   13870   13873
   13876   13879   13882   13885   13888   13891   13894   13897   13900   13903
   13906   13909   13912   13915   13918   13921   13924   13927   13930   13933
   13936   13939   13942   13945   13948   13951   13954   13957   13960   13963
   13966   13969   13972   13975   13978   13981   13984   13987   13990   13993
   13996   13999   14002   14005   14008   14011   14014   14017   14020   14023
   14026   14029   14032   14035   14038   14041   14044   14047   14050   14053
   14056   14059   14062   14065   14068   14071   14074   14077   14080   14083
   14086   14089   14092   14095   14098   14101   14104   14107   14110   14113
   14116   14119   14122   14125   14128   14131   14134   14137   14140   14143
   14146   14149   14152   14155   14158   14161   14164   14167   14170   14173
   14176   14179   14182   14185   14188   14191   14194   14197   14200   14203
   14206   14209   14212   14215   14218   14221   14224   14227   14230   14233
   14236   14239   14242   14245   14248   14251   14254   14257   14260   14263
   14266   14269   14272   14275   14278   14281   14284   14287   14290   14293
   14296   14299   14302   14305   14308   14311   14314   14317   14320   14323
   14326   14329   14332   14335   14338   14341   14344   14347   14350   14353
   14356   14359   14362   14365   14368   14371   14374   14377   14380   14383
   14386   14389   14392   14395   14398   14401   14404   14407   14410   14413
   14416   14419   14422   14425   14428   14431   14434   14437   14440   14443
   14446   14449   14452   14455   14458   14461   14464   14467   14470   14473
   14476   14479   14482   14485   14488   14491   14494   14497   14500   14503
   14506   14509   14512   14515   14518   14521   14524   14527   14530   14533
   14536   14539   14542   14545   14548   14551   14554   14557   14560   14563
   14566   14569   14572   14575   14578   14581   14584   14587   14590   14593
   14596   14599   14602   14605   14608   14611   14614   14617   14620   14623
   14626   14629   14632   14635   14638   14641   14644   14647   14650   14653
   14656   14659   14662   14665   14668   14671   14674   14677   14680   14683
   14686   14689   14692   14695   14698   14701   14704   14707   14710   14713
   14716   14719   14722   14725   14728   14731   14734   14737   14740   14743
   14746   14749   14752   14755   14758   14761   14764   14767   14770   14773
   14776   14779   14782   14785   14788   14791   14794   14797   14800   14803
   14806   14809   14812   14815   14818   14821   14824   14827   14830   14833
   14836   14839   14842   14845   14848   14851   14854   14857   14860   14863
   14866   14869   14872   14875   14878   14881   14884   14887   14890   14893
   14896   14899   14902   14905   14908   14911   14914   14917   14920   14923
   14926   14929   14932   14935   14938   14941   14944   14947   14950   14953
   14956   14959   14962   14965   14968   14971   14974   14977   14980   14983
   14986   14989   14992   14995   14998   15001   15004   15007   15010   15013
   15016   15019   15022   15025   15028   15031   15034   15037   15040   15043
   15046   15049   15052   15055   15058   15061   15064   15067   15070   15073
   15076   15079   15082   15085   15088   15091   15094   15097   15100   15103
   15106   15109   15112   15115   15118   15121   15124   15127   15130   15133
   15136   15139   15142   15145   15148   15151   15154   15157   15160   15163
   15166   15169   15172   15175   15178   15181   15184   15187   15190   15193
   15196   15199   15202   15205   15208   15211   15214   15217   15220   15223
   15226   15229   15232   15235   15238   15241   15244   15247   15250   15253
   15256   15259   15262   15265   15268   15271   15274   15277   15280   15283
   15286   15289   15292   15295   15298   15301   15304   15307   15310   15313
   15316   15319   15322   15325   15328   15331   15334   15337   15340   15343
   15346   15349   15352   15355   15358   15361   15364   15367   15370   15373
   15376   15379   15382   15385   15388   15391   15394   15397   15400   15403
   15406   15409   15412   15415   15418   15421   15424   15427   15430   15433
   15436   15439   15442   15445   15448   15451   15454   15457   15460   15463
   15466   15469   15472   15475   15478   15481   15484   15487   15490   15493
   15496   15499   15502   15505   15508   15511   15514   15517   15520   15523
   15526   15529   15532   15535   15538   15541   15544   15547   15550   15553
   15556   15559   15562   15565   15568   15571   15574   15577   15580   15583
   15586   15589   15592   15595   15598   15601   15604   15607   15610   15613
   15616   15619   15622   15625   15628   15631   15634   15637   15640   15643
   15646   15649   15652   15655   15658   15661   15664   15667   15670   15673
   15676   15679   15682   15685   15688   15691   15694   15697   15700   15703
   15706   15709   15712   15715   15718   15721   15724   15727   15730   15733
   15736   15739   15742   15745   15748   15751   15754   15757   15760   15763
   15766   15769   15772   15775   15778   15781   15784   15787   15790   15793
   15796   15799   15802   15805   15808   15811   15814   15817   15820   15823
   15826   15829   15832   15835   15838   15841   15844   15847   15850   15853
   15856   15859   15862   15865   15868   15871   15874   15877   15880   15883
   15886   15889   15892   15895   15898   15901   15904   15907   15910   15913
   15916   15919   15922   15925   15928   15931   15934   15937   15940   15943
   15946   15949   15952   15955   15958   15961   15964   15967   15970   15973
   15976   15979   15982   15985   15988   15991   15994   15997   16000   16003
   16006   16009   16012   16015   16018   16021   16024   16027   16030   16033
   16036   16039   16042   16045   16048   16051   16054   16057   16060   16063
   16066   16069   16072   16075   16078   16081   16084   16087   16090   16093
   16096   16099   16102   16105   16108   16111   16114   16117   16120   16123
   16126   16129   16132   16135   16138   16141   16144   16147   16150   16153
   16156   16159   16162   16165   16168   16171   16174   16177   16180   16183
   16186   16189   16192   16195   16198   16201   16204   16207   16210   16213
   16216   16219   16222   16225   16228   16231   16234   16237   16240   16243
   16246   16249   16252   16255   16258   16261   16264   16267   16270   16273
   16276   16279   16282   16285   16288   16291   16294   16297   16300   16303
   16306   16309   16312   16315   16318   16321   16324   16327   16330   16333
   16336   16339   16342   16345   16348   16351   16354   16357   16360   16363
   16366   16369   16372   16375   16378   16381   16384   16387   16390   16393
   16396   16399   16402   16405   16408   16411   16414   16417   16420   16423
   16426   16429   16432   16435   16438   16441   16444   16447   16450   16453
   16456   16459   16462   16465   16468   16471   16474   16477   16480   16483
   16486   16489   16492   16495   16498   16501   16504   16507   16510   16513
   16516   16519   16522   16525   16528   16531   16534   16537   16540   16543
   16546   16549   16552   16555   16558   16561   16564   16567   16570   16573
   16576   16579   16582   16585   16588   16591   16594   16597   16600   16603
   16606   16609   16612   16615   16618   16621   16624   16627   16630   16633
   16636   16639   16642   16645   16648   16651   16654   16657   16660   16663
   16666   16669   16672   16675   16678   16681   16684   16687   16690   16693
   16696   16699   16702   16705   16708   16711   16714   16717   16720   16723
   16726   16729   16732   16735   16738   16741   16744   16747   16750   16753
   16756   16759   16762   16765   16768   16771   16774   16777   16780   16783
   16786   16789   16792   16795   16798   16801   16804   16807   16810   16813
   16816   16819   16822   16825   16828   16831   16834   16837   16840   16843
   16846   16849   16852   16855   16858   16861   16864   16867   16870   16873
   16876   16879   16882   16885   16888   16891   16894   16897   16900   16903
   16906   16909   16912   16915   16918   16921   16924   16927   16930   16933
   16936   16939   16942   16945   16948   16951   16954   16957   16960   16963
   16966   16969   16972   16975   16978   16981   16984   16987   16990   16993
   16996   16999   17002   17005   17008   17011   17014   17017   17020   17023
   17026   17029   17032   17035   17038   17041   17044   17047   17050   17053
   17056   17059   17062   17065   17068   17071   17074   17077   17080   17083
   17086   17089   17092   17095   17098   17101   17104   17107   17110   17113
   17116   17119   17122   17125   17128   17131   17134   17137   17140   17143
   17146   17149   17152   17155   17158   17161   17164   17167   17170   17173
   17176   17179   17182   17185   17188   17191   17194   17197   17200   17203
   17206   17209   17212   17215   17218   17221   17224   17227   17230   17233
   17236   17239   17242   17245   17248   17251   17254   17257   17260   17263
   17266   17269   17272   17275   17278   17281   17284   17287   17290   17293
   17296   17299   17302   17305   17308   17311   17314   17317   17320   17323
   17326   17329   17332   17335   17338   17341   17344   17347   17350   17353
   17356   17359   17362   17365   17368   17371   17374   17377   17380   17383
   17386   17389   17392   17395   17398   17401   17404   17407   17410   17413
   17416   17419   17422   17425   17428   17431   17434   17437   17440   17443
   17446   17449   17452   17455   17458   17461   17464   17467   17470   17473
   17476   17479   17482   17485   17488   17491   17494   17497   17500   17503
   17506   17509   17512   17515   17518   17521   17524   17527   17530   17533
   17536   17539   17542   17545   17548   17551   17554   17557   17560   17563
   17566   17569   17572   17575   17578   17581   17584   17587   17590   17593
   17596   17599   17602   17605   17608   17611   17614   17617   17620   17623
   17626   17629   17632   17635   17638   17641   17644   17647   17650   17653
   17656   17659   17662   17665   17668   17671   17674   17677   17680   17683
   17686   17689   17692   17695   17698   17701   17704   17707   17710   17713
   17716   17719   17722   17725   17728   17731   17734   17737   17740   17743
   17746   17749   17752   17755   17758   17761   17764   17767   17770   17773
   17776   17779   17782   17785   17788   17791   17794   17797   17800   17803
   17806   17809   17812   17815   17818   17821   17824   17827   17830   17833
   17836   17839   17842   17845   17848   17851   17854   17857   17860   17863
   17866   17869   17872   17875   17878   17881   17884   17887   17890   17893
   17896   17899   17902   17905   17908   17911   17914   17917   17920   17923
   17926   17929   17932   17935   17938   17941   17944   17947   17950   17953
   17956   17959   17962   17965   17968   17971   17974   17977   17980   17983
   17986   17989   17992   17995   17998   18001   18004   18007   18010   18013
   18016   18019   18022   18025   18028   18031   18034   18037   18040   18043
   18046   18049   18052   18055   18058   18061   18064   18067   18070   18073
   18076   18079   18082   18085   18088   18091   18094   18097   18100   18103
   18106   18109   18112   18115   18118   18121   18124   18127   18130   18133
   18136   18139   18142   18145   18148   18151   18154   18157   18160   18163
   18166   18169   18172   18175   18178   18181   18184   18187   18190   18193
   18196   18199   18202   18205   18208   18211   18214   18217   18220   18223
   18226   18229   18232   18235   18238   18241   18244   18247   18250   18253
   18256   18259   18262   18265   18268   18271   18274   18277   18280   18283
   18286   18289   18292   18295   18298   18301   18304   18307   18310   18313
   18316   18319   18322   18325   18328   18331   18334   18337   18340   18343
   18346   18349   18352   18355   18358   18361   18364   18367   18370   18373
   18376   18379   18382   18385   18388   18391   18394   18397   18400   18403
   18406   18409   18412   18415   18418   18421   18424   18427   18430   18433
   18436   18439   18442   18445   18448   18451   18454   18457   18460   18463
   18466   18469   18472   18475   18478   18481   18484   18487   18490   18493
   18496   18499   18502   18505   18508   18511   18514   18517   18520   18523
   18526   18529   18532   18535   18538   18541   18544   18547   18550   18553
   18556   18559   18562   18565   18568   18571   18574   18577   18580   18583
   18586   18589   18592   18595   18598   18601   18604   18607   18610   18613
   18616   18619   18622   18625   18628   18631   18634   18637   18640   18643
   18646   18649   18652   18655   18658   18661   18664   18667   18670   18673
   18676   18679   18682   18685   18688   18691   18694   18697   18700   18703
   18706   18709   18712   18715   18718   18721   18724   18727   18730   18733
   18736   18739   18742   18745   18748   18751   18754   18757   18760   18763
   18766   18769   18772   18775   18778   18781   18784   18787   18790   18793
   18796   18799   18802   18805   18808   18811   18814   18817   18820   18823
   18826   18829   18832   18835   18838   18841   18844   18847   18850   18853
   18856   18859   18862   18865   18868   18871   18874   18877   18880   18883
   18886   18889   18892   18895   18898   18901   18904   18907   18910   18913
   18916   18919   18922   18925   18928   18931   18934   18937   18940   18943
   18946   18949   18952   18955   18958   18961   18964   18967   18970   18973
   18976   18979   18982   18985   18988   18991   18994   18997   19000   19003
   19006   19009   19012   19015   19018   19021   19024   19027   19030   19033
   19036   19039   19042   19045   19048   19051   19054   19057   19060   19063
   19066   19069   19072   19075   19078   19081   19084   19087   19090   19093
   19096   19099   19102   19105   19108   19111   19114   19117   19120   19123
   19126   19129   19132   19135   19138   19141   19144   19147   19150   19153
   19156   19159   19162   19165   19168   19171   19174   19177   19180   19183
   19186   19189   19192   19195   19198   19201   19204   19207   19210   19213
   19216   19219   19222   19225   19228   19231   19234   19237   19240   19243
   19246   19249   19252   19255   19258   19261   19264   19267   19270   19273
   19276   19279   19282   19285   19288   19291   19294   19297   19300   19303
   19306   19309   19312   19315   19318   19321   19324   19327   19330   19333
   19336   19339   19342   19345   19348   19351   19354   19357   19360   19363
   19366   19369   19372   19375   19378   19381   19384   19387   19390   19393
   19396   19399   19402   19405   19408   19411   19414   19417   19420   19423
   19426   19429   19432   19435   19438   19441   19444   19447   19450   19453
   19456   19459   19462   19465   19468   19471   19474   19477   19480   19483
   19486   19489   19492   19495   19498   19501   19504   19507   19510   19513
   19516   19519   19522   19525   19528   19531   19534   19537   19540   19543
   19546   19549   19552   19555   19558   19561   19564   19567   19570   19573
   19576   19579   19582   19585   19588   19591   19594   19597   19600   19603
   19606   19609   19612   19615   19618   19621   19624   19627   19630   19633
   19636   19639   19642   19645   19648   19651   19654   19657   19660   19663
   19666   19669   19672   19675   19678   19681   19684   19687   19690   19693
   19696   19699   19702   19705   19708   19711   19714   19717   19720   19723
   19726   19729   19732   19735   19738   19741   19744   19747   19750   19753
   19756   19759   19762   19765   19768   19771   19774   19777   19780   19783
   19786   19789   19792   19795   19798   19801   19804   19807   19810   19813
   19816   19819   19822   19825   19828   19831   19834   19837   19840   19843
   19846   19849   19852   19855   19858   19861   19864   19867   19870   19873
   19876   19879   19882   19885   19888   19891   19894   19897   19900   19903
   19906   19909   19912   19915   19918   19921   19924   19927   19930   19933
   19936   19939   19942   19945   19948   19951   19954   19957   19960   19963
   19966   19969   19972   19975   19978   19981   19984   19987   19990   19993
   19996   19999   20002   20005   20008   20011   20014   20017   20020   20023
   20026   20029   20032   20035   20038   20041   20044   20047   20050   20053
   20056   20059   20062   20065   20068   20071   20074   20077   20080   20083
   20086   20089   20092   20095   20098   20101   20104   20107   20110   20113
   20116   20119   20122   20125   20128   20131   20134   20137   20140   20143
   20146   20149   20152   20155   20158   20161   20164   20167   20170   20173
   20176   20179   20182   20185   20188   20191   20194   20197   20200   20203
   20206   20209   20212   20215   20218   20221   20224   20227   20230   20233
   20236   20239   20242   20245   20248   20251   20254   20257   20260   20263
   20266   20269   20272   20275   20278   20281   20284   20287   20290   20293
   20296   20299   20302   20305   20308   20311   20314   20317   20320   20323
   20326   20329   20332   20335   20338   20341   20344   20347   20350   20353
   20356   20359   20362   20365   20368   20371   20374   20377   20380   20383
   20386   20389   20392   20395   20398   20401   20404   20407   20410   20413
   20416   20419   20422   20425   20428   20431   20434   20437   20440   20443
   20446   20449   20452   20455   20458   20461   20464   20467   20470   20473
   20476   20479   20482   20485   20488   20491   20494   20497   20500   20503
   20506   20509   20512   20515   20518   20521   20524   20527   20530   20533
   20536   20539   20542   20545   20548   20551   20554   20557   20560   20563
   20566   20569   20572   20575   20578   20581   20584   20587   20590   20593
   20596   20599   20602   20605   20608   20611   20614   20617   20620   20623
   20626   20629   20632   20635   20638   20641   20644   20647   20650   20653
   20656   20659   20662   20665   20668   20671   20674   20677   20680   20683
   20686   20689   20692   20695   20698   20701   20704   20707   20710   20713
   20716   20719   20722   20725   20728   20731   20734   20737   20740   20743
   20746   20749   20752   20755   20758   20761   20764   20767   20770   20773
   20776   20779   20782   20785   20788   20791   20794   20797   20800   20803
   20806   20809   20812   20815   20818   20821   20824   20827   20830   20833
   20836   20839   20842   20845   20848   20851   20854   20857   20860   20863
   20866   20869   20872   20875   20878   20881   20884   20887   20890   20893
   20896   20899   20902   20905   20908   20911   20914   20917   20920   20923
   20926   20929   20932   20935   20938   20941   20944   20947   20950   20953
   20956   20959   20962   20965   20968   20971   20974   20977   20980   20983
   20986   20989   20992   20995   20998   21001   21004   21007   21010   21013
   21016   21019   21022   21025   21028   21031   21034   21037   21040   21043
   21046   21049   21052   21055   21058   21061   21064   21067   21070   21073
   21076   21079   21082   21085   21088   21091   21094   21097   21100   21103
   21106   21109   21112   21115   21118   21121   21124   21127   21130   21133
   21136   21139   21142   21145   21148   21151   21154   21157   21160   21163
   21166   21169   21172   21175   21178   21181   21184   21187   21190   21193
   21196   21199   21202   21205   21208   21211   21214   21217   21220   21223
   21226   21229   21232   21235   21238   21241   21244   21247   21250   21253
   21256   21259   21262   21265   21268   21271   21274   21277   21280   21283
   21286   21289   21292   21295   21298   21301   21304   21307   21310   21313
   21316   21319   21322   21325   21328   21331   21334   21337   21340   21343
   21346   21349   21352   21355   21358   21361   21364   21367   21370   21373
   21376   21379   21382   21385   21388   21391   21394   21397   21400   21403
   21406   21409   21412   21415   21418   21421   21424   21427   21430   21433
   21436   21439   21442   21445   21448   21451   21454   21457   21460   21463
   21466   21469   21472   21475   21478   21481   21484   21487   21490   21493
   21496   21499   21502   21505   21508   21511   21514   21517   21520   21523
   21526   21529   21532   21535   21538   21541   21544   21547   21550   21553
   21556   21559   21562   21565   21568   21571   21574   21577   21580   21583
   21586   21589   21592   21595   21598   21601   21604   21607   21610   21613
   21616   21619   21622   21625   21628   21631   21634   21637   21640   21643
   21646   21649   21652   21655   21658   21661   21664   21667   21670   21673
   21676   21679   21682   21685   21688   21691   21694   21697   21700   21703
   21706   21709   21712   21715   21718   21721   21724   21727   21730   21733
   21736   21739   21742   21745   21748   21751   21754   21757   21760   21763
   21766   21769   21772   21775   21778   21781   21784   21787   21790   21793
   21796   21799   21802   21805   21808   21811   21814   21817   21820   21823
   21826   21829   21832   21835   21838   21841   21844   21847   21850   21853
   21856   21859   21862   21865   21868   21871   21874   21877   21880   21883
   21886   21889   21892   21895   21898   21901   21904   21907   21910   21913
   21916   21919   21922   21925   21928   21931   21934   21937   21940   21943
   21946   21949   21952   21955   21958   21961   21964   21967   21970   21973
   21976   21979   21982   21985   21988   21991   21994   21997   22000   22003
   22006   22009   22012   22015   22018   22021   22024   22027   22030   22033
   22036   22039   22042   22045   22048   22051   22054   22057   22060   22063
   22066   22069   22072   22075   22078   22081   22084   22087   22090   22093
   22096   22099   22102   22105   22108   22111   22114   22117   22120   22123
   22126   22129   22132   22135   22138   22141   22144   22147   22150   22153
   22156   22159   22162   22165   22168   22171   22174   22177   22180   22183
   22186   22189   22192   22195   22198   22201   22204   22207   22210   22213
   22216   22219   22222   22225   22228   22231   22234   22237   22240   22243
   22246   22249   22252   22255   22258   22261   22264   22267   22270   22273
   22276   22279   22282   22285   22288   22291   22294   22297   22300   22303
   22306   22309   22312   22315   22318   22321   22324   22327   22330   22333
   22336   22339   22342   22345   22348   22351   22354   22357   22360   22363
   22366   22369   22372   22375   22378   22381   22384   22387   22390   22393
   22396   22399   22402   22405   22408   22411   22414   22417   22420   22423
   22426   22429   22432   22435   22438   22441   22444   22447   22450   22453
   22456   22459   22462   22465   22468   22471   22474   22477   22480   22483
   22486   22489   22492   22495   22498   22501   22504   22507   22510   22513
   22516   22519   22522   22525   22528   22531   22534   22537   22540   22543
   22546   22549   22552   22555   22558   22561   22564   22567   22570   22573
   22576   22579   22582   22585   22588   22591   22594   22597   22600   22603
   22606   22609   22612   22615   22618   22621   22624   22627   22630   22633
   22636   22639   22642   22645   22648   22651   22654   22657   22660   22663
   22666   22669   22672   22675   22678   22681   22684   22687   22690   22693
   22696   22699   22702   22705   22708   22711   22714   22717   22720   22723
   22726   22729   22732   22735   22738   22741   22744   22747   22750   22753
   22756   22759   22762   22765   22768   22771   22774   22777   22780   22783
   22786   22789   22792   22795   22798   22801   22804   22807   22810   22813
   22816   22819   22822   22825   22828   22831   22834   22837   22840   22843
   22846   22849   22852   22855   22858   22861   22864   22867   22870   22873
   22876   22879   22882   22885   22888   22891   22894   22897   22900   22903
   22906   22909   22912   22915   22918   22921   22924   22927   22930   22933
   22936   22939   22942   22945   22948   22951   22954   22957   22960   22963
   22966   22969   22972   22975   22978   22981   22984   22987   22990   22993
   22996   22999   23002   23005   23008   23011   23014   23017   23020   23023
   23026   23029   23032   23035   23038   23041   23044   23047   23050   23053
   23056   23059   23062   23065   23068   23071   23074   23077   23080   23083
   23086   23089   23092   23095   23098   23101   23104   23107   23110   23113
   23116   23119   23122   23125   23128   23131   23134   23137   23140   23143
   23146   23149   23152   23155   23158   23161   23164   23167   23170   23173
   23176   23179   23182   23185   23188   23191   23194   23197   23200   23203
   23206   23209   23212   23215   23218   23221   23224   23227   23230   23233
   23236   23239   23242   23245   23248   23251   23254   23257   23260   23263
   23266   23269   23272   23275   23278   23281   23284   23287   23290   23293
   23296   23299   23302   23305   23308   23311   23314   23317   23320   23323
   23326   23329   23332   23335   23338   23341   23344   23347   23350   23353
   23356   23359   23362   23365   23368   23371   23374   23377   23380   23383
   23386   23389   23392   23395   23398   23401   23404   23407   23410   23413
   23416   23419   23422   23425   23428   23431   23434   23437   23440   23443
   23446   23449   23452   23455   23458   23461   23464   23467   23470   23473
   23476   23479   23482   23485   23488   23491   23494   23497   23500   23503
   23506   23509   23512   23515   23518   23521   23524   23527   23530   23533
   23536   23539   23542   23545   23548   23551   23554   23557   23560   23563
   23566   23569   23572   23575   23578   23581   23584   23587   23590   23593
   23596   23599   23602   23605   23608   23611   23614   23617   23620   23623
   23626   23629   23632   23635   23638   23641   23644   23647   23650   23653
   23656   23659   23662   23665   23668   23671   23674   23677   23680   23683
   23686   23689   23692   23695   23698   23701   23704   23707   23710   23713
   23716   23719   23722   23725   23728   23731   23734   23737   23740   23743
   23746   23749   23752   23755   23758   23761   23764   23767   23770   23773
   23776   23779   23782   23785   23788   23791   23794   23797   23800   23803
   23806   23809   23812   23815   23818   23821   23824   23827   23830   23833
   23836   23839   23842   23845   23848   23851   23854   23857   23860   23863
   23866   23869   23872   23875   23878   23881   23884   23887   23890   23893
   23896   23899   23902   23905   23908   23911   23914   23917   23920   23923
   23926   23929   23932   23935   23938   23941   23944   23947   23950   23953
   23956   23959   23962   23965   23968   23971   23974   23977   23980   23983
   23986   23989   23992   23995   23998   24001   24004   24007   24010   24013
   24016   24019   24022   24025   24028   24031   24034   24037   24040   24043
   24046   24049   24052   24055   24058   24061   24064   24067   24070   24073
   24076   24079   24082   24085   24088   24091   24094   24097   24100   24103
   24106   24109   24112   24115   24118   24121   24124   24127   24130   24133
   24136   24139   24142   24145   24148   24151   24154   24157   24160   24163
   24166   24169   24172   24175   24178   24181   24184   24187   24190   24193
   24196   24199   24202   24205   24208   24211   24214   24217   24220   24223
   24226   24229   24232   24235   24238   24241   24244   24247   24250   24253
   24256   24259   24262   24265   24268   24271   24274   24277   24280   24283
   24286   24289   24292   24295   24298   24301   24304   24307   24310   24313
   24316   24319   24322   24325   24328   24331   24334   24337   24340   24343
   24346   24349   24352   24355   24358   24361   24364   24367   24370   24373
   24376   24379   24382   24385   24388   24391   24394   24397   24400   24403
   24406   24409   24412   24415   24418   24421   24424   24427   24430   24433
   24436   24439   24442   24445   24448   24451   24454   24457   24460   24463
   24466   24469   24472   24475   24478   24481   24484   24487   24490   24493
   24496   24499   24502   24505   24508   24511   24514   24517   24520   24523
   24526   24529   24532   24535   24538   24541   24544   24547   24550   24553
   24556   24559   24562   24565   24568   24571   24574   24577   24580   24583
   24586   24589   24592   24595   24598   24601   24604   24607   24610   24613
   24616   24619   24622   24625   24628   24631   24634   24637   24640   24643
   24646   24649   24652   24655   24658   24661   24664   24667   24670   24673
   24676   24679   24682   24685   24688   24691   24694   24697   24700   24703
   24706   24709   24712   24715   24718   24721   24724   24727   24730   24733
   24736   24739   24742   24745   24748   24751   24754   24757   24760   24763
   24766   24769   24772   24775   24778   24781   24784   24787   24790   24793
   24796   24799   24802   24805   24808   24811   24814   24817   24820   24823
   24826   24829   24832   24835   24838   24841   24844   24847   24850   24853
   24856   24859   24862   24865   24868   24871   24874   24877   24880   24883
   24886   24889   24892   24895   24898   24901   24904   24907   24910   24913
   24916   24919   24922   24925   24928   24931   24934   24937   24940   24943
   24946   24949   24952   24955   24958   24961   24964   24967   24970   24973
   24976   24979   24982   24985   24988   24991   24994   24997   25000   25003
   25006   25009   25012   25015   25018   25021   25024   25027   25030   25033
   25036   25039   25042   25045   25048   25051   25054   25057   25060   25063
   25066   25069   25072   25075   25078   25081   25084   25087   25090   25093
   25096   25099   25102   25105   25108   25111   25114   25117   25120   25123
   25126   25129   25132   25135   25138   25141   25144   25147   25150   25153
   25156   25159   25162   25165   25168   25171   25174   25177   25180   25183
   25186   25189   25192   25195   25198   25201   25204   25207   25210   25213
   25216   25219   25222   25225   25228   25231   25234   25237   25240   25243
   25246   25249   25252   25255   25258   25261   25264   25267   25270   25273
   25276   25279   25282   25285   25288   25291   25294   25297   25300   25303
   25306   25309   25312   25315   25318   25321   25324   25327   25330   25333
   25336   25339   25342   25345   25348   25351   25354   25357   25360   25363
   25366   25369   25372   25375   25378   25381   25384   25387   25390   25393
   25396   25399   25402   25405   25408   25411   25414   25417   25420   25423
   25426   25429   25432   25435   25438   25441   25444   25447   25450   25453
   25456   25459   25462   25465   25468   25471   25474   25477   25480   25483
   25486   25489   25492   25495   25498   25501   25504   25507   25510   25513
   25516   25519   25522   25525   25528   25531   25534   25537   25540   25543
   25546   25549   25552   25555   25558   25561   25564   25567   25570   25573
   25576   25579   25582   25585   25588   25591   25594   25597   25600   25603
   25606   25609   25612   25615   25618   25621   25624   25627   25630   25633
   25636   25639   25642   25645   25648   25651   25654   25657   25660   25663
   25666   25669   25672   25675   25678   25681   25684   25687   25690   25693
   25696   25699   25702   25705   25708   25711   25714   25717   25720   25723
   25726   25729   25732   25735   25738   25741   25744   25747   25750   25753
   25756   25759   25762   25765   25768   25771   25774   25777   25780   25783
   25786   25789   25792   25795   25798   25801   25804   25807   25810   25813
   25816   25819   25822   25825   25828   25831   25834   25837   25840   25843
   25846   25849   25852   25855   25858   25861   25864   25867   25870   25873
   25876   25879   25882   25885   25888   25891   25894   25897   25900   25903
   25906   25909   25912   25915   25918   25921   25924   25927   25930   25933
   25936   25939   25942   25945   25948   25951   25954   25957   25960   25963
   25966   25969   25972   25975   25978   25981   25984   25987   25990   25993
   25996   25999   26002   26005   26008   26011   26014   26017   26020   26023
   26026   26029   26032   26035   26038   26041   26044   26047   26050   26053
   26056   26059   26062   26065   26068   26071   26074   26077   26080   26083
   26086   26089   26092   26095   26098   26101   26104   26107   26110   26113
   26116   26119   26122   26125   26128   26131   26134   26137   26140   26143
   26146   26149   26152   26155   26158   26161   26164   26167   26170   26173
   26176   26179   26182   26185   26188   26191   26194   26197   26200   26203
   26206   26209   26212   26215   26218   26221   26224   26227   26230   26233
   26236   26239   26242   26245   26248   26251   26254   26257   26260   26263
   26266   26269   26272   26275   26278   26281   26284   26287   26290   26293
   26296   26299   26302   26305   26308   26311   26314   26317   26320   26323
   26326   26329   26332   26335   26338   26341   26344   26347   26350   26353
   26356   26359   26362   26365   26368   26371   26374   26377   26380   26383
   26386   26389   26392   26395   26398   26401   26404   26407   26410   26413
   26416   26419   26422   26425   26428   26431   26434   26437   26440   26443
   26446   26449   26452   26455   26458   26461   26464   26467   26470   26473
   26476   26479   26482   26485   26488   26491   26494   26497   26500   26503
   26506   26509   26512   26515   26518   26521   26524   26527   26530   26533
   26536   26539   26542   26545   26548   26551   26554   26557   26560   26563
   26566   26569   26572   26575   26578   26581   26584   26587   26590   26593
   26596   26599   26602   26605   26608   26611   26614   26617   26620   26623
   26626   26629   26632   26635   26638   26641   26644   26647   26650   26653
   26656   26659   26662   26665   26668   26671   26674   26677   26680   26683
   26686   26689   26692   26695   26698   26701   26704   26707   26710   26713
   26716   26719   26722   26725   26728   26731   26734   26737   26740   26743
   26746   26749   26752   26755   26758   26761   26764   26767   26770   26773
   26776   26779   26782   26785   26788   26791   26794   26797   26800   26803
   26806   26809   26812   26815   26818   26821   26824   26827   26830   26833
   26836   26839   26842   26845   26848   26851   26854   26857   26860   26863
   26866   26869   26872   26875   26878   26881   26884   26887   26890   26893
   26896   26899   26902   26905   26908   26911   26914   26917   26920   26923
   26926   26929   26932   26935   26938   26941   26944   26947   26950   26953
   26956   26959   26962   26965   26968   26971   26974   26977   26980   26983
   26986   26989   26992   26995   26998   27001   27004   27007   27010   27013
   27016   27019   27022   27025   27028   27031   27034   27037   27040   27043
   27046   27049   27052   27055   27058   27061   27064   27067   27070   27073
   27076   27079   27082   27085   27088   27091   27094   27097   27100   27103
   27106   27109   27112   27115   27118   27121   27124   27127   27130   27133
   27136   27139   27142   27145   27148   27151   27154   27157   27160   27163
   27166   27169   27172   27175   27178   27181   27184   27187   27190   27193
   27196   27199   27202   27205   27208   27211   27214   27217   27220   27223
   27226   27229   27232   27235   27238   27241   27244   27247   27250   27253
   27256   27259   27262   27265   27268   27271   27274   27277   27280   27283
   27286   27289   27292   27295   27298   27301   27304   27307   27310   27313
   27316   27319   27322   27325   27328   27331   27334   27337   27340   27343
   27346   27349   27352   27355   27358   27361   27364   27367   27370   27373
   27376   27379   27382   27385   27388   27391   27394   27397   27400   27403
   27406   27409   27412   27415   27418   27421   27424   27427   27430   27433
   27436   27439   27442   27445   27448   27451   27454   27457   27460   27463
   27466   27469   27472   27475   27478   27481   27484   27487   27490   27493
   27496   27499   27502   27505   27508   27511   27514   27517   27520   27523
   27526   27529   27532   27535   27538   27541   27544   27547   27550   27553
   27556   27559   27562   27565   27568   27571   27574   27577   27580   27583
   27586   27589   27592   27595   27598   27601   27604   27607   27610   27613
   27616   27619   27622   27625   27628   27631   27634   27637   27640   27643
   27646   27649   27652   27655   27658   27661   27664   27667   27670   27673
   27676   27679   27682   27685   27688   27691   27694   27697   27700   27703
   27706   27709   27712   27715   27718   27721   27724   27727   27730   27733
   27736   27739   27742   27745   27748   27751   27754   27757   27760   27763
   27766   27769   27772   27775   27778   27781   27784   27787   27790   27793
   27796   27799   27802   27805   27808   27811   27814   27817   27820   27823
   27826   27829   27832   27835   27838   27841   27844   27847   27850   27853
   27856   27859   27862   27865   27868   27871   27874   27877   27880   27883
   27886   27889   27892   27895   27898   27901   27904   27907   27910   27913
   27916   27919   27922   27925   27928   27931   27934   27937   27940   27943
   27946   27949   27952   27955   27958   27961   27964   27967   27970   27973
   27976   27979   27982   27985   27988   27991   27994   27997   28000   28003
   28006   28009   28012   28015   28018   28021   28024   28027   28030   28033
   28036   28039   28042   28045   28048   28051   28054   28057   28060   28063
   28066   28069   28072   28075   28078   28081   28084   28087   28090   28093
   28096   28099   28102   28105   28108   28111   28114   28117   28120   28123
   28126   28129   28132   28135   28138   28141   28144   28147   28150   28153
   28156   28159   28162   28165   28168   28171   28174   28177   28180   28183
   28186   28189   28192   28195   28198   28201   28204   28207   28210   28213
   28216   28219   28222   28225   28228   28231   28234   28237   28240   28243
   28246   28249   28252   28255   28258   28261   28264   28267   28270   28273
   28276   28279   28282   28285   28288   28291   28294   28297   28300   28303
   28306   28309   28312   28315   28318   28321   28324   28327   28330   28333
   28336   28339   28342   28345   28348   28351   28354   28357   28360   28363
   28366   28369   28372   28375   28378   28381   28384   28387   28390   28393
   28396   28399   28402   28405   28408   28411   28414   28417   28420   28423
   28426   28429   28432   28435   28438   28441   28444   28447   28450   28453
   28456   28459   28462   28465   28468   28471   28474   28477   28480   28483
   28486   28489   28492   28495   28498   28501   28504   28507   28510   28513
   28516   28519   28522   28525   28528   28531   28534   28537   28540   28543
   28546   28549   28552   28555   28558   28561   28564   28567   28570   28573
   28576   28579   28582   28585   28588   28591   28594   28597   28600   28603
   28606   28609   28612   28615   28618   28621   28624   28627   28630   28633
   28636   28639   28642   28645   28648   28651   28654   28657   28660   28663
   28666   28669   28672   28675   28678   28681   28684   28687   28690   28693
   28696   28699   28702   28705   28708   28711   28714   28717   28720   28723
   28726   28729   28732   28735   28738   28741   28744   28747   28750   28753
   28756   28759   28762   28765   28768   28771   28774   28777   28780   28783
   28786   28789   28792   28795   28798   28801   28804   28807   28810   28813
   28816   28819   28822   28825   28828   28831   28834   28837   28840   28843
   28846   28849   28852   28855   28858   28861   28864   28867   28870   28873
   28876   28879   28882   28885   28888   28891   28894   28897   28900   28903
   28906   28909   28912   28915   28918   28921   28924   28927   28930   28933
   28936   28939   28942   28945   28948   28951   28954   28957   28960   28963
   28966   28969   28972   28975   28978   28981   28984   28987   28990   28993
   28996   28999   29002   29005   29008   29011   29014   29017   29020   29023
   29026   29029   29032   29035   29038   29041   29044   29047   29050   29053
   29056   29059   29062   29065   29068   29071   29074   29077   29080   29083
   29086   29089   29092   29095   29098   29101   29104   29107   29110   29113
   29116   29119   29122   29125   29128   29131   29134   29137   29140   29143
   29146   29149   29152   29155   29158   29161   29164   29167   29170   29173
   29176   29179   29182   29185   29188   29191   29194   29197   29200   29203
   29206   29209   29212   29215   29218   29221   29224   29227   29230   29233
   29236   29239   29242   29245   29248   29251   29254   29257   29260   29263
   29266   29269   29272   29275   29278   29281   29284   29287   29290   29293
   29296   29299   29302   29305   29308   29311   29314   29317   29320   29323
   29326   29329   29332   29335   29338   29341   29344   29347   29350   29353
   29356   29359   29362   29365   29368   29371   29374   29377   29380   29383
   29386   29389   29392   29395   29398   29401   29404   29407   29410   29413
   29416   29419   29422   29425   29428   29431   29434   29437   29440   29443
   29446   29449   29452   29455   29458   29461   29464   29467   29470   29473
   29476   29479   29482   29485   29488   29491   29494   29497   29500   29503
   29506   29509   29512   29515   29518   29521   29524   29527   29530   29533
   29536   29539   29542   29545   29548   29551   29554   29557   29560   29563
   29566   29569   29572   29575   29578   29581   29584   29587   29590   29593
   29596   29599   29602   29605   29608   29611   29614   29617   29620   29623
   29626   29629   29632   29635   29638   29641   29644   29647   29650   29653
   29656   29659   29662   29665   29668   29671   29674   29677   29680   29683
   29686   29689   29692   29695   29698   29701   29704   29707   29710   29713
   29716   29719   29722   29725   29728   29731   29734   29737   29740   29743
   29746   29749   29752   29755   29758   29761   29764   29767   29770   29773
   29776   29779   29782   29785   29788   29791   29794   29797   29800   29803
   29806   29809   29812   29815   29818   29821   29824   29827   29830   29833
   29836   29839   29842   29845   29848   29851   29854   29857   29860   29863
   29866   29869   29872   29875   29878   29881   29884   29887   29890   29893
   29896   29899   29902   29905   29908   29911   29914   29917   29920   29923
   29926   29929   29932   29935   29938   29941   29944   29947   29950   29953
   29956   29959   29962   29965   29968   29971   29974   29977   29980   29983
   29986   29989   29992   29995   29998   30001   30004   30007   30010   30013
   30016   30019   30022   30025   30028   30031   30034   30037   30040   30043
   30046   30049   30052   30055   30058   30061   30064   30067   30070   30073
   30076   30079   30082   30085   30088   30091   30094   30097   30100   30103
   30106   30109   30112   30115   30118   30121   30124   30127   30130   30133
   30136   30139   30142   30145   30148   30151   30154   30157   30160   30163
   30166   30169   30172   30175   30178   30181   30184   30187   30190   30193
   30196   30199   30202   30205   30208   30211   30214   30217   30220   30223
   30226   30229   30232   30235   30238   30241   30244   30247   30250   30253
   30256   30259   30262   30265   30268   30271   30274   30277   30280   30283
   30286   30289   30292   30295   30298   30301   30304   30307   30310   30313
   30316   30319   30322   30325   30328   30331   30334   30337   30340   30343
   30346   30349   30352   30355   30358   30361   30364   30367   30370   30373
   30376   30379   30382   30385   30388   30391   30394   30397   30400   30403
   30406   30409   30412   30415   30418   30421   30424   30427   30430   30433
   30436   30439   30442   30445   30448   30451   30454   30457   30460   30463
   30466   30469   30472   30475   30478   30481   30484   30487   30490   30493
   30496   30499   30502   30505   30508   30511   30514   30517   30520   30523
   30526   30529   30532   30535   30538   30541   30544   30547   30550   30553
   30556   30559   30562   30565   30568   30571   30574   30577   30580   30583
   30586   30589   30592   30595   30598   30601   30604   30607   30610   30613
   30616   30619   30622   30625   30628   30631   30634   30637   30640   30643
   30646   30649   30652   30655   30658   30661   30664   30667   30670   30673
   30676   30679   30682   30685   30688   30691   30694   30697   30700   30703
   30706   30709   30712   30715   30718   30721   30724   30727   30730   30733
   30736   30739   30742   30745   30748   30751   30754   30757   30760   30763
   30766   30769   30772   30775   30778   30781   30784   30787   30790   30793
   30796   30799   30802   30805   30808   30811   30814   30817   30820   30823
   30826   30829   30832   30835   30838   30841   30844   30847   30850   30853
   30856   30859   30862   30865   30868   30871   30874   30877   30880   30883
   30886   30889   30892   30895   30898   30901   30904   30907   30910   30913
   30916   30919   30922   30925   30928   30931   30934   30937   30940   30943
   30946   30949   30952   30955   30958   30961   30964   30967   30970   30973
   30976   30979   30982   30985   30988   30991   30994   30997   31000   31003
   31006   31009   31012   31015   31018   31021   31024   31027   31030   31033
   31036   31039   31042   31045   31048   31051   31054   31057   31060   31063
   31066   31069   31072   31075   31078   31081   31084   31087   31090   31093
   31096   31099   31102   31105   31108   31111   31114   31117   31120   31123
   31126   31129   31132   31135   31138   31141   31144   31147   31150   31153
   31156   31159   31162   31165   31168   31171   31174   31177   31180   31183
   31186   31189   31192   31195   31198   31201   31204   31207   31210   31213
   31216   31219   31222   31225   31228   31231   31234   31237   31240   31243
   31246   31249   31252   31255   31258   31261   31264   31267   31270   31273
   31276   31279   31282   31285   31288   31291   31294   31297   31300   31303
   31306   31309   31312   31315   31318   31321   31324   31327   31330   31333
   31336   31339   31342   31345   31348   31351   31354   31357   31360   31363
   31366   31369   31372   31375   31378   31381   31384   31387   31390   31393
   31396   31399   31402   31405   31408   31411   31414   31417   31420   31423
   31426   31429   31432   31435   31438   31441   31444   31447   31450   31453
   31456   31459   31462   31465   31468   31471   31474   31477   31480   31483
   31486   31489   31492   31495   31498   31501   31504   31507   31510   31513
   31516   31519   31522   31525   31528   31531   31534   31537   31540   31543
   31546   31549   31552   31555   31558   31561   31564   31567   31570   31573
   31576   31579   31582   31585   31588   31591   31594   31597   31600   31603
   31606   31609   31612   31615   31618   31621   31624   31627   31630   31633
   31636   31639   31642   31645   31648   31651   31654   31657   31660   31663
   31666   31669   31672   31675   31678   31681   31684   31687   31690   31693
   31696   31699   31702   31705   31708   31711   31714   31717   31720   31723
   31726   31729   31732   31735   31738   31741   31744   31747   31750   31753
   31756   31759   31762   31765   31768   31771   31774   31777   31780   31783
   31786   31789   31792   31795   31798   31801   31804   31807   31810   31813
   31816   31819   31822   31825   31828   31831   31834   31837   31840   31843
   31846   31849   31852   31855   31858   31861   31864   31867   31870   31873
   31876   31879   31882   31885   31888   31891   31894   31897   31900   31903
   31906   31909   31912   31915   31918   31921   31924   31927   31930   31933
   31936   31939   31942   31945   31948   31951   31954   31957   31960   31963
   31966   31969   31972   31975   31978   31981   31984   31987   31990   31993
   31996   31999   32002   32005   32008   32011   32014   32017   32020   32023
   32026   32029   32032   32035   32038   32041   32044   32047   32050   32053
   32056   32059   32062   32065   32068   32071   32074   32077   32080   32083
   32086   32089   32092   32095   32098   32101   32104   32107   32110   32113
   32116   32119   32122   32125   32128   32131   32134   32137   32140   32143
   32146   32149   32152   32155   32158   32161   32164   32167   32170   32173
   32176   32179   32182   32185   32188   32191   32194   32197   32200   32203
   32206   32209   32212   32215   32218   32221   32224   32227   32230   32233
   32236   32239   32242   32245   32248   32251   32254   32257   32260   32263
   32266   32269   32272   32275   32278   32281   32284   32287   32290   32293
   32296   32299   32302   32305   32308   32311   32314   32317   32320   32323
   32326   32329   32332   32335   32338   32341   32344   32347   32350   32353
   32356   32359   32362   32365   32368   32371   32374   32377   32380   32383
   32386   32389   32392   32395   32398   32401   32404   32407   32410   32413
   32416   32419   32422   32425   32428   32431   32434   32437   32440   32443
   32446   32449   32452   32455   32458   32461   32464   32467   32470   32473
   32476   32479   32482   32485   32488   32491   32494   32497   32500   32503
   32506   32509   32512   32515   32518   32521   32524   32527   32530   32533
   32536   32539   32542   32545   32548   32551   32554   32557   32560   32563
   32566   32569   32572   32575   32578   32581   32584   32587   32590   32593
   32596   32599   32602   32605   32608   32611   32614   32617   32620   32623
   32626   32629   32632   32635   32638   32641   32644   32647   32650   32653
   32656   32659   32662   32665   32668   32671   32674   32677   32680   32683
   32686   32689   32692   32695   32698   32701   32704   32707   32710   32713
   32716   32719   32722   32725   32728   32731   32734   32737   32740   32743
   32746   32749   32752   32755   32758   32761   32764   32767   32770   32773
   32776   32779   32782   32785   32788   32791   32794   32797   32800   32803
   32806   32809   32812   32815   32818   32821   32824   32827   32830   32833
   32836   32839   32842   32845   32848   32851   32854   32857   32860   32863
   32866   32869   32872   32875   32878   32881   32884   32887   32890   32893
   32896   32899   32902   32905   32908   32911   32914   32917   32920   32923
   32926   32929   32932   32935   32938   32941   32944   32947   32950   32953
   32956   32959   32962   32965   32968   32971   32974   32977   32980   32983
   32986   32989   32992   32995   32998   33001   33004   33007   33010   33013
   33016   33019   33022   33025   33028   33031   33034   33037   33040   33043
   33046   33049   33052   33055   33058   33061   33064   33067   33070   33073
   33076   33079   33082   33085   33088   33091   33094   33097   33100   33103
   33106   33109   33112   33115   33118   33121   33124   33127   33130   33133
   33136   33139   33142   33145   33148   33151   33154   33157   33160   33163
   33166   33169   33172   33175   33178   33181   33184   33187   33190   33193
   33196   33199   33202   33205   33208   33211   33214   33217   33220   33223
   33226   33229   33232   33235   33238   33241   33244   33247   33250   33253
   33256   33259   33262   33265   33268   33271   33274   33277   33280   33283
   33286   33289   33292   33295   33298   33301   33304   33307   33310   33313
   33316   33319   33322   33325   33328   33331   33334   33337   33340   33343
   33346   33349   33352   33355   33358   33361   33364   33367   33370   33373
   33376   33379   33382   33385   33388   33391   33394   33397   33400   33403
   33406   33409   33412   33415   33418   33421   33424   33427   33430   33433
   33436   33439   33442   33445   33448   33451   33454   33457   33460   33463
   33466   33469   33472   33475   33478   33481   33484   33487   33490   33493
   33496   33499   33502   33505   33508   33511   33514   33517   33520   33523
   33526   33529   33532   33535   33538   33541   33544   33547   33550   33553
   33556   33559   33562   33565   33568   33571   33574   33577   33580   33583
   33586   33589   33592   33595   33598   33601   33604   33607   33610   33613
   33616   33619   33622   33625   33628   33631   33634   33637   33640   33643
   33646   33649   33652   33655   33658   33661   33664   33667   33670   33673
   33676   33679   33682   33685   33688   33691   33694   33697   33700   33703
   33706   33709   33712   33715   33718   33721   33724   33727   33730   33733
   33736   33739   33742   33745   33748   33751   33754   33757   33760   33763
   33766   33769   33772   33775   33778   33781   33784   33787   33790   33793
   33796   33799   33802   33805   33808   33811   33814   33817   33820   33823
   33826   33829   33832   33835   33838   33841   33844   33847   33850   33853
   33856   33859   33862   33865   33868   33871   33874   33877   33880   33883
   33886   33889   33892   33895   33898   33901   33904   33907   33910   33913
   33916   33919   33922   33925   33928   33931   33934   33937   33940   33943
   33946   33949   33952   33955   33958   33961   33964   33967   33970   33973
   33976   33979   33982   33985   33988   33991   33994   33997   34000   34003
   34006   34009   34012   34015   34018   34021   34024   34027   34030   34033
   34036   34039   34042   34045   34048   34051   34054   34057   34060   34063
   34066   34069   34072   34075   34078   34081   34084   34087   34090   34093
   34096   34099   34102   34105   34108   34111   34114   34117   34120   34123
   34126   34129   34132   34135   34138   34141   34144   34147   34150   34153
   34156   34159   34162   34165   34168   34171   34174   34177   34180   34183
   34186   34189   34192   34195   34198   34201   34204   34207   34210   34213
   34216   34219   34222   34225   34228   34231   34234   34237   34240   34243
   34246   34249   34252   34255   34258   34261   34264   34267   34270   34273
   34276   34279   34282   34285   34288   34291   34294   34297   34300   34303
   34306   34309   34312   34315   34318   34321   34324   34327   34330   34333
   34336   34339   34342   34345   34348   34351   34354   34357   34360   34363
   34366   34369   34372   34375   34378   34381   34384   34387   34390   34393
   34396   34399   34402   34405   34408   34411   34414   34417   34420   34423
   34426   34429   34432   34435   34438   34441   34444   34447   34450   34453
   34456   34459   34462   34465   34468   34471   34474   34477   34480   34483
   34486   34489   34492   34495   34498   34501   34504   34507   34510   34513
   34516   34519   34522   34525   34528   34531   34534   34537   34540   34543
   34546   34549   34552   34555   34558   34561   34564   34567   34570   34573
   34576   34579   34582   34585   34588   34591   34594   34597   34600   34603
   34606   34609   34612   34615   34618   34621   34624   34627   34630   34633
   34636   34639   34642   34645   34648   34651   34654   34657   34660   34663
   34666   34669   34672   34675   34678   34681   34684   34687   34690   34693
   34696   34699   34702   34705   34708   34711   34714   34717   34720   34723
   34726   34729   34732   34735   34738   34741   34744   34747   34750   34753
   34756   34759   34762   34765   34768   34771   34774   34777   34780   34783
   34786   34789   34792   34795   34798   34801   34804   34807   34810   34813
   34816   34819   34822   34825   34828   34831   34834   34837   34840   34843
   34846   34849   34852   34855   34858   34861   34864   34867   34870   34873
   34876   34879   34882   34885   34888   34891   34894   34897   34900   34903
   34906   34909   34912   34915   34918   34921   34924   34927   34930   34933
   34936   34939   34942   34945   34948   34951   34954   34957   34960   34963
   34966   34969   34972   34975   34978   34981   34984   34987   34990   34993
   34996   34999   35002   35005   35008   35011   35014   35017   35020   35023
   35026   35029   35032   35035   35038   35041   35044   35047   35050   35053
   35056   35059   35062   35065   35068   35071   35074   35077   35080   35083
   35086   35089   35092   35095   35098   35101   35104   35107   35110   35113
   35116   35119   35122   35125   35128   35131   35134   35137   35140   35143
   35146   35149   35152   35155   35158   35161   35164   35167   35170   35173
   35176   35179   35182   35185   35188   35191   35194   35197   35200   35203
   35206   35209   35212   35215   35218   35221   35224   35227   35230   35233
   35236   35239   35242   35245   35248   35251   35254   35257   35260   35263
   35266   35269   35272   35275   35278   35281   35284   35287   35290   35293
   35296   35299   35302   35305   35308   35311   35314   35317   35320   35323
   35326   35329   35332   35335   35338   35341   35344   35347   35350   35353
   35356   35359   35362   35365   35368   35371   35374   35377   35380   35383
   35386   35389   35392   35395   35398   35401   35404   35407   35410   35413
   35416   35419   35422   35425   35428   35431   35434   35437   35440   35443
   35446   35449   35452   35455   35458   35461   35464   35467   35470   35473
   35476   35479   35482   35485   35488   35491   35494   35497   35500   35503
   35506   35509   35512   35515   35518   35521   35524   35527   35530   35533
   35536   35539   35542   35545   35548   35551   35554   35557   35560   35563
   35566   35569   35572   35575   35578   35581   35584   35587   35590   35593
   35596   35599   35602   35605   35608   35611   35614   35617   35620   35623
   35626   35629   35632   35635   35638   35641   35644   35647   35650   35653
   35656   35659   35662   35665   35668   35671   35674   35677   35680   35683
   35686   35689   35692   35695   35698   35701   35704   35707   35710   35713
   35716   35719   35722   35725   35728   35731   35734   35737   35740   35743
   35746   35749   35752   35755   35758   35761   35764   35767   35770   35773
   35776   35779   35782   35785   35788   35791   35794   35797   35800   35803
   35806   35809   35812   35815   35818   35821   35824   35827   35830   35833
   35836   35839   35842   35845   35848   35851   35854   35857   35860   35863
   35866   35869   35872   35875   35878   35881   35884   35887   35890   35893
   35896   35899   35902   35905   35908   35911   35914   35917   35920   35923
   35926   35929   35932   35935   35938   35941   35944   35947   35950   35953
   35956   35959   35962   35965   35968   35971   35974   35977   35980   35983
   35986   35989   35992   35995   35998   36001   36004   36007   36010   36013
   36016   36019   36022   36025   36028   36031   36034   36037   36040   36043
   36046   36049   36052   36055   36058   36061   36064   36067   36070   36073
   36076   36079   36082   36085   36088   36091   36094   36097   36100   36103
   36106   36109   36112   36115   36118   36121   36124   36127   36130   36133
   36136   36139   36142   36145   36148   36151   36154   36157   36160   36163
   36166   36169   36172   36175   36178   36181   36184   36187   36190   36193
   36196   36199   36202   36205   36208   36211   36214   36217   36220   36223
   36226   36229   36232   36235   36238   36241   36244   36247   36250   36253
   36256   36259   36262   36265   36268   36271   36274   36277   36280   36283
   36286   36289   36292   36295   36298   36301   36304   36307   36310   36313
   36316   36319   36322   36325   36328   36331   36334   36337   36340   36343
   36346   36349   36352   36355   36358   36361   36364   36367   36370   36373
   36376   36379   36382   36385   36388   36391   36394   36397   36400   36403
   36406   36409   36412   36415   36418   36421   36424   36427   36430   36433
   36436   36439   36442   36445   36448   36451   36454   36457   36460   36463
   36466   36469   36472   36475   36478   36481   36484   36487   36490   36493
   36496   36499   36502   36505   36508   36511   36514   36517   36520   36523
   36526   36529   36532   36535   36538   36541   36544   36547   36550   36553
   36556   36559   36562   36565   36568   36571   36574   36577   36580   36583
   36586   36589   36592   36595   36598   36601   36604   36607   36610   36613
   36616   36619   36622   36625   36628   36631   36634   36637   36640   36643
   36646   36649   36652   36655   36658   36661   36664   36667   36670   36673
   36676   36679   36682   36685   36688   36691   36694   36697   36700   36703
   36706   36709   36712   36715   36718   36721   36724   36727   36730   36733
   36736   36739   36742   36745   36748   36751   36754   36757   36760   36763
   36766   36769   36772   36775   36778   36781   36784   36787   36790   36793
   36796   36799   36802   36805   36808   36811   36814   36817   36820   36823
   36826   36829   36832   36835   36838   36841   36844   36847   36850   36853
   36856   36859   36862   36865   36868   36871   36874   36877   36880   36883
   36886   36889   36892   36895   36898   36901   36904   36907   36910   36913
   36916   36919   36922   36925   36928   36931   36934   36937   36940   36943
   36946   36949   36952   36955   36958   36961   36964   36967   36970   36973
   36976   36979   36982   36985   36988   36991   36994   36997   37000   37003
   37006   37009   37012   37015   37018   37021   37024   37027   37030   37033
   37036   37039   37042   37045   37048   37051   37054   37057   37060   37063
   37066   37069   37072   37075   37078   37081   37084   37087   37090   37093
   37096   37099   37102   37105   37108   37111   37114   37117   37120   37123
   37126   37129   37132   37135   37138   37141   37144   37147   37150   37153
   37156   37159   37162   37165   37168   37171   37174   37177   37180   37183
   37186   37189   37192   37195   37198   37201   37204   37207   37210   37213
   37216   37219   37222   37225   37228   37231   37234   37237   37240   37243
   37246   37249   37252   37255   37258   37261   37264   37267   37270   37273
   37276   37279   37282   37285   37288   37291   37294   37297   37300   37303
   37306   37309   37312   37315   37318   37321   37324   37327   37330   37333
   37336   37339   37342   37345   37348   37351   37354   37357   37360   37363
   37366   37369   37372   37375   37378   37381   37384   37387   37390   37393
   37396   37399   37402   37405   37408   37411   37414   37417   37420   37423
   37426   37429   37432   37435   37438   37441   37444   37447   37450   37453
   37456   37459   37462   37465   37468   37471   37474   37477   37480   37483
   37486   37489   37492   37495   37498   37501   37504   37507   37510   37513
   37516   37519   37522   37525   37528   37531   37534   37537   37540   37543
   37546   37549   37552   37555   37558   37561   37564   37567   37570   37573
   37576   37579   37582   37585   37588   37591   37594   37597   37600   37603
   37606   37609   37612   37615   37618   37621   37624   37627   37630   37633
   37636   37639   37642   37645   37648   37651   37654   37657   37660   37663
   37666   37669   37672   37675   37678   37681   37684   37687   37690   37693
   37696   37699   37702   37705   37708   37711   37714   37717   37720   37723
   37726   37729   37732   37735   37738   37741   37744   37747   37750   37753
   37756   37759   37762   37765   37768   37771   37774   37777   37780   37783
   37786   37789   37792   37795   37798   37801   37804   37807   37810   37813
   37816   37819   37822   37825   37828   37831   37834   37837   37840   37843
   37846   37849   37852   37855   37858   37861   37864   37867   37870   37873
   37876   37879   37882   37885   37888   37891   37894   37897   37900   37903
   37906   37909   37912   37915   37918   37921   37924   37927   37930   37933
   37936   37939   37942   37945   37948   37951   37954   37957   37960   37963
   37966   37969   37972   37975   37978   37981   37984   37987   37990   37993
   37996   37999   38002   38005   38008   38011   38014   38017   38020   38023
   38026   38029   38032   38035   38038   38041   38044   38047   38050   38053
   38056   38059   38062   38065   38068   38071   38074   38077   38080   38083
   38086   38089   38092   38095   38098   38101   38104   38107   38110   38113
   38116   38119   38122   38125   38128   38131   38134   38137   38140   38143
   38146   38149   38152   38155   38158   38161   38164   38167   38170   38173
   38176   38179   38182   38185   38188   38191   38194   38197   38200   38203
   38206   38209   38212   38215   38218   38221   38224   38227   38230   38233
   38236   38239   38242   38245   38248   38251   38254   38257   38260   38263
   38266   38269   38272   38275   38278   38281   38284   38287   38290   38293
   38296   38299   38302   38305   38308   38311   38314   38317   38320   38323
   38326   38329   38332   38335   38338   38341   38344   38347   38350   38353
   38356   38359   38362   38365   38368   38371   38374   38377   38380   38383
   38386   38389   38392   38395   38398   38401   38404   38407   38410   38413
   38416   38419   38422   38425   38428   38431   38434   38437   38440   38443
   38446   38449   38452   38455   38458   38461   38464   38467   38470   38473
   38476   38479   38482   38485   38488   38491   38494   38497   38500   38503
   38506   38509   38512   38515   38518   38521   38524   38527   38530   38533
   38536   38539   38542   38545   38548   38551   38554   38557   38560   38563
   38566   38569   38572   38575   38578   38581   38584   38587   38590   38593
   38596   38599   38602   38605   38608   38611   38614   38617   38620   38623
   38626   38629   38632   38635   38638   38641   38644   38647   38650   38653
   38656   38659   38662   38665   38668   38671   38674   38677   38680   38683
   38686   38689   38692   38695   38698   38701   38704   38707   38710   38713
   38716   38719   38722   38725   38728   38731   38734   38737   38740   38743
   38746   38749   38752   38755   38758   38761   38764   38767   38770   38773
   38776   38779   38782   38785   38788   38791   38794   38797   38800   38803
   38806   38809   38812   38815   38818   38821   38824   38827   38830   38833
   38836   38839   38842   38845   38848   38851   38854   38857   38860   38863
   38866   38869   38872   38875   38878   38881   38884   38887   38890   38893
   38896   38899   38902   38905   38908   38911   38914   38917   38920   38923
   38926   38929   38932   38935   38938   38941   38944   38947   38950   38953
   38956   38959   38962   38965   38968   38971   38974   38977   38980   38983
   38986   38989   38992   38995   38998   39001   39004   39007   39010   39013
   39016   39019   39022   39025   39028   39031   39034   39037   39040   39043
   39046   39049   39052   39055   39058   39061   39064   39067   39070   39073
   39076   39079   39082   39085   39088   39091   39094   39097   39100   39103
   39106   39109   39112   39115   39118   39121   39124   39127   39130   39133
   39136   39139   39142   39145   39148   39151   39154   39157   39160   39163
   39166   39169   39172   39175   39178   39181   39184   39187   39190   39193
   39196   39199   39202   39205   39208   39211   39214   39217   39220   39223
   39226   39229   39232   39235   39238   39241   39244   39247   39250   39253
   39256   39259   39262   39265   39268   39271   39274   39277   39280   39283
   39286   39289   39292   39295   39298   39301   39304   39307   39310   39313
   39316   39319   39322   39325   39328   39331   39334   39337   39340   39343
   39346   39349   39352   39355   39358   39361   39364   39367   39370   39373
   39376   39379   39382   39385   39388   39391   39394   39397   39400   39403
   39406   39409   39412   39415   39418   39421   39424   39427   39430   39433
   39436   39439   39442   39445   39448   39451   39454   39457   39460   39463
   39466   39469   39472   39475   39478   39481   39484   39487   39490   39493
   39496   39499   39502   39505   39508   39511   39514   39517   39520   39523
   39526   39529   39532   39535   39538   39541   39544   39547   39550   39553
   39556   39559   39562   39565   39568   39571   39574   39577   39580   39583
   39586   39589   39592   39595   39598   39601   39604   39607   39610   39613
   39616   39619   39622   39625   39628   39631   39634   39637   39640   39643
   39646   39649   39652   39655   39658   39661   39664   39667   39670   39673
   39676   39679   39682   39685   39688   39691   39694   39697   39700   39703
   39706   39709   39712   39715   39718   39721   39724   39727   39730   39733
   39736   39739   39742   39745   39748   39751   39754   39757   39760   39763
   39766   39769   39772   39775   39778   39781   39784   39787   39790   39793
   39796   39799   39802   39805   39808   39811   39814   39817   39820   39823
   39826   39829   39832   39835   39838   39841   39844   39847   39850   39853
   39856   39859   39862   39865   39868   39871   39874   39877   39880   39883
   39886   39889   39892   39895   39898   39901   39904   39907   39910   39913
   39916   39919   39922   39925   39928   39931   39934   39937   39940   39943
   39946   39949   39952   39955   39958   39961   39964   39967   39970   39973
   39976   39979   39982   39985   39988   39991   39994   39997   40000   40003
   40006   40009   40012   40015   40018   40021   40024   40027   40030   40033
   40036   40039   40042   40045   40048   40051   40054   40057   40060   40063
   40066   40069   40072   40075   40078   40081   40084   40087   40090   40093
   40096   40099   40102   40105   40108   40111   40114   40117   40120   40123
   40126   40129   40132   40135   40138   40141   40144   40147   40150   40153
   40156   40159   40162   40165   40168   40171   40174   40177   40180   40183
   40186   40189   40192   40195   40198   40201   40204   40207   40210   40213
   40216   40219   40222   40225   40228   40231   40234   40237   40240   40243
   40246   40249   40252   40255   40258   40261   40264   40267   40270   40273
   40276   40279   40282   40285   40288   40291   40294   40297   40300   40303
   40306   40309   40312   40315   40318   40321   40324   40327   40330   40333
   40336   40339   40342   40345   40348   40351   40354   40357   40360   40363
   40366   40369   40372   40375   40378   40381   40384   40387   40390   40393
   40396   40399   40402   40405   40408   40411   40414   40417   40420   40423
   40426   40429   40432   40435   40438   40441   40444   40447   40450   40453
   40456   40459   40462   40465   40468   40471   40474   40477   40480   40483
   40486   40489   40492   40495   40498   40501   40504   40507   40510   40513
   40516   40519   40522   40525   40528   40531   40534   40537   40540   40543
   40546   40549   40552   40555   40558   40561   40564   40567   40570   40573
   40576   40579   40582   40585   40588   40591   40594   40597   40600   40603
   40606   40609   40612   40615   40618   40621   40624   40627   40630   40633
   40636   40639   40642   40645   40648   40651   40654   40657   40660   40663
   40666   40669   40672   40675   40678   40681   40684   40687   40690   40693
   40696   40699   40702   40705   40708   40711   40714   40717   40720   40723
   40726   40729   40732   40735   40738   40741   40744   40747   40750   40753
   40756   40759   40762   40765   40768   40771   40774   40777   40780   40783
   40786   40789   40792   40795   40798   40801   40804   40807   40810   40813
   40816   40819   40822   40825   40828   40831   40834   40837   40840   40843
   40846   40849   40852   40855   40858   40861   40864   40867   40870   40873
   40876   40879   40882   40885   40888   40891   40894   40897   40900   40903
   40906   40909   40912   40915   40918   40921   40924   40927   40930   40933
   40936   40939   40942   40945   40948   40951   40954   40957   40960   40963
   40966   40969   40972   40975   40978   40981   40984   40987   40990   40993
   40996   40999   41002   41005   41008   41011   41014   41017   41020   41023
   41026   41029   41032   41035   41038   41041   41044   41047   41050   41053
   41056   41059   41062   41065   41068   41071   41074   41077   41080   41083
   41086   41089   41092   41095   41098   41101   41104   41107   41110   41113
   41116   41119   41122   41125   41128   41131   41134   41137   41140   41143
   41146   41149   41152   41155   41158   41161   41164   41167   41170   41173
   41176   41179   41182   41185   41188   41191   41194   41197   41200   41203
   41206   41209   41212   41215   41218   41221   41224   41227   41230   41233
   41236   41239   41242   41245   41248   41251   41254   41257   41260   41263
   41266   41269   41272   41275   41278   41281   41284   41287   41290   41293
   41296   41299   41302   41305   41308   41311   41314   41317   41320   41323
   41326   41329   41332   41335   41338   41341   41344   41347   41350   41353
   41356   41359   41362   41365   41368   41371   41374   41377   41380   41383
   41386   41389   41392   41395   41398   41401   41404   41407   41410   41413
   41416   41419   41422   41425   41428   41431   41434   41437   41440   41443
   41446   41449   41452   41455   41458   41461   41464   41467   41470   41473
   41476   41479   41482   41485   41488   41491   41494   41497   41500   41503
   41506   41509   41512   41515   41518   41521   41524   41527   41530   41533
   41536   41539   41542   41545   41548   41551   41554   41557   41560   41563
   41566   41569   41572   41575   41578   41581   41584   41587   41590   41593
   41596   41599   41602   41605   41608   41611   41614   41617   41620   41623
   41626   41629   41632   41635   41638   41641   41644   41647   41650   41653
   41656   41659   41662   41665   41668   41671   41674   41677   41680   41683
   41686   41689   41692   41695   41698   41701   41704   41707   41710   41713
   41716   41719   41722   41725   41728   41731   41734   41737   41740   41743
   41746   41749   41752   41755   41758   41761   41764   41767   41770   41773
   41776   41779   41782   41785   41788   41791   41794   41797   41800   41803
   41806   41809   41812   41815   41818   41821   41824   41827   41830   41833
   41836   41839   41842   41845   41848   41851   41854   41857   41860   41863
   41866   41869   41872   41875   41878   41881   41884   41887   41890   41893
   41896   41899   41902   41905   41908   41911   41914   41917   41920   41923
   41926   41929   41932   41935   41938   41941   41944   41947   41950   41953
   41956   41959   41962   41965   41968   41971   41974   41977   41980   41983
   41986   41989   41992   41995   41998   42001   42004   42007   42010   42013
   42016   42019   42022   42025   42028   42031   42034   42037   42040   42043
   42046   42049   42052   42055   42058   42061   42064   42067   42070   42073
   42076   42079   42082   42085   42088   42091   42094   42097   42100   42103
   42106   42109   42112   42115   42118   42121   42124   42127   42130   42133
   42136   42139   42142   42145   42148   42151   42154   42157   42160   42163
   42166   42169   42172   42175   42178   42181   42184   42187   42190   42193
   42196   42199   42202   42205   42208   42211   42214   42217   42220   42223
   42226   42229   42232   42235   42238   42241   42244   42247   42250   42253
   42256   42259   42262   42265   42268   42271   42274   42277   42280   42283
   42286   42289   42292   42295   42298   42301   42304   42307   42310   42313
   42316   42319   42322   42325   42328   42331   42334   42337   42340   42343
   42346   42349   42352   42355   42358   42361   42364   42367   42370   42373
   42376   42379   42382   42385   42388   42391   42394   42397   42400   42403
   42406   42409   42412   42415   42418   42421   42424   42427   42430   42433
   42436   42439   42442   42445   42448   42451   42454   42457   42460   42463
   42466   42469   42472   42475   42478   42481   42484   42487   42490   42493
   42496   42499   42502   42505   42508   42511   42514   42517   42520   42523
   42526   42529   42532   42535   42538   42541   42544   42547   42550   42553
   42556   42559   42562   42565   42568   42571   42574   42577   42580   42583
   42586   42589   42592   42595   42598   42601   42604   42607   42610   42613
   42616   42619   42622   42625   42628   42631   42634   42637   42640   42643
   42646   42649   42652   42655   42658   42661   42664   42667   42670   42673
   42676   42679   42682   42685   42688   42691   42694   42697   42700   42703
   42706   42709   42712   42715   42718   42721   42724   42727   42730   42733
   42736   42739   42742   42745   42748   42751   42754   42757   42760   42763
   42766   42769   42772   42775   42778   42781   42784   42787   42790   42793
   42796   42799   42802   42805   42808   42811   42814   42817   42820   42823
   42826   42829   42832   42835   42838   42841   42844   42847   42850   42853
   42856   42859   42862   42865   42868   42871   42874   42877   42880   42883
   42886   42889   42892   42895   42898   42901   42904   42907   42910   42913
   42916   42919   42922   42925   42928   42931   42934   42937   42940   42943
   42946   42949   42952   42955   42958   42961   42964   42967   42970   42973
   42976   42979   42982   42985   42988   42991   42994   42997   43000   43003
   43006   43009   43012   43015   43018   43021   43024   43027   43030   43033
   43036   43039   43042   43045   43048   43051   43054   43057   43060   43063
   43066   43069   43072   43075   43078   43081   43084   43087   43090   43093
   43096   43099   43102   43105   43108   43111   43114   43117   43120   43123
   43126   43129   43132   43135   43138   43141   43144   43147   43150   43153
   43156   43159   43162   43165   43168   43171   43174   43177   43180   43183
   43186   43189   43192   43195   43198   43201   43204   43207   43210   43213
   43216   43219   43222   43225   43228   43231   43234   43237   43240   43243
   43246   43249   43252   43255   43258   43261   43264   43267   43270   43273
   43276   43279   43282   43285   43288   43291   43294   43297   43300   43303
   43306   43309   43312   43315   43318   43321   43324   43327   43330   43333
   43336   43339   43342   43345   43348   43351   43354   43357   43360   43363
   43366   43369   43372   43375   43378   43381   43384   43387   43390   43393
   43396   43399   43402   43405   43408   43411   43414   43417   43420   43423
   43426   43429   43432   43435   43438   43441   43444   43447   43450   43453
   43456   43459   43462   43465   43468   43471   43474   43477   43480   43483
   43486   43489   43492   43495   43498   43501   43504   43507   43510   43513
   43516   43519   43522   43525   43528   43531   43534   43537   43540   43543
   43546   43549   43552   43555   43558   43561   43564   43567   43570   43573
   43576   43579   43582   43585   43588   43591   43594   43597   43600   43603
   43606   43609   43612   43615   43618   43621   43624   43627   43630   43633
   43636   43639   43642   43645   43648   43651   43654   43657   43660   43663
   43666   43669   43672   43675   43678   43681   43684   43687   43690   43693
   43696   43699   43702   43705   43708   43711   43714   43717   43720   43723
   43726   43729   43732   43735   43738   43741   43744   43747   43750   43753
   43756   43759   43762   43765   43768   43771   43774   43777   43780   43783
   43786   43789   43792   43795   43798   43801   43804   43807   43810   43813
   43816   43819   43822   43825   43828   43831   43834   43837   43840   43843
   43846   43849   43852   43855   43858   43861   43864   43867   43870   43873
   43876   43879   43882   43885   43888   43891   43894   43897   43900   43903
   43906   43909   43912   43915   43918   43921   43924   43927   43930   43933
   43936   43939   43942   43945   43948   43951   43954   43957   43960   43963
   43966   43969   43972   43975   43978   43981   43984   43987   43990   43993
   43996   43999   44002   44005   44008   44011   44014   44017   44020   44023
   44026   44029   44032   44035   44038   44041   44044   44047   44050   44053
   44056   44059   44062   44065   44068   44071   44074   44077   44080   44083
   44086   44089   44092   44095   44098   44101   44104   44107   44110   44113
   44116   44119   44122   44125   44128   44131   44134   44137   44140   44143
   44146   44149   44152   44155   44158   44161   44164   44167   44170   44173
   44176   44179   44182   44185   44188   44191   44194   44197   44200   44203
   44206   44209   44212   44215   44218   44221   44224   44227   44230   44233
   44236   44239   44242   44245   44248   44251   44254   44257   44260   44263
   44266   44269   44272   44275   44278   44281   44284   44287   44290   44293
   44296   44299   44302   44305   44308   44311   44314   44317   44320   44323
   44326   44329   44332   44335   44338   44341   44344   44347   44350   44353
   44356   44359   44362   44365   44368   44371   44374   44377   44380   44383
   44386   44389   44392   44395   44398   44401   44404   44407   44410   44413
   44416   44419   44422   44425   44428   44431   44434   44437   44440   44443
   44446   44449   44452   44455   44458   44461   44464   44467   44470   44473
   44476   44479   44482   44485   44488   44491   44494   44497   44500   44503
   44506   44509   44512   44515   44518   44521   44524   44527   44530   44533
   44536   44539   44542   44545   44548   44551   44554   44557   44560   44563
   44566   44569   44572   44575   44578   44581   44584   44587   44590   44593
   44596   44599   44602   44605   44608   44611   44614   44617   44620   44623
   44626   44629   44632   44635   44638   44641   44644   44647   44650   44653
   44656   44659   44662   44665   44668   44671   44674   44677   44680   44683
   44686   44689   44692   44695   44698   44701   44704   44707   44710   44713
   44716   44719   44722   44725   44728   44731   44734   44737   44740   44743
   44746   44749   44752   44755   44758   44761   44764   44767   44770   44773
   44776   44779   44782   44785   44788   44791   44794   44797   44800   44803
   44806   44809   44812   44815   44818   44821   44824   44827   44830   44833
   44836   44839   44842   44845   44848   44851   44854   44857   44860   44863
   44866   44869   44872   44875   44878   44881   44884   44887   44890   44893
   44896   44899   44902   44905   44908   44911   44914   44917   44920   44923
   44926   44929   44932   44935   44938   44941   44944   44947   44950   44953
   44956   44959   44962   44965   44968   44971   44974   44977   44980   44983
   44986   44989   44992   44995   44998   45001   45004   45007   45010   45013
   45016   45019   45022   45025   45028   45031   45034   45037   45040   45043
   45046   45049   45052   45055   45058   45061   45064   45067   45070   45073
   45076   45079   45082   45085   45088   45091   45094   45097   45100   45103
   45106   45109   45112   45115   45118   45121   45124   45127   45130   45133
   45136   45139   45142   45145   45148   45151   45154   45157   45160   45163
   45166   45169   45172   45175   45178   45181   45184   45187   45190   45193
   45196   45199   45202   45205   45208   45211   45214   45217   45220   45223
   45226   45229   45232   45235   45238   45241   45244   45247   45250   45253
   45256   45259   45262   45265   45268   45271   45274   45277   45280   45283
   45286   45289   45292   45295   45298   45301   45304   45307   45310   45313
   45316   45319   45322   45325   45328   45331   45334   45337   45340   45343
   45346   45349   45352   45355   45358   45361   45364   45367   45370   45373
   45376   45379   45382   45385   45388   45391   45394   45397   45400   45403
   45406   45409   45412   45415   45418   45421   45424   45427   45430   45433
   45436   45439   45442   45445   45448   45451   45454   45457   45460   45463
   45466   45469   45472   45475   45478   45481   45484   45487   45490   45493
   45496   45499   45502   45505   45508   45511   45514   45517   45520   45523
   45526   45529   45532   45535   45538   45541   45544   45547   45550   45553
   45556   45559   45562   45565   45568   45571   45574   45577   45580   45583
   45586   45589   45592   45595   45598   45601   45604   45607   45610   45613
   45616   45619   45622   45625   45628   45631   45634   45637   45640   45643
   45646   45649   45652   45655   45658   45661   45664   45667   45670   45673
   45676   45679   45682   45685   45688   45691   45694   45697   45700   45703
   45706   45709   45712   45715   45718   45721   45724   45727   45730   45733
   45736   45739   45742   45745   45748   45751   45754   45757   45760   45763
   45766   45769   45772   45775   45778   45781   45784   45787   45790   45793
   45796   45799   45802   45805   45808   45811   45814   45817   45820   45823
   45826   45829   45832   45835   45838   45841   45844   45847   45850   45853
   45856   45859   45862   45865   45868   45871   45874   45877   45880   45883
   45886   45889   45892   45895   45898   45901   45904   45907   45910   45913
   45916   45919   45922   45925   45928   45931   45934   45937   45940   45943
   45946   45949   45952   45955   45958   45961   45964   45967   45970   45973
   45976   45979   45982   45985   45988   45991   45994   45997   46000   46003
   46006   46009   46012   46015   46018   46021   46024   46027   46030   46033
   46036   46039   46042   46045   46048   46051   46054   46057   46060   46063
   46066   46069   46072   46075   46078   46081   46084   46087   46090   46093
   46096   46099   46102   46105   46108   46111   46114   46117   46120   46123
   46126   46129   46132   46135   46138   46141   46144   46147   46150   46153
   46156   46159   46162   46165   46168   46171   46174   46177   46180   46183
   46186   46189   46192   46195   46198   46201   46204   46207   46210   46213
   46216   46219   46222   46225   46228   46231   46234   46237   46240   46243
   46246   46249   46252   46255   46258   46261   46264   46267   46270   46273
   46276   46279   46282   46285   46288   46291   46294   46297   46300   46303
   46306   46309   46312   46315   46318   46321   46324   46327   46330   46333
   46336   46339   46342   46345   46348   46351   46354   46357   46360   46363
   46366   46369   46372   46375   46378   46381   46384   46387   46390   46393
   46396   46399   46402   46405   46408   46411   46414   46417   46420   46423
   46426   46429   46432   46435   46438   46441   46444   46447   46450   46453
   46456   46459   46462   46465   46468   46471   46474   46477   46480   46483
   46486   46489   46492   46495   46498   46501   46504   46507   46510   46513
   46516   46519   46522   46525   46528   46531   46534   46537   46540   46543
   46546   46549   46552   46555   46558   46561   46564   46567   46570   46573
   46576   46579   46582   46585   46588   46591   46594   46597   46600   46603
   46606   46609   46612   46615   46618   46621   46624   46627   46630   46633
   46636   46639   46642   46645   46648   46651   46654   46657   46660   46663
   46666   46669   46672   46675   46678   46681   46684   46687   46690   46693
   46696   46699   46702   46705   46708   46711   46714   46717   46720   46723
   46726   46729   46732   46735   46738   46741   46744   46747   46750   46753
   46756   46759   46762   46765   46768   46771   46774   46777   46780   46783
   46786   46789   46792   46795   46798   46801   46804   46807   46810   46813
   46816   46819   46822   46825   46828   46831   46834   46837   46840   46843
   46846   46849   46852   46855   46858   46861   46864   46867   46870   46873
   46876   46879   46882   46885   46888   46891   46894   46897   46900   46903
   46906   46909   46912   46915   46918   46921   46924   46927   46930   46933
   46936   46939   46942   46945   46948   46951   46954   46957   46960   46963
   46966   46969   46972   46975   46978   46981   46984   46987   46990   46993
   46996   46999   47002   47005   47008   47011   47014   47017   47020   47023
   47026   47029   47032   47035   47038   47041   47044   47047   47050   47053
   47056   47059   47062   47065   47068   47071   47074   47077   47080   47083
   47086   47089   47092   47095   47098   47101   47104   47107   47110   47113
   47116   47119   47122   47125   47128   47131   47134   47137   47140   47143
   47146   47149   47152   47155   47158   47161   47164   47167   47170   47173
   47176   47179   47182   47185   47188   47191   47194   47197   47200   47203
   47206   47209   47212   47215   47218   47221   47224   47227   47230   47233
   47236   47239   47242   47245   47248   47251   47254   47257   47260   47263
   47266   47269   47272   47275   47278   47281   47284   47287   47290   47293
   47296   47299   47302   47305   47308   47311   47314   47317   47320   47323
   47326   47329   47332   47335   47338   47341   47344   47347   47350   47353
   47356   47359   47362   47365   47368   47371   47374   47377   47380   47383
   47386   47389   47392   47395   47398   47401   47404   47407   47410   47413
   47416   47419   47422   47425   47428   47431   47434   47437   47440   47443
   47446   47449   47452   47455   47458   47461   47464   47467   47470   47473
   47476   47479   47482   47485   47488   47491   47494   47497   47500   47503
   47506   47509   47512   47515   47518   47521   47524   47527   47530   47533
   47536   47539   47542   47545   47548   47551   47554   47557   47560   47563
   47566   47569   47572   47575   47578   47581   47584   47587   47590   47593
   47596   47599   47602   47605   47608   47611   47614   47617   47620   47623
   47626   47629   47632   47635   47638   47641   47644   47647   47650   47653
   47656   47659   47662   47665   47668   47671   47674   47677   47680   47683
   47686   47689   47692   47695   47698   47701   47704   47707   47710   47713
   47716   47719   47722   47725   47728   47731   47734   47737   47740   47743
   47746   47749   47752   47755   47758   47761   47764   47767   47770   47773
   47776   47779   47782   47785   47788   47791   47794   47797   47800   47803
   47806   47809   47812   47815   47818   47821   47824   47827   47830   47833
   47836   47839   47842   47845   47848   47851   47854   47857   47860   47863
   47866   47869   47872   47875   47878   47881   47884   47887   47890   47893
   47896   47899   47902   47905   47908   47911   47914   47917   47920   47923
   47926   47929   47932   47935   47938   47941   47944   47947   47950   47953
   47956   47959   47962   47965   47968   47971   47974   47977   47980   47983
   47986   47989   47992   47995   47998   48001   48004   48007   48010   48013
   48016   48019   48022   48025   48028   48031   48034   48037   48040   48043
   48046   48049   48052   48055   48058   48061   48064   48067   48070   48073
   48076   48079   48082   48085   48088   48091   48094   48097   48100   48103
   48106   48109   48112   48115   48118   48121   48124   48127   48130   48133
   48136   48139   48142   48145   48148   48151   48154   48157   48160   48163
   48166   48169   48172   48175   48178   48181   48184   48187   48190   48193
   48196   48199   48202   48205   48208   48211   48214   48217   48220   48223
   48226   48229   48232   48235   48238   48241   48244   48247   48250   48253
   48256   48259   48262   48265   48268   48271   48274   48277   48280   48283
   48286   48289   48292   48295   48298   48301   48304   48307   48310   48313
   48316   48319   48322   48325   48328   48331   48334   48337   48340   48343
   48346   48349   48352   48355   48358   48361   48364   48367   48370   48373
   48376   48379   48382   48385   48388   48391   48394   48397   48400   48403
   48406   48409   48412   48415   48418   48421   48424   48427   48430   48433
   48436   48439   48442   48445   48448   48451   48454   48457   48460   48463
   48466   48469   48472   48475   48478   48481   48484   48487   48490   48493
   48496   48499   48502   48505   48508   48511   48514   48517   48520   48523
   48526   48529   48532   48535   48538   48541   48544   48547   48550   48553
   48556   48559   48562   48565   48568   48571   48574   48577   48580   48583
   48586   48589   48592   48595   48598   48601   48604   48607   48610   48613
   48616   48619   48622   48625   48628   48631   48634   48637   48640   48643
   48646   48649   48652   48655   48658   48661   48664   48667   48670   48673
   48676   48679   48682   48685   48688   48691   48694   48697   48700   48703
   48706   48709   48712   48715   48718   48721   48724   48727   48730   48733
   48736   48739   48742   48745   48748   48751   48754   48757   48760   48763
   48766   48769   48772   48775   48778   48781   48784   48787   48790   48793
   48796   48799   48802   48805   48808   48811   48814   48817   48820   48823
   48826   48829   48832   48835   48838   48841   48844   48847   48850   48853
   48856   48859   48862   48865   48868   48871   48874   48877   48880   48883
   48886   48889   48892   48895   48898   48901   48904   48907   48910   48913
   48916   48919   48922   48925   48928   48931   48934   48937   48940   48943
   48946   48949   48952   48955   48958   48961   48964   48967   48970   48973
   48976   48979   48982   48985   48988   48991   48994   48997   49000   49003
   49006   49009   49012   49015   49018   49021   49024   49027   49030   49033
   49036   49039   49042   49045   49048   49051   49054   49057   49060   49063
   49066   49069   49072   49075   49078   49081   49084   49087   49090   49093
   49096   49099   49102   49105   49108   49111   49114   49117   49120   49123
   49126   49129   49132   49135   49138   49141   49144   49147   49150   49153
   49156   49159   49162   49165   49168   49171   49174   49177   49180   49183
   49186   49189   49192   49195   49198   49201   49204   49207   49210   49213
   49216   49219   49222   49225   49228   49231   49234   49237   49240   49243
   49246   49249   49252   49255   49258   49261   49264   49267   49270   49273
   49276   49279   49282   49285   49288   49291   49294   49297   49300   49303
   49306   49309   49312   49315   49318   49321   49324   49327   49330   49333
   49336   49339   49342   49345   49348   49351   49354   49357   49360   49363
   49366   49369   49372   49375   49378   49381   49384   49387   49390   49393
   49396   49399   49402   49405   49408   49411   49414   49417   49420   49423
   49426   49429   49432   49435   49438   49441   49444   49447   49450   49453
   49456   49459   49462   49465   49468   49471   49474   49477   49480   49483
   49486   49489   49492   49495   49498   49501   49504   49507   49510   49513
   49516   49519   49522   49525   49528   49531   49534   49537   49540   49543
   49546   49549   49552   49555   49558   49561   49564   49567   49570   49573
   49576   49579   49582   49585   49588   49591   49594   49597   49600   49603
   49606   49609   49612   49615   49618   49621   49624   49627   49630   49633
   49636   49639   49642   49645   49648   49651   49654   49657   49660   49663
   49666   49669   49672   49675   49678   49681   49684   49687   49690   49693
   49696   49699   49702   49705   49708   49711   49714   49717   49720   49723
   49726   49729   49732   49735   49738   49741   49744   49747   49750   49753
   49756   49759   49762   49765   49768   49771   49774   49777   49780   49783
   49786   49789   49792   49795   49798   49801   49804   49807   49810   49813
   49816   49819   49822   49825   49828   49831   49834   49837   49840   49843
   49846   49849   49852   49855   49858   49861   49864   49867   49870   49873
   49876   49879   49882   49885   49888   49891   49894   49897   49900   49903
   49906   49909   49912   49915   49918   49921   49924   49927   49930   49933
   49936   49939   49942   49945   49948   49951   49954   49957   49960   49963
   49966   49969   49972   49975   49978   49981   49984   49987   49990   49993
   49996   49999   50002   50005   50008   50011   50014   50017   50020   50023
   50026   50029   50032   50035   50038   50041   50044   50047   50050   50053
   50056   50059   50062   50065   50068   50071   50074   50077   50080   50083
   50086   50089   50092   50095   50098   50101   50104   50107   50110   50113
   50116   50119   50122   50125   50128   50131   50134   50137   50140   50143
   50146   50149   50152   50155   50158   50161   50164   50167   50170   50173
   50176   50179   50182   50185   50188   50191   50194   50197   50200   50203
   50206   50209   50212   50215   50218   50221   50224   50227   50230   50233
   50236   50239   50242   50245   50248   50251   50254   50257   50260   50263
   50266   50269   50272   50275   50278   50281   50284   50287   50290   50293
   50296   50299   50302   50305   50308   50311   50314   50317   50320   50323
   50326   50329   50332   50335   50338   50341   50344   50347   50350   50353
   50356   50359   50362   50365   50368   50371   50374   50377   50380   50383
   50386   50389   50392   50395   50398   50401   50404   50407   50410   50413
   50416   50419   50422   50425   50428   50431   50434   50437   50440   50443
   50446   50449   50452   50455   50458   50461   50464   50467   50470   50473
   50476   50479   50482   50485   50488   50491   50494   50497   50500   50503
   50506   50509   50512   50515   50518   50521   50524   50527   50530   50533
   50536   50539   50542   50545   50548   50551   50554   50557   50560   50563
   50566   50569   50572   50575   50578   50581   50584   50587   50590   50593
   50596   50599   50602   50605   50608   50611   50614   50617   50620   50623
   50626   50629   50632   50635   50638   50641   50644   50647   50650   50653
   50656   50659   50662   50665   50668   50671   50674   50677   50680   50683
   50686   50689   50692   50695   50698   50701   50704   50707   50710   50713
   50716   50719   50722   50725   50728   50731   50734   50737   50740   50743
   50746   50749   50752   50755   50758   50761   50764   50767   50770   50773
   50776   50779   50782   50785   50788   50791   50794   50797   50800   50803
   50806   50809   50812   50815   50818   50821   50824   50827   50830   50833
   50836   50839   50842   50845   50848   50851   50854   50857   50860   50863
   50866   50869   50872   50875   50878   50881   50884   50887   50890   50893
   50896   50899   50902   50905   50908   50911   50914   50917   50920   50923
   50926   50929   50932   50935   50938   50941   50944   50947   50950   50953
   50956   50959   50962   50965   50968   50971   50974   50977   50980   50983
   50986   50989   50992   50995   50998   51001   51004   51007   51010   51013
   51016   51019   51022   51025   51028   51031   51034   51037   51040   51043
   51046   51049   51052   51055   51058   51061   51064   51067   51070   51073
   51076   51079   51082   51085   51088   51091   51094   51097   51100   51103
   51106   51109   51112   51115   51118   51121   51124   51127   51130   51133
   51136   51139   51142   51145   51148   51151   51154   51157   51160   51163
   51166   51169   51172   51175   51178   51181   51184   51187   51190   51193
   51196   51199   51202   51205   51208   51211   51214   51217   51220   51223
   51226   51229   51232   51235   51238   51241   51244   51247   51250   51253
   51256   51259   51262   51265   51268   51271   51274   51277   51280   51283
   51286   51289   51292   51295   51298   51301   51304   51307   51310   51313
   51316   51319   51322   51325   51328   51331   51334   51337   51340   51343
   51346   51349   51352   51355   51358   51361   51364   51367   51370   51373
   51376   51379   51382   51385   51388   51391   51394   51397   51400   51403
   51406   51409   51412   51415   51418   51421   51424   51427   51430   51433
   51436   51439   51442   51445   51448   51451   51454   51457   51460   51463
   51466   51469   51472   51475   51478   51481   51484   51487   51490   51493
   51496   51499   51502   51505   51508   51511   51514   51517   51520   51523
   51526   51529   51532   51535   51538   51541   51544   51547   51550   51553
   51556   51559   51562   51565   51568   51571   51574   51577   51580   51583
   51586   51589   51592   51595   51598   51601   51604   51607   51610   51613
   51616   51619   51622   51625   51628   51631   51634   51637   51640   51643
   51646   51649   51652   51655   51658   51661   51664   51667   51670   51673
   51676   51679   51682   51685   51688   51691   51694   51697   51700   51703
   51706   51709   51712   51715   51718   51721   51724   51727   51730   51733
   51736   51739   51742   51745   51748   51751   51754   51757   51760   51763
   51766   51769   51772   51775   51778   51781   51784   51787   51790   51793
   51796   51799   51802   51805   51808   51811   51814   51817   51820   51823
   51826   51829   51832   51835   51838   51841   51844   51847   51850   51853
   51856   51859   51862   51865   51868   51871   51874   51877   51880   51883
   51886   51889   51892   51895   51898   51901   51904   51907   51910   51913
   51916   51919   51922   51925   51928   51931   51934   51937   51940   51943
   51946   51949   51952   51955   51958   51961   51964   51967   51970   51973
   51976   51979   51982   51985   51988   51991   51994   51997   52000   52003
   52006   52009   52012   52015   52018   52021   52024   52027   52030   52033
   52036   52039   52042   52045   52048   52051   52054   52057   52060   52063
   52066   52069   52072   52075   52078   52081   52084   52087   52090   52093
   52096   52099   52102   52105   52108   52111   52114   52117   52120   52123
   52126   52129   52132   52135   52138   52141   52144   52147   52150   52153
   52156   52159   52162   52165   52168   52171   52174   52177   52180   52183
   52186   52189   52192   52195   52198   52201   52204   52207   52210   52213
   52216   52219   52222   52225   52228   52231   52234   52237   52240   52243
   52246   52249   52252   52255   52258   52261   52264   52267   52270   52273
   52276   52279   52282   52285   52288   52291   52294   52297   52300   52303
   52306   52309   52312   52315   52318   52321   52324   52327   52330   52333
   52336   52339   52342   52345   52348   52351   52354   52357   52360   52363
   52366   52369   52372   52375   52378   52381   52384   52387   52390   52393
   52396   52399   52402   52405   52408   52411   52414   52417   52420   52423
   52426   52429   52432   52435   52438   52441   52444   52447   52450   52453
   52456   52459   52462   52465   52468   52471   52474   52477   52480   52483
   52486   52489   52492   52495   52498   52501   52504   52507   52510   52513
   52516   52519   52522   52525   52528   52531   52534   52537   52540   52543
   52546   52549   52552   52555   52558   52561   52564   52567   52570   52573
   52576   52579   52582   52585   52588   52591   52594   52597   52600   52603
   52606   52609   52612   52615   52618   52621   52624   52627   52630   52633
   52636   52639   52642   52645   52648   52651   52654   52657   52660   52663
   52666   52669   52672   52675   52678   52681   52684   52687   52690   52693
   52696   52699   52702   52705   52708   52711   52714   52717   52720   52723
   52726   52729   52732   52735   52738   52741   52744   52747   52750   52753
   52756   52759   52762   52765   52768   52771   52774   52777   52780   52783
   52786   52789   52792   52795   52798   52801   52804   52807   52810   52813
   52816   52819   52822   52825   52828   52831   52834   52837   52840   52843
   52846   52849   52852   52855   52858   52861   52864   52867   52870   52873
   52876   52879   52882   52885   52888   52891   52894   52897   52900   52903
   52906   52909   52912   52915   52918   52921   52924   52927   52930   52933
   52936   52939   52942   52945   52948   52951   52954   52957   52960   52963
   52966   52969   52972   52975   52978   52981   52984   52987   52990   52993
   52996   52999   53002   53005   53008   53011   53014   53017   53020   53023
   53026   53029   53032   53035   53038   53041   53044   53047   53050   53053
   53056   53059   53062   53065   53068   53071   53074   53077   53080   53083
   53086   53089   53092   53095   53098   53101   53104   53107   53110   53113
   53116   53119   53122   53125   53128   53131   53134   53137   53140   53143
   53146   53149   53152   53155   53158   53161   53164   53167   53170   53173
   53176   53179   53182   53185   53188   53191   53194   53197   53200   53203
   53206   53209   53212   53215   53218   53221   53224   53227   53230   53233
   53236   53239   53242   53245   53248   53251   53254   53257   53260   53263
   53266   53269   53272   53275   53278   53281   53284   53287   53290   53293
   53296   53299   53302   53305   53308   53311   53314   53317   53320   53323
   53326   53329   53332   53335   53338   53341   53344   53347   53350   53353
   53356   53359   53362   53365   53368   53371   53374   53377   53380   53383
   53386   53389   53392   53395   53398   53401   53404   53407   53410   53413
   53416   53419   53422   53425   53428   53431   53434   53437   53440   53443
   53446   53449   53452   53455   53458   53461   53464   53467   53470   53473
   53476   53479   53482   53485   53488   53491   53494   53497   53500   53503
   53506   53509   53512   53515   53518   53521   53524   53527   53530   53533
   53536   53539   53542   53545   53548   53551   53554   53557   53560   53563
   53566   53569   53572   53575   53578   53581   53584   53587   53590   53593
   53596   53599   53602   53605   53608   53611   53614   53617   53620   53623
   53626   53629   53632   53635   53638   53641   53644   53647   53650   53653
   53656   53659   53662   53665   53668   53671   53674   53677   53680   53683
   53686   53689   53692   53695   53698   53701   53704   53707   53710   53713
   53716   53719   53722   53725   53728   53731   53734   53737   53740   53743
   53746   53749   53752   53755   53758   53761   53764   53767   53770   53773
   53776   53779   53782   53785   53788   53791   53794   53797   53800   53803
   53806   53809   53812   53815   53818   53821   53824   53827   53830   53833
   53836   53839   53842   53845   53848   53851   53854   53857   53860   53863
   53866   53869   53872   53875   53878   53881   53884   53887   53890   53893
   53896   53899   53902   53905   53908   53911   53914   53917   53920   53923
   53926   53929   53932   53935   53938   53941   53944   53947   53950   53953
   53956   53959   53962   53965   53968   53971   53974   53977   53980   53983
   53986   53989   53992   53995   53998   54001   54004   54007   54010   54013
   54016   54019   54022   54025   54028   54031   54034   54037   54040   54043
   54046   54049   54052   54055   54058   54061   54064   54067   54070   54073
   54076   54079   54082   54085   54088   54091   54094   54097   54100   54103
   54106   54109   54112   54115   54118   54121   54124   54127   54130   54133
   54136   54139   54142   54145   54148   54151   54154   54157   54160   54163
   54166   54169   54172   54175   54178   54181   54184   54187   54190   54193
   54196   54199   54202   54205   54208   54211   54214   54217   54220   54223
   54226   54229   54232   54235   54238   54241   54244   54247   54250   54253
   54256   54259   54262   54265   54268   54271   54274   54277   54280   54283
   54286   54289   54292   54295   54298   54301   54304   54307   54310   54313
   54316   54319   54322   54325   54328   54331   54334   54337   54340   54343
   54346   54349   54352   54355   54358   54361   54364   54367   54370   54373
   54376   54379   54382   54385   54388   54391   54394   54397   54400   54403
   54406   54409   54412   54415   54418   54421   54424   54427   54430   54433
   54436   54439   54442   54445   54448   54451   54454   54457   54460   54463
   54466   54469   54472   54475   54478   54481   54484   54487   54490   54493
   54496   54499   54502   54505   54508   54511   54514   54517   54520   54523
   54526   54529   54532   54535   54538   54541   54544   54547   54550   54553
   54556   54559   54562   54565   54568   54571   54574   54577   54580   54583
   54586   54589   54592   54595   54598   54601   54604   54607   54610   54613
   54616   54619   54622   54625   54628   54631   54634   54637   54640   54643
   54646   54649   54652   54655   54658   54661   54664   54667   54670   54673
   54676   54679   54682   54685   54688   54691   54694   54697   54700   54703
   54706   54709   54712   54715   54718   54721   54724   54727   54730   54733
   54736   54739   54742   54745   54748   54751   54754   54757   54760   54763
   54766   54769   54772   54775   54778   54781   54784   54787   54790   54793
   54796   54799   54802   54805   54808   54811   54814   54817   54820   54823
   54826   54829   54832   54835   54838   54841   54844   54847   54850   54853
   54856   54859   54862   54865   54868   54871   54874   54877   54880   54883
   54886   54889   54892   54895   54898   54901   54904   54907   54910   54913
   54916   54919   54922   54925   54928   54931   54934   54937   54940   54943
   54946   54949   54952   54955   54958   54961   54964   54967   54970   54973
   54976   54979   54982   54985   54988   54991   54994   54997   55000   55003
   55006   55009   55012   55015   55018   55021   55024   55027   55030   55033
   55036   55039   55042   55045   55048   55051   55054   55057   55060   55063
   55066   55069   55072   55075   55078   55081   55084   55087   55090   55093
   55096   55099   55102   55105   55108   55111   55114   55117   55120   55123
   55126   55129   55132   55135   55138   55141   55144   55147   55150   55153
   55156   55159   55162   55165   55168   55171   55174   55177   55180   55183
   55186   55189   55192   55195   55198   55201   55204   55207   55210   55213
   55216   55219   55222   55225   55228   55231   55234   55237   55240   55243
   55246   55249   55252   55255   55258   55261   55264   55267   55270   55273
   55276   55279   55282   55285   55288   55291   55294   55297   55300   55303
   55306   55309   55312   55315   55318   55321   55324   55327   55330   55333
   55336   55339   55342   55345   55348   55351   55354   55357   55360   55363
   55366   55369   55372   55375   55378   55381   55384   55387   55390   55393
   55396   55399   55402   55405   55408   55411   55414   55417   55420   55423
   55426   55429   55432   55435   55438   55441   55444   55447   55450   55453
   55456   55459   55462   55465   55468   55471   55474   55477   55480   55483
   55486   55489   55492   55495   55498   55501   55504   55507   55510   55513
   55516   55519   55522   55525   55528   55531   55534   55537   55540   55543
   55546   55549   55552   55555   55558   55561   55564   55567   55570   55573
   55576   55579   55582   55585   55588   55591   55594   55597   55600   55603
   55606   55609   55612   55615   55618   55621   55624   55627   55630   55633
   55636   55639   55642   55645   55648   55651   55654   55657   55660   55663
   55666   55669   55672   55675   55678   55681   55684   55687   55690   55693
   55696   55699   55702   55705   55708   55711   55714   55717   55720   55723
   55726   55729   55732   55735   55738   55741   55744   55747   55750   55753
   55756   55759   55762   55765   55768   55771   55774   55777   55780   55783
   55786   55789   55792   55795   55798   55801   55804   55807   55810   55813
   55816   55819   55822   55825   55828   55831   55834   55837   55840   55843
   55846   55849   55852   55855   55858   55861   55864   55867   55870   55873
   55876   55879   55882   55885   55888   55891   55894   55897   55900   55903
   55906   55909   55912   55915   55918   55921   55924   55927   55930   55933
   55936   55939   55942   55945   55948   55951   55954   55957   55960   55963
   55966   55969   55972   55975   55978   55981   55984   55987   55990   55993
   55996   55999   56002   56005   56008   56011   56014   56017   56020   56023
   56026   56029   56032   56035   56038   56041   56044   56047   56050   56053
   56056   56059   56062   56065   56068   56071   56074   56077   56080   56083
   56086   56089   56092   56095   56098   56101   56104   56107   56110   56113
   56116   56119   56122   56125   56128   56131   56134   56137   56140   56143
   56146   56149   56152   56155   56158   56161   56164   56167   56170   56173
   56176   56179   56182   56185   56188   56191   56194   56197   56200   56203
   56206   56209   56212   56215   56218   56221   56224   56227   56230   56233
   56236   56239   56242   56245   56248   56251   56254   56257   56260   56263
   56266   56269   56272   56275   56278   56281   56284   56287   56290   56293
   56296   56299   56302   56305   56308   56311   56314   56317   56320   56323
   56326   56329   56332   56335   56338   56341   56344   56347   56350   56353
   56356   56359   56362   56365   56368   56371   56374   56377   56380   56383
   56386   56389   56392   56395   56398   56401   56404   56407   56410   56413
   56416   56419   56422   56425   56428   56431   56434   56437   56440   56443
   56446   56449   56452   56455   56458   56461   56464   56467   56470   56473
   56476   56479   56482   56485   56488   56491   56494   56497   56500   56503
   56506   56509   56512   56515   56518   56521   56524   56527   56530   56533
   56536   56539   56542   56545   56548   56551   56554   56557   56560   56563
   56566   56569   56572   56575   56578   56581   56584   56587   56590   56593
   56596   56599   56602   56605   56608   56611   56614   56617   56620   56623
   56626   56629   56632   56635   56638   56641   56644   56647   56650   56653
   56656   56659   56662   56665   56668   56671   56674   56677   56680   56683
   56686   56689   56692   56695   56698   56701   56704   56707   56710   56713
   56716   56719   56722   56725   56728   56731   56734   56737   56740   56743
   56746   56749   56752   56755   56758   56761   56764   56767   56770   56773
   56776   56779   56782   56785   56788   56791   56794   56797   56800   56803
   56806   56809   56812   56815   56818   56821   56824   56827   56830   56833
   56836   56839   56842   56845   56848   56851   56854   56857   56860   56863
   56866   56869   56872   56875   56878   56881   56884   56887   56890   56893
   56896   56899   56902   56905   56908   56911   56914   56917   56920   56923
   56926   56929   56932   56935   56938   56941   56944   56947   56950   56953
   56956   56959   56962   56965   56968   56971   56974   56977   56980   56983
   56986   56989   56992   56995   56998   57001   57004   57007   57010   57013
   57016   57019   57022   57025   57028   57031   57034   57037   57040   57043
   57046   57049   57052   57055   57058   57061   57064   57067   57070   57073
   57076   57079   57082   57085   57088   57091   57094   57097   57100   57103
   57106   57109   57112   57115   57118   57121   57124   57127   57130   57133
   57136   57139   57142   57145   57148   57151   57154   57157   57160   57163
   57166   57169   57172   57175   57178   57181   57184   57187   57190   57193
   57196   57199   57202   57205   57208   57211   57214   57217   57220   57223
   57226   57229   57232   57235   57238   57241   57244   57247   57250   57253
   57256   57259   57262   57265   57268   57271   57274   57277   57280   57283
   57286   57289   57292   57295   57298   57301   57304   57307   57310   57313
   57316   57319   57322   57325   57328   57331   57334   57337   57340   57343
   57346   57349   57352   57355   57358   57361   57364   57367   57370   57373
   57376   57379   57382   57385   57388   57391   57394   57397   57400   57403
   57406   57409   57412   57415   57418   57421   57424   57427   57430   57433
   57436   57439   57442   57445   57448   57451   57454   57457   57460   57463
   57466   57469   57472   57475   57478   57481   57484   57487   57490   57493
   57496   57499   57502   57505   57508   57511   57514   57517   57520   57523
   57526   57529   57532   57535   57538   57541   57544   57547   57550   57553
   57556   57559   57562   57565   57568   57571   57574   57577   57580   57583
   57586   57589   57592   57595   57598   57601   57604   57607   57610   57613
   57616   57619   57622   57625   57628   57631   57634   57637   57640   57643
   57646   57649   57652   57655   57658   57661   57664   57667   57670   57673
   57676   57679   57682   57685   57688   57691   57694   57697   57700   57703
   57706   57709   57712   57715   57718   57721   57724   57727   57730   57733
   57736   57739   57742   57745   57748   57751   57754   57757   57760   57763
   57766   57769   57772   57775   57778   57781   57784   57787   57790   57793
   57796   57799   57802   57805   57808   57811   57814   57817   57820   57823
   57826   57829   57832   57835   57838   57841   57844   57847   57850   57853
   57856   57859   57862   57865   57868   57871   57874   57877   57880   57883
   57886   57889   57892   57895   57898   57901   57904   57907   57910   57913
   57916   57919   57922   57925   57928   57931   57934   57937   57940   57943
   57946   57949   57952   57955   57958   57961   57964   57967   57970   57973
   57976   57979   57982   57985   57988   57991   57994   57997   58000   58003
   58006   58009   58012   58015   58018   58021   58024   58027   58030   58033
   58036   58039   58042   58045   58048   58051   58054   58057   58060   58063
   58066   58069   58072   58075   58078   58081   58084   58087   58090   58093
   58096   58099   58102   58105   58108   58111   58114   58117   58120   58123
   58126   58129   58132   58135   58138   58141   58144   58147   58150   58153
   58156   58159   58162   58165   58168   58171   58174   58177   58180   58183
   58186   58189   58192   58195   58198   58201   58204   58207   58210   58213
   58216   58219   58222   58225   58228   58231   58234   58237   58240   58243
   58246   58249   58252   58255   58258   58261   58264   58267   58270   58273
   58276   58279   58282   58285   58288   58291   58294   58297   58300   58303
   58306   58309   58312   58315   58318   58321   58324   58327   58330   58333
   58336   58339   58342   58345   58348   58351   58354   58357   58360   58363
   58366   58369   58372   58375   58378   58381   58384   58387   58390   58393
   58396   58399   58402   58405   58408   58411   58414   58417   58420   58423
   58426   58429   58432   58435   58438   58441   58444   58447   58450   58453
   58456   58459   58462   58465   58468   58471   58474   58477   58480   58483
   58486   58489   58492   58495   58498   58501   58504   58507   58510   58513
   58516   58519   58522   58525   58528   58531   58534   58537   58540   58543
   58546   58549   58552   58555   58558   58561   58564   58567   58570   58573
   58576   58579   58582   58585   58588   58591   58594   58597   58600   58603
   58606   58609   58612   58615   58618   58621   58624   58627   58630   58633
   58636   58639   58642   58645   58648   58651   58654   58657   58660   58663
   58666   58669   58672   58675   58678   58681   58684   58687   58690   58693
   58696   58699   58702   58705   58708   58711   58714   58717   58720   58723
   58726   58729   58732   58735   58738   58741   58744   58747   58750   58753
   58756   58759   58762   58765   58768   58771   58774   58777   58780   58783
   58786   58789   58792   58795   58798   58801   58804   58807   58810   58813
   58816   58819   58822   58825   58828   58831   58834   58837   58840   58843
   58846   58849   58852   58855   58858   58861   58864   58867   58870   58873
   58876   58879   58882   58885   58888   58891   58894   58897   58900   58903
   58906   58909   58912   58915   58918   58921   58924   58927   58930   58933
   58936   58939   58942   58945   58948   58951   58954   58957   58960   58963
   58966   58969   58972   58975   58978   58981   58984   58987   58990   58993
   58996   58999   59002   59005   59008   59011   59014   59017   59020   59023
   59026   59029   59032   59035   59038   59041   59044   59047   59050   59053
   59056   59059   59062   59065   59068   59071   59074   59077   59080   59083
   59086   59089   59092   59095   59098   59101   59104   59107   59110   59113
   59116   59119   59122   59125   59128   59131   59134   59137   59140   59143
   59146   59149   59152   59155   59158   59161   59164   59167   59170   59173
   59176   59179   59182   59185   59188   59191   59194   59197   59200   59203
   59206   59209   59212   59215   59218   59221   59224   59227   59230   59233
   59236   59239   59242   59245   59248   59251   59254   59257   59260   59263
   59266   59269   59272   59275   59278   59281   59284   59287   59290   59293
   59296   59299   59302   59305   59308   59311   59314   59317   59320   59323
   59326   59329   59332   59335   59338   59341   59344   59347   59350   59353
   59356   59359   59362   59365   59368   59371   59374   59377   59380   59383
   59386   59389   59392   59395   59398   59401   59404   59407   59410   59413
   59416   59419   59422   59425   59428   59431   59434   59437   59440   59443
   59446   59449   59452   59455   59458   59461   59464   59467   59470   59473
   59476   59479   59482   59485   59488   59491   59494   59497   59500   59503
   59506   59509   59512   59515   59518   59521   59524   59527   59530   59533
   59536   59539   59542   59545   59548   59551   59554   59557   59560   59563
   59566   59569   59572   59575   59578   59581   59584   59587   59590   59593
   59596   59599   59602   59605   59608   59611   59614   59617   59620   59623
   59626   59629   59632   59635   59638   59641   59644   59647   59650   59653
   59656   59659   59662   59665   59668   59671   59674   59677   59680   59683
   59686   59689   59692   59695   59698   59701   59704   59707   59710   59713
   59716   59719   59722   59725   59728   59731   59734   59737   59740   59743
   59746   59749   59752   59755   59758   59761   59764   59767   59770   59773
   59776   59779   59782   59785   59788   59791   59794   59797   59800   59803
   59806   59809   59812   59815   59818   59821   59824   59827   59830   59833
   59836   59839   59842   59845   59848   59851   59854   59857   59860   59863
   59866   59869   59872   59875   59878   59881   59884   59887   59890   59893
   59896   59899   59902   59905   59908   59911   59914   59917   59920   59923
   59926   59929   59932   59935   59938   59941   59944   59947   59950   59953
   59956   59959   59962   59965   59968   59971   59974   59977   59980   59983
   59986   59989   59992   59995   59998   60001   60004   60007   60010   60013
   60016   60019   60022   60025   60028   60031   60034   60037   60040   60043
   60046   60049   60052   60055   60058   60061   60064   60067   60070   60073
   60076   60079   60082   60085   60088   60091   60094   60097   60100   60103
   60106   60109   60112   60115   60118   60121   60124   60127   60130   60133
   60136   60139   60142   60145   60148   60151   60154   60157   60160   60163
   60166   60169   60172   60175   60178   60181   60184   60187   60190   60193
   60196   60199   60202   60205   60208   60211   60214   60217   60220   60223
   60226   60229   60232   60235   60238   60241   60244   60247   60250   60253
   60256   60259   60262   60265   60268   60271   60274   60277   60280   60283
   60286   60289   60292   60295   60298   60301   60304   60307   60310   60313
   60316   60319   60322   60325   60328   60331   60334   60337   60340   60343
   60346   60349   60352   60355   60358   60361   60364   60367   60370   60373
   60376   60379   60382   60385   60388   60391   60394   60397   60400   60403
   60406   60409   60412   60415   60418   60421   60424   60427   60430   60433
   60436   60439   60442   60445   60448   60451   60454   60457   60460   60463
   60466   60469   60472   60475   60478   60481   60484   60487   60490   60493
   60496   60499   60502   60505   60508   60511   60514   60517   60520   60523
   60526   60529   60532   60535   60538   60541   60544   60547   60550   60553
   60556   60559   60562   60565   60568   60571   60574   60577   60580   60583
   60586   60589   60592   60595   60598   60601   60604   60607   60610   60613
   60616   60619   60622   60625   60628   60631   60634   60637   60640   60643
   60646   60649   60652   60655   60658   60661   60664   60667   60670   60673
   60676   60679   60682   60685   60688   60691   60694   60697   60700   60703
   60706   60709   60712   60715   60718   60721   60724   60727   60730   60733
   60736   60739   60742   60745   60748   60751   60754   60757   60760   60763
   60766   60769   60772   60775   60778   60781   60784   60787   60790   60793
   60796   60799   60802   60805   60808   60811   60814   60817   60820   60823
   60826   60829   60832   60835   60838   60841   60844   60847   60850   60853
   60856   60859   60862   60865   60868   60871   60874   60877   60880   60883
   60886   60889   60892   60895   60898   60901   60904   60907   60910   60913
   60916   60919   60922   60925   60928   60931   60934   60937   60940   60943
   60946   60949   60952   60955   60958   60961   60964   60967   60970   60973
   60976   60979   60982   60985   60988   60991   60994   60997   61000   61003
   61006   61009   61012   61015   61018   61021   61024   61027   61030   61033
   61036   61039   61042   61045   61048   61051   61054   61057   61060   61063
   61066   61069   61072   61075   61078   61081   61084   61087   61090   61093
   61096   61099   61102   61105   61108   61111   61114   61117   61120   61123
   61126   61129   61132   61135   61138   61141   61144   61147   61150   61153
   61156   61159   61162   61165   61168   61171   61174   61177   61180   61183
   61186   61189   61192   61195   61198   61201   61204   61207   61210   61213
   61216   61219   61222   61225   61228   61231   61234   61237   61240   61243
   61246   61249   61252   61255   61258   61261   61264   61267   61270   61273
   61276   61279   61282   61285   61288   61291   61294   61297   61300   61303
   61306   61309   61312   61315   61318   61321   61324   61327   61330   61333
   61336   61339   61342   61345   61348   61351   61354   61357   61360   61363
   61366   61369   61372   61375   61378   61381   61384   61387   61390   61393
   61396   61399   61402   61405   61408   61411   61414   61417   61420   61423
   61426   61429   61432   61435   61438   61441   61444   61447   61450   61453
   61456   61459   61462   61465   61468   61471   61474   61477   61480   61483
   61486   61489   61492   61495   61498   61501   61504   61507   61510   61513
   61516   61519   61522   61525   61528   61531   61534   61537   61540   61543
   61546   61549   61552   61555   61558   61561   61564   61567   61570   61573
   61576   61579   61582   61585   61588   61591   61594   61597   61600   61603
   61606   61609   61612   61615   61618   61621   61624   61627   61630   61633
   61636   61639   61642   61645   61648   61651   61654   61657   61660   61663
   61666   61669   61672   61675   61678   61681   61684   61687   61690   61693
   61696   61699   61702   61705   61708   61711   61714   61717   61720   61723
   61726   61729   61732   61735   61738   61741   61744   61747   61750   61753
   61756   61759   61762   61765   61768   61771   61774   61777   61780   61783
   61786   61789   61792   61795   61798   61801   61804   61807   61810   61813
   61816   61819   61822   61825   61828   61831   61834   61837   61840   61843
   61846   61849   61852   61855   61858   61861   61864   61867   61870   61873
   61876   61879   61882   61885   61888   61891   61894   61897   61900   61903
   61906   61909   61912   61915   61918   61921   61924   61927   61930   61933
   61936   61939   61942   61945   61948   61951   61954   61957   61960   61963
   61966   61969   61972   61975   61978   61981   61984   61987   61990   61993
   61996   61999   62002   62005   62008   62011   62014   62017   62020   62023
   62026   62029   62032   62035   62038   62041   62044   62047   62050   62053
   62056   62059   62062   62065   62068   62071   62074   62077   62080   62083
   62086   62089   62092   62095   62098   62101   62104   62107   62110   62113
   62116   62119   62122   62125   62128   62131   62134   62137   62140   62143
   62146   62149   62152   62155   62158   62161   62164   62167   62170   62173
   62176   62179   62182   62185   62188   62191   62194   62197   62200   62203
   62206   62209   62212   62215   62218   62221   62224   62227   62230   62233
   62236   62239   62242   62245   62248   62251   62254   62257   62260   62263
   62266   62269   62272   62275   62278   62281   62284   62287   62290   62293
   62296   62299   62302   62305   62308   62311   62314   62317   62320   62323
   62326   62329   62332   62335   62338   62341   62344   62347   62350   62353
   62356   62359   62362   62365   62368   62371   62374   62377   62380   62383
   62386   62389   62392   62395   62398   62401   62404   62407   62410   62413
   62416   62419   62422   62425   62428   62431   62434   62437   62440   62443
   62446   62449   62452   62455   62458   62461   62464   62467   62470   62473
   62476   62479   62482   62485   62488   62491   62494   62497   62500   62503
   62506   62509   62512   62515   62518   62521   62524   62527   62530   62533
   62536   62539   62542   62545   62548   62551   62554   62557   62560   62563
   62566   62569   62572   62575   62578   62581   62584   62587   62590   62593
   62596   62599   62602   62605   62608   62611   62614   62617   62620   62623
   62626   62629   62632   62635   62638   62641   62644   62647   62650   62653
   62656   62659   62662   62665   62668   62671   62674   62677   62680   62683
   62686   62689   62692   62695   62698   62701   62704   62707   62710   62713
   62716   62719   62722   62725   62728   62731   62734   62737   62740   62743
   62746   62749   62752   62755   62758   62761   62764   62767   62770   62773
   62776   62779   62782   62785   62788   62791   62794   62797   62800   62803
   62806   62809   62812   62815   62818   62821   62824   62827   62830   62833
   62836   62839   62842   62845   62848   62851   62854   62857   62860   62863
   62866   62869   62872   62875   62878   62881   62884   62887   62890   62893
   62896   62899   62902   62905   62908   62911   62914   62917   62920   62923
   62926   62929   62932   62935   62938   62941   62944   62947   62950   62953
   62956   62959   62962   62965   62968   62971   62974   62977   62980   62983
   62986   62989   62992   62995   62998   63001   63004   63007   63010   63013
   63016   63019   63022   63025   63028   63031   63034   63037   63040   63043
   63046   63049   63052   63055   63058   63061   63064   63067   63070   63073
   63076   63079   63082   63085   63088   63091   63094   63097   63100   63103
   63106   63109   63112   63115   63118   63121   63124   63127   63130   63133
   63136   63139   63142   63145   63148   63151   63154   63157   63160   63163
   63166   63169   63172   63175   63178   63181   63184   63187   63190   63193
   63196   63199   63202   63205   63208   63211   63214   63217   63220   63223
   63226   63229   63232   63235   63238   63241   63244   63247   63250   63253
   63256   63259   63262   63265   63268   63271   63274   63277   63280   63283
   63286   63289   63292   63295   63298   63301   63304   63307   63310   63313
   63316   63319   63322   63325   63328   63331   63334   63337   63340   63343
   63346   63349   63352   63355   63358   63361   63364   63367   63370   63373
   63376   63379   63382   63385   63388   63391   63394   63397   63400   63403
   63406   63409   63412   63415   63418   63421   63424   63427   63430   63433
   63436   63439   63442   63445   63448   63451   63454   63457   63460   63463
   63466   63469   63472   63475   63478   63481   63484   63487   63490   63493
   63496   63499   63502   63505   63508   63511   63514   63517   63520   63523
   63526   63529   63532   63535   63538   63541   63544   63547   63550   63553
   63556   63559   63562   63565   63568   63571   63574   63577   63580   63583
   63586   63589   63592   63595   63598   63601   63604   63607   63610   63613
   63616   63619   63622   63625   63628   63631   63634   63637   63640   63643
   63646   63649   63652   63655   63658   63661   63664   63667   63670   63673
   63676   63679   63682   63685   63688   63691   63694   63697   63700   63703
   63706   63709   63712   63715   63718   63721   63724   63727   63730   63733
   63736   63739   63742   63745   63748   63751   63754   63757   63760   63763
   63766   63769   63772   63775   63778   63781   63784   63787   63790   63793
   63796   63799   63802   63805   63808   63811   63814   63817   63820   63823
   63826   63829   63832   63835   63838   63841   63844   63847   63850   63853
   63856   63859   63862   63865   63868   63871   63874   63877   63880   63883
   63886   63889   63892   63895   63898   63901   63904   63907   63910   63913
   63916   63919   63922   63925   63928   63931   63934   63937   63940   63943
   63946   63949   63952   63955   63958   63961   63964   63967   63970   63973
   63976   63979   63982   63985   63988
%FLAG BOND_FORCE_CONSTANT                                                       
%FORMAT(5E16.8)                                                                 
  3.60690000E+02  3.54250000E+02  3.52860000E+02  2.15860000E+02  2.43910000E+02
  3.45250000E+02  2.28890000E+02  5.53000000E+02  5.53000000E+02
%FLAG BOND_EQUIL_VALUE                                                          
%FORMAT(5E16.8)                                                                 
  1.08600000E+00  1.39860000E+00  1.09110000E+00  1.51670000E+00  1.51470000E+00
  1.09620000E+00  1.53540000E+00  9.57200000E-01  1.51360000E+00
%FLAG ANGLE_FORCE_CONSTANT                                                      
%FORMAT(5E16.8)                                                                 
  3.56300000E+01  3.58000000E+01  4.49000000E+01  7.60200000E+01  4.67900000E+01
  6.07400000E+01  6.35300000E+01  4.34800000E+01  6.36700000E+01  4.36100000E+01
  6.03300000E+01  4.32700000E+01  5.98700000E+01  6.07800000E+01
%FLAG ANGLE_EQUIL_VALUE                                                         
%FORMAT(5E16.8)                                                                 
  1.91619781E+00  1.88024401E+00  2.09230160E+00  1.90869289E+00  1.88792346E+00
  2.10888224E+00  2.01882321E+00  1.94447215E+00  2.09474507E+00  1.93085858E+00
  1.96209999E+00  1.91427794E+00  1.96576518E+00  1.96018012E+00
%FLAG DIHEDRAL_FORCE_CONSTANT                                                   
%FORMAT(5E16.8)                                                                 
  3.62500000E+00  1.20000000E-01  0.00000000E+00  0.00000000E+00  1.55555556E-01
  7.00000000E-01  1.56000000E-01  0.00000000E+00  1.30000000E-01  2.40000000E-01
  5.20000000E-01  1.10000000E+00
%FLAG DIHEDRAL_PERIODICITY                                                      
%FORMAT(5E16.8)                                                                 
  2.00000000E+00  3.00000000E+00  1.00000000E+00  2.00000000E+00  3.00000000E+00
  2.00000000E+00  3.00000000E+00  2.00000000E+00  3.00000000E+00  2.00000000E+00
  3.00000000E+00  2.00000000E+00
%FLAG DIHEDRAL_PHASE                                                            
%FORMAT(5E16.8)                                                                 
  3.14159400E+00  0.00000000E+00  0.00000000E+00  0.00000000E+00  0.00000000E+00
  0.00000000E+00  0.00000000E+00  3.14159400E+00  0.00000000E+00  3.14159400E+00
  0.00000000E+00  3.14159400E+00
%FLAG SCEE_SCALE_FACTOR                                                         
%FORMAT(5E16.8)                                                                 
  1.20000000E+00  1.20000000E+00  1.20000000E+00  1.20000000E+00  1.20000000E+00
  1.20000000E+00  1.20000000E+00  1.20000000E+00  1.20000000E+00  1.20000000E+00
  1.20000000E+00  0.00000000E+00
%FLAG SCNB_SCALE_FACTOR                                                         
%FORMAT(5E16.8)                                                                 
  2.00000000E+00  2.00000000E+00  2.00000000E+00  2.00000000E+00  2.00000000E+00
  2.00000000E+00  2.00000000E+00  2.00000000E+00  2.00000000E+00  2.00000000E+00
  2.00000000E+00  0.00000000E+00
%FLAG SOLTY                                                                     
%FORMAT(5E16.8)                                                                 
  0.00000000E+00  0.00000000E+00  0.00000000E+00  0.00000000E+00  0.00000000E+00
  0.00000000E+00  0.00000000E+00  0.00000000E+00  0.00000000E+00
%FLAG LENNARD_JONES_ACOEF                                                       
%FORMAT(5E16.8)                                                                 
  1.02073671E+06  8.43969952E+05  6.96551276E+05  1.11659990E+06  9.02707037E+05
  9.21633655E+05  1.00235148E+05  8.12662403E+04  8.57776131E+04  7.94617769E+03
  9.27554496E+04  7.52549148E+04  8.00843692E+04  7.41026906E+03  6.90855956E+03
  2.19657590E+04  1.74110867E+04  1.40871964E+04  1.35510742E+03  1.27542632E+03
  1.70079100E+02  3.44293480E+06  2.90480711E+06  4.82659396E+06  4.19958375E+05
  3.85641936E+05  1.17510546E+05  9.24719470E+06  7.77325489E+05  6.39146293E+05
  7.93534277E+05  7.18637611E+04  6.66452723E+04  1.46882189E+04  2.78932950E+06
  5.81935564E+05  0.00000000E+00  0.00000000E+00  0.00000000E+00  0.00000000E+00
  0.00000000E+00  0.00000000E+00  0.00000000E+00  0.00000000E+00  0.00000000E+00
%FLAG LENNARD_JONES_BCOEF                                                       
%FORMAT(5E16.8)                                                                 
  6.63431737E+02  5.90251928E+02  5.24668528E+02  1.69900948E+03  1.49470322E+03
  3.77949525E+03  1.37787728E+02  1.21392023E+02  3.12100979E+02  2.57122925E+01
  1.24325688E+02  1.09570372E+02  2.82860736E+02  2.32899892E+01  2.10929191E+01
  6.45020662E+01  5.61885732E+01  1.26479587E+02  1.06181419E+01  9.66228818E+00
  3.76172582E+00  9.23600443E+02  8.30066580E+02  2.67761264E+03  2.13788333E+02
  1.92160287E+02  1.13088723E+02  1.14737423E+03  6.30880403E+02  5.59732167E+02
  1.56075977E+03  1.27133996E+02  1.14837052E+02  5.74766298E+01  9.05890802E+02
  5.94825035E+02  0.00000000E+00  0.00000000E+00  0.00000000E+00  0.00000000E+00
  0.00000000E+00  0.00000000E+00  0.00000000E+00  0.00000000E+00  0.00000000E+00
%FLAG BONDS_INC_HYDROGEN                                                        
%FORMAT(10I8)                                                                   
    2031    4929       1    2028    4926       1    2025    4917       3    2025
    4920       3    2025    4923       3    2022    4908       3    2022    4911
       3    2022    4914       3    2019    4899       3    2019    4902       3
    2019    4905       3    2013    4893       3    2013    4896       3    2007
    4890       1    2004    4887       1    1998    4884       1    1995    4881
       1    1992    4872       3    1992    4875       3    1992    4878       3
    1989    4863       3    1989    4866       3    1989    4869       3    1986
    4854       3    1986    4857       3    1986    4860       3    1980    4848
       3    1980    4851       3    1974    4845       1    1971    4842       1
    1965    4839       1    1962    4836       1    1959    4827       3    1959
    4830       3    1959    4833       3    1956    4818       3    1956    4821
       3    1956    4824       3    1953    4809       3    1953    4812       3
    1953    4815       3    1947    4803       3    1947    4806       3    1941
    4800       1    1938    4797       1    1932    4794       1    1929    4791
       1    1926    4782       3    1926    4785       3    1926    4788       3
    1923    4773       3    1923    4776       3    1923    4779       3    1920
    4764       3    1920    4767       3    1920    4770       3    1914    4758
       3    1914    4761       3    1908    4755       1    1905    4752       1
    1899    4749       1    1896    4746       1    1893    4737       3    1893
    4740       3    1893    4743       3    1890    4728       3    1890    4731
       3    1890    4734       3    1887    4719       3    1887    4722       3
    1887    4725       3    1881    4713       3    1881    4716       3    1875
    4710       1    1872    4707       1    1866    4704       1    1863    4701
       1    1860    4692       3    1860    4695       3    1860    4698       3
    1857    4683       3    1857    4686       3    1857    4689       3    1854
    4674       3    1854    4677       3    1854    4680       3    1848    4668
       3    1848    4671       3    1842    4665       1    1839    4662       1
    1833    4659       1    1830    4656       1    1827    4647       3    1827
    4650       3    1827    4653       3    1824    4638       3    1824    4641
       3    1824    4644       3    1821    4629       3    1821    4632       3
    1821    4635       3    1815    4623       3    1815    4626       3    1809
    4620       1    1806    4617       1    1800    4614       1    1797    4611
       1    1794    4602       3    1794    4605       3    1794    4608       3
    1791    4593       3    1791    4596       3    1791    4599       3    1788
    4584       3    1788    4587       3    1788    4590       3    1782    4578
       3    1782    4581       3    1776    4575       1    1773    4572       1
    1767    4569       1    1764    4566       1    1761    4557       3    1761
    4560       3    1761    4563       3    1758    4548       3    1758    4551
       3    1758    4554       3    1755    4539       3    1755    4542       3
    1755    4545       3    1749    4533       3    1749    4536       3    1743
    4530       1    1740    4527       1    1734    4524       1    1731    4521
       1    1728    4512       3    1728    4515       3    1728    4518       3
    1725    4503       3    1725    4506       3    1725    4509       3    1722
    4494       3    1722    4497       3    1722    4500       3    1716    4488
       3    1716    4491       3    1710    4485       1    1707    4482       1
    1701    4479       1    1698    4476       1    1695    4467       3    1695
    4470       3    1695    4473       3    1692    4458       3    1692    4461
       3    1692    4464       3    1689    4449       3    1689    4452       3
    1689    4455       3    1683    4443       3    1683    4446       3    1677
    4440       1    1674    4437       1    1668    4434       1    1665    4431
       1    1662    4422       3    1662    4425       3    1662    4428       3
    1659    4413       3    1659    4416       3    1659    4419       3    1656
    4404       3    1656    4407       3    1656    4410       3    1650    4398
       3    1650    4401       3    1644    4395       1    1641    4392       1
    1635    4389       1    1632    4386       1    1629    4383       1    1626
    4380       1    1623    4371       3    1623    4374       3    1623    4377
       3    1620    4362       3    1620    4365       3    1620    4368       3
    1617    4353       3    1617    4356       3    1617    4359       3    1611
    4347       3    1611    4350       3    1605    4344       1    1602    4341
       1    1596    4338       1    1593    4335       1    1590    4326       3
    1590    4329       3    1590    4332       3    1587    4317       3    1587
    4320       3    1587    4323       3    1584    4308       3    1584    4311
       3    1584    4314       3    1578    4302       3    1578    4305       3
    1572    4299       1    1569    4296       1    1563    4293       1    1560
    4290       1    1557    4281       3    1557    4284       3    1557    4287
       3    1554    4272       3    1554    4275       3    1554    4278       3
    1551    4263       3    1551    4266       3    1551    4269       3    1545
    4257       3    1545    4260       3    1539    4254       1    1536    4251
       1    1530    4248       1    1527    4245       1    1524    4236       3
    1524    4239       3    1524    4242       3    1521    4227       3    1521
    4230       3    1521    4233       3    1518    4218       3    1518    4221
       3    1518    4224       3    1512    4212       3    1512    4215       3
    1506    4209       1    1503    4206       1    1497    4203       1    1494
    4200       1    1491    4191       3    1491    4194       3    1491    4197
       3    1488    4182       3    1488    4185       3    1488    4188       3
    1485    4173       3    1485    4176       3    1485    4179       3    1479
    4167       3    1479    4170       3    1473    4164       1    1470    4161
       1    1464    4158       1    1461    4155       1    1458    4146       3
    1458    4149       3    1458    4152       3    1455    4137       3    1455
    4140       3    1455    4143       3    1452    4128       3    1452    4131
       3    1452    4134       3    1446    4122       3    1446    4125       3
    1440    4119       1    1437    4116       1    1431    4113       1    1428
    4110       1    1425    4101       3    1425    4104       3    1425    4107
       3    1422    4092       3    1422    4095       3    1422    4098       3
    1419    4083       3    1419    4086       3    1419    4089       3    1413
    4077       3    1413    4080       3    1407    4074       1    1404    4071
       1    1398    4068       1    1395    4065       1    1392    4056       3
    1392    4059       3    1392    4062       3    1389    4047       3    1389
    4050       3    1389    4053       3    1386    4038       3    1386    4041
       3    1386    4044       3    1380    4032       3    1380    4035       3
    1374    4029       1    1371    4026       1    1365    4023       1    1362
    4020       1    1359    4011       3    1359    4014       3    1359    4017
       3    1356    4002       3    1356    4005       3    1356    4008       3
    1353    3993       3    1353    3996       3    1353    3999       3    1347
    3987       3    1347    3990       3    1341    3984       1    1338    3981
       1    1332    3978       1    1329    3975       1    1326    3966       3
    1326    3969       3    1326    3972       3    1323    3957       3    1323
    3960       3    1323    3963       3    1320    3948       3    1320    3951
       3    1320    3954       3    1314    3942       3    1314    3945       3
    1308    3939       1    1305    3936       1    1299    3933       1    1296
    3930       1    1293    3921       3    1293    3924       3    1293    3927
       3    1290    3912       3    1290    3915       3    1290    3918       3
    1287    3903       3    1287    3906       3    1287    3909       3    1281
    3897       3    1281    3900       3    1275    3894       1    1272    3891
       1    1266    3888       1    1263    3885       1    1260    3876       3
    1260    3879       3    1260    3882       3    1257    3867       3    1257
    3870       3    1257    3873       3    1254    3858       3    1254    3861
       3    1254    3864       3    1248    3852       3    1248    3855       3
    1242    3849       1    1239    3846       1    1233    3843       1    1230
    3840       1    1227    3831       3    1227    3834       3    1227    3837
       3    1224    3822       3    1224    3825       3    1224    3828       3
    1221    3813       3    1221    3816       3    1221    3819       3    1215
    3807       3    1215    3810       3    1209    3804       1    1206    3801
       1    1200    3792       6    1200    3795       6    1200    3798       6
    1197    3789       6    1194    3783       6    1194    3786       6    1191
    3777       6    1191    3780       6    1188    3774       6    1185    3768
       6    1185    3771       6    1182    3762       6    1182    3765       6
    1179    3759       6    1176    3753       6    1176    3756       6    1173
    3747       6    1173    3750       6    1170    3744       6    1167    3738
       6    1167    3741       6    1164    3732       6    1164    3735       6
    1161    3729       6    1158    3723       6    1158    3726       6    1155
    3717       6    1155    3720       6    1152    3714       6    1149    3708
       6    1149    3711       6    1146    3702       6    1146    3705       6
    1143    3699       6    1140    3693       6    1140    3696       6    1137
    3687       6    1137    3690       6    1134    3684       6    1131    3678
       6    1131    3681       6    1128    3672       6    1128    3675       6
    1125    3669       6    1122    3663       6    1122    3666       6    1119
    3657       6    1119    3660       6    1116    3654       6    1113    3648
       6    1113    3651       6    1110    3642       6    1110    3645       6
    1107    3639       6    1104    3633       6    1104    3636       6    1101
    3627       6    1101    3630       6    1098    3624       6    1095    3618
       6    1095    3621       6    1092    3612       6    1092    3615       6
    1089    3609       1    1086    3606       1    1083    3597       3    1083
    3600       3    1083    3603       3    1080    3588       3    1080    3591
       3    1080    3594       3    1077    3579       3    1077    3582       3
    1077    3585       3    1071    3573       3    1071    3576       3    1065
    3570       1    1062    3567       1    1056    3564       1    1053    3561
       1    1050    3552       3    1050    3555       3    1050    3558       3
    1047    3543       3    1047    3546       3    1047    3549       3    1044
    3534       3    1044    3537       3    1044    3540       3    1038    3528
       3    1038    3531       3    1032    3525       1    1029    3522       1
    1023    3519       1    1020    3516       1    1017    3507       3    1017
    3510       3    1017    3513       3    1014    3498       3    1014    3501
       3    1014    3504       3    1011    3489       3    1011    3492       3
    1011    3495       3    1005    3483       3    1005    3486       3     999
    3480       1     996    3477       1     990    3474       1     987    3471
       1     984    3462       3     984    3465       3     984    3468       3
     981    3453       3     981    3456       3     981    3459       3     978
    3444       3     978    3447       3     978    3450       3     972    3438
       3     972    3441       3     966    3435       1     963    3432       1
     957    3429       1     954    3426       1     951    3417       3     951
    3420       3     951    3423       3     948    3408       3     948    3411
       3     948    3414       3     945    3399       3     945    3402       3
     945    3405       3     939    3393       3     939    3396       3     933
    3390       1     930    3387       1     924    3384       1     921    3381
       1     918    3372       3     918    3375       3     918    3378       3
     915    3363       3     915    3366       3     915    3369       3     912
    3354       3     912    3357       3     912    3360       3     906    3348
       3     906    3351       3     900    3345       1     897    3342       1
     891    3339       1     888    3336       1     885    3327       3     885
    3330       3     885    3333       3     882    3318       3     882    3321
       3     882    3324       3     879    3309       3     879    3312       3
     879    3315       3     873    3303       3     873    3306       3     867
    3300       1     864    3297       1     858    3294       1     855    3291
       1     852    3282       3     852    3285       3     852    3288       3
     849    3273       3     849    3276       3     849    3279       3     846
    3264       3     846    3267       3     846    3270       3     840    3258
       3     840    3261       3     834    3255       1     831    3252       1
     825    3249       1     822    3246       1     819    3237       3     819
    3240       3     819    3243       3     816    3228       3     816    3231
       3     816    3234       3     813    3219       3     813    3222       3
     813    3225       3     807    3213       3     807    3216       3     801
    3210       1     798    3207       1     792    3204       1     789    3201
       1     786    3192       3     786    3195       3     786    3198       3
     783    3183       3     783    3186       3     783    3189       3     780
    3174       3     780    3177       3     780    3180       3     774    3168
       3     774    3171       3     768    3165       1     765    3162       1
     759    3159       1     756    3156       1     753    3147       3     753
    3150       3     753    3153       3     750    3138       3     750    3141
       3     750    3144       3     747    3129       3     747    3132       3
     747    3135       3     741    3123       3     741    3126       3     735
    3120       1     732    3117       1     726    3108       6     726    3111
       6     726    3114       6     723    3105       6     720    3099       6
     720    3102       6     717    3093       6     717    3096       6     714
    3090       6     711    3084       6     711    3087       6     708    3078
       6     708    3081       6     705    3075       6     702    3069       6
     702    3072       6     699    3063       6     699    3066       6     696
    3060       6     693    3054       6     693    3057       6     690    3048
       6     690    3051       6     687    3045       6     684    3039       6
     684    3042       6     681    3033       6     681    3036       6     678
    3030       6     675    3024       6     675    3027       6     672    3018
       6     672    3021       6     669    3015       6     666    3009       6
     666    3012       6     663    3003       6     663    3006       6     660
    3000       6     657    2994       6     657    2997       6     654    2988
       6     654    2991       6     651    2985       6     648    2979       6
     648    2982       6     645    2973       6     645    2976       6     642
    2970       6     639    2964       6     639    2967       6     636    2958
       6     636    2961       6     633    2955       6     630    2949       6
     630    2952       6     627    2943       6     627    2946       6     618
    2940       1     615    2937       1     609    2934       1     606    2931
       1     603    2922       3     603    2925       3     603    2928       3
     600    2913       3     600    2916       3     600    2919       3     597
    2904       3     597    2907       3     597    2910       3     591    2898
       3     591    2901       3     585    2895       1     582    2892       1
     576    2889       1     573    2886       1     570    2877       3     570
    2880       3     570    2883       3     567    2868       3     567    2871
       3     567    2874       3     564    2859       3     564    2862       3
     564    2865       3     558    2853       3     558    2856       3     552
    2850       1     549    2847       1     543    2844       1     540    2841
       1     537    2832       3     537    2835       3     537    2838       3
     534    2823       3     534    2826       3     534    2829       3     531
    2814       3     531    2817       3     531    2820       3     525    2808
       3     525    2811       3     519    2805       1     516    2802       1
     510    2799       1     507    2796       1     504    2787       3     504
    2790       3     504    2793       3     501    2778       3     501    2781
       3     501    2784       3     498    2769       3     498    2772       3
     498    2775       3     492    2763       3     492    2766       3     486
    2760       1     483    2757       1     477    2754       1     474    2751
       1     471    2742       3     471    2745       3     471    2748       3
     468    2733       3     468    2736       3     468    2739       3     465
    2724       3     465    2727       3     465    2730       3     459    2718
       3     459    2721       3     453    2715       1     450    2712       1
     444    2709       1     441    2706       1     438    2697       3     438
    2700       3     438    2703       3     435    2688       3     435    2691
       3     435    2694       3     432    2679       3     432    2682       3
     432    2685       3     426    2673       3     426    2676       3     420
    2670       1     417    2667       1     411    2664       1     408    2661
       1     405    2652       3     405    2655       3     405    2658       3
     402    2643       3     402    2646       3     402    2649       3     399
    2634       3     399    2637       3     399    2640       3     393    2628
       3     393    2631       3     387    2625       1     384    2622       1
     378    2619       1     375    2616       1     372    2607       3     372
    2610       3     372    2613       3     369    2598       3     369    2601
       3     369    2604       3     366    2589       3     366    2592       3
     366    2595       3     360    2583       3     360    2586       3     354
    2580       1     351    2577       1     345    2574       1     342    2571
       1     339    2562       3     339    2565       3     339    2568       3
     336    2553       3     336    2556       3     336    2559       3     333
    2544       3     333    2547       3     333    2550       3     327    2538
       3     327    2541       3     321    2535       1     318    2532       1
     312    2529       1     309    2526       1     306    2517       3     306
    2520       3     306    2523       3     303    2508       3     303    2511
       3     303    2514       3     300    2499       3     300    2502       3
     300    2505       3     294    2493       3     294    2496       3     288
    2490       1     285    2487       1     279    2484       1     276    2481
       1     273    2472       3     273    2475       3     273    2478       3
     270    2463       3     270    2466       3     270    2469       3     267
    2454       3     267    2457       3     267    2460       3     261    2448
       3     261    2451       3     255    2445       1     252    2442       1
     246    2439       1     243    2436       1     240    2427       3     240
    2430       3     240    2433       3     237    2418       3     237    2421
       3     237    2424       3     234    2409       3     234    2412       3
     234    2415       3     228    2403       3     228    2406       3     222
    2400       1     219    2397       1     213    2388       6     213    2391
       6     213    2394       6     210    2385       6     207    2379       6
     207    2382       6     204    2373       6     204    2376       6     201
    2370       6     198    2364       6     198    2367       6     195    2358
       6     195    2361       6     192    2355       6     189    2349       6
     189    2352       6     186    2343       6     186    2346       6     183
    2340       6     180    2334       6     180    2337       6     177    2328
       6     177    2331       6     174    2325       6     171    2319       6
     171    2322       6     168    2313       6     168    2316       6     165
    2310       6     162    2304       6     162    2307       6     159    2298
       6     159    2301       6     156    2295       6     153    2289       6
     153    2292       6     150    2283       6     150    2286       6     147
    2280       6     144    2274       6     144    2277       6     141    2268
       6     141    2271       6     138    2265       6     135    2259       6
     135    2262       6     132    2253       6     132    2256       6     129
    2250       6     126    2244       6     126    2247       6     123    2238
       6     123    2241       6     120    2235       6     117    2229       6
     117    2232       6     114    2223       6     114    2226       6     108
    2217       6     108    2220       6     105    2211       6     105    2214
       6     102    2208       6      99    2202       6      99    2205       6
      96    2196       6      96    2199       6      93    2193       6      90
    2187       6      90    2190       6      87    2181       6      87    2184
       6      84    2178       6      81    2172       6      81    2175       6
      78    2166       6      78    2169       6      75    2163       6      72
    2157       6      72    2160       6      69    2151       6      69    2154
       6      66    2148       6      63    2142       6      63    2145       6
      60    2136       6      60    2139       6      57    2133       6      54
    2127       6      54    2130       6      51    2121       6      51    2124
       6      48    2118       6      45    2112       6      45    2115       6
      42    2106       6      42    2109       6      39    2103       6      36
    2097       6      36    2100       6      33    2091       6      33    2094
       6      30    2088       6      27    2082       6      27    2085       6
      24    2076       6      24    2079       6      21    2073       6      18
    2067       6      18    2070       6      15    2061       6      15    2064
       6      12    2058       6       9    2052       6       9    2055       6
       6    2046       6       6    2049       6       3    2043       6       0
    2034       6       0    2037       6       0    2040       6    5079    5076
       8    5082    5076       8    5082    5079       9    5088    5085       8
    5091    5085       8    5091    5088       9    5097    5094       8    5100
    5094       8    5100    5097       9    5106    5103       8    5109    5103
       8    5109    5106       9    5115    5112       8    5118    5112       8
    5118    5115       9    5124    5121       8    5127    5121       8    5127
    5124       9    5133    5130       8    5136    5130       8    5136    5133
       9    5142    5139       8    5145    5139       8    5145    5142       9
    5151    5148       8    5154    5148       8    5154    5151       9    5160
    5157       8    5163    5157       8    5163    5160       9    5169    5166
       8    5172    5166       8    5172    5169       9    5178    5175       8
    5181    5175       8    5181    5178       9    5187    5184       8    5190
    5184       8    5190    5187       9    5196    5193       8    5199    5193
       8    5199    5196       9    5205    5202       8    5208    5202       8
    5208    5205       9    5214    5211       8    5217    5211       8    5217
    5214       9    5223    5220       8    5226    5220       8    5226    5223
       9    5232    5229       8    5235    5229       8    5235    5232       9
    5241    5238       8    5244    5238       8    5244    5241       9    5250
    5247       8    5253    5247       8    5253    5250       9    5259    5256
       8    5262    5256       8    5262    5259       9    5268    5265       8
    5271    5265       8    5271    5268       9    5277    5274       8    5280
    5274       8    5280    5277       9    5286    5283       8    5289    5283
       8    5289    5286       9    5295    5292       8    5298    5292       8
    5298    5295       9    5304    5301       8    5307    5301       8    5307
    5304       9    5313    5310       8    5316    5310       8    5316    5313
       9    5322    5319       8    5325    5319       8    5325    5322       9
    5331    5328       8    5334    5328       8    5334    5331       9    5340
    5337       8    5343    5337       8    5343    5340       9    5349    5346
       8    5352    5346       8    5352    5349       9    5358    5355       8
    5361    5355       8    5361    5358       9    5367    5364       8    5370
    5364       8    5370    5367       9    5376    5373       8    5379    5373
       8    5379    5376       9    5385    5382       8    5388    5382       8
    5388    5385       9    5394    5391       8    5397    5391       8    5397
    5394       9    5403    5400       8    5406    5400       8    5406    5403
       9    5412    5409       8    5415    5409       8    5415    5412       9
    5421    5418       8    5424    5418       8    5424    5421       9    5430
    5427       8    5433    5427       8    5433    5430       9    5439    5436
       8    5442    5436       8    5442    5439       9    5448    5445       8
    5451    5445       8    5451    5448       9    5457    5454       8    5460
    5454       8    5460    5457       9    5466    5463       8    5469    5463
       8    5469    5466       9    5475    5472       8    5478    5472       8
    5478    5475       9    5484    5481       8    5487    5481       8    5487
    5484       9    5493    5490       8    5496    5490       8    5496    5493
       9    5502    5499       8    5505    5499       8    5505    5502       9
    5511    5508       8    5514    5508       8    5514    5511       9    5520
    5517       8    5523    5517       8    5523    5520       9    5529    5526
       8    5532    5526       8    5532    5529       9    5538    5535       8
    5541    5535       8    5541    5538       9    5547    5544       8    5550
    5544       8    5550    5547       9    5556    5553       8    5559    5553
       8    5559    5556       9    5565    5562       8    5568    5562       8
    5568    5565       9    5574    5571       8    5577    5571       8    5577
    5574       9    5583    5580       8    5586    5580       8    5586    5583
       9    5592    5589       8    5595    5589       8    5595    5592       9
    5601    5598       8    5604    5598       8    5604    5601       9    5610
    5607       8    5613    5607       8    5613    5610       9    5619    5616
       8    5622    5616       8    5622    5619       9    5628    5625       8
    5631    5625       8    5631    5628       9    5637    5634       8    5640
    5634       8    5640    5637       9    5646    5643       8    5649    5643
       8    5649    5646       9    5655    5652       8    5658    5652       8
    5658    5655       9    5664    5661       8    5667    5661       8    5667
    5664       9    5673    5670       8    5676    5670       8    5676    5673
       9    5682    5679       8    5685    5679       8    5685    5682       9
    5691    5688       8    5694    5688       8    5694    5691       9    5700
    5697       8    5703    5697       8    5703    5700       9    5709    5706
       8    5712    5706       8    5712    5709       9    5718    5715       8
    5721    5715       8    5721    5718       9    5727    5724       8    5730
    5724       8    5730    5727       9    5736    5733       8    5739    5733
       8    5739    5736       9    5745    5742       8    5748    5742       8
    5748    5745       9    5754    5751       8    5757    5751       8    5757
    5754       9    5763    5760       8    5766    5760       8    5766    5763
       9    5772    5769       8    5775    5769       8    5775    5772       9
    5781    5778       8    5784    5778       8    5784    5781       9    5790
    5787       8    5793    5787       8    5793    5790       9    5799    5796
       8    5802    5796       8    5802    5799       9    5808    5805       8
    5811    5805       8    5811    5808       9    5817    5814       8    5820
    5814       8    5820    5817       9    5826    5823       8    5829    5823
       8    5829    5826       9    5835    5832       8    5838    5832       8
    5838    5835       9    5844    5841       8    5847    5841       8    5847
    5844       9    5853    5850       8    5856    5850       8    5856    5853
       9    5862    5859       8    5865    5859       8    5865    5862       9
    5871    5868       8    5874    5868       8    5874    5871       9    5880
    5877       8    5883    5877       8    5883    5880       9    5889    5886
       8    5892    5886       8    5892    5889       9    5898    5895       8
    5901    5895       8    5901    5898       9    5907    5904       8    5910
    5904       8    5910    5907       9    5916    5913       8    5919    5913
       8    5919    5916       9    5925    5922       8    5928    5922       8
    5928    5925       9    5934    5931       8    5937    5931       8    5937
    5934       9    5943    5940       8    5946    5940       8    5946    5943
       9    5952    5949       8    5955    5949       8    5955    5952       9
    5961    5958       8    5964    5958       8    5964    5961       9    5970
    5967       8    5973    5967       8    5973    5970       9    5979    5976
       8    5982    5976       8    5982    5979       9    5988    5985       8
    5991    5985       8    5991    5988       9    5997    5994       8    6000
    5994       8    6000    5997       9    6006    6003       8    6009    6003
       8    6009    6006       9    6015    6012       8    6018    6012       8
    6018    6015       9    6024    6021       8    6027    6021       8    6027
    6024       9    6033    6030       8    6036    6030       8    6036    6033
       9    6042    6039       8    6045    6039       8    6045    6042       9
    6051    6048       8    6054    6048       8    6054    6051       9    6060
    6057       8    6063    6057       8    6063    6060       9    6069    6066
       8    6072    6066       8    6072    6069       9    6078    6075       8
    6081    6075       8    6081    6078       9    6087    6084       8    6090
    6084       8    6090    6087       9    6096    6093       8    6099    6093
       8    6099    6096       9    6105    6102       8    6108    6102       8
    6108    6105       9    6114    6111       8    6117    6111       8    6117
    6114       9    6123    6120       8    6126    6120       8    6126    6123
       9    6132    6129       8    6135    6129       8    6135    6132       9
    6141    6138       8    6144    6138       8    6144    6141       9    6150
    6147       8    6153    6147       8    6153    6150       9    6159    6156
       8    6162    6156       8    6162    6159       9    6168    6165       8
    6171    6165       8    6171    6168       9    6177    6174       8    6180
    6174       8    6180    6177       9    6186    6183       8    6189    6183
       8    6189    6186       9    6195    6192       8    6198    6192       8
    6198    6195       9    6204    6201       8    6207    6201       8    6207
    6204       9    6213    6210       8    6216    6210       8    6216    6213
       9    6222    6219       8    6225    6219       8    6225    6222       9
    6231    6228       8    6234    6228       8    6234    6231       9    6240
    6237       8    6243    6237       8    6243    6240       9    6249    6246
       8    6252    6246       8    6252    6249       9    6258    6255       8
    6261    6255       8    6261    6258       9    6267    6264       8    6270
    6264       8    6270    6267       9    6276    6273       8    6279    6273
       8    6279    6276       9    6285    6282       8    6288    6282       8
    6288    6285       9    6294    6291       8    6297    6291       8    6297
    6294       9    6303    6300       8    6306    6300       8    6306    6303
       9    6312    6309       8    6315    6309       8    6315    6312       9
    6321    6318       8    6324    6318       8    6324    6321       9    6330
    6327       8    6333    6327       8    6333    6330       9    6339    6336
       8    6342    6336       8    6342    6339       9    6348    6345       8
    6351    6345       8    6351    6348       9    6357    6354       8    6360
    6354       8    6360    6357       9    6366    6363       8    6369    6363
       8    6369    6366       9    6375    6372       8    6378    6372       8
    6378    6375       9    6384    6381       8    6387    6381       8    6387
    6384       9    6393    6390       8    6396    6390       8    6396    6393
       9    6402    6399       8    6405    6399       8    6405    6402       9
    6411    6408       8    6414    6408       8    6414    6411       9    6420
    6417       8    6423    6417       8    6423    6420       9    6429    6426
       8    6432    6426       8    6432    6429       9    6438    6435       8
    6441    6435       8    6441    6438       9    6447    6444       8    6450
    6444       8    6450    6447       9    6456    6453       8    6459    6453
       8    6459    6456       9    6465    6462       8    6468    6462       8
    6468    6465       9    6474    6471       8    6477    6471       8    6477
    6474       9    6483    6480       8    6486    6480       8    6486    6483
       9    6492    6489       8    6495    6489       8    6495    6492       9
    6501    6498       8    6504    6498       8    6504    6501       9    6510
    6507       8    6513    6507       8    6513    6510       9    6519    6516
       8    6522    6516       8    6522    6519       9    6528    6525       8
    6531    6525       8    6531    6528       9    6537    6534       8    6540
    6534       8    6540    6537       9    6546    6543       8    6549    6543
       8    6549    6546       9    6555    6552       8    6558    6552       8
    6558    6555       9    6564    6561       8    6567    6561       8    6567
    6564       9    6573    6570       8    6576    6570       8    6576    6573
       9    6582    6579       8    6585    6579       8    6585    6582       9
    6591    6588       8    6594    6588       8    6594    6591       9    6600
    6597       8    6603    6597       8    6603    6600       9    6609    6606
       8    6612    6606       8    6612    6609       9    6618    6615       8
    6621    6615       8    6621    6618       9    6627    6624       8    6630
    6624       8    6630    6627       9    6636    6633       8    6639    6633
       8    6639    6636       9    6645    6642       8    6648    6642       8
    6648    6645       9    6654    6651       8    6657    6651       8    6657
    6654       9    6663    6660       8    6666    6660       8    6666    6663
       9    6672    6669       8    6675    6669       8    6675    6672       9
    6681    6678       8    6684    6678       8    6684    6681       9    6690
    6687       8    6693    6687       8    6693    6690       9    6699    6696
       8    6702    6696       8    6702    6699       9    6708    6705       8
    6711    6705       8    6711    6708       9    6717    6714       8    6720
    6714       8    6720    6717       9    6726    6723       8    6729    6723
       8    6729    6726       9    6735    6732       8    6738    6732       8
    6738    6735       9    6744    6741       8    6747    6741       8    6747
    6744       9    6753    6750       8    6756    6750       8    6756    6753
       9    6762    6759       8    6765    6759       8    6765    6762       9
    6771    6768       8    6774    6768       8    6774    6771       9    6780
    6777       8    6783    6777       8    6783    6780       9    6789    6786
       8    6792    6786       8    6792    6789       9    6798    6795       8
    6801    6795       8    6801    6798       9    6807    6804       8    6810
    6804       8    6810    6807       9    6816    6813       8    6819    6813
       8    6819    6816       9    6825    6822       8    6828    6822       8
    6828    6825       9    6834    6831       8    6837    6831       8    6837
    6834       9    6843    6840       8    6846    6840       8    6846    6843
       9    6852    6849       8    6855    6849       8    6855    6852       9
    6861    6858       8    6864    6858       8    6864    6861       9    6870
    6867       8    6873    6867       8    6873    6870       9    6879    6876
       8    6882    6876       8    6882    6879       9    6888    6885       8
    6891    6885       8    6891    6888       9    6897    6894       8    6900
    6894       8    6900    6897       9    6906    6903       8    6909    6903
       8    6909    6906       9    6915    6912       8    6918    6912       8
    6918    6915       9    6924    6921       8    6927    6921       8    6927
    6924       9    6933    6930       8    6936    6930       8    6936    6933
       9    6942    6939       8    6945    6939       8    6945    6942       9
    6951    6948       8    6954    6948       8    6954    6951       9    6960
    6957       8    6963    6957       8    6963    6960       9    6969    6966
       8    6972    6966       8    6972    6969       9    6978    6975       8
    6981    6975       8    6981    6978       9    6987    6984       8    6990
    6984       8    6990    6987       9    6996    6993       8    6999    6993
       8    6999    6996       9    7005    7002       8    7008    7002       8
    7008    7005       9    7014    7011       8    7017    7011       8    7017
    7014       9    7023    7020       8    7026    7020       8    7026    7023
       9    7032    7029       8    7035    7029       8    7035    7032       9
    7041    7038       8    7044    7038       8    7044    7041       9    7050
    7047       8    7053    7047       8    7053    7050       9    7059    7056
       8    7062    7056       8    7062    7059       9    7068    7065       8
    7071    7065       8    7071    7068       9    7077    7074       8    7080
    7074       8    7080    7077       9    7086    7083       8    7089    7083
       8    7089    7086       9    7095    7092       8    7098    7092       8
    7098    7095       9    7104    7101       8    7107    7101       8    7107
    7104       9    7113    7110       8    7116    7110       8    7116    7113
       9    7122    7119       8    7125    7119       8    7125    7122       9
    7131    7128       8    7134    7128       8    7134    7131       9    7140
    7137       8    7143    7137       8    7143    7140       9    7149    7146
       8    7152    7146       8    7152    7149       9    7158    7155       8
    7161    7155       8    7161    7158       9    7167    7164       8    7170
    7164       8    7170    7167       9    7176    7173       8    7179    7173
       8    7179    7176       9    7185    7182       8    7188    7182       8
    7188    7185       9    7194    7191       8    7197    7191       8    7197
    7194       9    7203    7200       8    7206    7200       8    7206    7203
       9    7212    7209       8    7215    7209       8    7215    7212       9
    7221    7218       8    7224    7218       8    7224    7221       9    7230
    7227       8    7233    7227       8    7233    7230       9    7239    7236
       8    7242    7236       8    7242    7239       9    7248    7245       8
    7251    7245       8    7251    7248       9    7257    7254       8    7260
    7254       8    7260    7257       9    7266    7263       8    7269    7263
       8    7269    7266       9    7275    7272       8    7278    7272       8
    7278    7275       9    7284    7281       8    7287    7281       8    7287
    7284       9    7293    7290       8    7296    7290       8    7296    7293
       9    7302    7299       8    7305    7299       8    7305    7302       9
    7311    7308       8    7314    7308       8    7314    7311       9    7320
    7317       8    7323    7317       8    7323    7320       9    7329    7326
       8    7332    7326       8    7332    7329       9    7338    7335       8
    7341    7335       8    7341    7338       9    7347    7344       8    7350
    7344       8    7350    7347       9    7356    7353       8    7359    7353
       8    7359    7356       9    7365    7362       8    7368    7362       8
    7368    7365       9    7374    7371       8    7377    7371       8    7377
    7374       9    7383    7380       8    7386    7380       8    7386    7383
       9    7392    7389       8    7395    7389       8    7395    7392       9
    7401    7398       8    7404    7398       8    7404    7401       9    7410
    7407       8    7413    7407       8    7413    7410       9    7419    7416
       8    7422    7416       8    7422    7419       9    7428    7425       8
    7431    7425       8    7431    7428       9    7437    7434       8    7440
    7434       8    7440    7437       9    7446    7443       8    7449    7443
       8    7449    7446       9    7455    7452       8    7458    7452       8
    7458    7455       9    7464    7461       8    7467    7461       8    7467
    7464       9    7473    7470       8    7476    7470       8    7476    7473
       9    7482    7479       8    7485    7479       8    7485    7482       9
    7491    7488       8    7494    7488       8    7494    7491       9    7500
    7497       8    7503    7497       8    7503    7500       9    7509    7506
       8    7512    7506       8    7512    7509       9    7518    7515       8
    7521    7515       8    7521    7518       9    7527    7524       8    7530
    7524       8    7530    7527       9    7536    7533       8    7539    7533
       8    7539    7536       9    7545    7542       8    7548    7542       8
    7548    7545       9    7554    7551       8    7557    7551       8    7557
    7554       9    7563    7560       8    7566    7560       8    7566    7563
       9    7572    7569       8    7575    7569       8    7575    7572       9
    7581    7578       8    7584    7578       8    7584    7581       9    7590
    7587       8    7593    7587       8    7593    7590       9    7599    7596
       8    7602    7596       8    7602    7599       9    7608    7605       8
    7611    7605       8    7611    7608       9    7617    7614       8    7620
    7614       8    7620    7617       9    7626    7623       8    7629    7623
       8    7629    7626       9    7635    7632       8    7638    7632       8
    7638    7635       9    7644    7641       8    7647    7641       8    7647
    7644       9    7653    7650       8    7656    7650       8    7656    7653
       9    7662    7659       8    7665    7659       8    7665    7662       9
    7671    7668       8    7674    7668       8    7674    7671       9    7680
    7677       8    7683    7677       8    7683    7680       9    7689    7686
       8    7692    7686       8    7692    7689       9    7698    7695       8
    7701    7695       8    7701    7698       9    7707    7704       8    7710
    7704       8    7710    7707       9    7716    7713       8    7719    7713
       8    7719    7716       9    7725    7722       8    7728    7722       8
    7728    7725       9    7734    7731       8    7737    7731       8    7737
    7734       9    7743    7740       8    7746    7740       8    7746    7743
       9    7752    7749       8    7755    7749       8    7755    7752       9
    7761    7758       8    7764    7758       8    7764    7761       9    7770
    7767       8    7773    7767       8    7773    7770       9    7779    7776
       8    7782    7776       8    7782    7779       9    7788    7785       8
    7791    7785       8    7791    7788       9    7797    7794       8    7800
    7794       8    7800    7797       9    7806    7803       8    7809    7803
       8    7809    7806       9    7815    7812       8    7818    7812       8
    7818    7815       9    7824    7821       8    7827    7821       8    7827
    7824       9    7833    7830       8    7836    7830       8    7836    7833
       9    7842    7839       8    7845    7839       8    7845    7842       9
    7851    7848       8    7854    7848       8    7854    7851       9    7860
    7857       8    7863    7857       8    7863    7860       9    7869    7866
       8    7872    7866       8    7872    7869       9    7878    7875       8
    7881    7875       8    7881    7878       9    7887    7884       8    7890
    7884       8    7890    7887       9    7896    7893       8    7899    7893
       8    7899    7896       9    7905    7902       8    7908    7902       8
    7908    7905       9    7914    7911       8    7917    7911       8    7917
    7914       9    7923    7920       8    7926    7920       8    7926    7923
       9    7932    7929       8    7935    7929       8    7935    7932       9
    7941    7938       8    7944    7938       8    7944    7941       9    7950
    7947       8    7953    7947       8    7953    7950       9    7959    7956
       8    7962    7956       8    7962    7959       9    7968    7965       8
    7971    7965       8    7971    7968       9    7977    7974       8    7980
    7974       8    7980    7977       9    7986    7983       8    7989    7983
       8    7989    7986       9    7995    7992       8    7998    7992       8
    7998    7995       9    8004    8001       8    8007    8001       8    8007
    8004       9    8013    8010       8    8016    8010       8    8016    8013
       9    8022    8019       8    8025    8019       8    8025    8022       9
    8031    8028       8    8034    8028       8    8034    8031       9    8040
    8037       8    8043    8037       8    8043    8040       9    8049    8046
       8    8052    8046       8    8052    8049       9    8058    8055       8
    8061    8055       8    8061    8058       9    8067    8064       8    8070
    8064       8    8070    8067       9    8076    8073       8    8079    8073
       8    8079    8076       9    8085    8082       8    8088    8082       8
    8088    8085       9    8094    8091       8    8097    8091       8    8097
    8094       9    8103    8100       8    8106    8100       8    8106    8103
       9    8112    8109       8    8115    8109       8    8115    8112       9
    8121    8118       8    8124    8118       8    8124    8121       9    8130
    8127       8    8133    8127       8    8133    8130       9    8139    8136
       8    8142    8136       8    8142    8139       9    8148    8145       8
    8151    8145       8    8151    8148       9    8157    8154       8    8160
    8154       8    8160    8157       9    8166    8163       8    8169    8163
       8    8169    8166       9    8175    8172       8    8178    8172       8
    8178    8175       9    8184    8181       8    8187    8181       8    8187
    8184       9    8193    8190       8    8196    8190       8    8196    8193
       9    8202    8199       8    8205    8199       8    8205    8202       9
    8211    8208       8    8214    8208       8    8214    8211       9    8220
    8217       8    8223    8217       8    8223    8220       9    8229    8226
       8    8232    8226       8    8232    8229       9    8238    8235       8
    8241    8235       8    8241    8238       9    8247    8244       8    8250
    8244       8    8250    8247       9    8256    8253       8    8259    8253
       8    8259    8256       9    8265    8262       8    8268    8262       8
    8268    8265       9    8274    8271       8    8277    8271       8    8277
    8274       9    8283    8280       8    8286    8280       8    8286    8283
       9    8292    8289       8    8295    8289       8    8295    8292       9
    8301    8298       8    8304    8298       8    8304    8301       9    8310
    8307       8    8313    8307       8    8313    8310       9    8319    8316
       8    8322    8316       8    8322    8319       9    8328    8325       8
    8331    8325       8    8331    8328       9    8337    8334       8    8340
    8334       8    8340    8337       9    8346    8343       8    8349    8343
       8    8349    8346       9    8355    8352       8    8358    8352       8
    8358    8355       9    8364    8361       8    8367    8361       8    8367
    8364       9    8373    8370       8    8376    8370       8    8376    8373
       9    8382    8379       8    8385    8379       8    8385    8382       9
    8391    8388       8    8394    8388       8    8394    8391       9    8400
    8397       8    8403    8397       8    8403    8400       9    8409    8406
       8    8412    8406       8    8412    8409       9    8418    8415       8
    8421    8415       8    8421    8418       9    8427    8424       8    8430
    8424       8    8430    8427       9    8436    8433       8    8439    8433
       8    8439    8436       9    8445    8442       8    8448    8442       8
    8448    8445       9    8454    8451       8    8457    8451       8    8457
    8454       9    8463    8460       8    8466    8460       8    8466    8463
       9    8472    8469       8    8475    8469       8    8475    8472       9
    8481    8478       8    8484    8478       8    8484    8481       9    8490
    8487       8    8493    8487       8    8493    8490       9    8499    8496
       8    8502    8496       8    8502    8499       9    8508    8505       8
    8511    8505       8    8511    8508       9    8517    8514       8    8520
    8514       8    8520    8517       9    8526    8523       8    8529    8523
       8    8529    8526       9    8535    8532       8    8538    8532       8
    8538    8535       9    8544    8541       8    8547    8541       8    8547
    8544       9    8553    8550       8    8556    8550       8    8556    8553
       9    8562    8559       8    8565    8559       8    8565    8562       9
    8571    8568       8    8574    8568       8    8574    8571       9    8580
    8577       8    8583    8577       8    8583    8580       9    8589    8586
       8    8592    8586       8    8592    8589       9    8598    8595       8
    8601    8595       8    8601    8598       9    8607    8604       8    8610
    8604       8    8610    8607       9    8616    8613       8    8619    8613
       8    8619    8616       9    8625    8622       8    8628    8622       8
    8628    8625       9    8634    8631       8    8637    8631       8    8637
    8634       9    8643    8640       8    8646    8640       8    8646    8643
       9    8652    8649       8    8655    8649       8    8655    8652       9
    8661    8658       8    8664    8658       8    8664    8661       9    8670
    8667       8    8673    8667       8    8673    8670       9    8679    8676
       8    8682    8676       8    8682    8679       9    8688    8685       8
    8691    8685       8    8691    8688       9    8697    8694       8    8700
    8694       8    8700    8697       9    8706    8703       8    8709    8703
       8    8709    8706       9    8715    8712       8    8718    8712       8
    8718    8715       9    8724    8721       8    8727    8721       8    8727
    8724       9    8733    8730       8    8736    8730       8    8736    8733
       9    8742    8739       8    8745    8739       8    8745    8742       9
    8751    8748       8    8754    8748       8    8754    8751       9    8760
    8757       8    8763    8757       8    8763    8760       9    8769    8766
       8    8772    8766       8    8772    8769       9    8778    8775       8
    8781    8775       8    8781    8778       9    8787    8784       8    8790
    8784       8    8790    8787       9    8796    8793       8    8799    8793
       8    8799    8796       9    8805    8802       8    8808    8802       8
    8808    8805       9    8814    8811       8    8817    8811       8    8817
    8814       9    8823    8820       8    8826    8820       8    8826    8823
       9    8832    8829       8    8835    8829       8    8835    8832       9
    8841    8838       8    8844    8838       8    8844    8841       9    8850
    8847       8    8853    8847       8    8853    8850       9    8859    8856
       8    8862    8856       8    8862    8859       9    8868    8865       8
    8871    8865       8    8871    8868       9    8877    8874       8    8880
    8874       8    8880    8877       9    8886    8883       8    8889    8883
       8    8889    8886       9    8895    8892       8    8898    8892       8
    8898    8895       9    8904    8901       8    8907    8901       8    8907
    8904       9    8913    8910       8    8916    8910       8    8916    8913
       9    8922    8919       8    8925    8919       8    8925    8922       9
    8931    8928       8    8934    8928       8    8934    8931       9    8940
    8937       8    8943    8937       8    8943    8940       9    8949    8946
       8    8952    8946       8    8952    8949       9    8958    8955       8
    8961    8955       8    8961    8958       9    8967    8964       8    8970
    8964       8    8970    8967       9    8976    8973       8    8979    8973
       8    8979    8976       9    8985    8982       8    8988    8982       8
    8988    8985       9    8994    8991       8    8997    8991       8    8997
    8994       9    9003    9000       8    9006    9000       8    9006    9003
       9    9012    9009       8    9015    9009       8    9015    9012       9
    9021    9018       8    9024    9018       8    9024    9021       9    9030
    9027       8    9033    9027       8    9033    9030       9    9039    9036
       8    9042    9036       8    9042    9039       9    9048    9045       8
    9051    9045       8    9051    9048       9    9057    9054       8    9060
    9054       8    9060    9057       9    9066    9063       8    9069    9063
       8    9069    9066       9    9075    9072       8    9078    9072       8
    9078    9075       9    9084    9081       8    9087    9081       8    9087
    9084       9    9093    9090       8    9096    9090       8    9096    9093
       9    9102    9099       8    9105    9099       8    9105    9102       9
    9111    9108       8    9114    9108       8    9114    9111       9    9120
    9117       8    9123    9117       8    9123    9120       9    9129    9126
       8    9132    9126       8    9132    9129       9    9138    9135       8
    9141    9135       8    9141    9138       9    9147    9144       8    9150
    9144       8    9150    9147       9    9156    9153       8    9159    9153
       8    9159    9156       9    9165    9162       8    9168    9162       8
    9168    9165       9    9174    9171       8    9177    9171       8    9177
    9174       9    9183    9180       8    9186    9180       8    9186    9183
       9    9192    9189       8    9195    9189       8    9195    9192       9
    9201    9198       8    9204    9198       8    9204    9201       9    9210
    9207       8    9213    9207       8    9213    9210       9    9219    9216
       8    9222    9216       8    9222    9219       9    9228    9225       8
    9231    9225       8    9231    9228       9    9237    9234       8    9240
    9234       8    9240    9237       9    9246    9243       8    9249    9243
       8    9249    9246       9    9255    9252       8    9258    9252       8
    9258    9255       9    9264    9261       8    9267    9261       8    9267
    9264       9    9273    9270       8    9276    9270       8    9276    9273
       9    9282    9279       8    9285    9279       8    9285    9282       9
    9291    9288       8    9294    9288       8    9294    9291       9    9300
    9297       8    9303    9297       8    9303    9300       9    9309    9306
       8    9312    9306       8    9312    9309       9    9318    9315       8
    9321    9315       8    9321    9318       9    9327    9324       8    9330
    9324       8    9330    9327       9    9336    9333       8    9339    9333
       8    9339    9336       9    9345    9342       8    9348    9342       8
    9348    9345       9    9354    9351       8    9357    9351       8    9357
    9354       9    9363    9360       8    9366    9360       8    9366    9363
       9    9372    9369       8    9375    9369       8    9375    9372       9
    9381    9378       8    9384    9378       8    9384    9381       9    9390
    9387       8    9393    9387       8    9393    9390       9    9399    9396
       8    9402    9396       8    9402    9399       9    9408    9405       8
    9411    9405       8    9411    9408       9    9417    9414       8    9420
    9414       8    9420    9417       9    9426    9423       8    9429    9423
       8    9429    9426       9    9435    9432       8    9438    9432       8
    9438    9435       9    9444    9441       8    9447    9441       8    9447
    9444       9    9453    9450       8    9456    9450       8    9456    9453
       9    9462    9459       8    9465    9459       8    9465    9462       9
    9471    9468       8    9474    9468       8    9474    9471       9    9480
    9477       8    9483    9477       8    9483    9480       9    9489    9486
       8    9492    9486       8    9492    9489       9    9498    9495       8
    9501    9495       8    9501    9498       9    9507    9504       8    9510
    9504       8    9510    9507       9    9516    9513       8    9519    9513
       8    9519    9516       9    9525    9522       8    9528    9522       8
    9528    9525       9    9534    9531       8    9537    9531       8    9537
    9534       9    9543    9540       8    9546    9540       8    9546    9543
       9    9552    9549       8    9555    9549       8    9555    9552       9
    9561    9558       8    9564    9558       8    9564    9561       9    9570
    9567       8    9573    9567       8    9573    9570       9    9579    9576
       8    9582    9576       8    9582    9579       9    9588    9585       8
    9591    9585       8    9591    9588       9    9597    9594       8    9600
    9594       8    9600    9597       9    9606    9603       8    9609    9603
       8    9609    9606       9    9615    9612       8    9618    9612       8
    9618    9615       9    9624    9621       8    9627    9621       8    9627
    9624       9    9633    9630       8    9636    9630       8    9636    9633
       9    9642    9639       8    9645    9639       8    9645    9642       9
    9651    9648       8    9654    9648       8    9654    9651       9    9660
    9657       8    9663    9657       8    9663    9660       9    9669    9666
       8    9672    9666       8    9672    9669       9    9678    9675       8
    9681    9675       8    9681    9678       9    9687    9684       8    9690
    9684       8    9690    9687       9    9696    9693       8    9699    9693
       8    9699    9696       9    9705    9702       8    9708    9702       8
    9708    9705       9    9714    9711       8    9717    9711       8    9717
    9714       9    9723    9720       8    9726    9720       8    9726    9723
       9    9732    9729       8    9735    9729       8    9735    9732       9
    9741    9738       8    9744    9738       8    9744    9741       9    9750
    9747       8    9753    9747       8    9753    9750       9    9759    9756
       8    9762    9756       8    9762    9759       9    9768    9765       8
    9771    9765       8    9771    9768       9    9777    9774       8    9780
    9774       8    9780    9777       9    9786    9783       8    9789    9783
       8    9789    9786       9    9795    9792       8    9798    9792       8
    9798    9795       9    9804    9801       8    9807    9801       8    9807
    9804       9    9813    9810       8    9816    9810       8    9816    9813
       9    9822    9819       8    9825    9819       8    9825    9822       9
    9831    9828       8    9834    9828       8    9834    9831       9    9840
    9837       8    9843    9837       8    9843    9840       9    9849    9846
       8    9852    9846       8    9852    9849       9    9858    9855       8
    9861    9855       8    9861    9858       9    9867    9864       8    9870
    9864       8    9870    9867       9    9876    9873       8    9879    9873
       8    9879    9876       9    9885    9882       8    9888    9882       8
    9888    9885       9    9894    9891       8    9897    9891       8    9897
    9894       9    9903    9900       8    9906    9900       8    9906    9903
       9    9912    9909       8    9915    9909       8    9915    9912       9
    9921    9918       8    9924    9918       8    9924    9921       9    9930
    9927       8    9933    9927       8    9933    9930       9    9939    9936
       8    9942    9936       8    9942    9939       9    9948    9945       8
    9951    9945       8    9951    9948       9    9957    9954       8    9960
    9954       8    9960    9957       9    9966    9963       8    9969    9963
       8    9969    9966       9    9975    9972       8    9978    9972       8
    9978    9975       9    9984    9981       8    9987    9981       8    9987
    9984       9    9993    9990       8    9996    9990       8    9996    9993
       9   10002    9999       8   10005    9999       8   10005   10002       9
   10011   10008       8   10014   10008       8   10014   10011       9   10020
   10017       8   10023   10017       8   10023   10020       9   10029   10026
       8   10032   10026       8   10032   10029       9   10038   10035       8
   10041   10035       8   10041   10038       9   10047   10044       8   10050
   10044       8   10050   10047       9   10056   10053       8   10059   10053
       8   10059   10056       9   10065   10062       8   10068   10062       8
   10068   10065       9   10074   10071       8   10077   10071       8   10077
   10074       9   10083   10080       8   10086   10080       8   10086   10083
       9   10092   10089       8   10095   10089       8   10095   10092       9
   10101   10098       8   10104   10098       8   10104   10101       9   10110
   10107       8   10113   10107       8   10113   10110       9   10119   10116
       8   10122   10116       8   10122   10119       9   10128   10125       8
   10131   10125       8   10131   10128       9   10137   10134       8   10140
   10134       8   10140   10137       9   10146   10143       8   10149   10143
       8   10149   10146       9   10155   10152       8   10158   10152       8
   10158   10155       9   10164   10161       8   10167   10161       8   10167
   10164       9   10173   10170       8   10176   10170       8   10176   10173
       9   10182   10179       8   10185   10179       8   10185   10182       9
   10191   10188       8   10194   10188       8   10194   10191       9   10200
   10197       8   10203   10197       8   10203   10200       9   10209   10206
       8   10212   10206       8   10212   10209       9   10218   10215       8
   10221   10215       8   10221   10218       9   10227   10224       8   10230
   10224       8   10230   10227       9   10236   10233       8   10239   10233
       8   10239   10236       9   10245   10242       8   10248   10242       8
   10248   10245       9   10254   10251       8   10257   10251       8   10257
   10254       9   10263   10260       8   10266   10260       8   10266   10263
       9   10272   10269       8   10275   10269       8   10275   10272       9
   10281   10278       8   10284   10278       8   10284   10281       9   10290
   10287       8   10293   10287       8   10293   10290       9   10299   10296
       8   10302   10296       8   10302   10299       9   10308   10305       8
   10311   10305       8   10311   10308       9   10317   10314       8   10320
   10314       8   10320   10317       9   10326   10323       8   10329   10323
       8   10329   10326       9   10335   10332       8   10338   10332       8
   10338   10335       9   10344   10341       8   10347   10341       8   10347
   10344       9   10353   10350       8   10356   10350       8   10356   10353
       9   10362   10359       8   10365   10359       8   10365   10362       9
   10371   10368       8   10374   10368       8   10374   10371       9   10380
   10377       8   10383   10377       8   10383   10380       9   10389   10386
       8   10392   10386       8   10392   10389       9   10398   10395       8
   10401   10395       8   10401   10398       9   10407   10404       8   10410
   10404       8   10410   10407       9   10416   10413       8   10419   10413
       8   10419   10416       9   10425   10422       8   10428   10422       8
   10428   10425       9   10434   10431       8   10437   10431       8   10437
   10434       9   10443   10440       8   10446   10440       8   10446   10443
       9   10452   10449       8   10455   10449       8   10455   10452       9
   10461   10458       8   10464   10458       8   10464   10461       9   10470
   10467       8   10473   10467       8   10473   10470       9   10479   10476
       8   10482   10476       8   10482   10479       9   10488   10485       8
   10491   10485       8   10491   10488       9   10497   10494       8   10500
   10494       8   10500   10497       9   10506   10503       8   10509   10503
       8   10509   10506       9   10515   10512       8   10518   10512       8
   10518   10515       9   10524   10521       8   10527   10521       8   10527
   10524       9   10533   10530       8   10536   10530       8   10536   10533
       9   10542   10539       8   10545   10539       8   10545   10542       9
   10551   10548       8   10554   10548       8   10554   10551       9   10560
   10557       8   10563   10557       8   10563   10560       9   10569   10566
       8   10572   10566       8   10572   10569       9   10578   10575       8
   10581   10575       8   10581   10578       9   10587   10584       8   10590
   10584       8   10590   10587       9   10596   10593       8   10599   10593
       8   10599   10596       9   10605   10602       8   10608   10602       8
   10608   10605       9   10614   10611       8   10617   10611       8   10617
   10614       9   10623   10620       8   10626   10620       8   10626   10623
       9   10632   10629       8   10635   10629       8   10635   10632       9
   10641   10638       8   10644   10638       8   10644   10641       9   10650
   10647       8   10653   10647       8   10653   10650       9   10659   10656
       8   10662   10656       8   10662   10659       9   10668   10665       8
   10671   10665       8   10671   10668       9   10677   10674       8   10680
   10674       8   10680   10677       9   10686   10683       8   10689   10683
       8   10689   10686       9   10695   10692       8   10698   10692       8
   10698   10695       9   10704   10701       8   10707   10701       8   10707
   10704       9   10713   10710       8   10716   10710       8   10716   10713
       9   10722   10719       8   10725   10719       8   10725   10722       9
   10731   10728       8   10734   10728       8   10734   10731       9   10740
   10737       8   10743   10737       8   10743   10740       9   10749   10746
       8   10752   10746       8   10752   10749       9   10758   10755       8
   10761   10755       8   10761   10758       9   10767   10764       8   10770
   10764       8   10770   10767       9   10776   10773       8   10779   10773
       8   10779   10776       9   10785   10782       8   10788   10782       8
   10788   10785       9   10794   10791       8   10797   10791       8   10797
   10794       9   10803   10800       8   10806   10800       8   10806   10803
       9   10812   10809       8   10815   10809       8   10815   10812       9
   10821   10818       8   10824   10818       8   10824   10821       9   10830
   10827       8   10833   10827       8   10833   10830       9   10839   10836
       8   10842   10836       8   10842   10839       9   10848   10845       8
   10851   10845       8   10851   10848       9   10857   10854       8   10860
   10854       8   10860   10857       9   10866   10863       8   10869   10863
       8   10869   10866       9   10875   10872       8   10878   10872       8
   10878   10875       9   10884   10881       8   10887   10881       8   10887
   10884       9   10893   10890       8   10896   10890       8   10896   10893
       9   10902   10899       8   10905   10899       8   10905   10902       9
   10911   10908       8   10914   10908       8   10914   10911       9   10920
   10917       8   10923   10917       8   10923   10920       9   10929   10926
       8   10932   10926       8   10932   10929       9   10938   10935       8
   10941   10935       8   10941   10938       9   10947   10944       8   10950
   10944       8   10950   10947       9   10956   10953       8   10959   10953
       8   10959   10956       9   10965   10962       8   10968   10962       8
   10968   10965       9   10974   10971       8   10977   10971       8   10977
   10974       9   10983   10980       8   10986   10980       8   10986   10983
       9   10992   10989       8   10995   10989       8   10995   10992       9
   11001   10998       8   11004   10998       8   11004   11001       9   11010
   11007       8   11013   11007       8   11013   11010       9   11019   11016
       8   11022   11016       8   11022   11019       9   11028   11025       8
   11031   11025       8   11031   11028       9   11037   11034       8   11040
   11034       8   11040   11037       9   11046   11043       8   11049   11043
       8   11049   11046       9   11055   11052       8   11058   11052       8
   11058   11055       9   11064   11061       8   11067   11061       8   11067
   11064       9   11073   11070       8   11076   11070       8   11076   11073
       9   11082   11079       8   11085   11079       8   11085   11082       9
   11091   11088       8   11094   11088       8   11094   11091       9   11100
   11097       8   11103   11097       8   11103   11100       9   11109   11106
       8   11112   11106       8   11112   11109       9   11118   11115       8
   11121   11115       8   11121   11118       9   11127   11124       8   11130
   11124       8   11130   11127       9   11136   11133       8   11139   11133
       8   11139   11136       9   11145   11142       8   11148   11142       8
   11148   11145       9   11154   11151       8   11157   11151       8   11157
   11154       9   11163   11160       8   11166   11160       8   11166   11163
       9   11172   11169       8   11175   11169       8   11175   11172       9
   11181   11178       8   11184   11178       8   11184   11181       9   11190
   11187       8   11193   11187       8   11193   11190       9   11199   11196
       8   11202   11196       8   11202   11199       9   11208   11205       8
   11211   11205       8   11211   11208       9   11217   11214       8   11220
   11214       8   11220   11217       9   11226   11223       8   11229   11223
       8   11229   11226       9   11235   11232       8   11238   11232       8
   11238   11235       9   11244   11241       8   11247   11241       8   11247
   11244       9   11253   11250       8   11256   11250       8   11256   11253
       9   11262   11259       8   11265   11259       8   11265   11262       9
   11271   11268       8   11274   11268       8   11274   11271       9   11280
   11277       8   11283   11277       8   11283   11280       9   11289   11286
       8   11292   11286       8   11292   11289       9   11298   11295       8
   11301   11295       8   11301   11298       9   11307   11304       8   11310
   11304       8   11310   11307       9   11316   11313       8   11319   11313
       8   11319   11316       9   11325   11322       8   11328   11322       8
   11328   11325       9   11334   11331       8   11337   11331       8   11337
   11334       9   11343   11340       8   11346   11340       8   11346   11343
       9   11352   11349       8   11355   11349       8   11355   11352       9
   11361   11358       8   11364   11358       8   11364   11361       9   11370
   11367       8   11373   11367       8   11373   11370       9   11379   11376
       8   11382   11376       8   11382   11379       9   11388   11385       8
   11391   11385       8   11391   11388       9   11397   11394       8   11400
   11394       8   11400   11397       9   11406   11403       8   11409   11403
       8   11409   11406       9   11415   11412       8   11418   11412       8
   11418   11415       9   11424   11421       8   11427   11421       8   11427
   11424       9   11433   11430       8   11436   11430       8   11436   11433
       9   11442   11439       8   11445   11439       8   11445   11442       9
   11451   11448       8   11454   11448       8   11454   11451       9   11460
   11457       8   11463   11457       8   11463   11460       9   11469   11466
       8   11472   11466       8   11472   11469       9   11478   11475       8
   11481   11475       8   11481   11478       9   11487   11484       8   11490
   11484       8   11490   11487       9   11496   11493       8   11499   11493
       8   11499   11496       9   11505   11502       8   11508   11502       8
   11508   11505       9   11514   11511       8   11517   11511       8   11517
   11514       9   11523   11520       8   11526   11520       8   11526   11523
       9   11532   11529       8   11535   11529       8   11535   11532       9
   11541   11538       8   11544   11538       8   11544   11541       9   11550
   11547       8   11553   11547       8   11553   11550       9   11559   11556
       8   11562   11556       8   11562   11559       9   11568   11565       8
   11571   11565       8   11571   11568       9   11577   11574       8   11580
   11574       8   11580   11577       9   11586   11583       8   11589   11583
       8   11589   11586       9   11595   11592       8   11598   11592       8
   11598   11595       9   11604   11601       8   11607   11601       8   11607
   11604       9   11613   11610       8   11616   11610       8   11616   11613
       9   11622   11619       8   11625   11619       8   11625   11622       9
   11631   11628       8   11634   11628       8   11634   11631       9   11640
   11637       8   11643   11637       8   11643   11640       9   11649   11646
       8   11652   11646       8   11652   11649       9   11658   11655       8
   11661   11655       8   11661   11658       9   11667   11664       8   11670
   11664       8   11670   11667       9   11676   11673       8   11679   11673
       8   11679   11676       9   11685   11682       8   11688   11682       8
   11688   11685       9   11694   11691       8   11697   11691       8   11697
   11694       9   11703   11700       8   11706   11700       8   11706   11703
       9   11712   11709       8   11715   11709       8   11715   11712       9
   11721   11718       8   11724   11718       8   11724   11721       9   11730
   11727       8   11733   11727       8   11733   11730       9   11739   11736
       8   11742   11736       8   11742   11739       9   11748   11745       8
   11751   11745       8   11751   11748       9   11757   11754       8   11760
   11754       8   11760   11757       9   11766   11763       8   11769   11763
       8   11769   11766       9   11775   11772       8   11778   11772       8
   11778   11775       9   11784   11781       8   11787   11781       8   11787
   11784       9   11793   11790       8   11796   11790       8   11796   11793
       9   11802   11799       8   11805   11799       8   11805   11802       9
   11811   11808       8   11814   11808       8   11814   11811       9   11820
   11817       8   11823   11817       8   11823   11820       9   11829   11826
       8   11832   11826       8   11832   11829       9   11838   11835       8
   11841   11835       8   11841   11838       9   11847   11844       8   11850
   11844       8   11850   11847       9   11856   11853       8   11859   11853
       8   11859   11856       9   11865   11862       8   11868   11862       8
   11868   11865       9   11874   11871       8   11877   11871       8   11877
   11874       9   11883   11880       8   11886   11880       8   11886   11883
       9   11892   11889       8   11895   11889       8   11895   11892       9
   11901   11898       8   11904   11898       8   11904   11901       9   11910
   11907       8   11913   11907       8   11913   11910       9   11919   11916
       8   11922   11916       8   11922   11919       9   11928   11925       8
   11931   11925       8   11931   11928       9   11937   11934       8   11940
   11934       8   11940   11937       9   11946   11943       8   11949   11943
       8   11949   11946       9   11955   11952       8   11958   11952       8
   11958   11955       9   11964   11961       8   11967   11961       8   11967
   11964       9   11973   11970       8   11976   11970       8   11976   11973
       9   11982   11979       8   11985   11979       8   11985   11982       9
   11991   11988       8   11994   11988       8   11994   11991       9   12000
   11997       8   12003   11997       8   12003   12000       9   12009   12006
       8   12012   12006       8   12012   12009       9   12018   12015       8
   12021   12015       8   12021   12018       9   12027   12024       8   12030
   12024       8   12030   12027       9   12036   12033       8   12039   12033
       8   12039   12036       9   12045   12042       8   12048   12042       8
   12048   12045       9   12054   12051       8   12057   12051       8   12057
   12054       9   12063   12060       8   12066   12060       8   12066   12063
       9   12072   12069       8   12075   12069       8   12075   12072       9
   12081   12078       8   12084   12078       8   12084   12081       9   12090
   12087       8   12093   12087       8   12093   12090       9   12099   12096
       8   12102   12096       8   12102   12099       9   12108   12105       8
   12111   12105       8   12111   12108       9   12117   12114       8   12120
   12114       8   12120   12117       9   12126   12123       8   12129   12123
       8   12129   12126       9   12135   12132       8   12138   12132       8
   12138   12135       9   12144   12141       8   12147   12141       8   12147
   12144       9   12153   12150       8   12156   12150       8   12156   12153
       9   12162   12159       8   12165   12159       8   12165   12162       9
   12171   12168       8   12174   12168       8   12174   12171       9   12180
   12177       8   12183   12177       8   12183   12180       9   12189   12186
       8   12192   12186       8   12192   12189       9   12198   12195       8
   12201   12195       8   12201   12198       9   12207   12204       8   12210
   12204       8   12210   12207       9   12216   12213       8   12219   12213
       8   12219   12216       9   12225   12222       8   12228   12222       8
   12228   12225       9   12234   12231       8   12237   12231       8   12237
   12234       9   12243   12240       8   12246   12240       8   12246   12243
       9   12252   12249       8   12255   12249       8   12255   12252       9
   12261   12258       8   12264   12258       8   12264   12261       9   12270
   12267       8   12273   12267       8   12273   12270       9   12279   12276
       8   12282   12276       8   12282   12279       9   12288   12285       8
   12291   12285       8   12291   12288       9   12297   12294       8   12300
   12294       8   12300   12297       9   12306   12303       8   12309   12303
       8   12309   12306       9   12315   12312       8   12318   12312       8
   12318   12315       9   12324   12321       8   12327   12321       8   12327
   12324       9   12333   12330       8   12336   12330       8   12336   12333
       9   12342   12339       8   12345   12339       8   12345   12342       9
   12351   12348       8   12354   12348       8   12354   12351       9   12360
   12357       8   12363   12357       8   12363   12360       9   12369   12366
       8   12372   12366       8   12372   12369       9   12378   12375       8
   12381   12375       8   12381   12378       9   12387   12384       8   12390
   12384       8   12390   12387       9   12396   12393       8   12399   12393
       8   12399   12396       9   12405   12402       8   12408   12402       8
   12408   12405       9   12414   12411       8   12417   12411       8   12417
   12414       9   12423   12420       8   12426   12420       8   12426   12423
       9   12432   12429       8   12435   12429       8   12435   12432       9
   12441   12438       8   12444   12438       8   12444   12441       9   12450
   12447       8   12453   12447       8   12453   12450       9   12459   12456
       8   12462   12456       8   12462   12459       9   12468   12465       8
   12471   12465       8   12471   12468       9   12477   12474       8   12480
   12474       8   12480   12477       9   12486   12483       8   12489   12483
       8   12489   12486       9   12495   12492       8   12498   12492       8
   12498   12495       9   12504   12501       8   12507   12501       8   12507
   12504       9   12513   12510       8   12516   12510       8   12516   12513
       9   12522   12519       8   12525   12519       8   12525   12522       9
   12531   12528       8   12534   12528       8   12534   12531       9   12540
   12537       8   12543   12537       8   12543   12540       9   12549   12546
       8   12552   12546       8   12552   12549       9   12558   12555       8
   12561   12555       8   12561   12558       9   12567   12564       8   12570
   12564       8   12570   12567       9   12576   12573       8   12579   12573
       8   12579   12576       9   12585   12582       8   12588   12582       8
   12588   12585       9   12594   12591       8   12597   12591       8   12597
   12594       9   12603   12600       8   12606   12600       8   12606   12603
       9   12612   12609       8   12615   12609       8   12615   12612       9
   12621   12618       8   12624   12618       8   12624   12621       9   12630
   12627       8   12633   12627       8   12633   12630       9   12639   12636
       8   12642   12636       8   12642   12639       9   12648   12645       8
   12651   12645       8   12651   12648       9   12657   12654       8   12660
   12654       8   12660   12657       9   12666   12663       8   12669   12663
       8   12669   12666       9   12675   12672       8   12678   12672       8
   12678   12675       9   12684   12681       8   12687   12681       8   12687
   12684       9   12693   12690       8   12696   12690       8   12696   12693
       9   12702   12699       8   12705   12699       8   12705   12702       9
   12711   12708       8   12714   12708       8   12714   12711       9   12720
   12717       8   12723   12717       8   12723   12720       9   12729   12726
       8   12732   12726       8   12732   12729       9   12738   12735       8
   12741   12735       8   12741   12738       9   12747   12744       8   12750
   12744       8   12750   12747       9   12756   12753       8   12759   12753
       8   12759   12756       9   12765   12762       8   12768   12762       8
   12768   12765       9   12774   12771       8   12777   12771       8   12777
   12774       9   12783   12780       8   12786   12780       8   12786   12783
       9   12792   12789       8   12795   12789       8   12795   12792       9
   12801   12798       8   12804   12798       8   12804   12801       9   12810
   12807       8   12813   12807       8   12813   12810       9   12819   12816
       8   12822   12816       8   12822   12819       9   12828   12825       8
   12831   12825       8   12831   12828       9   12837   12834       8   12840
   12834       8   12840   12837       9   12846   12843       8   12849   12843
       8   12849   12846       9   12855   12852       8   12858   12852       8
   12858   12855       9   12864   12861       8   12867   12861       8   12867
   12864       9   12873   12870       8   12876   12870       8   12876   12873
       9   12882   12879       8   12885   12879       8   12885   12882       9
   12891   12888       8   12894   12888       8   12894   12891       9   12900
   12897       8   12903   12897       8   12903   12900       9   12909   12906
       8   12912   12906       8   12912   12909       9   12918   12915       8
   12921   12915       8   12921   12918       9   12927   12924       8   12930
   12924       8   12930   12927       9   12936   12933       8   12939   12933
       8   12939   12936       9   12945   12942       8   12948   12942       8
   12948   12945       9   12954   12951       8   12957   12951       8   12957
   12954       9   12963   12960       8   12966   12960       8   12966   12963
       9   12972   12969       8   12975   12969       8   12975   12972       9
   12981   12978       8   12984   12978       8   12984   12981       9   12990
   12987       8   12993   12987       8   12993   12990       9   12999   12996
       8   13002   12996       8   13002   12999       9   13008   13005       8
   13011   13005       8   13011   13008       9   13017   13014       8   13020
   13014       8   13020   13017       9   13026   13023       8   13029   13023
       8   13029   13026       9   13035   13032       8   13038   13032       8
   13038   13035       9   13044   13041       8   13047   13041       8   13047
   13044       9   13053   13050       8   13056   13050       8   13056   13053
       9   13062   13059       8   13065   13059       8   13065   13062       9
   13071   13068       8   13074   13068       8   13074   13071       9   13080
   13077       8   13083   13077       8   13083   13080       9   13089   13086
       8   13092   13086       8   13092   13089       9   13098   13095       8
   13101   13095       8   13101   13098       9   13107   13104       8   13110
   13104       8   13110   13107       9   13116   13113       8   13119   13113
       8   13119   13116       9   13125   13122       8   13128   13122       8
   13128   13125       9   13134   13131       8   13137   13131       8   13137
   13134       9   13143   13140       8   13146   13140       8   13146   13143
       9   13152   13149       8   13155   13149       8   13155   13152       9
   13161   13158       8   13164   13158       8   13164   13161       9   13170
   13167       8   13173   13167       8   13173   13170       9   13179   13176
       8   13182   13176       8   13182   13179       9   13188   13185       8
   13191   13185       8   13191   13188       9   13197   13194       8   13200
   13194       8   13200   13197       9   13206   13203       8   13209   13203
       8   13209   13206       9   13215   13212       8   13218   13212       8
   13218   13215       9   13224   13221       8   13227   13221       8   13227
   13224       9   13233   13230       8   13236   13230       8   13236   13233
       9   13242   13239       8   13245   13239       8   13245   13242       9
   13251   13248       8   13254   13248       8   13254   13251       9   13260
   13257       8   13263   13257       8   13263   13260       9   13269   13266
       8   13272   13266       8   13272   13269       9   13278   13275       8
   13281   13275       8   13281   13278       9   13287   13284       8   13290
   13284       8   13290   13287       9   13296   13293       8   13299   13293
       8   13299   13296       9   13305   13302       8   13308   13302       8
   13308   13305       9   13314   13311       8   13317   13311       8   13317
   13314       9   13323   13320       8   13326   13320       8   13326   13323
       9   13332   13329       8   13335   13329       8   13335   13332       9
   13341   13338       8   13344   13338       8   13344   13341       9   13350
   13347       8   13353   13347       8   13353   13350       9   13359   13356
       8   13362   13356       8   13362   13359       9   13368   13365       8
   13371   13365       8   13371   13368       9   13377   13374       8   13380
   13374       8   13380   13377       9   13386   13383       8   13389   13383
       8   13389   13386       9   13395   13392       8   13398   13392       8
   13398   13395       9   13404   13401       8   13407   13401       8   13407
   13404       9   13413   13410       8   13416   13410       8   13416   13413
       9   13422   13419       8   13425   13419       8   13425   13422       9
   13431   13428       8   13434   13428       8   13434   13431       9   13440
   13437       8   13443   13437       8   13443   13440       9   13449   13446
       8   13452   13446       8   13452   13449       9   13458   13455       8
   13461   13455       8   13461   13458       9   13467   13464       8   13470
   13464       8   13470   13467       9   13476   13473       8   13479   13473
       8   13479   13476       9   13485   13482       8   13488   13482       8
   13488   13485       9   13494   13491       8   13497   13491       8   13497
   13494       9   13503   13500       8   13506   13500       8   13506   13503
       9   13512   13509       8   13515   13509       8   13515   13512       9
   13521   13518       8   13524   13518       8   13524   13521       9   13530
   13527       8   13533   13527       8   13533   13530       9   13539   13536
       8   13542   13536       8   13542   13539       9   13548   13545       8
   13551   13545       8   13551   13548       9   13557   13554       8   13560
   13554       8   13560   13557       9   13566   13563       8   13569   13563
       8   13569   13566       9   13575   13572       8   13578   13572       8
   13578   13575       9   13584   13581       8   13587   13581       8   13587
   13584       9   13593   13590       8   13596   13590       8   13596   13593
       9   13602   13599       8   13605   13599       8   13605   13602       9
   13611   13608       8   13614   13608       8   13614   13611       9   13620
   13617       8   13623   13617       8   13623   13620       9   13629   13626
       8   13632   13626       8   13632   13629       9   13638   13635       8
   13641   13635       8   13641   13638       9   13647   13644       8   13650
   13644       8   13650   13647       9   13656   13653       8   13659   13653
       8   13659   13656       9   13665   13662       8   13668   13662       8
   13668   13665       9   13674   13671       8   13677   13671       8   13677
   13674       9   13683   13680       8   13686   13680       8   13686   13683
       9   13692   13689       8   13695   13689       8   13695   13692       9
   13701   13698       8   13704   13698       8   13704   13701       9   13710
   13707       8   13713   13707       8   13713   13710       9   13719   13716
       8   13722   13716       8   13722   13719       9   13728   13725       8
   13731   13725       8   13731   13728       9   13737   13734       8   13740
   13734       8   13740   13737       9   13746   13743       8   13749   13743
       8   13749   13746       9   13755   13752       8   13758   13752       8
   13758   13755       9   13764   13761       8   13767   13761       8   13767
   13764       9   13773   13770       8   13776   13770       8   13776   13773
       9   13782   13779       8   13785   13779       8   13785   13782       9
   13791   13788       8   13794   13788       8   13794   13791       9   13800
   13797       8   13803   13797       8   13803   13800       9   13809   13806
       8   13812   13806       8   13812   13809       9   13818   13815       8
   13821   13815       8   13821   13818       9   13827   13824       8   13830
   13824       8   13830   13827       9   13836   13833       8   13839   13833
       8   13839   13836       9   13845   13842       8   13848   13842       8
   13848   13845       9   13854   13851       8   13857   13851       8   13857
   13854       9   13863   13860       8   13866   13860       8   13866   13863
       9   13872   13869       8   13875   13869       8   13875   13872       9
   13881   13878       8   13884   13878       8   13884   13881       9   13890
   13887       8   13893   13887       8   13893   13890       9   13899   13896
       8   13902   13896       8   13902   13899       9   13908   13905       8
   13911   13905       8   13911   13908       9   13917   13914       8   13920
   13914       8   13920   13917       9   13926   13923       8   13929   13923
       8   13929   13926       9   13935   13932       8   13938   13932       8
   13938   13935       9   13944   13941       8   13947   13941       8   13947
   13944       9   13953   13950       8   13956   13950       8   13956   13953
       9   13962   13959       8   13965   13959       8   13965   13962       9
   13971   13968       8   13974   13968       8   13974   13971       9   13980
   13977       8   13983   13977       8   13983   13980       9   13989   13986
       8   13992   13986       8   13992   13989       9   13998   13995       8
   14001   13995       8   14001   13998       9   14007   14004       8   14010
   14004       8   14010   14007       9   14016   14013       8   14019   14013
       8   14019   14016       9   14025   14022       8   14028   14022       8
   14028   14025       9   14034   14031       8   14037   14031       8   14037
   14034       9   14043   14040       8   14046   14040       8   14046   14043
       9   14052   14049       8   14055   14049       8   14055   14052       9
   14061   14058       8   14064   14058       8   14064   14061       9   14070
   14067       8   14073   14067       8   14073   14070       9   14079   14076
       8   14082   14076       8   14082   14079       9   14088   14085       8
   14091   14085       8   14091   14088       9   14097   14094       8   14100
   14094       8   14100   14097       9   14106   14103       8   14109   14103
       8   14109   14106       9   14115   14112       8   14118   14112       8
   14118   14115       9   14124   14121       8   14127   14121       8   14127
   14124       9   14133   14130       8   14136   14130       8   14136   14133
       9   14142   14139       8   14145   14139       8   14145   14142       9
   14151   14148       8   14154   14148       8   14154   14151       9   14160
   14157       8   14163   14157       8   14163   14160       9   14169   14166
       8   14172   14166       8   14172   14169       9   14178   14175       8
   14181   14175       8   14181   14178       9   14187   14184       8   14190
   14184       8   14190   14187       9   14196   14193       8   14199   14193
       8   14199   14196       9   14205   14202       8   14208   14202       8
   14208   14205       9   14214   14211       8   14217   14211       8   14217
   14214       9   14223   14220       8   14226   14220       8   14226   14223
       9   14232   14229       8   14235   14229       8   14235   14232       9
   14241   14238       8   14244   14238       8   14244   14241       9   14250
   14247       8   14253   14247       8   14253   14250       9   14259   14256
       8   14262   14256       8   14262   14259       9   14268   14265       8
   14271   14265       8   14271   14268       9   14277   14274       8   14280
   14274       8   14280   14277       9   14286   14283       8   14289   14283
       8   14289   14286       9   14295   14292       8   14298   14292       8
   14298   14295       9   14304   14301       8   14307   14301       8   14307
   14304       9   14313   14310       8   14316   14310       8   14316   14313
       9   14322   14319       8   14325   14319       8   14325   14322       9
   14331   14328       8   14334   14328       8   14334   14331       9   14340
   14337       8   14343   14337       8   14343   14340       9   14349   14346
       8   14352   14346       8   14352   14349       9   14358   14355       8
   14361   14355       8   14361   14358       9   14367   14364       8   14370
   14364       8   14370   14367       9   14376   14373       8   14379   14373
       8   14379   14376       9   14385   14382       8   14388   14382       8
   14388   14385       9   14394   14391       8   14397   14391       8   14397
   14394       9   14403   14400       8   14406   14400       8   14406   14403
       9   14412   14409       8   14415   14409       8   14415   14412       9
   14421   14418       8   14424   14418       8   14424   14421       9   14430
   14427       8   14433   14427       8   14433   14430       9   14439   14436
       8   14442   14436       8   14442   14439       9   14448   14445       8
   14451   14445       8   14451   14448       9   14457   14454       8   14460
   14454       8   14460   14457       9   14466   14463       8   14469   14463
       8   14469   14466       9   14475   14472       8   14478   14472       8
   14478   14475       9   14484   14481       8   14487   14481       8   14487
   14484       9   14493   14490       8   14496   14490       8   14496   14493
       9   14502   14499       8   14505   14499       8   14505   14502       9
   14511   14508       8   14514   14508       8   14514   14511       9   14520
   14517       8   14523   14517       8   14523   14520       9   14529   14526
       8   14532   14526       8   14532   14529       9   14538   14535       8
   14541   14535       8   14541   14538       9   14547   14544       8   14550
   14544       8   14550   14547       9   14556   14553       8   14559   14553
       8   14559   14556       9   14565   14562       8   14568   14562       8
   14568   14565       9   14574   14571       8   14577   14571       8   14577
   14574       9   14583   14580       8   14586   14580       8   14586   14583
       9   14592   14589       8   14595   14589       8   14595   14592       9
   14601   14598       8   14604   14598       8   14604   14601       9   14610
   14607       8   14613   14607       8   14613   14610       9   14619   14616
       8   14622   14616       8   14622   14619       9   14628   14625       8
   14631   14625       8   14631   14628       9   14637   14634       8   14640
   14634       8   14640   14637       9   14646   14643       8   14649   14643
       8   14649   14646       9   14655   14652       8   14658   14652       8
   14658   14655       9   14664   14661       8   14667   14661       8   14667
   14664       9   14673   14670       8   14676   14670       8   14676   14673
       9   14682   14679       8   14685   14679       8   14685   14682       9
   14691   14688       8   14694   14688       8   14694   14691       9   14700
   14697       8   14703   14697       8   14703   14700       9   14709   14706
       8   14712   14706       8   14712   14709       9   14718   14715       8
   14721   14715       8   14721   14718       9   14727   14724       8   14730
   14724       8   14730   14727       9   14736   14733       8   14739   14733
       8   14739   14736       9   14745   14742       8   14748   14742       8
   14748   14745       9   14754   14751       8   14757   14751       8   14757
   14754       9   14763   14760       8   14766   14760       8   14766   14763
       9   14772   14769       8   14775   14769       8   14775   14772       9
   14781   14778       8   14784   14778       8   14784   14781       9   14790
   14787       8   14793   14787       8   14793   14790       9   14799   14796
       8   14802   14796       8   14802   14799       9   14808   14805       8
   14811   14805       8   14811   14808       9   14817   14814       8   14820
   14814       8   14820   14817       9   14826   14823       8   14829   14823
       8   14829   14826       9   14835   14832       8   14838   14832       8
   14838   14835       9   14844   14841       8   14847   14841       8   14847
   14844       9   14853   14850       8   14856   14850       8   14856   14853
       9   14862   14859       8   14865   14859       8   14865   14862       9
   14871   14868       8   14874   14868       8   14874   14871       9   14880
   14877       8   14883   14877       8   14883   14880       9   14889   14886
       8   14892   14886       8   14892   14889       9   14898   14895       8
   14901   14895       8   14901   14898       9   14907   14904       8   14910
   14904       8   14910   14907       9   14916   14913       8   14919   14913
       8   14919   14916       9   14925   14922       8   14928   14922       8
   14928   14925       9   14934   14931       8   14937   14931       8   14937
   14934       9   14943   14940       8   14946   14940       8   14946   14943
       9   14952   14949       8   14955   14949       8   14955   14952       9
   14961   14958       8   14964   14958       8   14964   14961       9   14970
   14967       8   14973   14967       8   14973   14970       9   14979   14976
       8   14982   14976       8   14982   14979       9   14988   14985       8
   14991   14985       8   14991   14988       9   14997   14994       8   15000
   14994       8   15000   14997       9   15006   15003       8   15009   15003
       8   15009   15006       9   15015   15012       8   15018   15012       8
   15018   15015       9   15024   15021       8   15027   15021       8   15027
   15024       9   15033   15030       8   15036   15030       8   15036   15033
       9   15042   15039       8   15045   15039       8   15045   15042       9
   15051   15048       8   15054   15048       8   15054   15051       9   15060
   15057       8   15063   15057       8   15063   15060       9   15069   15066
       8   15072   15066       8   15072   15069       9   15078   15075       8
   15081   15075       8   15081   15078       9   15087   15084       8   15090
   15084       8   15090   15087       9   15096   15093       8   15099   15093
       8   15099   15096       9   15105   15102       8   15108   15102       8
   15108   15105       9   15114   15111       8   15117   15111       8   15117
   15114       9   15123   15120       8   15126   15120       8   15126   15123
       9   15132   15129       8   15135   15129       8   15135   15132       9
   15141   15138       8   15144   15138       8   15144   15141       9   15150
   15147       8   15153   15147       8   15153   15150       9   15159   15156
       8   15162   15156       8   15162   15159       9   15168   15165       8
   15171   15165       8   15171   15168       9   15177   15174       8   15180
   15174       8   15180   15177       9   15186   15183       8   15189   15183
       8   15189   15186       9   15195   15192       8   15198   15192       8
   15198   15195       9   15204   15201       8   15207   15201       8   15207
   15204       9   15213   15210       8   15216   15210       8   15216   15213
       9   15222   15219       8   15225   15219       8   15225   15222       9
   15231   15228       8   15234   15228       8   15234   15231       9   15240
   15237       8   15243   15237       8   15243   15240       9   15249   15246
       8   15252   15246       8   15252   15249       9   15258   15255       8
   15261   15255       8   15261   15258       9   15267   15264       8   15270
   15264       8   15270   15267       9   15276   15273       8   15279   15273
       8   15279   15276       9   15285   15282       8   15288   15282       8
   15288   15285       9   15294   15291       8   15297   15291       8   15297
   15294       9   15303   15300       8   15306   15300       8   15306   15303
       9   15312   15309       8   15315   15309       8   15315   15312       9
   15321   15318       8   15324   15318       8   15324   15321       9   15330
   15327       8   15333   15327       8   15333   15330       9   15339   15336
       8   15342   15336       8   15342   15339       9   15348   15345       8
   15351   15345       8   15351   15348       9   15357   15354       8   15360
   15354       8   15360   15357       9   15366   15363       8   15369   15363
       8   15369   15366       9   15375   15372       8   15378   15372       8
   15378   15375       9   15384   15381       8   15387   15381       8   15387
   15384       9   15393   15390       8   15396   15390       8   15396   15393
       9   15402   15399       8   15405   15399       8   15405   15402       9
   15411   15408       8   15414   15408       8   15414   15411       9   15420
   15417       8   15423   15417       8   15423   15420       9   15429   15426
       8   15432   15426       8   15432   15429       9   15438   15435       8
   15441   15435       8   15441   15438       9   15447   15444       8   15450
   15444       8   15450   15447       9   15456   15453       8   15459   15453
       8   15459   15456       9   15465   15462       8   15468   15462       8
   15468   15465       9   15474   15471       8   15477   15471       8   15477
   15474       9   15483   15480       8   15486   15480       8   15486   15483
       9   15492   15489       8   15495   15489       8   15495   15492       9
   15501   15498       8   15504   15498       8   15504   15501       9   15510
   15507       8   15513   15507       8   15513   15510       9   15519   15516
       8   15522   15516       8   15522   15519       9   15528   15525       8
   15531   15525       8   15531   15528       9   15537   15534       8   15540
   15534       8   15540   15537       9   15546   15543       8   15549   15543
       8   15549   15546       9   15555   15552       8   15558   15552       8
   15558   15555       9   15564   15561       8   15567   15561       8   15567
   15564       9   15573   15570       8   15576   15570       8   15576   15573
       9   15582   15579       8   15585   15579       8   15585   15582       9
   15591   15588       8   15594   15588       8   15594   15591       9   15600
   15597       8   15603   15597       8   15603   15600       9   15609   15606
       8   15612   15606       8   15612   15609       9   15618   15615       8
   15621   15615       8   15621   15618       9   15627   15624       8   15630
   15624       8   15630   15627       9   15636   15633       8   15639   15633
       8   15639   15636       9   15645   15642       8   15648   15642       8
   15648   15645       9   15654   15651       8   15657   15651       8   15657
   15654       9   15663   15660       8   15666   15660       8   15666   15663
       9   15672   15669       8   15675   15669       8   15675   15672       9
   15681   15678       8   15684   15678       8   15684   15681       9   15690
   15687       8   15693   15687       8   15693   15690       9   15699   15696
       8   15702   15696       8   15702   15699       9   15708   15705       8
   15711   15705       8   15711   15708       9   15717   15714       8   15720
   15714       8   15720   15717       9   15726   15723       8   15729   15723
       8   15729   15726       9   15735   15732       8   15738   15732       8
   15738   15735       9   15744   15741       8   15747   15741       8   15747
   15744       9   15753   15750       8   15756   15750       8   15756   15753
       9   15762   15759       8   15765   15759       8   15765   15762       9
   15771   15768       8   15774   15768       8   15774   15771       9   15780
   15777       8   15783   15777       8   15783   15780       9   15789   15786
       8   15792   15786       8   15792   15789       9   15798   15795       8
   15801   15795       8   15801   15798       9   15807   15804       8   15810
   15804       8   15810   15807       9   15816   15813       8   15819   15813
       8   15819   15816       9   15825   15822       8   15828   15822       8
   15828   15825       9   15834   15831       8   15837   15831       8   15837
   15834       9   15843   15840       8   15846   15840       8   15846   15843
       9   15852   15849       8   15855   15849       8   15855   15852       9
   15861   15858       8   15864   15858       8   15864   15861       9   15870
   15867       8   15873   15867       8   15873   15870       9   15879   15876
       8   15882   15876       8   15882   15879       9   15888   15885       8
   15891   15885       8   15891   15888       9   15897   15894       8   15900
   15894       8   15900   15897       9   15906   15903       8   15909   15903
       8   15909   15906       9   15915   15912       8   15918   15912       8
   15918   15915       9   15924   15921       8   15927   15921       8   15927
   15924       9   15933   15930       8   15936   15930       8   15936   15933
       9   15942   15939       8   15945   15939       8   15945   15942       9
   15951   15948       8   15954   15948       8   15954   15951       9   15960
   15957       8   15963   15957       8   15963   15960       9   15969   15966
       8   15972   15966       8   15972   15969       9   15978   15975       8
   15981   15975       8   15981   15978       9   15987   15984       8   15990
   15984       8   15990   15987       9   15996   15993       8   15999   15993
       8   15999   15996       9   16005   16002       8   16008   16002       8
   16008   16005       9   16014   16011       8   16017   16011       8   16017
   16014       9   16023   16020       8   16026   16020       8   16026   16023
       9   16032   16029       8   16035   16029       8   16035   16032       9
   16041   16038       8   16044   16038       8   16044   16041       9   16050
   16047       8   16053   16047       8   16053   16050       9   16059   16056
       8   16062   16056       8   16062   16059       9   16068   16065       8
   16071   16065       8   16071   16068       9   16077   16074       8   16080
   16074       8   16080   16077       9   16086   16083       8   16089   16083
       8   16089   16086       9   16095   16092       8   16098   16092       8
   16098   16095       9   16104   16101       8   16107   16101       8   16107
   16104       9   16113   16110       8   16116   16110       8   16116   16113
       9   16122   16119       8   16125   16119       8   16125   16122       9
   16131   16128       8   16134   16128       8   16134   16131       9   16140
   16137       8   16143   16137       8   16143   16140       9   16149   16146
       8   16152   16146       8   16152   16149       9   16158   16155       8
   16161   16155       8   16161   16158       9   16167   16164       8   16170
   16164       8   16170   16167       9   16176   16173       8   16179   16173
       8   16179   16176       9   16185   16182       8   16188   16182       8
   16188   16185       9   16194   16191       8   16197   16191       8   16197
   16194       9   16203   16200       8   16206   16200       8   16206   16203
       9   16212   16209       8   16215   16209       8   16215   16212       9
   16221   16218       8   16224   16218       8   16224   16221       9   16230
   16227       8   16233   16227       8   16233   16230       9   16239   16236
       8   16242   16236       8   16242   16239       9   16248   16245       8
   16251   16245       8   16251   16248       9   16257   16254       8   16260
   16254       8   16260   16257       9   16266   16263       8   16269   16263
       8   16269   16266       9   16275   16272       8   16278   16272       8
   16278   16275       9   16284   16281       8   16287   16281       8   16287
   16284       9   16293   16290       8   16296   16290       8   16296   16293
       9   16302   16299       8   16305   16299       8   16305   16302       9
   16311   16308       8   16314   16308       8   16314   16311       9   16320
   16317       8   16323   16317       8   16323   16320       9   16329   16326
       8   16332   16326       8   16332   16329       9   16338   16335       8
   16341   16335       8   16341   16338       9   16347   16344       8   16350
   16344       8   16350   16347       9   16356   16353       8   16359   16353
       8   16359   16356       9   16365   16362       8   16368   16362       8
   16368   16365       9   16374   16371       8   16377   16371       8   16377
   16374       9   16383   16380       8   16386   16380       8   16386   16383
       9   16392   16389       8   16395   16389       8   16395   16392       9
   16401   16398       8   16404   16398       8   16404   16401       9   16410
   16407       8   16413   16407       8   16413   16410       9   16419   16416
       8   16422   16416       8   16422   16419       9   16428   16425       8
   16431   16425       8   16431   16428       9   16437   16434       8   16440
   16434       8   16440   16437       9   16446   16443       8   16449   16443
       8   16449   16446       9   16455   16452       8   16458   16452       8
   16458   16455       9   16464   16461       8   16467   16461       8   16467
   16464       9   16473   16470       8   16476   16470       8   16476   16473
       9   16482   16479       8   16485   16479       8   16485   16482       9
   16491   16488       8   16494   16488       8   16494   16491       9   16500
   16497       8   16503   16497       8   16503   16500       9   16509   16506
       8   16512   16506       8   16512   16509       9   16518   16515       8
   16521   16515       8   16521   16518       9   16527   16524       8   16530
   16524       8   16530   16527       9   16536   16533       8   16539   16533
       8   16539   16536       9   16545   16542       8   16548   16542       8
   16548   16545       9   16554   16551       8   16557   16551       8   16557
   16554       9   16563   16560       8   16566   16560       8   16566   16563
       9   16572   16569       8   16575   16569       8   16575   16572       9
   16581   16578       8   16584   16578       8   16584   16581       9   16590
   16587       8   16593   16587       8   16593   16590       9   16599   16596
       8   16602   16596       8   16602   16599       9   16608   16605       8
   16611   16605       8   16611   16608       9   16617   16614       8   16620
   16614       8   16620   16617       9   16626   16623       8   16629   16623
       8   16629   16626       9   16635   16632       8   16638   16632       8
   16638   16635       9   16644   16641       8   16647   16641       8   16647
   16644       9   16653   16650       8   16656   16650       8   16656   16653
       9   16662   16659       8   16665   16659       8   16665   16662       9
   16671   16668       8   16674   16668       8   16674   16671       9   16680
   16677       8   16683   16677       8   16683   16680       9   16689   16686
       8   16692   16686       8   16692   16689       9   16698   16695       8
   16701   16695       8   16701   16698       9   16707   16704       8   16710
   16704       8   16710   16707       9   16716   16713       8   16719   16713
       8   16719   16716       9   16725   16722       8   16728   16722       8
   16728   16725       9   16734   16731       8   16737   16731       8   16737
   16734       9   16743   16740       8   16746   16740       8   16746   16743
       9   16752   16749       8   16755   16749       8   16755   16752       9
   16761   16758       8   16764   16758       8   16764   16761       9   16770
   16767       8   16773   16767       8   16773   16770       9   16779   16776
       8   16782   16776       8   16782   16779       9   16788   16785       8
   16791   16785       8   16791   16788       9   16797   16794       8   16800
   16794       8   16800   16797       9   16806   16803       8   16809   16803
       8   16809   16806       9   16815   16812       8   16818   16812       8
   16818   16815       9   16824   16821       8   16827   16821       8   16827
   16824       9   16833   16830       8   16836   16830       8   16836   16833
       9   16842   16839       8   16845   16839       8   16845   16842       9
   16851   16848       8   16854   16848       8   16854   16851       9   16860
   16857       8   16863   16857       8   16863   16860       9   16869   16866
       8   16872   16866       8   16872   16869       9   16878   16875       8
   16881   16875       8   16881   16878       9   16887   16884       8   16890
   16884       8   16890   16887       9   16896   16893       8   16899   16893
       8   16899   16896       9   16905   16902       8   16908   16902       8
   16908   16905       9   16914   16911       8   16917   16911       8   16917
   16914       9   16923   16920       8   16926   16920       8   16926   16923
       9   16932   16929       8   16935   16929       8   16935   16932       9
   16941   16938       8   16944   16938       8   16944   16941       9   16950
   16947       8   16953   16947       8   16953   16950       9   16959   16956
       8   16962   16956       8   16962   16959       9   16968   16965       8
   16971   16965       8   16971   16968       9   16977   16974       8   16980
   16974       8   16980   16977       9   16986   16983       8   16989   16983
       8   16989   16986       9   16995   16992       8   16998   16992       8
   16998   16995       9   17004   17001       8   17007   17001       8   17007
   17004       9   17013   17010       8   17016   17010       8   17016   17013
       9   17022   17019       8   17025   17019       8   17025   17022       9
   17031   17028       8   17034   17028       8   17034   17031       9   17040
   17037       8   17043   17037       8   17043   17040       9   17049   17046
       8   17052   17046       8   17052   17049       9   17058   17055       8
   17061   17055       8   17061   17058       9   17067   17064       8   17070
   17064       8   17070   17067       9   17076   17073       8   17079   17073
       8   17079   17076       9   17085   17082       8   17088   17082       8
   17088   17085       9   17094   17091       8   17097   17091       8   17097
   17094       9   17103   17100       8   17106   17100       8   17106   17103
       9   17112   17109       8   17115   17109       8   17115   17112       9
   17121   17118       8   17124   17118       8   17124   17121       9   17130
   17127       8   17133   17127       8   17133   17130       9   17139   17136
       8   17142   17136       8   17142   17139       9   17148   17145       8
   17151   17145       8   17151   17148       9   17157   17154       8   17160
   17154       8   17160   17157       9   17166   17163       8   17169   17163
       8   17169   17166       9   17175   17172       8   17178   17172       8
   17178   17175       9   17184   17181       8   17187   17181       8   17187
   17184       9   17193   17190       8   17196   17190       8   17196   17193
       9   17202   17199       8   17205   17199       8   17205   17202       9
   17211   17208       8   17214   17208       8   17214   17211       9   17220
   17217       8   17223   17217       8   17223   17220       9   17229   17226
       8   17232   17226       8   17232   17229       9   17238   17235       8
   17241   17235       8   17241   17238       9   17247   17244       8   17250
   17244       8   17250   17247       9   17256   17253       8   17259   17253
       8   17259   17256       9   17265   17262       8   17268   17262       8
   17268   17265       9   17274   17271       8   17277   17271       8   17277
   17274       9   17283   17280       8   17286   17280       8   17286   17283
       9   17292   17289       8   17295   17289       8   17295   17292       9
   17301   17298       8   17304   17298       8   17304   17301       9   17310
   17307       8   17313   17307       8   17313   17310       9   17319   17316
       8   17322   17316       8   17322   17319       9   17328   17325       8
   17331   17325       8   17331   17328       9   17337   17334       8   17340
   17334       8   17340   17337       9   17346   17343       8   17349   17343
       8   17349   17346       9   17355   17352       8   17358   17352       8
   17358   17355       9   17364   17361       8   17367   17361       8   17367
   17364       9   17373   17370       8   17376   17370       8   17376   17373
       9   17382   17379       8   17385   17379       8   17385   17382       9
   17391   17388       8   17394   17388       8   17394   17391       9   17400
   17397       8   17403   17397       8   17403   17400       9   17409   17406
       8   17412   17406       8   17412   17409       9   17418   17415       8
   17421   17415       8   17421   17418       9   17427   17424       8   17430
   17424       8   17430   17427       9   17436   17433       8   17439   17433
       8   17439   17436       9   17445   17442       8   17448   17442       8
   17448   17445       9   17454   17451       8   17457   17451       8   17457
   17454       9   17463   17460       8   17466   17460       8   17466   17463
       9   17472   17469       8   17475   17469       8   17475   17472       9
   17481   17478       8   17484   17478       8   17484   17481       9   17490
   17487       8   17493   17487       8   17493   17490       9   17499   17496
       8   17502   17496       8   17502   17499       9   17508   17505       8
   17511   17505       8   17511   17508       9   17517   17514       8   17520
   17514       8   17520   17517       9   17526   17523       8   17529   17523
       8   17529   17526       9   17535   17532       8   17538   17532       8
   17538   17535       9   17544   17541       8   17547   17541       8   17547
   17544       9   17553   17550       8   17556   17550       8   17556   17553
       9   17562   17559       8   17565   17559       8   17565   17562       9
   17571   17568       8   17574   17568       8   17574   17571       9   17580
   17577       8   17583   17577       8   17583   17580       9   17589   17586
       8   17592   17586       8   17592   17589       9   17598   17595       8
   17601   17595       8   17601   17598       9   17607   17604       8   17610
   17604       8   17610   17607       9   17616   17613       8   17619   17613
       8   17619   17616       9   17625   17622       8   17628   17622       8
   17628   17625       9   17634   17631       8   17637   17631       8   17637
   17634       9   17643   17640       8   17646   17640       8   17646   17643
       9   17652   17649       8   17655   17649       8   17655   17652       9
   17661   17658       8   17664   17658       8   17664   17661       9   17670
   17667       8   17673   17667       8   17673   17670       9   17679   17676
       8   17682   17676       8   17682   17679       9   17688   17685       8
   17691   17685       8   17691   17688       9   17697   17694       8   17700
   17694       8   17700   17697       9   17706   17703       8   17709   17703
       8   17709   17706       9   17715   17712       8   17718   17712       8
   17718   17715       9   17724   17721       8   17727   17721       8   17727
   17724       9   17733   17730       8   17736   17730       8   17736   17733
       9   17742   17739       8   17745   17739       8   17745   17742       9
   17751   17748       8   17754   17748       8   17754   17751       9   17760
   17757       8   17763   17757       8   17763   17760       9   17769   17766
       8   17772   17766       8   17772   17769       9   17778   17775       8
   17781   17775       8   17781   17778       9   17787   17784       8   17790
   17784       8   17790   17787       9   17796   17793       8   17799   17793
       8   17799   17796       9   17805   17802       8   17808   17802       8
   17808   17805       9   17814   17811       8   17817   17811       8   17817
   17814       9   17823   17820       8   17826   17820       8   17826   17823
       9   17832   17829       8   17835   17829       8   17835   17832       9
   17841   17838       8   17844   17838       8   17844   17841       9   17850
   17847       8   17853   17847       8   17853   17850       9   17859   17856
       8   17862   17856       8   17862   17859       9   17868   17865       8
   17871   17865       8   17871   17868       9   17877   17874       8   17880
   17874       8   17880   17877       9   17886   17883       8   17889   17883
       8   17889   17886       9   17895   17892       8   17898   17892       8
   17898   17895       9   17904   17901       8   17907   17901       8   17907
   17904       9   17913   17910       8   17916   17910       8   17916   17913
       9   17922   17919       8   17925   17919       8   17925   17922       9
   17931   17928       8   17934   17928       8   17934   17931       9   17940
   17937       8   17943   17937       8   17943   17940       9   17949   17946
       8   17952   17946       8   17952   17949       9   17958   17955       8
   17961   17955       8   17961   17958       9   17967   17964       8   17970
   17964       8   17970   17967       9   17976   17973       8   17979   17973
       8   17979   17976       9   17985   17982       8   17988   17982       8
   17988   17985       9   17994   17991       8   17997   17991       8   17997
   17994       9   18003   18000       8   18006   18000       8   18006   18003
       9   18012   18009       8   18015   18009       8   18015   18012       9
   18021   18018       8   18024   18018       8   18024   18021       9   18030
   18027       8   18033   18027       8   18033   18030       9   18039   18036
       8   18042   18036       8   18042   18039       9   18048   18045       8
   18051   18045       8   18051   18048       9   18057   18054       8   18060
   18054       8   18060   18057       9   18066   18063       8   18069   18063
       8   18069   18066       9   18075   18072       8   18078   18072       8
   18078   18075       9   18084   18081       8   18087   18081       8   18087
   18084       9   18093   18090       8   18096   18090       8   18096   18093
       9   18102   18099       8   18105   18099       8   18105   18102       9
   18111   18108       8   18114   18108       8   18114   18111       9   18120
   18117       8   18123   18117       8   18123   18120       9   18129   18126
       8   18132   18126       8   18132   18129       9   18138   18135       8
   18141   18135       8   18141   18138       9   18147   18144       8   18150
   18144       8   18150   18147       9   18156   18153       8   18159   18153
       8   18159   18156       9   18165   18162       8   18168   18162       8
   18168   18165       9   18174   18171       8   18177   18171       8   18177
   18174       9   18183   18180       8   18186   18180       8   18186   18183
       9   18192   18189       8   18195   18189       8   18195   18192       9
   18201   18198       8   18204   18198       8   18204   18201       9   18210
   18207       8   18213   18207       8   18213   18210       9   18219   18216
       8   18222   18216       8   18222   18219       9   18228   18225       8
   18231   18225       8   18231   18228       9   18237   18234       8   18240
   18234       8   18240   18237       9   18246   18243       8   18249   18243
       8   18249   18246       9   18255   18252       8   18258   18252       8
   18258   18255       9   18264   18261       8   18267   18261       8   18267
   18264       9   18273   18270       8   18276   18270       8   18276   18273
       9   18282   18279       8   18285   18279       8   18285   18282       9
   18291   18288       8   18294   18288       8   18294   18291       9   18300
   18297       8   18303   18297       8   18303   18300       9   18309   18306
       8   18312   18306       8   18312   18309       9   18318   18315       8
   18321   18315       8   18321   18318       9   18327   18324       8   18330
   18324       8   18330   18327       9   18336   18333       8   18339   18333
       8   18339   18336       9   18345   18342       8   18348   18342       8
   18348   18345       9   18354   18351       8   18357   18351       8   18357
   18354       9   18363   18360       8   18366   18360       8   18366   18363
       9   18372   18369       8   18375   18369       8   18375   18372       9
   18381   18378       8   18384   18378       8   18384   18381       9   18390
   18387       8   18393   18387       8   18393   18390       9   18399   18396
       8   18402   18396       8   18402   18399       9   18408   18405       8
   18411   18405       8   18411   18408       9   18417   18414       8   18420
   18414       8   18420   18417       9   18426   18423       8   18429   18423
       8   18429   18426       9   18435   18432       8   18438   18432       8
   18438   18435       9   18444   18441       8   18447   18441       8   18447
   18444       9   18453   18450       8   18456   18450       8   18456   18453
       9   18462   18459       8   18465   18459       8   18465   18462       9
   18471   18468       8   18474   18468       8   18474   18471       9   18480
   18477       8   18483   18477       8   18483   18480       9   18489   18486
       8   18492   18486       8   18492   18489       9   18498   18495       8
   18501   18495       8   18501   18498       9   18507   18504       8   18510
   18504       8   18510   18507       9   18516   18513       8   18519   18513
       8   18519   18516       9   18525   18522       8   18528   18522       8
   18528   18525       9   18534   18531       8   18537   18531       8   18537
   18534       9   18543   18540       8   18546   18540       8   18546   18543
       9   18552   18549       8   18555   18549       8   18555   18552       9
   18561   18558       8   18564   18558       8   18564   18561       9   18570
   18567       8   18573   18567       8   18573   18570       9   18579   18576
       8   18582   18576       8   18582   18579       9   18588   18585       8
   18591   18585       8   18591   18588       9   18597   18594       8   18600
   18594       8   18600   18597       9   18606   18603       8   18609   18603
       8   18609   18606       9   18615   18612       8   18618   18612       8
   18618   18615       9   18624   18621       8   18627   18621       8   18627
   18624       9   18633   18630       8   18636   18630       8   18636   18633
       9   18642   18639       8   18645   18639       8   18645   18642       9
   18651   18648       8   18654   18648       8   18654   18651       9   18660
   18657       8   18663   18657       8   18663   18660       9   18669   18666
       8   18672   18666       8   18672   18669       9   18678   18675       8
   18681   18675       8   18681   18678       9   18687   18684       8   18690
   18684       8   18690   18687       9   18696   18693       8   18699   18693
       8   18699   18696       9   18705   18702       8   18708   18702       8
   18708   18705       9   18714   18711       8   18717   18711       8   18717
   18714       9   18723   18720       8   18726   18720       8   18726   18723
       9   18732   18729       8   18735   18729       8   18735   18732       9
   18741   18738       8   18744   18738       8   18744   18741       9   18750
   18747       8   18753   18747       8   18753   18750       9   18759   18756
       8   18762   18756       8   18762   18759       9   18768   18765       8
   18771   18765       8   18771   18768       9   18777   18774       8   18780
   18774       8   18780   18777       9   18786   18783       8   18789   18783
       8   18789   18786       9   18795   18792       8   18798   18792       8
   18798   18795       9   18804   18801       8   18807   18801       8   18807
   18804       9   18813   18810       8   18816   18810       8   18816   18813
       9   18822   18819       8   18825   18819       8   18825   18822       9
   18831   18828       8   18834   18828       8   18834   18831       9   18840
   18837       8   18843   18837       8   18843   18840       9   18849   18846
       8   18852   18846       8   18852   18849       9   18858   18855       8
   18861   18855       8   18861   18858       9   18867   18864       8   18870
   18864       8   18870   18867       9   18876   18873       8   18879   18873
       8   18879   18876       9   18885   18882       8   18888   18882       8
   18888   18885       9   18894   18891       8   18897   18891       8   18897
   18894       9   18903   18900       8   18906   18900       8   18906   18903
       9   18912   18909       8   18915   18909       8   18915   18912       9
   18921   18918       8   18924   18918       8   18924   18921       9   18930
   18927       8   18933   18927       8   18933   18930       9   18939   18936
       8   18942   18936       8   18942   18939       9   18948   18945       8
   18951   18945       8   18951   18948       9   18957   18954       8   18960
   18954       8   18960   18957       9   18966   18963       8   18969   18963
       8   18969   18966       9   18975   18972       8   18978   18972       8
   18978   18975       9   18984   18981       8   18987   18981       8   18987
   18984       9   18993   18990       8   18996   18990       8   18996   18993
       9   19002   18999       8   19005   18999       8   19005   19002       9
   19011   19008       8   19014   19008       8   19014   19011       9   19020
   19017       8   19023   19017       8   19023   19020       9   19029   19026
       8   19032   19026       8   19032   19029       9   19038   19035       8
   19041   19035       8   19041   19038       9   19047   19044       8   19050
   19044       8   19050   19047       9   19056   19053       8   19059   19053
       8   19059   19056       9   19065   19062       8   19068   19062       8
   19068   19065       9   19074   19071       8   19077   19071       8   19077
   19074       9   19083   19080       8   19086   19080       8   19086   19083
       9   19092   19089       8   19095   19089       8   19095   19092       9
   19101   19098       8   19104   19098       8   19104   19101       9   19110
   19107       8   19113   19107       8   19113   19110       9   19119   19116
       8   19122   19116       8   19122   19119       9   19128   19125       8
   19131   19125       8   19131   19128       9   19137   19134       8   19140
   19134       8   19140   19137       9   19146   19143       8   19149   19143
       8   19149   19146       9   19155   19152       8   19158   19152       8
   19158   19155       9   19164   19161       8   19167   19161       8   19167
   19164       9   19173   19170       8   19176   19170       8   19176   19173
       9   19182   19179       8   19185   19179       8   19185   19182       9
   19191   19188       8   19194   19188       8   19194   19191       9   19200
   19197       8   19203   19197       8   19203   19200       9   19209   19206
       8   19212   19206       8   19212   19209       9   19218   19215       8
   19221   19215       8   19221   19218       9   19227   19224       8   19230
   19224       8   19230   19227       9   19236   19233       8   19239   19233
       8   19239   19236       9   19245   19242       8   19248   19242       8
   19248   19245       9   19254   19251       8   19257   19251       8   19257
   19254       9   19263   19260       8   19266   19260       8   19266   19263
       9   19272   19269       8   19275   19269       8   19275   19272       9
   19281   19278       8   19284   19278       8   19284   19281       9   19290
   19287       8   19293   19287       8   19293   19290       9   19299   19296
       8   19302   19296       8   19302   19299       9   19308   19305       8
   19311   19305       8   19311   19308       9   19317   19314       8   19320
   19314       8   19320   19317       9   19326   19323       8   19329   19323
       8   19329   19326       9   19335   19332       8   19338   19332       8
   19338   19335       9   19344   19341       8   19347   19341       8   19347
   19344       9   19353   19350       8   19356   19350       8   19356   19353
       9   19362   19359       8   19365   19359       8   19365   19362       9
   19371   19368       8   19374   19368       8   19374   19371       9   19380
   19377       8   19383   19377       8   19383   19380       9   19389   19386
       8   19392   19386       8   19392   19389       9   19398   19395       8
   19401   19395       8   19401   19398       9   19407   19404       8   19410
   19404       8   19410   19407       9   19416   19413       8   19419   19413
       8   19419   19416       9   19425   19422       8   19428   19422       8
   19428   19425       9   19434   19431       8   19437   19431       8   19437
   19434       9   19443   19440       8   19446   19440       8   19446   19443
       9   19452   19449       8   19455   19449       8   19455   19452       9
   19461   19458       8   19464   19458       8   19464   19461       9   19470
   19467       8   19473   19467       8   19473   19470       9   19479   19476
       8   19482   19476       8   19482   19479       9   19488   19485       8
   19491   19485       8   19491   19488       9   19497   19494       8   19500
   19494       8   19500   19497       9   19506   19503       8   19509   19503
       8   19509   19506       9   19515   19512       8   19518   19512       8
   19518   19515       9   19524   19521       8   19527   19521       8   19527
   19524       9   19533   19530       8   19536   19530       8   19536   19533
       9   19542   19539       8   19545   19539       8   19545   19542       9
   19551   19548       8   19554   19548       8   19554   19551       9   19560
   19557       8   19563   19557       8   19563   19560       9   19569   19566
       8   19572   19566       8   19572   19569       9   19578   19575       8
   19581   19575       8   19581   19578       9   19587   19584       8   19590
   19584       8   19590   19587       9   19596   19593       8   19599   19593
       8   19599   19596       9   19605   19602       8   19608   19602       8
   19608   19605       9   19614   19611       8   19617   19611       8   19617
   19614       9   19623   19620       8   19626   19620       8   19626   19623
       9   19632   19629       8   19635   19629       8   19635   19632       9
   19641   19638       8   19644   19638       8   19644   19641       9   19650
   19647       8   19653   19647       8   19653   19650       9   19659   19656
       8   19662   19656       8   19662   19659       9   19668   19665       8
   19671   19665       8   19671   19668       9   19677   19674       8   19680
   19674       8   19680   19677       9   19686   19683       8   19689   19683
       8   19689   19686       9   19695   19692       8   19698   19692       8
   19698   19695       9   19704   19701       8   19707   19701       8   19707
   19704       9   19713   19710       8   19716   19710       8   19716   19713
       9   19722   19719       8   19725   19719       8   19725   19722       9
   19731   19728       8   19734   19728       8   19734   19731       9   19740
   19737       8   19743   19737       8   19743   19740       9   19749   19746
       8   19752   19746       8   19752   19749       9   19758   19755       8
   19761   19755       8   19761   19758       9   19767   19764       8   19770
   19764       8   19770   19767       9   19776   19773       8   19779   19773
       8   19779   19776       9   19785   19782       8   19788   19782       8
   19788   19785       9   19794   19791       8   19797   19791       8   19797
   19794       9   19803   19800       8   19806   19800       8   19806   19803
       9   19812   19809       8   19815   19809       8   19815   19812       9
   19821   19818       8   19824   19818       8   19824   19821       9   19830
   19827       8   19833   19827       8   19833   19830       9   19839   19836
       8   19842   19836       8   19842   19839       9   19848   19845       8
   19851   19845       8   19851   19848       9   19857   19854       8   19860
   19854       8   19860   19857       9   19866   19863       8   19869   19863
       8   19869   19866       9   19875   19872       8   19878   19872       8
   19878   19875       9   19884   19881       8   19887   19881       8   19887
   19884       9   19893   19890       8   19896   19890       8   19896   19893
       9   19902   19899       8   19905   19899       8   19905   19902       9
   19911   19908       8   19914   19908       8   19914   19911       9   19920
   19917       8   19923   19917       8   19923   19920       9   19929   19926
       8   19932   19926       8   19932   19929       9   19938   19935       8
   19941   19935       8   19941   19938       9   19947   19944       8   19950
   19944       8   19950   19947       9   19956   19953       8   19959   19953
       8   19959   19956       9   19965   19962       8   19968   19962       8
   19968   19965       9   19974   19971       8   19977   19971       8   19977
   19974       9   19983   19980       8   19986   19980       8   19986   19983
       9   19992   19989       8   19995   19989       8   19995   19992       9
   20001   19998       8   20004   19998       8   20004   20001       9   20010
   20007       8   20013   20007       8   20013   20010       9   20019   20016
       8   20022   20016       8   20022   20019       9   20028   20025       8
   20031   20025       8   20031   20028       9   20037   20034       8   20040
   20034       8   20040   20037       9   20046   20043       8   20049   20043
       8   20049   20046       9   20055   20052       8   20058   20052       8
   20058   20055       9   20064   20061       8   20067   20061       8   20067
   20064       9   20073   20070       8   20076   20070       8   20076   20073
       9   20082   20079       8   20085   20079       8   20085   20082       9
   20091   20088       8   20094   20088       8   20094   20091       9   20100
   20097       8   20103   20097       8   20103   20100       9   20109   20106
       8   20112   20106       8   20112   20109       9   20118   20115       8
   20121   20115       8   20121   20118       9   20127   20124       8   20130
   20124       8   20130   20127       9   20136   20133       8   20139   20133
       8   20139   20136       9   20145   20142       8   20148   20142       8
   20148   20145       9   20154   20151       8   20157   20151       8   20157
   20154       9   20163   20160       8   20166   20160       8   20166   20163
       9   20172   20169       8   20175   20169       8   20175   20172       9
   20181   20178       8   20184   20178       8   20184   20181       9   20190
   20187       8   20193   20187       8   20193   20190       9   20199   20196
       8   20202   20196       8   20202   20199       9   20208   20205       8
   20211   20205       8   20211   20208       9   20217   20214       8   20220
   20214       8   20220   20217       9   20226   20223       8   20229   20223
       8   20229   20226       9   20235   20232       8   20238   20232       8
   20238   20235       9   20244   20241       8   20247   20241       8   20247
   20244       9   20253   20250       8   20256   20250       8   20256   20253
       9   20262   20259       8   20265   20259       8   20265   20262       9
   20271   20268       8   20274   20268       8   20274   20271       9   20280
   20277       8   20283   20277       8   20283   20280       9   20289   20286
       8   20292   20286       8   20292   20289       9   20298   20295       8
   20301   20295       8   20301   20298       9   20307   20304       8   20310
   20304       8   20310   20307       9   20316   20313       8   20319   20313
       8   20319   20316       9   20325   20322       8   20328   20322       8
   20328   20325       9   20334   20331       8   20337   20331       8   20337
   20334       9   20343   20340       8   20346   20340       8   20346   20343
       9   20352   20349       8   20355   20349       8   20355   20352       9
   20361   20358       8   20364   20358       8   20364   20361       9   20370
   20367       8   20373   20367       8   20373   20370       9   20379   20376
       8   20382   20376       8   20382   20379       9   20388   20385       8
   20391   20385       8   20391   20388       9   20397   20394       8   20400
   20394       8   20400   20397       9   20406   20403       8   20409   20403
       8   20409   20406       9   20415   20412       8   20418   20412       8
   20418   20415       9   20424   20421       8   20427   20421       8   20427
   20424       9   20433   20430       8   20436   20430       8   20436   20433
       9   20442   20439       8   20445   20439       8   20445   20442       9
   20451   20448       8   20454   20448       8   20454   20451       9   20460
   20457       8   20463   20457       8   20463   20460       9   20469   20466
       8   20472   20466       8   20472   20469       9   20478   20475       8
   20481   20475       8   20481   20478       9   20487   20484       8   20490
   20484       8   20490   20487       9   20496   20493       8   20499   20493
       8   20499   20496       9   20505   20502       8   20508   20502       8
   20508   20505       9   20514   20511       8   20517   20511       8   20517
   20514       9   20523   20520       8   20526   20520       8   20526   20523
       9   20532   20529       8   20535   20529       8   20535   20532       9
   20541   20538       8   20544   20538       8   20544   20541       9   20550
   20547       8   20553   20547       8   20553   20550       9   20559   20556
       8   20562   20556       8   20562   20559       9   20568   20565       8
   20571   20565       8   20571   20568       9   20577   20574       8   20580
   20574       8   20580   20577       9   20586   20583       8   20589   20583
       8   20589   20586       9   20595   20592       8   20598   20592       8
   20598   20595       9   20604   20601       8   20607   20601       8   20607
   20604       9   20613   20610       8   20616   20610       8   20616   20613
       9   20622   20619       8   20625   20619       8   20625   20622       9
   20631   20628       8   20634   20628       8   20634   20631       9   20640
   20637       8   20643   20637       8   20643   20640       9   20649   20646
       8   20652   20646       8   20652   20649       9   20658   20655       8
   20661   20655       8   20661   20658       9   20667   20664       8   20670
   20664       8   20670   20667       9   20676   20673       8   20679   20673
       8   20679   20676       9   20685   20682       8   20688   20682       8
   20688   20685       9   20694   20691       8   20697   20691       8   20697
   20694       9   20703   20700       8   20706   20700       8   20706   20703
       9   20712   20709       8   20715   20709       8   20715   20712       9
   20721   20718       8   20724   20718       8   20724   20721       9   20730
   20727       8   20733   20727       8   20733   20730       9   20739   20736
       8   20742   20736       8   20742   20739       9   20748   20745       8
   20751   20745       8   20751   20748       9   20757   20754       8   20760
   20754       8   20760   20757       9   20766   20763       8   20769   20763
       8   20769   20766       9   20775   20772       8   20778   20772       8
   20778   20775       9   20784   20781       8   20787   20781       8   20787
   20784       9   20793   20790       8   20796   20790       8   20796   20793
       9   20802   20799       8   20805   20799       8   20805   20802       9
   20811   20808       8   20814   20808       8   20814   20811       9   20820
   20817       8   20823   20817       8   20823   20820       9   20829   20826
       8   20832   20826       8   20832   20829       9   20838   20835       8
   20841   20835       8   20841   20838       9   20847   20844       8   20850
   20844       8   20850   20847       9   20856   20853       8   20859   20853
       8   20859   20856       9   20865   20862       8   20868   20862       8
   20868   20865       9   20874   20871       8   20877   20871       8   20877
   20874       9   20883   20880       8   20886   20880       8   20886   20883
       9   20892   20889       8   20895   20889       8   20895   20892       9
   20901   20898       8   20904   20898       8   20904   20901       9   20910
   20907       8   20913   20907       8   20913   20910       9   20919   20916
       8   20922   20916       8   20922   20919       9   20928   20925       8
   20931   20925       8   20931   20928       9   20937   20934       8   20940
   20934       8   20940   20937       9   20946   20943       8   20949   20943
       8   20949   20946       9   20955   20952       8   20958   20952       8
   20958   20955       9   20964   20961       8   20967   20961       8   20967
   20964       9   20973   20970       8   20976   20970       8   20976   20973
       9   20982   20979       8   20985   20979       8   20985   20982       9
   20991   20988       8   20994   20988       8   20994   20991       9   21000
   20997       8   21003   20997       8   21003   21000       9   21009   21006
       8   21012   21006       8   21012   21009       9   21018   21015       8
   21021   21015       8   21021   21018       9   21027   21024       8   21030
   21024       8   21030   21027       9   21036   21033       8   21039   21033
       8   21039   21036       9   21045   21042       8   21048   21042       8
   21048   21045       9   21054   21051       8   21057   21051       8   21057
   21054       9   21063   21060       8   21066   21060       8   21066   21063
       9   21072   21069       8   21075   21069       8   21075   21072       9
   21081   21078       8   21084   21078       8   21084   21081       9   21090
   21087       8   21093   21087       8   21093   21090       9   21099   21096
       8   21102   21096       8   21102   21099       9   21108   21105       8
   21111   21105       8   21111   21108       9   21117   21114       8   21120
   21114       8   21120   21117       9   21126   21123       8   21129   21123
       8   21129   21126       9   21135   21132       8   21138   21132       8
   21138   21135       9   21144   21141       8   21147   21141       8   21147
   21144       9   21153   21150       8   21156   21150       8   21156   21153
       9   21162   21159       8   21165   21159       8   21165   21162       9
   21171   21168       8   21174   21168       8   21174   21171       9   21180
   21177       8   21183   21177       8   21183   21180       9   21189   21186
       8   21192   21186       8   21192   21189       9   21198   21195       8
   21201   21195       8   21201   21198       9   21207   21204       8   21210
   21204       8   21210   21207       9   21216   21213       8   21219   21213
       8   21219   21216       9   21225   21222       8   21228   21222       8
   21228   21225       9   21234   21231       8   21237   21231       8   21237
   21234       9   21243   21240       8   21246   21240       8   21246   21243
       9   21252   21249       8   21255   21249       8   21255   21252       9
   21261   21258       8   21264   21258       8   21264   21261       9   21270
   21267       8   21273   21267       8   21273   21270       9   21279   21276
       8   21282   21276       8   21282   21279       9   21288   21285       8
   21291   21285       8   21291   21288       9   21297   21294       8   21300
   21294       8   21300   21297       9   21306   21303       8   21309   21303
       8   21309   21306       9   21315   21312       8   21318   21312       8
   21318   21315       9   21324   21321       8   21327   21321       8   21327
   21324       9   21333   21330       8   21336   21330       8   21336   21333
       9   21342   21339       8   21345   21339       8   21345   21342       9
   21351   21348       8   21354   21348       8   21354   21351       9   21360
   21357       8   21363   21357       8   21363   21360       9   21369   21366
       8   21372   21366       8   21372   21369       9   21378   21375       8
   21381   21375       8   21381   21378       9   21387   21384       8   21390
   21384       8   21390   21387       9   21396   21393       8   21399   21393
       8   21399   21396       9   21405   21402       8   21408   21402       8
   21408   21405       9   21414   21411       8   21417   21411       8   21417
   21414       9   21423   21420       8   21426   21420       8   21426   21423
       9   21432   21429       8   21435   21429       8   21435   21432       9
   21441   21438       8   21444   21438       8   21444   21441       9   21450
   21447       8   21453   21447       8   21453   21450       9   21459   21456
       8   21462   21456       8   21462   21459       9   21468   21465       8
   21471   21465       8   21471   21468       9   21477   21474       8   21480
   21474       8   21480   21477       9   21486   21483       8   21489   21483
       8   21489   21486       9   21495   21492       8   21498   21492       8
   21498   21495       9   21504   21501       8   21507   21501       8   21507
   21504       9   21513   21510       8   21516   21510       8   21516   21513
       9   21522   21519       8   21525   21519       8   21525   21522       9
   21531   21528       8   21534   21528       8   21534   21531       9   21540
   21537       8   21543   21537       8   21543   21540       9   21549   21546
       8   21552   21546       8   21552   21549       9   21558   21555       8
   21561   21555       8   21561   21558       9   21567   21564       8   21570
   21564       8   21570   21567       9   21576   21573       8   21579   21573
       8   21579   21576       9   21585   21582       8   21588   21582       8
   21588   21585       9   21594   21591       8   21597   21591       8   21597
   21594       9   21603   21600       8   21606   21600       8   21606   21603
       9   21612   21609       8   21615   21609       8   21615   21612       9
   21621   21618       8   21624   21618       8   21624   21621       9   21630
   21627       8   21633   21627       8   21633   21630       9   21639   21636
       8   21642   21636       8   21642   21639       9   21648   21645       8
   21651   21645       8   21651   21648       9   21657   21654       8   21660
   21654       8   21660   21657       9   21666   21663       8   21669   21663
       8   21669   21666       9   21675   21672       8   21678   21672       8
   21678   21675       9   21684   21681       8   21687   21681       8   21687
   21684       9   21693   21690       8   21696   21690       8   21696   21693
       9   21702   21699       8   21705   21699       8   21705   21702       9
   21711   21708       8   21714   21708       8   21714   21711       9   21720
   21717       8   21723   21717       8   21723   21720       9   21729   21726
       8   21732   21726       8   21732   21729       9   21738   21735       8
   21741   21735       8   21741   21738       9   21747   21744       8   21750
   21744       8   21750   21747       9   21756   21753       8   21759   21753
       8   21759   21756       9   21765   21762       8   21768   21762       8
   21768   21765       9   21774   21771       8   21777   21771       8   21777
   21774       9   21783   21780       8   21786   21780       8   21786   21783
       9   21792   21789       8   21795   21789       8   21795   21792       9
   21801   21798       8   21804   21798       8   21804   21801       9   21810
   21807       8   21813   21807       8   21813   21810       9   21819   21816
       8   21822   21816       8   21822   21819       9   21828   21825       8
   21831   21825       8   21831   21828       9   21837   21834       8   21840
   21834       8   21840   21837       9   21846   21843       8   21849   21843
       8   21849   21846       9   21855   21852       8   21858   21852       8
   21858   21855       9   21864   21861       8   21867   21861       8   21867
   21864       9   21873   21870       8   21876   21870       8   21876   21873
       9   21882   21879       8   21885   21879       8   21885   21882       9
   21891   21888       8   21894   21888       8   21894   21891       9   21900
   21897       8   21903   21897       8   21903   21900       9   21909   21906
       8   21912   21906       8   21912   21909       9   21918   21915       8
   21921   21915       8   21921   21918       9   21927   21924       8   21930
   21924       8   21930   21927       9   21936   21933       8   21939   21933
       8   21939   21936       9   21945   21942       8   21948   21942       8
   21948   21945       9   21954   21951       8   21957   21951       8   21957
   21954       9   21963   21960       8   21966   21960       8   21966   21963
       9   21972   21969       8   21975   21969       8   21975   21972       9
   21981   21978       8   21984   21978       8   21984   21981       9   21990
   21987       8   21993   21987       8   21993   21990       9   21999   21996
       8   22002   21996       8   22002   21999       9   22008   22005       8
   22011   22005       8   22011   22008       9   22017   22014       8   22020
   22014       8   22020   22017       9   22026   22023       8   22029   22023
       8   22029   22026       9   22035   22032       8   22038   22032       8
   22038   22035       9   22044   22041       8   22047   22041       8   22047
   22044       9   22053   22050       8   22056   22050       8   22056   22053
       9   22062   22059       8   22065   22059       8   22065   22062       9
   22071   22068       8   22074   22068       8   22074   22071       9   22080
   22077       8   22083   22077       8   22083   22080       9   22089   22086
       8   22092   22086       8   22092   22089       9   22098   22095       8
   22101   22095       8   22101   22098       9   22107   22104       8   22110
   22104       8   22110   22107       9   22116   22113       8   22119   22113
       8   22119   22116       9   22125   22122       8   22128   22122       8
   22128   22125       9   22134   22131       8   22137   22131       8   22137
   22134       9   22143   22140       8   22146   22140       8   22146   22143
       9   22152   22149       8   22155   22149       8   22155   22152       9
   22161   22158       8   22164   22158       8   22164   22161       9   22170
   22167       8   22173   22167       8   22173   22170       9   22179   22176
       8   22182   22176       8   22182   22179       9   22188   22185       8
   22191   22185       8   22191   22188       9   22197   22194       8   22200
   22194       8   22200   22197       9   22206   22203       8   22209   22203
       8   22209   22206       9   22215   22212       8   22218   22212       8
   22218   22215       9   22224   22221       8   22227   22221       8   22227
   22224       9   22233   22230       8   22236   22230       8   22236   22233
       9   22242   22239       8   22245   22239       8   22245   22242       9
   22251   22248       8   22254   22248       8   22254   22251       9   22260
   22257       8   22263   22257       8   22263   22260       9   22269   22266
       8   22272   22266       8   22272   22269       9   22278   22275       8
   22281   22275       8   22281   22278       9   22287   22284       8   22290
   22284       8   22290   22287       9   22296   22293       8   22299   22293
       8   22299   22296       9   22305   22302       8   22308   22302       8
   22308   22305       9   22314   22311       8   22317   22311       8   22317
   22314       9   22323   22320       8   22326   22320       8   22326   22323
       9   22332   22329       8   22335   22329       8   22335   22332       9
   22341   22338       8   22344   22338       8   22344   22341       9   22350
   22347       8   22353   22347       8   22353   22350       9   22359   22356
       8   22362   22356       8   22362   22359       9   22368   22365       8
   22371   22365       8   22371   22368       9   22377   22374       8   22380
   22374       8   22380   22377       9   22386   22383       8   22389   22383
       8   22389   22386       9   22395   22392       8   22398   22392       8
   22398   22395       9   22404   22401       8   22407   22401       8   22407
   22404       9   22413   22410       8   22416   22410       8   22416   22413
       9   22422   22419       8   22425   22419       8   22425   22422       9
   22431   22428       8   22434   22428       8   22434   22431       9   22440
   22437       8   22443   22437       8   22443   22440       9   22449   22446
       8   22452   22446       8   22452   22449       9   22458   22455       8
   22461   22455       8   22461   22458       9   22467   22464       8   22470
   22464       8   22470   22467       9   22476   22473       8   22479   22473
       8   22479   22476       9   22485   22482       8   22488   22482       8
   22488   22485       9   22494   22491       8   22497   22491       8   22497
   22494       9   22503   22500       8   22506   22500       8   22506   22503
       9   22512   22509       8   22515   22509       8   22515   22512       9
   22521   22518       8   22524   22518       8   22524   22521       9   22530
   22527       8   22533   22527       8   22533   22530       9   22539   22536
       8   22542   22536       8   22542   22539       9   22548   22545       8
   22551   22545       8   22551   22548       9   22557   22554       8   22560
   22554       8   22560   22557       9   22566   22563       8   22569   22563
       8   22569   22566       9   22575   22572       8   22578   22572       8
   22578   22575       9   22584   22581       8   22587   22581       8   22587
   22584       9   22593   22590       8   22596   22590       8   22596   22593
       9   22602   22599       8   22605   22599       8   22605   22602       9
   22611   22608       8   22614   22608       8   22614   22611       9   22620
   22617       8   22623   22617       8   22623   22620       9   22629   22626
       8   22632   22626       8   22632   22629       9   22638   22635       8
   22641   22635       8   22641   22638       9   22647   22644       8   22650
   22644       8   22650   22647       9   22656   22653       8   22659   22653
       8   22659   22656       9   22665   22662       8   22668   22662       8
   22668   22665       9   22674   22671       8   22677   22671       8   22677
   22674       9   22683   22680       8   22686   22680       8   22686   22683
       9   22692   22689       8   22695   22689       8   22695   22692       9
   22701   22698       8   22704   22698       8   22704   22701       9   22710
   22707       8   22713   22707       8   22713   22710       9   22719   22716
       8   22722   22716       8   22722   22719       9   22728   22725       8
   22731   22725       8   22731   22728       9   22737   22734       8   22740
   22734       8   22740   22737       9   22746   22743       8   22749   22743
       8   22749   22746       9   22755   22752       8   22758   22752       8
   22758   22755       9   22764   22761       8   22767   22761       8   22767
   22764       9   22773   22770       8   22776   22770       8   22776   22773
       9   22782   22779       8   22785   22779       8   22785   22782       9
   22791   22788       8   22794   22788       8   22794   22791       9   22800
   22797       8   22803   22797       8   22803   22800       9   22809   22806
       8   22812   22806       8   22812   22809       9   22818   22815       8
   22821   22815       8   22821   22818       9   22827   22824       8   22830
   22824       8   22830   22827       9   22836   22833       8   22839   22833
       8   22839   22836       9   22845   22842       8   22848   22842       8
   22848   22845       9   22854   22851       8   22857   22851       8   22857
   22854       9   22863   22860       8   22866   22860       8   22866   22863
       9   22872   22869       8   22875   22869       8   22875   22872       9
   22881   22878       8   22884   22878       8   22884   22881       9   22890
   22887       8   22893   22887       8   22893   22890       9   22899   22896
       8   22902   22896       8   22902   22899       9   22908   22905       8
   22911   22905       8   22911   22908       9   22917   22914       8   22920
   22914       8   22920   22917       9   22926   22923       8   22929   22923
       8   22929   22926       9   22935   22932       8   22938   22932       8
   22938   22935       9   22944   22941       8   22947   22941       8   22947
   22944       9   22953   22950       8   22956   22950       8   22956   22953
       9   22962   22959       8   22965   22959       8   22965   22962       9
   22971   22968       8   22974   22968       8   22974   22971       9   22980
   22977       8   22983   22977       8   22983   22980       9   22989   22986
       8   22992   22986       8   22992   22989       9   22998   22995       8
   23001   22995       8   23001   22998       9   23007   23004       8   23010
   23004       8   23010   23007       9   23016   23013       8   23019   23013
       8   23019   23016       9   23025   23022       8   23028   23022       8
   23028   23025       9   23034   23031       8   23037   23031       8   23037
   23034       9   23043   23040       8   23046   23040       8   23046   23043
       9   23052   23049       8   23055   23049       8   23055   23052       9
   23061   23058       8   23064   23058       8   23064   23061       9   23070
   23067       8   23073   23067       8   23073   23070       9   23079   23076
       8   23082   23076       8   23082   23079       9   23088   23085       8
   23091   23085       8   23091   23088       9   23097   23094       8   23100
   23094       8   23100   23097       9   23106   23103       8   23109   23103
       8   23109   23106       9   23115   23112       8   23118   23112       8
   23118   23115       9   23124   23121       8   23127   23121       8   23127
   23124       9   23133   23130       8   23136   23130       8   23136   23133
       9   23142   23139       8   23145   23139       8   23145   23142       9
   23151   23148       8   23154   23148       8   23154   23151       9   23160
   23157       8   23163   23157       8   23163   23160       9   23169   23166
       8   23172   23166       8   23172   23169       9   23178   23175       8
   23181   23175       8   23181   23178       9   23187   23184       8   23190
   23184       8   23190   23187       9   23196   23193       8   23199   23193
       8   23199   23196       9   23205   23202       8   23208   23202       8
   23208   23205       9   23214   23211       8   23217   23211       8   23217
   23214       9   23223   23220       8   23226   23220       8   23226   23223
       9   23232   23229       8   23235   23229       8   23235   23232       9
   23241   23238       8   23244   23238       8   23244   23241       9   23250
   23247       8   23253   23247       8   23253   23250       9   23259   23256
       8   23262   23256       8   23262   23259       9   23268   23265       8
   23271   23265       8   23271   23268       9   23277   23274       8   23280
   23274       8   23280   23277       9   23286   23283       8   23289   23283
       8   23289   23286       9   23295   23292       8   23298   23292       8
   23298   23295       9   23304   23301       8   23307   23301       8   23307
   23304       9   23313   23310       8   23316   23310       8   23316   23313
       9   23322   23319       8   23325   23319       8   23325   23322       9
   23331   23328       8   23334   23328       8   23334   23331       9   23340
   23337       8   23343   23337       8   23343   23340       9   23349   23346
       8   23352   23346       8   23352   23349       9   23358   23355       8
   23361   23355       8   23361   23358       9   23367   23364       8   23370
   23364       8   23370   23367       9   23376   23373       8   23379   23373
       8   23379   23376       9   23385   23382       8   23388   23382       8
   23388   23385       9   23394   23391       8   23397   23391       8   23397
   23394       9   23403   23400       8   23406   23400       8   23406   23403
       9   23412   23409       8   23415   23409       8   23415   23412       9
   23421   23418       8   23424   23418       8   23424   23421       9   23430
   23427       8   23433   23427       8   23433   23430       9   23439   23436
       8   23442   23436       8   23442   23439       9   23448   23445       8
   23451   23445       8   23451   23448       9   23457   23454       8   23460
   23454       8   23460   23457       9   23466   23463       8   23469   23463
       8   23469   23466       9   23475   23472       8   23478   23472       8
   23478   23475       9   23484   23481       8   23487   23481       8   23487
   23484       9   23493   23490       8   23496   23490       8   23496   23493
       9   23502   23499       8   23505   23499       8   23505   23502       9
   23511   23508       8   23514   23508       8   23514   23511       9   23520
   23517       8   23523   23517       8   23523   23520       9   23529   23526
       8   23532   23526       8   23532   23529       9   23538   23535       8
   23541   23535       8   23541   23538       9   23547   23544       8   23550
   23544       8   23550   23547       9   23556   23553       8   23559   23553
       8   23559   23556       9   23565   23562       8   23568   23562       8
   23568   23565       9   23574   23571       8   23577   23571       8   23577
   23574       9   23583   23580       8   23586   23580       8   23586   23583
       9   23592   23589       8   23595   23589       8   23595   23592       9
   23601   23598       8   23604   23598       8   23604   23601       9   23610
   23607       8   23613   23607       8   23613   23610       9   23619   23616
       8   23622   23616       8   23622   23619       9   23628   23625       8
   23631   23625       8   23631   23628       9   23637   23634       8   23640
   23634       8   23640   23637       9   23646   23643       8   23649   23643
       8   23649   23646       9   23655   23652       8   23658   23652       8
   23658   23655       9   23664   23661       8   23667   23661       8   23667
   23664       9   23673   23670       8   23676   23670       8   23676   23673
       9   23682   23679       8   23685   23679       8   23685   23682       9
   23691   23688       8   23694   23688       8   23694   23691       9   23700
   23697       8   23703   23697       8   23703   23700       9   23709   23706
       8   23712   23706       8   23712   23709       9   23718   23715       8
   23721   23715       8   23721   23718       9   23727   23724       8   23730
   23724       8   23730   23727       9   23736   23733       8   23739   23733
       8   23739   23736       9   23745   23742       8   23748   23742       8
   23748   23745       9   23754   23751       8   23757   23751       8   23757
   23754       9   23763   23760       8   23766   23760       8   23766   23763
       9   23772   23769       8   23775   23769       8   23775   23772       9
   23781   23778       8   23784   23778       8   23784   23781       9   23790
   23787       8   23793   23787       8   23793   23790       9   23799   23796
       8   23802   23796       8   23802   23799       9   23808   23805       8
   23811   23805       8   23811   23808       9   23817   23814       8   23820
   23814       8   23820   23817       9   23826   23823       8   23829   23823
       8   23829   23826       9   23835   23832       8   23838   23832       8
   23838   23835       9   23844   23841       8   23847   23841       8   23847
   23844       9   23853   23850       8   23856   23850       8   23856   23853
       9   23862   23859       8   23865   23859       8   23865   23862       9
   23871   23868       8   23874   23868       8   23874   23871       9   23880
   23877       8   23883   23877       8   23883   23880       9   23889   23886
       8   23892   23886       8   23892   23889       9   23898   23895       8
   23901   23895       8   23901   23898       9   23907   23904       8   23910
   23904       8   23910   23907       9   23916   23913       8   23919   23913
       8   23919   23916       9   23925   23922       8   23928   23922       8
   23928   23925       9   23934   23931       8   23937   23931       8   23937
   23934       9   23943   23940       8   23946   23940       8   23946   23943
       9   23952   23949       8   23955   23949       8   23955   23952       9
   23961   23958       8   23964   23958       8   23964   23961       9   23970
   23967       8   23973   23967       8   23973   23970       9   23979   23976
       8   23982   23976       8   23982   23979       9   23988   23985       8
   23991   23985       8   23991   23988       9   23997   23994       8   24000
   23994       8   24000   23997       9   24006   24003       8   24009   24003
       8   24009   24006       9   24015   24012       8   24018   24012       8
   24018   24015       9   24024   24021       8   24027   24021       8   24027
   24024       9   24033   24030       8   24036   24030       8   24036   24033
       9   24042   24039       8   24045   24039       8   24045   24042       9
   24051   24048       8   24054   24048       8   24054   24051       9   24060
   24057       8   24063   24057       8   24063   24060       9   24069   24066
       8   24072   24066       8   24072   24069       9   24078   24075       8
   24081   24075       8   24081   24078       9   24087   24084       8   24090
   24084       8   24090   24087       9   24096   24093       8   24099   24093
       8   24099   24096       9   24105   24102       8   24108   24102       8
   24108   24105       9   24114   24111       8   24117   24111       8   24117
   24114       9   24123   24120       8   24126   24120       8   24126   24123
       9   24132   24129       8   24135   24129       8   24135   24132       9
   24141   24138       8   24144   24138       8   24144   24141       9   24150
   24147       8   24153   24147       8   24153   24150       9   24159   24156
       8   24162   24156       8   24162   24159       9   24168   24165       8
   24171   24165       8   24171   24168       9   24177   24174       8   24180
   24174       8   24180   24177       9   24186   24183       8   24189   24183
       8   24189   24186       9   24195   24192       8   24198   24192       8
   24198   24195       9   24204   24201       8   24207   24201       8   24207
   24204       9   24213   24210       8   24216   24210       8   24216   24213
       9   24222   24219       8   24225   24219       8   24225   24222       9
   24231   24228       8   24234   24228       8   24234   24231       9   24240
   24237       8   24243   24237       8   24243   24240       9   24249   24246
       8   24252   24246       8   24252   24249       9   24258   24255       8
   24261   24255       8   24261   24258       9   24267   24264       8   24270
   24264       8   24270   24267       9   24276   24273       8   24279   24273
       8   24279   24276       9   24285   24282       8   24288   24282       8
   24288   24285       9   24294   24291       8   24297   24291       8   24297
   24294       9   24303   24300       8   24306   24300       8   24306   24303
       9   24312   24309       8   24315   24309       8   24315   24312       9
   24321   24318       8   24324   24318       8   24324   24321       9   24330
   24327       8   24333   24327       8   24333   24330       9   24339   24336
       8   24342   24336       8   24342   24339       9   24348   24345       8
   24351   24345       8   24351   24348       9   24357   24354       8   24360
   24354       8   24360   24357       9   24366   24363       8   24369   24363
       8   24369   24366       9   24375   24372       8   24378   24372       8
   24378   24375       9   24384   24381       8   24387   24381       8   24387
   24384       9   24393   24390       8   24396   24390       8   24396   24393
       9   24402   24399       8   24405   24399       8   24405   24402       9
   24411   24408       8   24414   24408       8   24414   24411       9   24420
   24417       8   24423   24417       8   24423   24420       9   24429   24426
       8   24432   24426       8   24432   24429       9   24438   24435       8
   24441   24435       8   24441   24438       9   24447   24444       8   24450
   24444       8   24450   24447       9   24456   24453       8   24459   24453
       8   24459   24456       9   24465   24462       8   24468   24462       8
   24468   24465       9   24474   24471       8   24477   24471       8   24477
   24474       9   24483   24480       8   24486   24480       8   24486   24483
       9   24492   24489       8   24495   24489       8   24495   24492       9
   24501   24498       8   24504   24498       8   24504   24501       9   24510
   24507       8   24513   24507       8   24513   24510       9   24519   24516
       8   24522   24516       8   24522   24519       9   24528   24525       8
   24531   24525       8   24531   24528       9   24537   24534       8   24540
   24534       8   24540   24537       9   24546   24543       8   24549   24543
       8   24549   24546       9   24555   24552       8   24558   24552       8
   24558   24555       9   24564   24561       8   24567   24561       8   24567
   24564       9   24573   24570       8   24576   24570       8   24576   24573
       9   24582   24579       8   24585   24579       8   24585   24582       9
   24591   24588       8   24594   24588       8   24594   24591       9   24600
   24597       8   24603   24597       8   24603   24600       9   24609   24606
       8   24612   24606       8   24612   24609       9   24618   24615       8
   24621   24615       8   24621   24618       9   24627   24624       8   24630
   24624       8   24630   24627       9   24636   24633       8   24639   24633
       8   24639   24636       9   24645   24642       8   24648   24642       8
   24648   24645       9   24654   24651       8   24657   24651       8   24657
   24654       9   24663   24660       8   24666   24660       8   24666   24663
       9   24672   24669       8   24675   24669       8   24675   24672       9
   24681   24678       8   24684   24678       8   24684   24681       9   24690
   24687       8   24693   24687       8   24693   24690       9   24699   24696
       8   24702   24696       8   24702   24699       9   24708   24705       8
   24711   24705       8   24711   24708       9   24717   24714       8   24720
   24714       8   24720   24717       9   24726   24723       8   24729   24723
       8   24729   24726       9   24735   24732       8   24738   24732       8
   24738   24735       9   24744   24741       8   24747   24741       8   24747
   24744       9   24753   24750       8   24756   24750       8   24756   24753
       9   24762   24759       8   24765   24759       8   24765   24762       9
   24771   24768       8   24774   24768       8   24774   24771       9   24780
   24777       8   24783   24777       8   24783   24780       9   24789   24786
       8   24792   24786       8   24792   24789       9   24798   24795       8
   24801   24795       8   24801   24798       9   24807   24804       8   24810
   24804       8   24810   24807       9   24816   24813       8   24819   24813
       8   24819   24816       9   24825   24822       8   24828   24822       8
   24828   24825       9   24834   24831       8   24837   24831       8   24837
   24834       9   24843   24840       8   24846   24840       8   24846   24843
       9   24852   24849       8   24855   24849       8   24855   24852       9
   24861   24858       8   24864   24858       8   24864   24861       9   24870
   24867       8   24873   24867       8   24873   24870       9   24879   24876
       8   24882   24876       8   24882   24879       9   24888   24885       8
   24891   24885       8   24891   24888       9   24897   24894       8   24900
   24894       8   24900   24897       9   24906   24903       8   24909   24903
       8   24909   24906       9   24915   24912       8   24918   24912       8
   24918   24915       9   24924   24921       8   24927   24921       8   24927
   24924       9   24933   24930       8   24936   24930       8   24936   24933
       9   24942   24939       8   24945   24939       8   24945   24942       9
   24951   24948       8   24954   24948       8   24954   24951       9   24960
   24957       8   24963   24957       8   24963   24960       9   24969   24966
       8   24972   24966       8   24972   24969       9   24978   24975       8
   24981   24975       8   24981   24978       9   24987   24984       8   24990
   24984       8   24990   24987       9   24996   24993       8   24999   24993
       8   24999   24996       9   25005   25002       8   25008   25002       8
   25008   25005       9   25014   25011       8   25017   25011       8   25017
   25014       9   25023   25020       8   25026   25020       8   25026   25023
       9   25032   25029       8   25035   25029       8   25035   25032       9
   25041   25038       8   25044   25038       8   25044   25041       9   25050
   25047       8   25053   25047       8   25053   25050       9   25059   25056
       8   25062   25056       8   25062   25059       9   25068   25065       8
   25071   25065       8   25071   25068       9   25077   25074       8   25080
   25074       8   25080   25077       9   25086   25083       8   25089   25083
       8   25089   25086       9   25095   25092       8   25098   25092       8
   25098   25095       9   25104   25101       8   25107   25101       8   25107
   25104       9   25113   25110       8   25116   25110       8   25116   25113
       9   25122   25119       8   25125   25119       8   25125   25122       9
   25131   25128       8   25134   25128       8   25134   25131       9   25140
   25137       8   25143   25137       8   25143   25140       9   25149   25146
       8   25152   25146       8   25152   25149       9   25158   25155       8
   25161   25155       8   25161   25158       9   25167   25164       8   25170
   25164       8   25170   25167       9   25176   25173       8   25179   25173
       8   25179   25176       9   25185   25182       8   25188   25182       8
   25188   25185       9   25194   25191       8   25197   25191       8   25197
   25194       9   25203   25200       8   25206   25200       8   25206   25203
       9   25212   25209       8   25215   25209       8   25215   25212       9
   25221   25218       8   25224   25218       8   25224   25221       9   25230
   25227       8   25233   25227       8   25233   25230       9   25239   25236
       8   25242   25236       8   25242   25239       9   25248   25245       8
   25251   25245       8   25251   25248       9   25257   25254       8   25260
   25254       8   25260   25257       9   25266   25263       8   25269   25263
       8   25269   25266       9   25275   25272       8   25278   25272       8
   25278   25275       9   25284   25281       8   25287   25281       8   25287
   25284       9   25293   25290       8   25296   25290       8   25296   25293
       9   25302   25299       8   25305   25299       8   25305   25302       9
   25311   25308       8   25314   25308       8   25314   25311       9   25320
   25317       8   25323   25317       8   25323   25320       9   25329   25326
       8   25332   25326       8   25332   25329       9   25338   25335       8
   25341   25335       8   25341   25338       9   25347   25344       8   25350
   25344       8   25350   25347       9   25356   25353       8   25359   25353
       8   25359   25356       9   25365   25362       8   25368   25362       8
   25368   25365       9   25374   25371       8   25377   25371       8   25377
   25374       9   25383   25380       8   25386   25380       8   25386   25383
       9   25392   25389       8   25395   25389       8   25395   25392       9
   25401   25398       8   25404   25398       8   25404   25401       9   25410
   25407       8   25413   25407       8   25413   25410       9   25419   25416
       8   25422   25416       8   25422   25419       9   25428   25425       8
   25431   25425       8   25431   25428       9   25437   25434       8   25440
   25434       8   25440   25437       9   25446   25443       8   25449   25443
       8   25449   25446       9   25455   25452       8   25458   25452       8
   25458   25455       9   25464   25461       8   25467   25461       8   25467
   25464       9   25473   25470       8   25476   25470       8   25476   25473
       9   25482   25479       8   25485   25479       8   25485   25482       9
   25491   25488       8   25494   25488       8   25494   25491       9   25500
   25497       8   25503   25497       8   25503   25500       9   25509   25506
       8   25512   25506       8   25512   25509       9   25518   25515       8
   25521   25515       8   25521   25518       9   25527   25524       8   25530
   25524       8   25530   25527       9   25536   25533       8   25539   25533
       8   25539   25536       9   25545   25542       8   25548   25542       8
   25548   25545       9   25554   25551       8   25557   25551       8   25557
   25554       9   25563   25560       8   25566   25560       8   25566   25563
       9   25572   25569       8   25575   25569       8   25575   25572       9
   25581   25578       8   25584   25578       8   25584   25581       9   25590
   25587       8   25593   25587       8   25593   25590       9   25599   25596
       8   25602   25596       8   25602   25599       9   25608   25605       8
   25611   25605       8   25611   25608       9   25617   25614       8   25620
   25614       8   25620   25617       9   25626   25623       8   25629   25623
       8   25629   25626       9   25635   25632       8   25638   25632       8
   25638   25635       9   25644   25641       8   25647   25641       8   25647
   25644       9   25653   25650       8   25656   25650       8   25656   25653
       9   25662   25659       8   25665   25659       8   25665   25662       9
   25671   25668       8   25674   25668       8   25674   25671       9   25680
   25677       8   25683   25677       8   25683   25680       9   25689   25686
       8   25692   25686       8   25692   25689       9   25698   25695       8
   25701   25695       8   25701   25698       9   25707   25704       8   25710
   25704       8   25710   25707       9   25716   25713       8   25719   25713
       8   25719   25716       9   25725   25722       8   25728   25722       8
   25728   25725       9   25734   25731       8   25737   25731       8   25737
   25734       9   25743   25740       8   25746   25740       8   25746   25743
       9   25752   25749       8   25755   25749       8   25755   25752       9
   25761   25758       8   25764   25758       8   25764   25761       9   25770
   25767       8   25773   25767       8   25773   25770       9   25779   25776
       8   25782   25776       8   25782   25779       9   25788   25785       8
   25791   25785       8   25791   25788       9   25797   25794       8   25800
   25794       8   25800   25797       9   25806   25803       8   25809   25803
       8   25809   25806       9   25815   25812       8   25818   25812       8
   25818   25815       9   25824   25821       8   25827   25821       8   25827
   25824       9   25833   25830       8   25836   25830       8   25836   25833
       9   25842   25839       8   25845   25839       8   25845   25842       9
   25851   25848       8   25854   25848       8   25854   25851       9   25860
   25857       8   25863   25857       8   25863   25860       9   25869   25866
       8   25872   25866       8   25872   25869       9   25878   25875       8
   25881   25875       8   25881   25878       9   25887   25884       8   25890
   25884       8   25890   25887       9   25896   25893       8   25899   25893
       8   25899   25896       9   25905   25902       8   25908   25902       8
   25908   25905       9   25914   25911       8   25917   25911       8   25917
   25914       9   25923   25920       8   25926   25920       8   25926   25923
       9   25932   25929       8   25935   25929       8   25935   25932       9
   25941   25938       8   25944   25938       8   25944   25941       9   25950
   25947       8   25953   25947       8   25953   25950       9   25959   25956
       8   25962   25956       8   25962   25959       9   25968   25965       8
   25971   25965       8   25971   25968       9   25977   25974       8   25980
   25974       8   25980   25977       9   25986   25983       8   25989   25983
       8   25989   25986       9   25995   25992       8   25998   25992       8
   25998   25995       9   26004   26001       8   26007   26001       8   26007
   26004       9   26013   26010       8   26016   26010       8   26016   26013
       9   26022   26019       8   26025   26019       8   26025   26022       9
   26031   26028       8   26034   26028       8   26034   26031       9   26040
   26037       8   26043   26037       8   26043   26040       9   26049   26046
       8   26052   26046       8   26052   26049       9   26058   26055       8
   26061   26055       8   26061   26058       9   26067   26064       8   26070
   26064       8   26070   26067       9   26076   26073       8   26079   26073
       8   26079   26076       9   26085   26082       8   26088   26082       8
   26088   26085       9   26094   26091       8   26097   26091       8   26097
   26094       9   26103   26100       8   26106   26100       8   26106   26103
       9   26112   26109       8   26115   26109       8   26115   26112       9
   26121   26118       8   26124   26118       8   26124   26121       9   26130
   26127       8   26133   26127       8   26133   26130       9   26139   26136
       8   26142   26136       8   26142   26139       9   26148   26145       8
   26151   26145       8   26151   26148       9   26157   26154       8   26160
   26154       8   26160   26157       9   26166   26163       8   26169   26163
       8   26169   26166       9   26175   26172       8   26178   26172       8
   26178   26175       9   26184   26181       8   26187   26181       8   26187
   26184       9   26193   26190       8   26196   26190       8   26196   26193
       9   26202   26199       8   26205   26199       8   26205   26202       9
   26211   26208       8   26214   26208       8   26214   26211       9   26220
   26217       8   26223   26217       8   26223   26220       9   26229   26226
       8   26232   26226       8   26232   26229       9   26238   26235       8
   26241   26235       8   26241   26238       9   26247   26244       8   26250
   26244       8   26250   26247       9   26256   26253       8   26259   26253
       8   26259   26256       9   26265   26262       8   26268   26262       8
   26268   26265       9   26274   26271       8   26277   26271       8   26277
   26274       9   26283   26280       8   26286   26280       8   26286   26283
       9   26292   26289       8   26295   26289       8   26295   26292       9
   26301   26298       8   26304   26298       8   26304   26301       9   26310
   26307       8   26313   26307       8   26313   26310       9   26319   26316
       8   26322   26316       8   26322   26319       9   26328   26325       8
   26331   26325       8   26331   26328       9   26337   26334       8   26340
   26334       8   26340   26337       9   26346   26343       8   26349   26343
       8   26349   26346       9   26355   26352       8   26358   26352       8
   26358   26355       9   26364   26361       8   26367   26361       8   26367
   26364       9   26373   26370       8   26376   26370       8   26376   26373
       9   26382   26379       8   26385   26379       8   26385   26382       9
   26391   26388       8   26394   26388       8   26394   26391       9   26400
   26397       8   26403   26397       8   26403   26400       9   26409   26406
       8   26412   26406       8   26412   26409       9   26418   26415       8
   26421   26415       8   26421   26418       9   26427   26424       8   26430
   26424       8   26430   26427       9   26436   26433       8   26439   26433
       8   26439   26436       9   26445   26442       8   26448   26442       8
   26448   26445       9   26454   26451       8   26457   26451       8   26457
   26454       9   26463   26460       8   26466   26460       8   26466   26463
       9   26472   26469       8   26475   26469       8   26475   26472       9
   26481   26478       8   26484   26478       8   26484   26481       9   26490
   26487       8   26493   26487       8   26493   26490       9   26499   26496
       8   26502   26496       8   26502   26499       9   26508   26505       8
   26511   26505       8   26511   26508       9   26517   26514       8   26520
   26514       8   26520   26517       9   26526   26523       8   26529   26523
       8   26529   26526       9   26535   26532       8   26538   26532       8
   26538   26535       9   26544   26541       8   26547   26541       8   26547
   26544       9   26553   26550       8   26556   26550       8   26556   26553
       9   26562   26559       8   26565   26559       8   26565   26562       9
   26571   26568       8   26574   26568       8   26574   26571       9   26580
   26577       8   26583   26577       8   26583   26580       9   26589   26586
       8   26592   26586       8   26592   26589       9   26598   26595       8
   26601   26595       8   26601   26598       9   26607   26604       8   26610
   26604       8   26610   26607       9   26616   26613       8   26619   26613
       8   26619   26616       9   26625   26622       8   26628   26622       8
   26628   26625       9   26634   26631       8   26637   26631       8   26637
   26634       9   26643   26640       8   26646   26640       8   26646   26643
       9   26652   26649       8   26655   26649       8   26655   26652       9
   26661   26658       8   26664   26658       8   26664   26661       9   26670
   26667       8   26673   26667       8   26673   26670       9   26679   26676
       8   26682   26676       8   26682   26679       9   26688   26685       8
   26691   26685       8   26691   26688       9   26697   26694       8   26700
   26694       8   26700   26697       9   26706   26703       8   26709   26703
       8   26709   26706       9   26715   26712       8   26718   26712       8
   26718   26715       9   26724   26721       8   26727   26721       8   26727
   26724       9   26733   26730       8   26736   26730       8   26736   26733
       9   26742   26739       8   26745   26739       8   26745   26742       9
   26751   26748       8   26754   26748       8   26754   26751       9   26760
   26757       8   26763   26757       8   26763   26760       9   26769   26766
       8   26772   26766       8   26772   26769       9   26778   26775       8
   26781   26775       8   26781   26778       9   26787   26784       8   26790
   26784       8   26790   26787       9   26796   26793       8   26799   26793
       8   26799   26796       9   26805   26802       8   26808   26802       8
   26808   26805       9   26814   26811       8   26817   26811       8   26817
   26814       9   26823   26820       8   26826   26820       8   26826   26823
       9   26832   26829       8   26835   26829       8   26835   26832       9
   26841   26838       8   26844   26838       8   26844   26841       9   26850
   26847       8   26853   26847       8   26853   26850       9   26859   26856
       8   26862   26856       8   26862   26859       9   26868   26865       8
   26871   26865       8   26871   26868       9   26877   26874       8   26880
   26874       8   26880   26877       9   26886   26883       8   26889   26883
       8   26889   26886       9   26895   26892       8   26898   26892       8
   26898   26895       9   26904   26901       8   26907   26901       8   26907
   26904       9   26913   26910       8   26916   26910       8   26916   26913
       9   26922   26919       8   26925   26919       8   26925   26922       9
   26931   26928       8   26934   26928       8   26934   26931       9   26940
   26937       8   26943   26937       8   26943   26940       9   26949   26946
       8   26952   26946       8   26952   26949       9   26958   26955       8
   26961   26955       8   26961   26958       9   26967   26964       8   26970
   26964       8   26970   26967       9   26976   26973       8   26979   26973
       8   26979   26976       9   26985   26982       8   26988   26982       8
   26988   26985       9   26994   26991       8   26997   26991       8   26997
   26994       9   27003   27000       8   27006   27000       8   27006   27003
       9   27012   27009       8   27015   27009       8   27015   27012       9
   27021   27018       8   27024   27018       8   27024   27021       9   27030
   27027       8   27033   27027       8   27033   27030       9   27039   27036
       8   27042   27036       8   27042   27039       9   27048   27045       8
   27051   27045       8   27051   27048       9   27057   27054       8   27060
   27054       8   27060   27057       9   27066   27063       8   27069   27063
       8   27069   27066       9   27075   27072       8   27078   27072       8
   27078   27075       9   27084   27081       8   27087   27081       8   27087
   27084       9   27093   27090       8   27096   27090       8   27096   27093
       9   27102   27099       8   27105   27099       8   27105   27102       9
   27111   27108       8   27114   27108       8   27114   27111       9   27120
   27117       8   27123   27117       8   27123   27120       9   27129   27126
       8   27132   27126       8   27132   27129       9   27138   27135       8
   27141   27135       8   27141   27138       9   27147   27144       8   27150
   27144       8   27150   27147       9   27156   27153       8   27159   27153
       8   27159   27156       9   27165   27162       8   27168   27162       8
   27168   27165       9   27174   27171       8   27177   27171       8   27177
   27174       9   27183   27180       8   27186   27180       8   27186   27183
       9   27192   27189       8   27195   27189       8   27195   27192       9
   27201   27198       8   27204   27198       8   27204   27201       9   27210
   27207       8   27213   27207       8   27213   27210       9   27219   27216
       8   27222   27216       8   27222   27219       9   27228   27225       8
   27231   27225       8   27231   27228       9   27237   27234       8   27240
   27234       8   27240   27237       9   27246   27243       8   27249   27243
       8   27249   27246       9   27255   27252       8   27258   27252       8
   27258   27255       9   27264   27261       8   27267   27261       8   27267
   27264       9   27273   27270       8   27276   27270       8   27276   27273
       9   27282   27279       8   27285   27279       8   27285   27282       9
   27291   27288       8   27294   27288       8   27294   27291       9   27300
   27297       8   27303   27297       8   27303   27300       9   27309   27306
       8   27312   27306       8   27312   27309       9   27318   27315       8
   27321   27315       8   27321   27318       9   27327   27324       8   27330
   27324       8   27330   27327       9   27336   27333       8   27339   27333
       8   27339   27336       9   27345   27342       8   27348   27342       8
   27348   27345       9   27354   27351       8   27357   27351       8   27357
   27354       9   27363   27360       8   27366   27360       8   27366   27363
       9   27372   27369       8   27375   27369       8   27375   27372       9
   27381   27378       8   27384   27378       8   27384   27381       9   27390
   27387       8   27393   27387       8   27393   27390       9   27399   27396
       8   27402   27396       8   27402   27399       9   27408   27405       8
   27411   27405       8   27411   27408       9   27417   27414       8   27420
   27414       8   27420   27417       9   27426   27423       8   27429   27423
       8   27429   27426       9   27435   27432       8   27438   27432       8
   27438   27435       9   27444   27441       8   27447   27441       8   27447
   27444       9   27453   27450       8   27456   27450       8   27456   27453
       9   27462   27459       8   27465   27459       8   27465   27462       9
   27471   27468       8   27474   27468       8   27474   27471       9   27480
   27477       8   27483   27477       8   27483   27480       9   27489   27486
       8   27492   27486       8   27492   27489       9   27498   27495       8
   27501   27495       8   27501   27498       9   27507   27504       8   27510
   27504       8   27510   27507       9   27516   27513       8   27519   27513
       8   27519   27516       9   27525   27522       8   27528   27522       8
   27528   27525       9   27534   27531       8   27537   27531       8   27537
   27534       9   27543   27540       8   27546   27540       8   27546   27543
       9   27552   27549       8   27555   27549       8   27555   27552       9
   27561   27558       8   27564   27558       8   27564   27561       9   27570
   27567       8   27573   27567       8   27573   27570       9   27579   27576
       8   27582   27576       8   27582   27579       9   27588   27585       8
   27591   27585       8   27591   27588       9   27597   27594       8   27600
   27594       8   27600   27597       9   27606   27603       8   27609   27603
       8   27609   27606       9   27615   27612       8   27618   27612       8
   27618   27615       9   27624   27621       8   27627   27621       8   27627
   27624       9   27633   27630       8   27636   27630       8   27636   27633
       9   27642   27639       8   27645   27639       8   27645   27642       9
   27651   27648       8   27654   27648       8   27654   27651       9   27660
   27657       8   27663   27657       8   27663   27660       9   27669   27666
       8   27672   27666       8   27672   27669       9   27678   27675       8
   27681   27675       8   27681   27678       9   27687   27684       8   27690
   27684       8   27690   27687       9   27696   27693       8   27699   27693
       8   27699   27696       9   27705   27702       8   27708   27702       8
   27708   27705       9   27714   27711       8   27717   27711       8   27717
   27714       9   27723   27720       8   27726   27720       8   27726   27723
       9   27732   27729       8   27735   27729       8   27735   27732       9
   27741   27738       8   27744   27738       8   27744   27741       9   27750
   27747       8   27753   27747       8   27753   27750       9   27759   27756
       8   27762   27756       8   27762   27759       9   27768   27765       8
   27771   27765       8   27771   27768       9   27777   27774       8   27780
   27774       8   27780   27777       9   27786   27783       8   27789   27783
       8   27789   27786       9   27795   27792       8   27798   27792       8
   27798   27795       9   27804   27801       8   27807   27801       8   27807
   27804       9   27813   27810       8   27816   27810       8   27816   27813
       9   27822   27819       8   27825   27819       8   27825   27822       9
   27831   27828       8   27834   27828       8   27834   27831       9   27840
   27837       8   27843   27837       8   27843   27840       9   27849   27846
       8   27852   27846       8   27852   27849       9   27858   27855       8
   27861   27855       8   27861   27858       9   27867   27864       8   27870
   27864       8   27870   27867       9   27876   27873       8   27879   27873
       8   27879   27876       9   27885   27882       8   27888   27882       8
   27888   27885       9   27894   27891       8   27897   27891       8   27897
   27894       9   27903   27900       8   27906   27900       8   27906   27903
       9   27912   27909       8   27915   27909       8   27915   27912       9
   27921   27918       8   27924   27918       8   27924   27921       9   27930
   27927       8   27933   27927       8   27933   27930       9   27939   27936
       8   27942   27936       8   27942   27939       9   27948   27945       8
   27951   27945       8   27951   27948       9   27957   27954       8   27960
   27954       8   27960   27957       9   27966   27963       8   27969   27963
       8   27969   27966       9   27975   27972       8   27978   27972       8
   27978   27975       9   27984   27981       8   27987   27981       8   27987
   27984       9   27993   27990       8   27996   27990       8   27996   27993
       9   28002   27999       8   28005   27999       8   28005   28002       9
   28011   28008       8   28014   28008       8   28014   28011       9   28020
   28017       8   28023   28017       8   28023   28020       9   28029   28026
       8   28032   28026       8   28032   28029       9   28038   28035       8
   28041   28035       8   28041   28038       9   28047   28044       8   28050
   28044       8   28050   28047       9   28056   28053       8   28059   28053
       8   28059   28056       9   28065   28062       8   28068   28062       8
   28068   28065       9   28074   28071       8   28077   28071       8   28077
   28074       9   28083   28080       8   28086   28080       8   28086   28083
       9   28092   28089       8   28095   28089       8   28095   28092       9
   28101   28098       8   28104   28098       8   28104   28101       9   28110
   28107       8   28113   28107       8   28113   28110       9   28119   28116
       8   28122   28116       8   28122   28119       9   28128   28125       8
   28131   28125       8   28131   28128       9   28137   28134       8   28140
   28134       8   28140   28137       9   28146   28143       8   28149   28143
       8   28149   28146       9   28155   28152       8   28158   28152       8
   28158   28155       9   28164   28161       8   28167   28161       8   28167
   28164       9   28173   28170       8   28176   28170       8   28176   28173
       9   28182   28179       8   28185   28179       8   28185   28182       9
   28191   28188       8   28194   28188       8   28194   28191       9   28200
   28197       8   28203   28197       8   28203   28200       9   28209   28206
       8   28212   28206       8   28212   28209       9   28218   28215       8
   28221   28215       8   28221   28218       9   28227   28224       8   28230
   28224       8   28230   28227       9   28236   28233       8   28239   28233
       8   28239   28236       9   28245   28242       8   28248   28242       8
   28248   28245       9   28254   28251       8   28257   28251       8   28257
   28254       9   28263   28260       8   28266   28260       8   28266   28263
       9   28272   28269       8   28275   28269       8   28275   28272       9
   28281   28278       8   28284   28278       8   28284   28281       9   28290
   28287       8   28293   28287       8   28293   28290       9   28299   28296
       8   28302   28296       8   28302   28299       9   28308   28305       8
   28311   28305       8   28311   28308       9   28317   28314       8   28320
   28314       8   28320   28317       9   28326   28323       8   28329   28323
       8   28329   28326       9   28335   28332       8   28338   28332       8
   28338   28335       9   28344   28341       8   28347   28341       8   28347
   28344       9   28353   28350       8   28356   28350       8   28356   28353
       9   28362   28359       8   28365   28359       8   28365   28362       9
   28371   28368       8   28374   28368       8   28374   28371       9   28380
   28377       8   28383   28377       8   28383   28380       9   28389   28386
       8   28392   28386       8   28392   28389       9   28398   28395       8
   28401   28395       8   28401   28398       9   28407   28404       8   28410
   28404       8   28410   28407       9   28416   28413       8   28419   28413
       8   28419   28416       9   28425   28422       8   28428   28422       8
   28428   28425       9   28434   28431       8   28437   28431       8   28437
   28434       9   28443   28440       8   28446   28440       8   28446   28443
       9   28452   28449       8   28455   28449       8   28455   28452       9
   28461   28458       8   28464   28458       8   28464   28461       9   28470
   28467       8   28473   28467       8   28473   28470       9   28479   28476
       8   28482   28476       8   28482   28479       9   28488   28485       8
   28491   28485       8   28491   28488       9   28497   28494       8   28500
   28494       8   28500   28497       9   28506   28503       8   28509   28503
       8   28509   28506       9   28515   28512       8   28518   28512       8
   28518   28515       9   28524   28521       8   28527   28521       8   28527
   28524       9   28533   28530       8   28536   28530       8   28536   28533
       9   28542   28539       8   28545   28539       8   28545   28542       9
   28551   28548       8   28554   28548       8   28554   28551       9   28560
   28557       8   28563   28557       8   28563   28560       9   28569   28566
       8   28572   28566       8   28572   28569       9   28578   28575       8
   28581   28575       8   28581   28578       9   28587   28584       8   28590
   28584       8   28590   28587       9   28596   28593       8   28599   28593
       8   28599   28596       9   28605   28602       8   28608   28602       8
   28608   28605       9   28614   28611       8   28617   28611       8   28617
   28614       9   28623   28620       8   28626   28620       8   28626   28623
       9   28632   28629       8   28635   28629       8   28635   28632       9
   28641   28638       8   28644   28638       8   28644   28641       9   28650
   28647       8   28653   28647       8   28653   28650       9   28659   28656
       8   28662   28656       8   28662   28659       9   28668   28665       8
   28671   28665       8   28671   28668       9   28677   28674       8   28680
   28674       8   28680   28677       9   28686   28683       8   28689   28683
       8   28689   28686       9   28695   28692       8   28698   28692       8
   28698   28695       9   28704   28701       8   28707   28701       8   28707
   28704       9   28713   28710       8   28716   28710       8   28716   28713
       9   28722   28719       8   28725   28719       8   28725   28722       9
   28731   28728       8   28734   28728       8   28734   28731       9   28740
   28737       8   28743   28737       8   28743   28740       9   28749   28746
       8   28752   28746       8   28752   28749       9   28758   28755       8
   28761   28755       8   28761   28758       9   28767   28764       8   28770
   28764       8   28770   28767       9   28776   28773       8   28779   28773
       8   28779   28776       9   28785   28782       8   28788   28782       8
   28788   28785       9   28794   28791       8   28797   28791       8   28797
   28794       9   28803   28800       8   28806   28800       8   28806   28803
       9   28812   28809       8   28815   28809       8   28815   28812       9
   28821   28818       8   28824   28818       8   28824   28821       9   28830
   28827       8   28833   28827       8   28833   28830       9   28839   28836
       8   28842   28836       8   28842   28839       9   28848   28845       8
   28851   28845       8   28851   28848       9   28857   28854       8   28860
   28854       8   28860   28857       9   28866   28863       8   28869   28863
       8   28869   28866       9   28875   28872       8   28878   28872       8
   28878   28875       9   28884   28881       8   28887   28881       8   28887
   28884       9   28893   28890       8   28896   28890       8   28896   28893
       9   28902   28899       8   28905   28899       8   28905   28902       9
   28911   28908       8   28914   28908       8   28914   28911       9   28920
   28917       8   28923   28917       8   28923   28920       9   28929   28926
       8   28932   28926       8   28932   28929       9   28938   28935       8
   28941   28935       8   28941   28938       9   28947   28944       8   28950
   28944       8   28950   28947       9   28956   28953       8   28959   28953
       8   28959   28956       9   28965   28962       8   28968   28962       8
   28968   28965       9   28974   28971       8   28977   28971       8   28977
   28974       9   28983   28980       8   28986   28980       8   28986   28983
       9   28992   28989       8   28995   28989       8   28995   28992       9
   29001   28998       8   29004   28998       8   29004   29001       9   29010
   29007       8   29013   29007       8   29013   29010       9   29019   29016
       8   29022   29016       8   29022   29019       9   29028   29025       8
   29031   29025       8   29031   29028       9   29037   29034       8   29040
   29034       8   29040   29037       9   29046   29043       8   29049   29043
       8   29049   29046       9   29055   29052       8   29058   29052       8
   29058   29055       9   29064   29061       8   29067   29061       8   29067
   29064       9   29073   29070       8   29076   29070       8   29076   29073
       9   29082   29079       8   29085   29079       8   29085   29082       9
   29091   29088       8   29094   29088       8   29094   29091       9   29100
   29097       8   29103   29097       8   29103   29100       9   29109   29106
       8   29112   29106       8   29112   29109       9   29118   29115       8
   29121   29115       8   29121   29118       9   29127   29124       8   29130
   29124       8   29130   29127       9   29136   29133       8   29139   29133
       8   29139   29136       9   29145   29142       8   29148   29142       8
   29148   29145       9   29154   29151       8   29157   29151       8   29157
   29154       9   29163   29160       8   29166   29160       8   29166   29163
       9   29172   29169       8   29175   29169       8   29175   29172       9
   29181   29178       8   29184   29178       8   29184   29181       9   29190
   29187       8   29193   29187       8   29193   29190       9   29199   29196
       8   29202   29196       8   29202   29199       9   29208   29205       8
   29211   29205       8   29211   29208       9   29217   29214       8   29220
   29214       8   29220   29217       9   29226   29223       8   29229   29223
       8   29229   29226       9   29235   29232       8   29238   29232       8
   29238   29235       9   29244   29241       8   29247   29241       8   29247
   29244       9   29253   29250       8   29256   29250       8   29256   29253
       9   29262   29259       8   29265   29259       8   29265   29262       9
   29271   29268       8   29274   29268       8   29274   29271       9   29280
   29277       8   29283   29277       8   29283   29280       9   29289   29286
       8   29292   29286       8   29292   29289       9   29298   29295       8
   29301   29295       8   29301   29298       9   29307   29304       8   29310
   29304       8   29310   29307       9   29316   29313       8   29319   29313
       8   29319   29316       9   29325   29322       8   29328   29322       8
   29328   29325       9   29334   29331       8   29337   29331       8   29337
   29334       9   29343   29340       8   29346   29340       8   29346   29343
       9   29352   29349       8   29355   29349       8   29355   29352       9
   29361   29358       8   29364   29358       8   29364   29361       9   29370
   29367       8   29373   29367       8   29373   29370       9   29379   29376
       8   29382   29376       8   29382   29379       9   29388   29385       8
   29391   29385       8   29391   29388       9   29397   29394       8   29400
   29394       8   29400   29397       9   29406   29403       8   29409   29403
       8   29409   29406       9   29415   29412       8   29418   29412       8
   29418   29415       9   29424   29421       8   29427   29421       8   29427
   29424       9   29433   29430       8   29436   29430       8   29436   29433
       9   29442   29439       8   29445   29439       8   29445   29442       9
   29451   29448       8   29454   29448       8   29454   29451       9   29460
   29457       8   29463   29457       8   29463   29460       9   29469   29466
       8   29472   29466       8   29472   29469       9   29478   29475       8
   29481   29475       8   29481   29478       9   29487   29484       8   29490
   29484       8   29490   29487       9   29496   29493       8   29499   29493
       8   29499   29496       9   29505   29502       8   29508   29502       8
   29508   29505       9   29514   29511       8   29517   29511       8   29517
   29514       9   29523   29520       8   29526   29520       8   29526   29523
       9   29532   29529       8   29535   29529       8   29535   29532       9
   29541   29538       8   29544   29538       8   29544   29541       9   29550
   29547       8   29553   29547       8   29553   29550       9   29559   29556
       8   29562   29556       8   29562   29559       9   29568   29565       8
   29571   29565       8   29571   29568       9   29577   29574       8   29580
   29574       8   29580   29577       9   29586   29583       8   29589   29583
       8   29589   29586       9   29595   29592       8   29598   29592       8
   29598   29595       9   29604   29601       8   29607   29601       8   29607
   29604       9   29613   29610       8   29616   29610       8   29616   29613
       9   29622   29619       8   29625   29619       8   29625   29622       9
   29631   29628       8   29634   29628       8   29634   29631       9   29640
   29637       8   29643   29637       8   29643   29640       9   29649   29646
       8   29652   29646       8   29652   29649       9   29658   29655       8
   29661   29655       8   29661   29658       9   29667   29664       8   29670
   29664       8   29670   29667       9   29676   29673       8   29679   29673
       8   29679   29676       9   29685   29682       8   29688   29682       8
   29688   29685       9   29694   29691       8   29697   29691       8   29697
   29694       9   29703   29700       8   29706   29700       8   29706   29703
       9   29712   29709       8   29715   29709       8   29715   29712       9
   29721   29718       8   29724   29718       8   29724   29721       9   29730
   29727       8   29733   29727       8   29733   29730       9   29739   29736
       8   29742   29736       8   29742   29739       9   29748   29745       8
   29751   29745       8   29751   29748       9   29757   29754       8   29760
   29754       8   29760   29757       9   29766   29763       8   29769   29763
       8   29769   29766       9   29775   29772       8   29778   29772       8
   29778   29775       9   29784   29781       8   29787   29781       8   29787
   29784       9   29793   29790       8   29796   29790       8   29796   29793
       9   29802   29799       8   29805   29799       8   29805   29802       9
   29811   29808       8   29814   29808       8   29814   29811       9   29820
   29817       8   29823   29817       8   29823   29820       9   29829   29826
       8   29832   29826       8   29832   29829       9   29838   29835       8
   29841   29835       8   29841   29838       9   29847   29844       8   29850
   29844       8   29850   29847       9   29856   29853       8   29859   29853
       8   29859   29856       9   29865   29862       8   29868   29862       8
   29868   29865       9   29874   29871       8   29877   29871       8   29877
   29874       9   29883   29880       8   29886   29880       8   29886   29883
       9   29892   29889       8   29895   29889       8   29895   29892       9
   29901   29898       8   29904   29898       8   29904   29901       9   29910
   29907       8   29913   29907       8   29913   29910       9   29919   29916
       8   29922   29916       8   29922   29919       9   29928   29925       8
   29931   29925       8   29931   29928       9   29937   29934       8   29940
   29934       8   29940   29937       9   29946   29943       8   29949   29943
       8   29949   29946       9   29955   29952       8   29958   29952       8
   29958   29955       9   29964   29961       8   29967   29961       8   29967
   29964       9   29973   29970       8   29976   29970       8   29976   29973
       9   29982   29979       8   29985   29979       8   29985   29982       9
   29991   29988       8   29994   29988       8   29994   29991       9   30000
   29997       8   30003   29997       8   30003   30000       9   30009   30006
       8   30012   30006       8   30012   30009       9   30018   30015       8
   30021   30015       8   30021   30018       9   30027   30024       8   30030
   30024       8   30030   30027       9   30036   30033       8   30039   30033
       8   30039   30036       9   30045   30042       8   30048   30042       8
   30048   30045       9   30054   30051       8   30057   30051       8   30057
   30054       9   30063   30060       8   30066   30060       8   30066   30063
       9   30072   30069       8   30075   30069       8   30075   30072       9
   30081   30078       8   30084   30078       8   30084   30081       9   30090
   30087       8   30093   30087       8   30093   30090       9   30099   30096
       8   30102   30096       8   30102   30099       9   30108   30105       8
   30111   30105       8   30111   30108       9   30117   30114       8   30120
   30114       8   30120   30117       9   30126   30123       8   30129   30123
       8   30129   30126       9   30135   30132       8   30138   30132       8
   30138   30135       9   30144   30141       8   30147   30141       8   30147
   30144       9   30153   30150       8   30156   30150       8   30156   30153
       9   30162   30159       8   30165   30159       8   30165   30162       9
   30171   30168       8   30174   30168       8   30174   30171       9   30180
   30177       8   30183   30177       8   30183   30180       9   30189   30186
       8   30192   30186       8   30192   30189       9   30198   30195       8
   30201   30195       8   30201   30198       9   30207   30204       8   30210
   30204       8   30210   30207       9   30216   30213       8   30219   30213
       8   30219   30216       9   30225   30222       8   30228   30222       8
   30228   30225       9   30234   30231       8   30237   30231       8   30237
   30234       9   30243   30240       8   30246   30240       8   30246   30243
       9   30252   30249       8   30255   30249       8   30255   30252       9
   30261   30258       8   30264   30258       8   30264   30261       9   30270
   30267       8   30273   30267       8   30273   30270       9   30279   30276
       8   30282   30276       8   30282   30279       9   30288   30285       8
   30291   30285       8   30291   30288       9   30297   30294       8   30300
   30294       8   30300   30297       9   30306   30303       8   30309   30303
       8   30309   30306       9   30315   30312       8   30318   30312       8
   30318   30315       9   30324   30321       8   30327   30321       8   30327
   30324       9   30333   30330       8   30336   30330       8   30336   30333
       9   30342   30339       8   30345   30339       8   30345   30342       9
   30351   30348       8   30354   30348       8   30354   30351       9   30360
   30357       8   30363   30357       8   30363   30360       9   30369   30366
       8   30372   30366       8   30372   30369       9   30378   30375       8
   30381   30375       8   30381   30378       9   30387   30384       8   30390
   30384       8   30390   30387       9   30396   30393       8   30399   30393
       8   30399   30396       9   30405   30402       8   30408   30402       8
   30408   30405       9   30414   30411       8   30417   30411       8   30417
   30414       9   30423   30420       8   30426   30420       8   30426   30423
       9   30432   30429       8   30435   30429       8   30435   30432       9
   30441   30438       8   30444   30438       8   30444   30441       9   30450
   30447       8   30453   30447       8   30453   30450       9   30459   30456
       8   30462   30456       8   30462   30459       9   30468   30465       8
   30471   30465       8   30471   30468       9   30477   30474       8   30480
   30474       8   30480   30477       9   30486   30483       8   30489   30483
       8   30489   30486       9   30495   30492       8   30498   30492       8
   30498   30495       9   30504   30501       8   30507   30501       8   30507
   30504       9   30513   30510       8   30516   30510       8   30516   30513
       9   30522   30519       8   30525   30519       8   30525   30522       9
   30531   30528       8   30534   30528       8   30534   30531       9   30540
   30537       8   30543   30537       8   30543   30540       9   30549   30546
       8   30552   30546       8   30552   30549       9   30558   30555       8
   30561   30555       8   30561   30558       9   30567   30564       8   30570
   30564       8   30570   30567       9   30576   30573       8   30579   30573
       8   30579   30576       9   30585   30582       8   30588   30582       8
   30588   30585       9   30594   30591       8   30597   30591       8   30597
   30594       9   30603   30600       8   30606   30600       8   30606   30603
       9   30612   30609       8   30615   30609       8   30615   30612       9
   30621   30618       8   30624   30618       8   30624   30621       9   30630
   30627       8   30633   30627       8   30633   30630       9   30639   30636
       8   30642   30636       8   30642   30639       9   30648   30645       8
   30651   30645       8   30651   30648       9   30657   30654       8   30660
   30654       8   30660   30657       9   30666   30663       8   30669   30663
       8   30669   30666       9   30675   30672       8   30678   30672       8
   30678   30675       9   30684   30681       8   30687   30681       8   30687
   30684       9   30693   30690       8   30696   30690       8   30696   30693
       9   30702   30699       8   30705   30699       8   30705   30702       9
   30711   30708       8   30714   30708       8   30714   30711       9   30720
   30717       8   30723   30717       8   30723   30720       9   30729   30726
       8   30732   30726       8   30732   30729       9   30738   30735       8
   30741   30735       8   30741   30738       9   30747   30744       8   30750
   30744       8   30750   30747       9   30756   30753       8   30759   30753
       8   30759   30756       9   30765   30762       8   30768   30762       8
   30768   30765       9   30774   30771       8   30777   30771       8   30777
   30774       9   30783   30780       8   30786   30780       8   30786   30783
       9   30792   30789       8   30795   30789       8   30795   30792       9
   30801   30798       8   30804   30798       8   30804   30801       9   30810
   30807       8   30813   30807       8   30813   30810       9   30819   30816
       8   30822   30816       8   30822   30819       9   30828   30825       8
   30831   30825       8   30831   30828       9   30837   30834       8   30840
   30834       8   30840   30837       9   30846   30843       8   30849   30843
       8   30849   30846       9   30855   30852       8   30858   30852       8
   30858   30855       9   30864   30861       8   30867   30861       8   30867
   30864       9   30873   30870       8   30876   30870       8   30876   30873
       9   30882   30879       8   30885   30879       8   30885   30882       9
   30891   30888       8   30894   30888       8   30894   30891       9   30900
   30897       8   30903   30897       8   30903   30900       9   30909   30906
       8   30912   30906       8   30912   30909       9   30918   30915       8
   30921   30915       8   30921   30918       9   30927   30924       8   30930
   30924       8   30930   30927       9   30936   30933       8   30939   30933
       8   30939   30936       9   30945   30942       8   30948   30942       8
   30948   30945       9   30954   30951       8   30957   30951       8   30957
   30954       9   30963   30960       8   30966   30960       8   30966   30963
       9   30972   30969       8   30975   30969       8   30975   30972       9
   30981   30978       8   30984   30978       8   30984   30981       9   30990
   30987       8   30993   30987       8   30993   30990       9   30999   30996
       8   31002   30996       8   31002   30999       9   31008   31005       8
   31011   31005       8   31011   31008       9   31017   31014       8   31020
   31014       8   31020   31017       9   31026   31023       8   31029   31023
       8   31029   31026       9   31035   31032       8   31038   31032       8
   31038   31035       9   31044   31041       8   31047   31041       8   31047
   31044       9   31053   31050       8   31056   31050       8   31056   31053
       9   31062   31059       8   31065   31059       8   31065   31062       9
   31071   31068       8   31074   31068       8   31074   31071       9   31080
   31077       8   31083   31077       8   31083   31080       9   31089   31086
       8   31092   31086       8   31092   31089       9   31098   31095       8
   31101   31095       8   31101   31098       9   31107   31104       8   31110
   31104       8   31110   31107       9   31116   31113       8   31119   31113
       8   31119   31116       9   31125   31122       8   31128   31122       8
   31128   31125       9   31134   31131       8   31137   31131       8   31137
   31134       9   31143   31140       8   31146   31140       8   31146   31143
       9   31152   31149       8   31155   31149       8   31155   31152       9
   31161   31158       8   31164   31158       8   31164   31161       9   31170
   31167       8   31173   31167       8   31173   31170       9   31179   31176
       8   31182   31176       8   31182   31179       9   31188   31185       8
   31191   31185       8   31191   31188       9   31197   31194       8   31200
   31194       8   31200   31197       9   31206   31203       8   31209   31203
       8   31209   31206       9   31215   31212       8   31218   31212       8
   31218   31215       9   31224   31221       8   31227   31221       8   31227
   31224       9   31233   31230       8   31236   31230       8   31236   31233
       9   31242   31239       8   31245   31239       8   31245   31242       9
   31251   31248       8   31254   31248       8   31254   31251       9   31260
   31257       8   31263   31257       8   31263   31260       9   31269   31266
       8   31272   31266       8   31272   31269       9   31278   31275       8
   31281   31275       8   31281   31278       9   31287   31284       8   31290
   31284       8   31290   31287       9   31296   31293       8   31299   31293
       8   31299   31296       9   31305   31302       8   31308   31302       8
   31308   31305       9   31314   31311       8   31317   31311       8   31317
   31314       9   31323   31320       8   31326   31320       8   31326   31323
       9   31332   31329       8   31335   31329       8   31335   31332       9
   31341   31338       8   31344   31338       8   31344   31341       9   31350
   31347       8   31353   31347       8   31353   31350       9   31359   31356
       8   31362   31356       8   31362   31359       9   31368   31365       8
   31371   31365       8   31371   31368       9   31377   31374       8   31380
   31374       8   31380   31377       9   31386   31383       8   31389   31383
       8   31389   31386       9   31395   31392       8   31398   31392       8
   31398   31395       9   31404   31401       8   31407   31401       8   31407
   31404       9   31413   31410       8   31416   31410       8   31416   31413
       9   31422   31419       8   31425   31419       8   31425   31422       9
   31431   31428       8   31434   31428       8   31434   31431       9   31440
   31437       8   31443   31437       8   31443   31440       9   31449   31446
       8   31452   31446       8   31452   31449       9   31458   31455       8
   31461   31455       8   31461   31458       9   31467   31464       8   31470
   31464       8   31470   31467       9   31476   31473       8   31479   31473
       8   31479   31476       9   31485   31482       8   31488   31482       8
   31488   31485       9   31494   31491       8   31497   31491       8   31497
   31494       9   31503   31500       8   31506   31500       8   31506   31503
       9   31512   31509       8   31515   31509       8   31515   31512       9
   31521   31518       8   31524   31518       8   31524   31521       9   31530
   31527       8   31533   31527       8   31533   31530       9   31539   31536
       8   31542   31536       8   31542   31539       9   31548   31545       8
   31551   31545       8   31551   31548       9   31557   31554       8   31560
   31554       8   31560   31557       9   31566   31563       8   31569   31563
       8   31569   31566       9   31575   31572       8   31578   31572       8
   31578   31575       9   31584   31581       8   31587   31581       8   31587
   31584       9   31593   31590       8   31596   31590       8   31596   31593
       9   31602   31599       8   31605   31599       8   31605   31602       9
   31611   31608       8   31614   31608       8   31614   31611       9   31620
   31617       8   31623   31617       8   31623   31620       9   31629   31626
       8   31632   31626       8   31632   31629       9   31638   31635       8
   31641   31635       8   31641   31638       9   31647   31644       8   31650
   31644       8   31650   31647       9   31656   31653       8   31659   31653
       8   31659   31656       9   31665   31662       8   31668   31662       8
   31668   31665       9   31674   31671       8   31677   31671       8   31677
   31674       9   31683   31680       8   31686   31680       8   31686   31683
       9   31692   31689       8   31695   31689       8   31695   31692       9
   31701   31698       8   31704   31698       8   31704   31701       9   31710
   31707       8   31713   31707       8   31713   31710       9   31719   31716
       8   31722   31716       8   31722   31719       9   31728   31725       8
   31731   31725       8   31731   31728       9   31737   31734       8   31740
   31734       8   31740   31737       9   31746   31743       8   31749   31743
       8   31749   31746       9   31755   31752       8   31758   31752       8
   31758   31755       9   31764   31761       8   31767   31761       8   31767
   31764       9   31773   31770       8   31776   31770       8   31776   31773
       9   31782   31779       8   31785   31779       8   31785   31782       9
   31791   31788       8   31794   31788       8   31794   31791       9   31800
   31797       8   31803   31797       8   31803   31800       9   31809   31806
       8   31812   31806       8   31812   31809       9   31818   31815       8
   31821   31815       8   31821   31818       9   31827   31824       8   31830
   31824       8   31830   31827       9   31836   31833       8   31839   31833
       8   31839   31836       9   31845   31842       8   31848   31842       8
   31848   31845       9   31854   31851       8   31857   31851       8   31857
   31854       9   31863   31860       8   31866   31860       8   31866   31863
       9   31872   31869       8   31875   31869       8   31875   31872       9
   31881   31878       8   31884   31878       8   31884   31881       9   31890
   31887       8   31893   31887       8   31893   31890       9   31899   31896
       8   31902   31896       8   31902   31899       9   31908   31905       8
   31911   31905       8   31911   31908       9   31917   31914       8   31920
   31914       8   31920   31917       9   31926   31923       8   31929   31923
       8   31929   31926       9   31935   31932       8   31938   31932       8
   31938   31935       9   31944   31941       8   31947   31941       8   31947
   31944       9   31953   31950       8   31956   31950       8   31956   31953
       9   31962   31959       8   31965   31959       8   31965   31962       9
   31971   31968       8   31974   31968       8   31974   31971       9   31980
   31977       8   31983   31977       8   31983   31980       9   31989   31986
       8   31992   31986       8   31992   31989       9   31998   31995       8
   32001   31995       8   32001   31998       9   32007   32004       8   32010
   32004       8   32010   32007       9   32016   32013       8   32019   32013
       8   32019   32016       9   32025   32022       8   32028   32022       8
   32028   32025       9   32034   32031       8   32037   32031       8   32037
   32034       9   32043   32040       8   32046   32040       8   32046   32043
       9   32052   32049       8   32055   32049       8   32055   32052       9
   32061   32058       8   32064   32058       8   32064   32061       9   32070
   32067       8   32073   32067       8   32073   32070       9   32079   32076
       8   32082   32076       8   32082   32079       9   32088   32085       8
   32091   32085       8   32091   32088       9   32097   32094       8   32100
   32094       8   32100   32097       9   32106   32103       8   32109   32103
       8   32109   32106       9   32115   32112       8   32118   32112       8
   32118   32115       9   32124   32121       8   32127   32121       8   32127
   32124       9   32133   32130       8   32136   32130       8   32136   32133
       9   32142   32139       8   32145   32139       8   32145   32142       9
   32151   32148       8   32154   32148       8   32154   32151       9   32160
   32157       8   32163   32157       8   32163   32160       9   32169   32166
       8   32172   32166       8   32172   32169       9   32178   32175       8
   32181   32175       8   32181   32178       9   32187   32184       8   32190
   32184       8   32190   32187       9   32196   32193       8   32199   32193
       8   32199   32196       9   32205   32202       8   32208   32202       8
   32208   32205       9   32214   32211       8   32217   32211       8   32217
   32214       9   32223   32220       8   32226   32220       8   32226   32223
       9   32232   32229       8   32235   32229       8   32235   32232       9
   32241   32238       8   32244   32238       8   32244   32241       9   32250
   32247       8   32253   32247       8   32253   32250       9   32259   32256
       8   32262   32256       8   32262   32259       9   32268   32265       8
   32271   32265       8   32271   32268       9   32277   32274       8   32280
   32274       8   32280   32277       9   32286   32283       8   32289   32283
       8   32289   32286       9   32295   32292       8   32298   32292       8
   32298   32295       9   32304   32301       8   32307   32301       8   32307
   32304       9   32313   32310       8   32316   32310       8   32316   32313
       9   32322   32319       8   32325   32319       8   32325   32322       9
   32331   32328       8   32334   32328       8   32334   32331       9   32340
   32337       8   32343   32337       8   32343   32340       9   32349   32346
       8   32352   32346       8   32352   32349       9   32358   32355       8
   32361   32355       8   32361   32358       9   32367   32364       8   32370
   32364       8   32370   32367       9   32376   32373       8   32379   32373
       8   32379   32376       9   32385   32382       8   32388   32382       8
   32388   32385       9   32394   32391       8   32397   32391       8   32397
   32394       9   32403   32400       8   32406   32400       8   32406   32403
       9   32412   32409       8   32415   32409       8   32415   32412       9
   32421   32418       8   32424   32418       8   32424   32421       9   32430
   32427       8   32433   32427       8   32433   32430       9   32439   32436
       8   32442   32436       8   32442   32439       9   32448   32445       8
   32451   32445       8   32451   32448       9   32457   32454       8   32460
   32454       8   32460   32457       9   32466   32463       8   32469   32463
       8   32469   32466       9   32475   32472       8   32478   32472       8
   32478   32475       9   32484   32481       8   32487   32481       8   32487
   32484       9   32493   32490       8   32496   32490       8   32496   32493
       9   32502   32499       8   32505   32499       8   32505   32502       9
   32511   32508       8   32514   32508       8   32514   32511       9   32520
   32517       8   32523   32517       8   32523   32520       9   32529   32526
       8   32532   32526       8   32532   32529       9   32538   32535       8
   32541   32535       8   32541   32538       9   32547   32544       8   32550
   32544       8   32550   32547       9   32556   32553       8   32559   32553
       8   32559   32556       9   32565   32562       8   32568   32562       8
   32568   32565       9   32574   32571       8   32577   32571       8   32577
   32574       9   32583   32580       8   32586   32580       8   32586   32583
       9   32592   32589       8   32595   32589       8   32595   32592       9
   32601   32598       8   32604   32598       8   32604   32601       9   32610
   32607       8   32613   32607       8   32613   32610       9   32619   32616
       8   32622   32616       8   32622   32619       9   32628   32625       8
   32631   32625       8   32631   32628       9   32637   32634       8   32640
   32634       8   32640   32637       9   32646   32643       8   32649   32643
       8   32649   32646       9   32655   32652       8   32658   32652       8
   32658   32655       9   32664   32661       8   32667   32661       8   32667
   32664       9   32673   32670       8   32676   32670       8   32676   32673
       9   32682   32679       8   32685   32679       8   32685   32682       9
   32691   32688       8   32694   32688       8   32694   32691       9   32700
   32697       8   32703   32697       8   32703   32700       9   32709   32706
       8   32712   32706       8   32712   32709       9   32718   32715       8
   32721   32715       8   32721   32718       9   32727   32724       8   32730
   32724       8   32730   32727       9   32736   32733       8   32739   32733
       8   32739   32736       9   32745   32742       8   32748   32742       8
   32748   32745       9   32754   32751       8   32757   32751       8   32757
   32754       9   32763   32760       8   32766   32760       8   32766   32763
       9   32772   32769       8   32775   32769       8   32775   32772       9
   32781   32778       8   32784   32778       8   32784   32781       9   32790
   32787       8   32793   32787       8   32793   32790       9   32799   32796
       8   32802   32796       8   32802   32799       9   32808   32805       8
   32811   32805       8   32811   32808       9   32817   32814       8   32820
   32814       8   32820   32817       9   32826   32823       8   32829   32823
       8   32829   32826       9   32835   32832       8   32838   32832       8
   32838   32835       9   32844   32841       8   32847   32841       8   32847
   32844       9   32853   32850       8   32856   32850       8   32856   32853
       9   32862   32859       8   32865   32859       8   32865   32862       9
   32871   32868       8   32874   32868       8   32874   32871       9   32880
   32877       8   32883   32877       8   32883   32880       9   32889   32886
       8   32892   32886       8   32892   32889       9   32898   32895       8
   32901   32895       8   32901   32898       9   32907   32904       8   32910
   32904       8   32910   32907       9   32916   32913       8   32919   32913
       8   32919   32916       9   32925   32922       8   32928   32922       8
   32928   32925       9   32934   32931       8   32937   32931       8   32937
   32934       9   32943   32940       8   32946   32940       8   32946   32943
       9   32952   32949       8   32955   32949       8   32955   32952       9
   32961   32958       8   32964   32958       8   32964   32961       9   32970
   32967       8   32973   32967       8   32973   32970       9   32979   32976
       8   32982   32976       8   32982   32979       9   32988   32985       8
   32991   32985       8   32991   32988       9   32997   32994       8   33000
   32994       8   33000   32997       9   33006   33003       8   33009   33003
       8   33009   33006       9   33015   33012       8   33018   33012       8
   33018   33015       9   33024   33021       8   33027   33021       8   33027
   33024       9   33033   33030       8   33036   33030       8   33036   33033
       9   33042   33039       8   33045   33039       8   33045   33042       9
   33051   33048       8   33054   33048       8   33054   33051       9   33060
   33057       8   33063   33057       8   33063   33060       9   33069   33066
       8   33072   33066       8   33072   33069       9   33078   33075       8
   33081   33075       8   33081   33078       9   33087   33084       8   33090
   33084       8   33090   33087       9   33096   33093       8   33099   33093
       8   33099   33096       9   33105   33102       8   33108   33102       8
   33108   33105       9   33114   33111       8   33117   33111       8   33117
   33114       9   33123   33120       8   33126   33120       8   33126   33123
       9   33132   33129       8   33135   33129       8   33135   33132       9
   33141   33138       8   33144   33138       8   33144   33141       9   33150
   33147       8   33153   33147       8   33153   33150       9   33159   33156
       8   33162   33156       8   33162   33159       9   33168   33165       8
   33171   33165       8   33171   33168       9   33177   33174       8   33180
   33174       8   33180   33177       9   33186   33183       8   33189   33183
       8   33189   33186       9   33195   33192       8   33198   33192       8
   33198   33195       9   33204   33201       8   33207   33201       8   33207
   33204       9   33213   33210       8   33216   33210       8   33216   33213
       9   33222   33219       8   33225   33219       8   33225   33222       9
   33231   33228       8   33234   33228       8   33234   33231       9   33240
   33237       8   33243   33237       8   33243   33240       9   33249   33246
       8   33252   33246       8   33252   33249       9   33258   33255       8
   33261   33255       8   33261   33258       9   33267   33264       8   33270
   33264       8   33270   33267       9   33276   33273       8   33279   33273
       8   33279   33276       9   33285   33282       8   33288   33282       8
   33288   33285       9   33294   33291       8   33297   33291       8   33297
   33294       9   33303   33300       8   33306   33300       8   33306   33303
       9   33312   33309       8   33315   33309       8   33315   33312       9
   33321   33318       8   33324   33318       8   33324   33321       9   33330
   33327       8   33333   33327       8   33333   33330       9   33339   33336
       8   33342   33336       8   33342   33339       9   33348   33345       8
   33351   33345       8   33351   33348       9   33357   33354       8   33360
   33354       8   33360   33357       9   33366   33363       8   33369   33363
       8   33369   33366       9   33375   33372       8   33378   33372       8
   33378   33375       9   33384   33381       8   33387   33381       8   33387
   33384       9   33393   33390       8   33396   33390       8   33396   33393
       9   33402   33399       8   33405   33399       8   33405   33402       9
   33411   33408       8   33414   33408       8   33414   33411       9   33420
   33417       8   33423   33417       8   33423   33420       9   33429   33426
       8   33432   33426       8   33432   33429       9   33438   33435       8
   33441   33435       8   33441   33438       9   33447   33444       8   33450
   33444       8   33450   33447       9   33456   33453       8   33459   33453
       8   33459   33456       9   33465   33462       8   33468   33462       8
   33468   33465       9   33474   33471       8   33477   33471       8   33477
   33474       9   33483   33480       8   33486   33480       8   33486   33483
       9   33492   33489       8   33495   33489       8   33495   33492       9
   33501   33498       8   33504   33498       8   33504   33501       9   33510
   33507       8   33513   33507       8   33513   33510       9   33519   33516
       8   33522   33516       8   33522   33519       9   33528   33525       8
   33531   33525       8   33531   33528       9   33537   33534       8   33540
   33534       8   33540   33537       9   33546   33543       8   33549   33543
       8   33549   33546       9   33555   33552       8   33558   33552       8
   33558   33555       9   33564   33561       8   33567   33561       8   33567
   33564       9   33573   33570       8   33576   33570       8   33576   33573
       9   33582   33579       8   33585   33579       8   33585   33582       9
   33591   33588       8   33594   33588       8   33594   33591       9   33600
   33597       8   33603   33597       8   33603   33600       9   33609   33606
       8   33612   33606       8   33612   33609       9   33618   33615       8
   33621   33615       8   33621   33618       9   33627   33624       8   33630
   33624       8   33630   33627       9   33636   33633       8   33639   33633
       8   33639   33636       9   33645   33642       8   33648   33642       8
   33648   33645       9   33654   33651       8   33657   33651       8   33657
   33654       9   33663   33660       8   33666   33660       8   33666   33663
       9   33672   33669       8   33675   33669       8   33675   33672       9
   33681   33678       8   33684   33678       8   33684   33681       9   33690
   33687       8   33693   33687       8   33693   33690       9   33699   33696
       8   33702   33696       8   33702   33699       9   33708   33705       8
   33711   33705       8   33711   33708       9   33717   33714       8   33720
   33714       8   33720   33717       9   33726   33723       8   33729   33723
       8   33729   33726       9   33735   33732       8   33738   33732       8
   33738   33735       9   33744   33741       8   33747   33741       8   33747
   33744       9   33753   33750       8   33756   33750       8   33756   33753
       9   33762   33759       8   33765   33759       8   33765   33762       9
   33771   33768       8   33774   33768       8   33774   33771       9   33780
   33777       8   33783   33777       8   33783   33780       9   33789   33786
       8   33792   33786       8   33792   33789       9   33798   33795       8
   33801   33795       8   33801   33798       9   33807   33804       8   33810
   33804       8   33810   33807       9   33816   33813       8   33819   33813
       8   33819   33816       9   33825   33822       8   33828   33822       8
   33828   33825       9   33834   33831       8   33837   33831       8   33837
   33834       9   33843   33840       8   33846   33840       8   33846   33843
       9   33852   33849       8   33855   33849       8   33855   33852       9
   33861   33858       8   33864   33858       8   33864   33861       9   33870
   33867       8   33873   33867       8   33873   33870       9   33879   33876
       8   33882   33876       8   33882   33879       9   33888   33885       8
   33891   33885       8   33891   33888       9   33897   33894       8   33900
   33894       8   33900   33897       9   33906   33903       8   33909   33903
       8   33909   33906       9   33915   33912       8   33918   33912       8
   33918   33915       9   33924   33921       8   33927   33921       8   33927
   33924       9   33933   33930       8   33936   33930       8   33936   33933
       9   33942   33939       8   33945   33939       8   33945   33942       9
   33951   33948       8   33954   33948       8   33954   33951       9   33960
   33957       8   33963   33957       8   33963   33960       9   33969   33966
       8   33972   33966       8   33972   33969       9   33978   33975       8
   33981   33975       8   33981   33978       9   33987   33984       8   33990
   33984       8   33990   33987       9   33996   33993       8   33999   33993
       8   33999   33996       9   34005   34002       8   34008   34002       8
   34008   34005       9   34014   34011       8   34017   34011       8   34017
   34014       9   34023   34020       8   34026   34020       8   34026   34023
       9   34032   34029       8   34035   34029       8   34035   34032       9
   34041   34038       8   34044   34038       8   34044   34041       9   34050
   34047       8   34053   34047       8   34053   34050       9   34059   34056
       8   34062   34056       8   34062   34059       9   34068   34065       8
   34071   34065       8   34071   34068       9   34077   34074       8   34080
   34074       8   34080   34077       9   34086   34083       8   34089   34083
       8   34089   34086       9   34095   34092       8   34098   34092       8
   34098   34095       9   34104   34101       8   34107   34101       8   34107
   34104       9   34113   34110       8   34116   34110       8   34116   34113
       9   34122   34119       8   34125   34119       8   34125   34122       9
   34131   34128       8   34134   34128       8   34134   34131       9   34140
   34137       8   34143   34137       8   34143   34140       9   34149   34146
       8   34152   34146       8   34152   34149       9   34158   34155       8
   34161   34155       8   34161   34158       9   34167   34164       8   34170
   34164       8   34170   34167       9   34176   34173       8   34179   34173
       8   34179   34176       9   34185   34182       8   34188   34182       8
   34188   34185       9   34194   34191       8   34197   34191       8   34197
   34194       9   34203   34200       8   34206   34200       8   34206   34203
       9   34212   34209       8   34215   34209       8   34215   34212       9
   34221   34218       8   34224   34218       8   34224   34221       9   34230
   34227       8   34233   34227       8   34233   34230       9   34239   34236
       8   34242   34236       8   34242   34239       9   34248   34245       8
   34251   34245       8   34251   34248       9   34257   34254       8   34260
   34254       8   34260   34257       9   34266   34263       8   34269   34263
       8   34269   34266       9   34275   34272       8   34278   34272       8
   34278   34275       9   34284   34281       8   34287   34281       8   34287
   34284       9   34293   34290       8   34296   34290       8   34296   34293
       9   34302   34299       8   34305   34299       8   34305   34302       9
   34311   34308       8   34314   34308       8   34314   34311       9   34320
   34317       8   34323   34317       8   34323   34320       9   34329   34326
       8   34332   34326       8   34332   34329       9   34338   34335       8
   34341   34335       8   34341   34338       9   34347   34344       8   34350
   34344       8   34350   34347       9   34356   34353       8   34359   34353
       8   34359   34356       9   34365   34362       8   34368   34362       8
   34368   34365       9   34374   34371       8   34377   34371       8   34377
   34374       9   34383   34380       8   34386   34380       8   34386   34383
       9   34392   34389       8   34395   34389       8   34395   34392       9
   34401   34398       8   34404   34398       8   34404   34401       9   34410
   34407       8   34413   34407       8   34413   34410       9   34419   34416
       8   34422   34416       8   34422   34419       9   34428   34425       8
   34431   34425       8   34431   34428       9   34437   34434       8   34440
   34434       8   34440   34437       9   34446   34443       8   34449   34443
       8   34449   34446       9   34455   34452       8   34458   34452       8
   34458   34455       9   34464   34461       8   34467   34461       8   34467
   34464       9   34473   34470       8   34476   34470       8   34476   34473
       9   34482   34479       8   34485   34479       8   34485   34482       9
   34491   34488       8   34494   34488       8   34494   34491       9   34500
   34497       8   34503   34497       8   34503   34500       9   34509   34506
       8   34512   34506       8   34512   34509       9   34518   34515       8
   34521   34515       8   34521   34518       9   34527   34524       8   34530
   34524       8   34530   34527       9   34536   34533       8   34539   34533
       8   34539   34536       9   34545   34542       8   34548   34542       8
   34548   34545       9   34554   34551       8   34557   34551       8   34557
   34554       9   34563   34560       8   34566   34560       8   34566   34563
       9   34572   34569       8   34575   34569       8   34575   34572       9
   34581   34578       8   34584   34578       8   34584   34581       9   34590
   34587       8   34593   34587       8   34593   34590       9   34599   34596
       8   34602   34596       8   34602   34599       9   34608   34605       8
   34611   34605       8   34611   34608       9   34617   34614       8   34620
   34614       8   34620   34617       9   34626   34623       8   34629   34623
       8   34629   34626       9   34635   34632       8   34638   34632       8
   34638   34635       9   34644   34641       8   34647   34641       8   34647
   34644       9   34653   34650       8   34656   34650       8   34656   34653
       9   34662   34659       8   34665   34659       8   34665   34662       9
   34671   34668       8   34674   34668       8   34674   34671       9   34680
   34677       8   34683   34677       8   34683   34680       9   34689   34686
       8   34692   34686       8   34692   34689       9   34698   34695       8
   34701   34695       8   34701   34698       9   34707   34704       8   34710
   34704       8   34710   34707       9   34716   34713       8   34719   34713
       8   34719   34716       9   34725   34722       8   34728   34722       8
   34728   34725       9   34734   34731       8   34737   34731       8   34737
   34734       9   34743   34740       8   34746   34740       8   34746   34743
       9   34752   34749       8   34755   34749       8   34755   34752       9
   34761   34758       8   34764   34758       8   34764   34761       9   34770
   34767       8   34773   34767       8   34773   34770       9   34779   34776
       8   34782   34776       8   34782   34779       9   34788   34785       8
   34791   34785       8   34791   34788       9   34797   34794       8   34800
   34794       8   34800   34797       9   34806   34803       8   34809   34803
       8   34809   34806       9   34815   34812       8   34818   34812       8
   34818   34815       9   34824   34821       8   34827   34821       8   34827
   34824       9   34833   34830       8   34836   34830       8   34836   34833
       9   34842   34839       8   34845   34839       8   34845   34842       9
   34851   34848       8   34854   34848       8   34854   34851       9   34860
   34857       8   34863   34857       8   34863   34860       9   34869   34866
       8   34872   34866       8   34872   34869       9   34878   34875       8
   34881   34875       8   34881   34878       9   34887   34884       8   34890
   34884       8   34890   34887       9   34896   34893       8   34899   34893
       8   34899   34896       9   34905   34902       8   34908   34902       8
   34908   34905       9   34914   34911       8   34917   34911       8   34917
   34914       9   34923   34920       8   34926   34920       8   34926   34923
       9   34932   34929       8   34935   34929       8   34935   34932       9
   34941   34938       8   34944   34938       8   34944   34941       9   34950
   34947       8   34953   34947       8   34953   34950       9   34959   34956
       8   34962   34956       8   34962   34959       9   34968   34965       8
   34971   34965       8   34971   34968       9   34977   34974       8   34980
   34974       8   34980   34977       9   34986   34983       8   34989   34983
       8   34989   34986       9   34995   34992       8   34998   34992       8
   34998   34995       9   35004   35001       8   35007   35001       8   35007
   35004       9   35013   35010       8   35016   35010       8   35016   35013
       9   35022   35019       8   35025   35019       8   35025   35022       9
   35031   35028       8   35034   35028       8   35034   35031       9   35040
   35037       8   35043   35037       8   35043   35040       9   35049   35046
       8   35052   35046       8   35052   35049       9   35058   35055       8
   35061   35055       8   35061   35058       9   35067   35064       8   35070
   35064       8   35070   35067       9   35076   35073       8   35079   35073
       8   35079   35076       9   35085   35082       8   35088   35082       8
   35088   35085       9   35094   35091       8   35097   35091       8   35097
   35094       9   35103   35100       8   35106   35100       8   35106   35103
       9   35112   35109       8   35115   35109       8   35115   35112       9
   35121   35118       8   35124   35118       8   35124   35121       9   35130
   35127       8   35133   35127       8   35133   35130       9   35139   35136
       8   35142   35136       8   35142   35139       9   35148   35145       8
   35151   35145       8   35151   35148       9   35157   35154       8   35160
   35154       8   35160   35157       9   35166   35163       8   35169   35163
       8   35169   35166       9   35175   35172       8   35178   35172       8
   35178   35175       9   35184   35181       8   35187   35181       8   35187
   35184       9   35193   35190       8   35196   35190       8   35196   35193
       9   35202   35199       8   35205   35199       8   35205   35202       9
   35211   35208       8   35214   35208       8   35214   35211       9   35220
   35217       8   35223   35217       8   35223   35220       9   35229   35226
       8   35232   35226       8   35232   35229       9   35238   35235       8
   35241   35235       8   35241   35238       9   35247   35244       8   35250
   35244       8   35250   35247       9   35256   35253       8   35259   35253
       8   35259   35256       9   35265   35262       8   35268   35262       8
   35268   35265       9   35274   35271       8   35277   35271       8   35277
   35274       9   35283   35280       8   35286   35280       8   35286   35283
       9   35292   35289       8   35295   35289       8   35295   35292       9
   35301   35298       8   35304   35298       8   35304   35301       9   35310
   35307       8   35313   35307       8   35313   35310       9   35319   35316
       8   35322   35316       8   35322   35319       9   35328   35325       8
   35331   35325       8   35331   35328       9   35337   35334       8   35340
   35334       8   35340   35337       9   35346   35343       8   35349   35343
       8   35349   35346       9   35355   35352       8   35358   35352       8
   35358   35355       9   35364   35361       8   35367   35361       8   35367
   35364       9   35373   35370       8   35376   35370       8   35376   35373
       9   35382   35379       8   35385   35379       8   35385   35382       9
   35391   35388       8   35394   35388       8   35394   35391       9   35400
   35397       8   35403   35397       8   35403   35400       9   35409   35406
       8   35412   35406       8   35412   35409       9   35418   35415       8
   35421   35415       8   35421   35418       9   35427   35424       8   35430
   35424       8   35430   35427       9   35436   35433       8   35439   35433
       8   35439   35436       9   35445   35442       8   35448   35442       8
   35448   35445       9   35454   35451       8   35457   35451       8   35457
   35454       9   35463   35460       8   35466   35460       8   35466   35463
       9   35472   35469       8   35475   35469       8   35475   35472       9
   35481   35478       8   35484   35478       8   35484   35481       9   35490
   35487       8   35493   35487       8   35493   35490       9   35499   35496
       8   35502   35496       8   35502   35499       9   35508   35505       8
   35511   35505       8   35511   35508       9   35517   35514       8   35520
   35514       8   35520   35517       9   35526   35523       8   35529   35523
       8   35529   35526       9   35535   35532       8   35538   35532       8
   35538   35535       9   35544   35541       8   35547   35541       8   35547
   35544       9   35553   35550       8   35556   35550       8   35556   35553
       9   35562   35559       8   35565   35559       8   35565   35562       9
   35571   35568       8   35574   35568       8   35574   35571       9   35580
   35577       8   35583   35577       8   35583   35580       9   35589   35586
       8   35592   35586       8   35592   35589       9   35598   35595       8
   35601   35595       8   35601   35598       9   35607   35604       8   35610
   35604       8   35610   35607       9   35616   35613       8   35619   35613
       8   35619   35616       9   35625   35622       8   35628   35622       8
   35628   35625       9   35634   35631       8   35637   35631       8   35637
   35634       9   35643   35640       8   35646   35640       8   35646   35643
       9   35652   35649       8   35655   35649       8   35655   35652       9
   35661   35658       8   35664   35658       8   35664   35661       9   35670
   35667       8   35673   35667       8   35673   35670       9   35679   35676
       8   35682   35676       8   35682   35679       9   35688   35685       8
   35691   35685       8   35691   35688       9   35697   35694       8   35700
   35694       8   35700   35697       9   35706   35703       8   35709   35703
       8   35709   35706       9   35715   35712       8   35718   35712       8
   35718   35715       9   35724   35721       8   35727   35721       8   35727
   35724       9   35733   35730       8   35736   35730       8   35736   35733
       9   35742   35739       8   35745   35739       8   35745   35742       9
   35751   35748       8   35754   35748       8   35754   35751       9   35760
   35757       8   35763   35757       8   35763   35760       9   35769   35766
       8   35772   35766       8   35772   35769       9   35778   35775       8
   35781   35775       8   35781   35778       9   35787   35784       8   35790
   35784       8   35790   35787       9   35796   35793       8   35799   35793
       8   35799   35796       9   35805   35802       8   35808   35802       8
   35808   35805       9   35814   35811       8   35817   35811       8   35817
   35814       9   35823   35820       8   35826   35820       8   35826   35823
       9   35832   35829       8   35835   35829       8   35835   35832       9
   35841   35838       8   35844   35838       8   35844   35841       9   35850
   35847       8   35853   35847       8   35853   35850       9   35859   35856
       8   35862   35856       8   35862   35859       9   35868   35865       8
   35871   35865       8   35871   35868       9   35877   35874       8   35880
   35874       8   35880   35877       9   35886   35883       8   35889   35883
       8   35889   35886       9   35895   35892       8   35898   35892       8
   35898   35895       9   35904   35901       8   35907   35901       8   35907
   35904       9   35913   35910       8   35916   35910       8   35916   35913
       9   35922   35919       8   35925   35919       8   35925   35922       9
   35931   35928       8   35934   35928       8   35934   35931       9   35940
   35937       8   35943   35937       8   35943   35940       9   35949   35946
       8   35952   35946       8   35952   35949       9   35958   35955       8
   35961   35955       8   35961   35958       9   35967   35964       8   35970
   35964       8   35970   35967       9   35976   35973       8   35979   35973
       8   35979   35976       9   35985   35982       8   35988   35982       8
   35988   35985       9   35994   35991       8   35997   35991       8   35997
   35994       9   36003   36000       8   36006   36000       8   36006   36003
       9   36012   36009       8   36015   36009       8   36015   36012       9
   36021   36018       8   36024   36018       8   36024   36021       9   36030
   36027       8   36033   36027       8   36033   36030       9   36039   36036
       8   36042   36036       8   36042   36039       9   36048   36045       8
   36051   36045       8   36051   36048       9   36057   36054       8   36060
   36054       8   36060   36057       9   36066   36063       8   36069   36063
       8   36069   36066       9   36075   36072       8   36078   36072       8
   36078   36075       9   36084   36081       8   36087   36081       8   36087
   36084       9   36093   36090       8   36096   36090       8   36096   36093
       9   36102   36099       8   36105   36099       8   36105   36102       9
   36111   36108       8   36114   36108       8   36114   36111       9   36120
   36117       8   36123   36117       8   36123   36120       9   36129   36126
       8   36132   36126       8   36132   36129       9   36138   36135       8
   36141   36135       8   36141   36138       9   36147   36144       8   36150
   36144       8   36150   36147       9   36156   36153       8   36159   36153
       8   36159   36156       9   36165   36162       8   36168   36162       8
   36168   36165       9   36174   36171       8   36177   36171       8   36177
   36174       9   36183   36180       8   36186   36180       8   36186   36183
       9   36192   36189       8   36195   36189       8   36195   36192       9
   36201   36198       8   36204   36198       8   36204   36201       9   36210
   36207       8   36213   36207       8   36213   36210       9   36219   36216
       8   36222   36216       8   36222   36219       9   36228   36225       8
   36231   36225       8   36231   36228       9   36237   36234       8   36240
   36234       8   36240   36237       9   36246   36243       8   36249   36243
       8   36249   36246       9   36255   36252       8   36258   36252       8
   36258   36255       9   36264   36261       8   36267   36261       8   36267
   36264       9   36273   36270       8   36276   36270       8   36276   36273
       9   36282   36279       8   36285   36279       8   36285   36282       9
   36291   36288       8   36294   36288       8   36294   36291       9   36300
   36297       8   36303   36297       8   36303   36300       9   36309   36306
       8   36312   36306       8   36312   36309       9   36318   36315       8
   36321   36315       8   36321   36318       9   36327   36324       8   36330
   36324       8   36330   36327       9   36336   36333       8   36339   36333
       8   36339   36336       9   36345   36342       8   36348   36342       8
   36348   36345       9   36354   36351       8   36357   36351       8   36357
   36354       9   36363   36360       8   36366   36360       8   36366   36363
       9   36372   36369       8   36375   36369       8   36375   36372       9
   36381   36378       8   36384   36378       8   36384   36381       9   36390
   36387       8   36393   36387       8   36393   36390       9   36399   36396
       8   36402   36396       8   36402   36399       9   36408   36405       8
   36411   36405       8   36411   36408       9   36417   36414       8   36420
   36414       8   36420   36417       9   36426   36423       8   36429   36423
       8   36429   36426       9   36435   36432       8   36438   36432       8
   36438   36435       9   36444   36441       8   36447   36441       8   36447
   36444       9   36453   36450       8   36456   36450       8   36456   36453
       9   36462   36459       8   36465   36459       8   36465   36462       9
   36471   36468       8   36474   36468       8   36474   36471       9   36480
   36477       8   36483   36477       8   36483   36480       9   36489   36486
       8   36492   36486       8   36492   36489       9   36498   36495       8
   36501   36495       8   36501   36498       9   36507   36504       8   36510
   36504       8   36510   36507       9   36516   36513       8   36519   36513
       8   36519   36516       9   36525   36522       8   36528   36522       8
   36528   36525       9   36534   36531       8   36537   36531       8   36537
   36534       9   36543   36540       8   36546   36540       8   36546   36543
       9   36552   36549       8   36555   36549       8   36555   36552       9
   36561   36558       8   36564   36558       8   36564   36561       9   36570
   36567       8   36573   36567       8   36573   36570       9   36579   36576
       8   36582   36576       8   36582   36579       9   36588   36585       8
   36591   36585       8   36591   36588       9   36597   36594       8   36600
   36594       8   36600   36597       9   36606   36603       8   36609   36603
       8   36609   36606       9   36615   36612       8   36618   36612       8
   36618   36615       9   36624   36621       8   36627   36621       8   36627
   36624       9   36633   36630       8   36636   36630       8   36636   36633
       9   36642   36639       8   36645   36639       8   36645   36642       9
   36651   36648       8   36654   36648       8   36654   36651       9   36660
   36657       8   36663   36657       8   36663   36660       9   36669   36666
       8   36672   36666       8   36672   36669       9   36678   36675       8
   36681   36675       8   36681   36678       9   36687   36684       8   36690
   36684       8   36690   36687       9   36696   36693       8   36699   36693
       8   36699   36696       9   36705   36702       8   36708   36702       8
   36708   36705       9   36714   36711       8   36717   36711       8   36717
   36714       9   36723   36720       8   36726   36720       8   36726   36723
       9   36732   36729       8   36735   36729       8   36735   36732       9
   36741   36738       8   36744   36738       8   36744   36741       9   36750
   36747       8   36753   36747       8   36753   36750       9   36759   36756
       8   36762   36756       8   36762   36759       9   36768   36765       8
   36771   36765       8   36771   36768       9   36777   36774       8   36780
   36774       8   36780   36777       9   36786   36783       8   36789   36783
       8   36789   36786       9   36795   36792       8   36798   36792       8
   36798   36795       9   36804   36801       8   36807   36801       8   36807
   36804       9   36813   36810       8   36816   36810       8   36816   36813
       9   36822   36819       8   36825   36819       8   36825   36822       9
   36831   36828       8   36834   36828       8   36834   36831       9   36840
   36837       8   36843   36837       8   36843   36840       9   36849   36846
       8   36852   36846       8   36852   36849       9   36858   36855       8
   36861   36855       8   36861   36858       9   36867   36864       8   36870
   36864       8   36870   36867       9   36876   36873       8   36879   36873
       8   36879   36876       9   36885   36882       8   36888   36882       8
   36888   36885       9   36894   36891       8   36897   36891       8   36897
   36894       9   36903   36900       8   36906   36900       8   36906   36903
       9   36912   36909       8   36915   36909       8   36915   36912       9
   36921   36918       8   36924   36918       8   36924   36921       9   36930
   36927       8   36933   36927       8   36933   36930       9   36939   36936
       8   36942   36936       8   36942   36939       9   36948   36945       8
   36951   36945       8   36951   36948       9   36957   36954       8   36960
   36954       8   36960   36957       9   36966   36963       8   36969   36963
       8   36969   36966       9   36975   36972       8   36978   36972       8
   36978   36975       9   36984   36981       8   36987   36981       8   36987
   36984       9   36993   36990       8   36996   36990       8   36996   36993
       9   37002   36999       8   37005   36999       8   37005   37002       9
   37011   37008       8   37014   37008       8   37014   37011       9   37020
   37017       8   37023   37017       8   37023   37020       9   37029   37026
       8   37032   37026       8   37032   37029       9   37038   37035       8
   37041   37035       8   37041   37038       9   37047   37044       8   37050
   37044       8   37050   37047       9   37056   37053       8   37059   37053
       8   37059   37056       9   37065   37062       8   37068   37062       8
   37068   37065       9   37074   37071       8   37077   37071       8   37077
   37074       9   37083   37080       8   37086   37080       8   37086   37083
       9   37092   37089       8   37095   37089       8   37095   37092       9
   37101   37098       8   37104   37098       8   37104   37101       9   37110
   37107       8   37113   37107       8   37113   37110       9   37119   37116
       8   37122   37116       8   37122   37119       9   37128   37125       8
   37131   37125       8   37131   37128       9   37137   37134       8   37140
   37134       8   37140   37137       9   37146   37143       8   37149   37143
       8   37149   37146       9   37155   37152       8   37158   37152       8
   37158   37155       9   37164   37161       8   37167   37161       8   37167
   37164       9   37173   37170       8   37176   37170       8   37176   37173
       9   37182   37179       8   37185   37179       8   37185   37182       9
   37191   37188       8   37194   37188       8   37194   37191       9   37200
   37197       8   37203   37197       8   37203   37200       9   37209   37206
       8   37212   37206       8   37212   37209       9   37218   37215       8
   37221   37215       8   37221   37218       9   37227   37224       8   37230
   37224       8   37230   37227       9   37236   37233       8   37239   37233
       8   37239   37236       9   37245   37242       8   37248   37242       8
   37248   37245       9   37254   37251       8   37257   37251       8   37257
   37254       9   37263   37260       8   37266   37260       8   37266   37263
       9   37272   37269       8   37275   37269       8   37275   37272       9
   37281   37278       8   37284   37278       8   37284   37281       9   37290
   37287       8   37293   37287       8   37293   37290       9   37299   37296
       8   37302   37296       8   37302   37299       9   37308   37305       8
   37311   37305       8   37311   37308       9   37317   37314       8   37320
   37314       8   37320   37317       9   37326   37323       8   37329   37323
       8   37329   37326       9   37335   37332       8   37338   37332       8
   37338   37335       9   37344   37341       8   37347   37341       8   37347
   37344       9   37353   37350       8   37356   37350       8   37356   37353
       9   37362   37359       8   37365   37359       8   37365   37362       9
   37371   37368       8   37374   37368       8   37374   37371       9   37380
   37377       8   37383   37377       8   37383   37380       9   37389   37386
       8   37392   37386       8   37392   37389       9   37398   37395       8
   37401   37395       8   37401   37398       9   37407   37404       8   37410
   37404       8   37410   37407       9   37416   37413       8   37419   37413
       8   37419   37416       9   37425   37422       8   37428   37422       8
   37428   37425       9   37434   37431       8   37437   37431       8   37437
   37434       9   37443   37440       8   37446   37440       8   37446   37443
       9   37452   37449       8   37455   37449       8   37455   37452       9
   37461   37458       8   37464   37458       8   37464   37461       9   37470
   37467       8   37473   37467       8   37473   37470       9   37479   37476
       8   37482   37476       8   37482   37479       9   37488   37485       8
   37491   37485       8   37491   37488       9   37497   37494       8   37500
   37494       8   37500   37497       9   37506   37503       8   37509   37503
       8   37509   37506       9   37515   37512       8   37518   37512       8
   37518   37515       9   37524   37521       8   37527   37521       8   37527
   37524       9   37533   37530       8   37536   37530       8   37536   37533
       9   37542   37539       8   37545   37539       8   37545   37542       9
   37551   37548       8   37554   37548       8   37554   37551       9   37560
   37557       8   37563   37557       8   37563   37560       9   37569   37566
       8   37572   37566       8   37572   37569       9   37578   37575       8
   37581   37575       8   37581   37578       9   37587   37584       8   37590
   37584       8   37590   37587       9   37596   37593       8   37599   37593
       8   37599   37596       9   37605   37602       8   37608   37602       8
   37608   37605       9   37614   37611       8   37617   37611       8   37617
   37614       9   37623   37620       8   37626   37620       8   37626   37623
       9   37632   37629       8   37635   37629       8   37635   37632       9
   37641   37638       8   37644   37638       8   37644   37641       9   37650
   37647       8   37653   37647       8   37653   37650       9   37659   37656
       8   37662   37656       8   37662   37659       9   37668   37665       8
   37671   37665       8   37671   37668       9   37677   37674       8   37680
   37674       8   37680   37677       9   37686   37683       8   37689   37683
       8   37689   37686       9   37695   37692       8   37698   37692       8
   37698   37695       9   37704   37701       8   37707   37701       8   37707
   37704       9   37713   37710       8   37716   37710       8   37716   37713
       9   37722   37719       8   37725   37719       8   37725   37722       9
   37731   37728       8   37734   37728       8   37734   37731       9   37740
   37737       8   37743   37737       8   37743   37740       9   37749   37746
       8   37752   37746       8   37752   37749       9   37758   37755       8
   37761   37755       8   37761   37758       9   37767   37764       8   37770
   37764       8   37770   37767       9   37776   37773       8   37779   37773
       8   37779   37776       9   37785   37782       8   37788   37782       8
   37788   37785       9   37794   37791       8   37797   37791       8   37797
   37794       9   37803   37800       8   37806   37800       8   37806   37803
       9   37812   37809       8   37815   37809       8   37815   37812       9
   37821   37818       8   37824   37818       8   37824   37821       9   37830
   37827       8   37833   37827       8   37833   37830       9   37839   37836
       8   37842   37836       8   37842   37839       9   37848   37845       8
   37851   37845       8   37851   37848       9   37857   37854       8   37860
   37854       8   37860   37857       9   37866   37863       8   37869   37863
       8   37869   37866       9   37875   37872       8   37878   37872       8
   37878   37875       9   37884   37881       8   37887   37881       8   37887
   37884       9   37893   37890       8   37896   37890       8   37896   37893
       9   37902   37899       8   37905   37899       8   37905   37902       9
   37911   37908       8   37914   37908       8   37914   37911       9   37920
   37917       8   37923   37917       8   37923   37920       9   37929   37926
       8   37932   37926       8   37932   37929       9   37938   37935       8
   37941   37935       8   37941   37938       9   37947   37944       8   37950
   37944       8   37950   37947       9   37956   37953       8   37959   37953
       8   37959   37956       9   37965   37962       8   37968   37962       8
   37968   37965       9   37974   37971       8   37977   37971       8   37977
   37974       9   37983   37980       8   37986   37980       8   37986   37983
       9   37992   37989       8   37995   37989       8   37995   37992       9
   38001   37998       8   38004   37998       8   38004   38001       9   38010
   38007       8   38013   38007       8   38013   38010       9   38019   38016
       8   38022   38016       8   38022   38019       9   38028   38025       8
   38031   38025       8   38031   38028       9   38037   38034       8   38040
   38034       8   38040   38037       9   38046   38043       8   38049   38043
       8   38049   38046       9   38055   38052       8   38058   38052       8
   38058   38055       9   38064   38061       8   38067   38061       8   38067
   38064       9   38073   38070       8   38076   38070       8   38076   38073
       9   38082   38079       8   38085   38079       8   38085   38082       9
   38091   38088       8   38094   38088       8   38094   38091       9   38100
   38097       8   38103   38097       8   38103   38100       9   38109   38106
       8   38112   38106       8   38112   38109       9   38118   38115       8
   38121   38115       8   38121   38118       9   38127   38124       8   38130
   38124       8   38130   38127       9   38136   38133       8   38139   38133
       8   38139   38136       9   38145   38142       8   38148   38142       8
   38148   38145       9   38154   38151       8   38157   38151       8   38157
   38154       9   38163   38160       8   38166   38160       8   38166   38163
       9   38172   38169       8   38175   38169       8   38175   38172       9
   38181   38178       8   38184   38178       8   38184   38181       9   38190
   38187       8   38193   38187       8   38193   38190       9   38199   38196
       8   38202   38196       8   38202   38199       9   38208   38205       8
   38211   38205       8   38211   38208       9   38217   38214       8   38220
   38214       8   38220   38217       9   38226   38223       8   38229   38223
       8   38229   38226       9   38235   38232       8   38238   38232       8
   38238   38235       9   38244   38241       8   38247   38241       8   38247
   38244       9   38253   38250       8   38256   38250       8   38256   38253
       9   38262   38259       8   38265   38259       8   38265   38262       9
   38271   38268       8   38274   38268       8   38274   38271       9   38280
   38277       8   38283   38277       8   38283   38280       9   38289   38286
       8   38292   38286       8   38292   38289       9   38298   38295       8
   38301   38295       8   38301   38298       9   38307   38304       8   38310
   38304       8   38310   38307       9   38316   38313       8   38319   38313
       8   38319   38316       9   38325   38322       8   38328   38322       8
   38328   38325       9   38334   38331       8   38337   38331       8   38337
   38334       9   38343   38340       8   38346   38340       8   38346   38343
       9   38352   38349       8   38355   38349       8   38355   38352       9
   38361   38358       8   38364   38358       8   38364   38361       9   38370
   38367       8   38373   38367       8   38373   38370       9   38379   38376
       8   38382   38376       8   38382   38379       9   38388   38385       8
   38391   38385       8   38391   38388       9   38397   38394       8   38400
   38394       8   38400   38397       9   38406   38403       8   38409   38403
       8   38409   38406       9   38415   38412       8   38418   38412       8
   38418   38415       9   38424   38421       8   38427   38421       8   38427
   38424       9   38433   38430       8   38436   38430       8   38436   38433
       9   38442   38439       8   38445   38439       8   38445   38442       9
   38451   38448       8   38454   38448       8   38454   38451       9   38460
   38457       8   38463   38457       8   38463   38460       9   38469   38466
       8   38472   38466       8   38472   38469       9   38478   38475       8
   38481   38475       8   38481   38478       9   38487   38484       8   38490
   38484       8   38490   38487       9   38496   38493       8   38499   38493
       8   38499   38496       9   38505   38502       8   38508   38502       8
   38508   38505       9   38514   38511       8   38517   38511       8   38517
   38514       9   38523   38520       8   38526   38520       8   38526   38523
       9   38532   38529       8   38535   38529       8   38535   38532       9
   38541   38538       8   38544   38538       8   38544   38541       9   38550
   38547       8   38553   38547       8   38553   38550       9   38559   38556
       8   38562   38556       8   38562   38559       9   38568   38565       8
   38571   38565       8   38571   38568       9   38577   38574       8   38580
   38574       8   38580   38577       9   38586   38583       8   38589   38583
       8   38589   38586       9   38595   38592       8   38598   38592       8
   38598   38595       9   38604   38601       8   38607   38601       8   38607
   38604       9   38613   38610       8   38616   38610       8   38616   38613
       9   38622   38619       8   38625   38619       8   38625   38622       9
   38631   38628       8   38634   38628       8   38634   38631       9   38640
   38637       8   38643   38637       8   38643   38640       9   38649   38646
       8   38652   38646       8   38652   38649       9   38658   38655       8
   38661   38655       8   38661   38658       9   38667   38664       8   38670
   38664       8   38670   38667       9   38676   38673       8   38679   38673
       8   38679   38676       9   38685   38682       8   38688   38682       8
   38688   38685       9   38694   38691       8   38697   38691       8   38697
   38694       9   38703   38700       8   38706   38700       8   38706   38703
       9   38712   38709       8   38715   38709       8   38715   38712       9
   38721   38718       8   38724   38718       8   38724   38721       9   38730
   38727       8   38733   38727       8   38733   38730       9   38739   38736
       8   38742   38736       8   38742   38739       9   38748   38745       8
   38751   38745       8   38751   38748       9   38757   38754       8   38760
   38754       8   38760   38757       9   38766   38763       8   38769   38763
       8   38769   38766       9   38775   38772       8   38778   38772       8
   38778   38775       9   38784   38781       8   38787   38781       8   38787
   38784       9   38793   38790       8   38796   38790       8   38796   38793
       9   38802   38799       8   38805   38799       8   38805   38802       9
   38811   38808       8   38814   38808       8   38814   38811       9   38820
   38817       8   38823   38817       8   38823   38820       9   38829   38826
       8   38832   38826       8   38832   38829       9   38838   38835       8
   38841   38835       8   38841   38838       9   38847   38844       8   38850
   38844       8   38850   38847       9   38856   38853       8   38859   38853
       8   38859   38856       9   38865   38862       8   38868   38862       8
   38868   38865       9   38874   38871       8   38877   38871       8   38877
   38874       9   38883   38880       8   38886   38880       8   38886   38883
       9   38892   38889       8   38895   38889       8   38895   38892       9
   38901   38898       8   38904   38898       8   38904   38901       9   38910
   38907       8   38913   38907       8   38913   38910       9   38919   38916
       8   38922   38916       8   38922   38919       9   38928   38925       8
   38931   38925       8   38931   38928       9   38937   38934       8   38940
   38934       8   38940   38937       9   38946   38943       8   38949   38943
       8   38949   38946       9   38955   38952       8   38958   38952       8
   38958   38955       9   38964   38961       8   38967   38961       8   38967
   38964       9   38973   38970       8   38976   38970       8   38976   38973
       9   38982   38979       8   38985   38979       8   38985   38982       9
   38991   38988       8   38994   38988       8   38994   38991       9   39000
   38997       8   39003   38997       8   39003   39000       9   39009   39006
       8   39012   39006       8   39012   39009       9   39018   39015       8
   39021   39015       8   39021   39018       9   39027   39024       8   39030
   39024       8   39030   39027       9   39036   39033       8   39039   39033
       8   39039   39036       9   39045   39042       8   39048   39042       8
   39048   39045       9   39054   39051       8   39057   39051       8   39057
   39054       9   39063   39060       8   39066   39060       8   39066   39063
       9   39072   39069       8   39075   39069       8   39075   39072       9
   39081   39078       8   39084   39078       8   39084   39081       9   39090
   39087       8   39093   39087       8   39093   39090       9   39099   39096
       8   39102   39096       8   39102   39099       9   39108   39105       8
   39111   39105       8   39111   39108       9   39117   39114       8   39120
   39114       8   39120   39117       9   39126   39123       8   39129   39123
       8   39129   39126       9   39135   39132       8   39138   39132       8
   39138   39135       9   39144   39141       8   39147   39141       8   39147
   39144       9   39153   39150       8   39156   39150       8   39156   39153
       9   39162   39159       8   39165   39159       8   39165   39162       9
   39171   39168       8   39174   39168       8   39174   39171       9   39180
   39177       8   39183   39177       8   39183   39180       9   39189   39186
       8   39192   39186       8   39192   39189       9   39198   39195       8
   39201   39195       8   39201   39198       9   39207   39204       8   39210
   39204       8   39210   39207       9   39216   39213       8   39219   39213
       8   39219   39216       9   39225   39222       8   39228   39222       8
   39228   39225       9   39234   39231       8   39237   39231       8   39237
   39234       9   39243   39240       8   39246   39240       8   39246   39243
       9   39252   39249       8   39255   39249       8   39255   39252       9
   39261   39258       8   39264   39258       8   39264   39261       9   39270
   39267       8   39273   39267       8   39273   39270       9   39279   39276
       8   39282   39276       8   39282   39279       9   39288   39285       8
   39291   39285       8   39291   39288       9   39297   39294       8   39300
   39294       8   39300   39297       9   39306   39303       8   39309   39303
       8   39309   39306       9   39315   39312       8   39318   39312       8
   39318   39315       9   39324   39321       8   39327   39321       8   39327
   39324       9   39333   39330       8   39336   39330       8   39336   39333
       9   39342   39339       8   39345   39339       8   39345   39342       9
   39351   39348       8   39354   39348       8   39354   39351       9   39360
   39357       8   39363   39357       8   39363   39360       9   39369   39366
       8   39372   39366       8   39372   39369       9   39378   39375       8
   39381   39375       8   39381   39378       9   39387   39384       8   39390
   39384       8   39390   39387       9   39396   39393       8   39399   39393
       8   39399   39396       9   39405   39402       8   39408   39402       8
   39408   39405       9   39414   39411       8   39417   39411       8   39417
   39414       9   39423   39420       8   39426   39420       8   39426   39423
       9   39432   39429       8   39435   39429       8   39435   39432       9
   39441   39438       8   39444   39438       8   39444   39441       9   39450
   39447       8   39453   39447       8   39453   39450       9   39459   39456
       8   39462   39456       8   39462   39459       9   39468   39465       8
   39471   39465       8   39471   39468       9   39477   39474       8   39480
   39474       8   39480   39477       9   39486   39483       8   39489   39483
       8   39489   39486       9   39495   39492       8   39498   39492       8
   39498   39495       9   39504   39501       8   39507   39501       8   39507
   39504       9   39513   39510       8   39516   39510       8   39516   39513
       9   39522   39519       8   39525   39519       8   39525   39522       9
   39531   39528       8   39534   39528       8   39534   39531       9   39540
   39537       8   39543   39537       8   39543   39540       9   39549   39546
       8   39552   39546       8   39552   39549       9   39558   39555       8
   39561   39555       8   39561   39558       9   39567   39564       8   39570
   39564       8   39570   39567       9   39576   39573       8   39579   39573
       8   39579   39576       9   39585   39582       8   39588   39582       8
   39588   39585       9   39594   39591       8   39597   39591       8   39597
   39594       9   39603   39600       8   39606   39600       8   39606   39603
       9   39612   39609       8   39615   39609       8   39615   39612       9
   39621   39618       8   39624   39618       8   39624   39621       9   39630
   39627       8   39633   39627       8   39633   39630       9   39639   39636
       8   39642   39636       8   39642   39639       9   39648   39645       8
   39651   39645       8   39651   39648       9   39657   39654       8   39660
   39654       8   39660   39657       9   39666   39663       8   39669   39663
       8   39669   39666       9   39675   39672       8   39678   39672       8
   39678   39675       9   39684   39681       8   39687   39681       8   39687
   39684       9   39693   39690       8   39696   39690       8   39696   39693
       9   39702   39699       8   39705   39699       8   39705   39702       9
   39711   39708       8   39714   39708       8   39714   39711       9   39720
   39717       8   39723   39717       8   39723   39720       9   39729   39726
       8   39732   39726       8   39732   39729       9   39738   39735       8
   39741   39735       8   39741   39738       9   39747   39744       8   39750
   39744       8   39750   39747       9   39756   39753       8   39759   39753
       8   39759   39756       9   39765   39762       8   39768   39762       8
   39768   39765       9   39774   39771       8   39777   39771       8   39777
   39774       9   39783   39780       8   39786   39780       8   39786   39783
       9   39792   39789       8   39795   39789       8   39795   39792       9
   39801   39798       8   39804   39798       8   39804   39801       9   39810
   39807       8   39813   39807       8   39813   39810       9   39819   39816
       8   39822   39816       8   39822   39819       9   39828   39825       8
   39831   39825       8   39831   39828       9   39837   39834       8   39840
   39834       8   39840   39837       9   39846   39843       8   39849   39843
       8   39849   39846       9   39855   39852       8   39858   39852       8
   39858   39855       9   39864   39861       8   39867   39861       8   39867
   39864       9   39873   39870       8   39876   39870       8   39876   39873
       9   39882   39879       8   39885   39879       8   39885   39882       9
   39891   39888       8   39894   39888       8   39894   39891       9   39900
   39897       8   39903   39897       8   39903   39900       9   39909   39906
       8   39912   39906       8   39912   39909       9   39918   39915       8
   39921   39915       8   39921   39918       9   39927   39924       8   39930
   39924       8   39930   39927       9   39936   39933       8   39939   39933
       8   39939   39936       9   39945   39942       8   39948   39942       8
   39948   39945       9   39954   39951       8   39957   39951       8   39957
   39954       9   39963   39960       8   39966   39960       8   39966   39963
       9   39972   39969       8   39975   39969       8   39975   39972       9
   39981   39978       8   39984   39978       8   39984   39981       9   39990
   39987       8   39993   39987       8   39993   39990       9   39999   39996
       8   40002   39996       8   40002   39999       9   40008   40005       8
   40011   40005       8   40011   40008       9   40017   40014       8   40020
   40014       8   40020   40017       9   40026   40023       8   40029   40023
       8   40029   40026       9   40035   40032       8   40038   40032       8
   40038   40035       9   40044   40041       8   40047   40041       8   40047
   40044       9   40053   40050       8   40056   40050       8   40056   40053
       9   40062   40059       8   40065   40059       8   40065   40062       9
   40071   40068       8   40074   40068       8   40074   40071       9   40080
   40077       8   40083   40077       8   40083   40080       9   40089   40086
       8   40092   40086       8   40092   40089       9   40098   40095       8
   40101   40095       8   40101   40098       9   40107   40104       8   40110
   40104       8   40110   40107       9   40116   40113       8   40119   40113
       8   40119   40116       9   40125   40122       8   40128   40122       8
   40128   40125       9   40134   40131       8   40137   40131       8   40137
   40134       9   40143   40140       8   40146   40140       8   40146   40143
       9   40152   40149       8   40155   40149       8   40155   40152       9
   40161   40158       8   40164   40158       8   40164   40161       9   40170
   40167       8   40173   40167       8   40173   40170       9   40179   40176
       8   40182   40176       8   40182   40179       9   40188   40185       8
   40191   40185       8   40191   40188       9   40197   40194       8   40200
   40194       8   40200   40197       9   40206   40203       8   40209   40203
       8   40209   40206       9   40215   40212       8   40218   40212       8
   40218   40215       9   40224   40221       8   40227   40221       8   40227
   40224       9   40233   40230       8   40236   40230       8   40236   40233
       9   40242   40239       8   40245   40239       8   40245   40242       9
   40251   40248       8   40254   40248       8   40254   40251       9   40260
   40257       8   40263   40257       8   40263   40260       9   40269   40266
       8   40272   40266       8   40272   40269       9   40278   40275       8
   40281   40275       8   40281   40278       9   40287   40284       8   40290
   40284       8   40290   40287       9   40296   40293       8   40299   40293
       8   40299   40296       9   40305   40302       8   40308   40302       8
   40308   40305       9   40314   40311       8   40317   40311       8   40317
   40314       9   40323   40320       8   40326   40320       8   40326   40323
       9   40332   40329       8   40335   40329       8   40335   40332       9
   40341   40338       8   40344   40338       8   40344   40341       9   40350
   40347       8   40353   40347       8   40353   40350       9   40359   40356
       8   40362   40356       8   40362   40359       9   40368   40365       8
   40371   40365       8   40371   40368       9   40377   40374       8   40380
   40374       8   40380   40377       9   40386   40383       8   40389   40383
       8   40389   40386       9   40395   40392       8   40398   40392       8
   40398   40395       9   40404   40401       8   40407   40401       8   40407
   40404       9   40413   40410       8   40416   40410       8   40416   40413
       9   40422   40419       8   40425   40419       8   40425   40422       9
   40431   40428       8   40434   40428       8   40434   40431       9   40440
   40437       8   40443   40437       8   40443   40440       9   40449   40446
       8   40452   40446       8   40452   40449       9   40458   40455       8
   40461   40455       8   40461   40458       9   40467   40464       8   40470
   40464       8   40470   40467       9   40476   40473       8   40479   40473
       8   40479   40476       9   40485   40482       8   40488   40482       8
   40488   40485       9   40494   40491       8   40497   40491       8   40497
   40494       9   40503   40500       8   40506   40500       8   40506   40503
       9   40512   40509       8   40515   40509       8   40515   40512       9
   40521   40518       8   40524   40518       8   40524   40521       9   40530
   40527       8   40533   40527       8   40533   40530       9   40539   40536
       8   40542   40536       8   40542   40539       9   40548   40545       8
   40551   40545       8   40551   40548       9   40557   40554       8   40560
   40554       8   40560   40557       9   40566   40563       8   40569   40563
       8   40569   40566       9   40575   40572       8   40578   40572       8
   40578   40575       9   40584   40581       8   40587   40581       8   40587
   40584       9   40593   40590       8   40596   40590       8   40596   40593
       9   40602   40599       8   40605   40599       8   40605   40602       9
   40611   40608       8   40614   40608       8   40614   40611       9   40620
   40617       8   40623   40617       8   40623   40620       9   40629   40626
       8   40632   40626       8   40632   40629       9   40638   40635       8
   40641   40635       8   40641   40638       9   40647   40644       8   40650
   40644       8   40650   40647       9   40656   40653       8   40659   40653
       8   40659   40656       9   40665   40662       8   40668   40662       8
   40668   40665       9   40674   40671       8   40677   40671       8   40677
   40674       9   40683   40680       8   40686   40680       8   40686   40683
       9   40692   40689       8   40695   40689       8   40695   40692       9
   40701   40698       8   40704   40698       8   40704   40701       9   40710
   40707       8   40713   40707       8   40713   40710       9   40719   40716
       8   40722   40716       8   40722   40719       9   40728   40725       8
   40731   40725       8   40731   40728       9   40737   40734       8   40740
   40734       8   40740   40737       9   40746   40743       8   40749   40743
       8   40749   40746       9   40755   40752       8   40758   40752       8
   40758   40755       9   40764   40761       8   40767   40761       8   40767
   40764       9   40773   40770       8   40776   40770       8   40776   40773
       9   40782   40779       8   40785   40779       8   40785   40782       9
   40791   40788       8   40794   40788       8   40794   40791       9   40800
   40797       8   40803   40797       8   40803   40800       9   40809   40806
       8   40812   40806       8   40812   40809       9   40818   40815       8
   40821   40815       8   40821   40818       9   40827   40824       8   40830
   40824       8   40830   40827       9   40836   40833       8   40839   40833
       8   40839   40836       9   40845   40842       8   40848   40842       8
   40848   40845       9   40854   40851       8   40857   40851       8   40857
   40854       9   40863   40860       8   40866   40860       8   40866   40863
       9   40872   40869       8   40875   40869       8   40875   40872       9
   40881   40878       8   40884   40878       8   40884   40881       9   40890
   40887       8   40893   40887       8   40893   40890       9   40899   40896
       8   40902   40896       8   40902   40899       9   40908   40905       8
   40911   40905       8   40911   40908       9   40917   40914       8   40920
   40914       8   40920   40917       9   40926   40923       8   40929   40923
       8   40929   40926       9   40935   40932       8   40938   40932       8
   40938   40935       9   40944   40941       8   40947   40941       8   40947
   40944       9   40953   40950       8   40956   40950       8   40956   40953
       9   40962   40959       8   40965   40959       8   40965   40962       9
   40971   40968       8   40974   40968       8   40974   40971       9   40980
   40977       8   40983   40977       8   40983   40980       9   40989   40986
       8   40992   40986       8   40992   40989       9   40998   40995       8
   41001   40995       8   41001   40998       9   41007   41004       8   41010
   41004       8   41010   41007       9   41016   41013       8   41019   41013
       8   41019   41016       9   41025   41022       8   41028   41022       8
   41028   41025       9   41034   41031       8   41037   41031       8   41037
   41034       9   41043   41040       8   41046   41040       8   41046   41043
       9   41052   41049       8   41055   41049       8   41055   41052       9
   41061   41058       8   41064   41058       8   41064   41061       9   41070
   41067       8   41073   41067       8   41073   41070       9   41079   41076
       8   41082   41076       8   41082   41079       9   41088   41085       8
   41091   41085       8   41091   41088       9   41097   41094       8   41100
   41094       8   41100   41097       9   41106   41103       8   41109   41103
       8   41109   41106       9   41115   41112       8   41118   41112       8
   41118   41115       9   41124   41121       8   41127   41121       8   41127
   41124       9   41133   41130       8   41136   41130       8   41136   41133
       9   41142   41139       8   41145   41139       8   41145   41142       9
   41151   41148       8   41154   41148       8   41154   41151       9   41160
   41157       8   41163   41157       8   41163   41160       9   41169   41166
       8   41172   41166       8   41172   41169       9   41178   41175       8
   41181   41175       8   41181   41178       9   41187   41184       8   41190
   41184       8   41190   41187       9   41196   41193       8   41199   41193
       8   41199   41196       9   41205   41202       8   41208   41202       8
   41208   41205       9   41214   41211       8   41217   41211       8   41217
   41214       9   41223   41220       8   41226   41220       8   41226   41223
       9   41232   41229       8   41235   41229       8   41235   41232       9
   41241   41238       8   41244   41238       8   41244   41241       9   41250
   41247       8   41253   41247       8   41253   41250       9   41259   41256
       8   41262   41256       8   41262   41259       9   41268   41265       8
   41271   41265       8   41271   41268       9   41277   41274       8   41280
   41274       8   41280   41277       9   41286   41283       8   41289   41283
       8   41289   41286       9   41295   41292       8   41298   41292       8
   41298   41295       9   41304   41301       8   41307   41301       8   41307
   41304       9   41313   41310       8   41316   41310       8   41316   41313
       9   41322   41319       8   41325   41319       8   41325   41322       9
   41331   41328       8   41334   41328       8   41334   41331       9   41340
   41337       8   41343   41337       8   41343   41340       9   41349   41346
       8   41352   41346       8   41352   41349       9   41358   41355       8
   41361   41355       8   41361   41358       9   41367   41364       8   41370
   41364       8   41370   41367       9   41376   41373       8   41379   41373
       8   41379   41376       9   41385   41382       8   41388   41382       8
   41388   41385       9   41394   41391       8   41397   41391       8   41397
   41394       9   41403   41400       8   41406   41400       8   41406   41403
       9   41412   41409       8   41415   41409       8   41415   41412       9
   41421   41418       8   41424   41418       8   41424   41421       9   41430
   41427       8   41433   41427       8   41433   41430       9   41439   41436
       8   41442   41436       8   41442   41439       9   41448   41445       8
   41451   41445       8   41451   41448       9   41457   41454       8   41460
   41454       8   41460   41457       9   41466   41463       8   41469   41463
       8   41469   41466       9   41475   41472       8   41478   41472       8
   41478   41475       9   41484   41481       8   41487   41481       8   41487
   41484       9   41493   41490       8   41496   41490       8   41496   41493
       9   41502   41499       8   41505   41499       8   41505   41502       9
   41511   41508       8   41514   41508       8   41514   41511       9   41520
   41517       8   41523   41517       8   41523   41520       9   41529   41526
       8   41532   41526       8   41532   41529       9   41538   41535       8
   41541   41535       8   41541   41538       9   41547   41544       8   41550
   41544       8   41550   41547       9   41556   41553       8   41559   41553
       8   41559   41556       9   41565   41562       8   41568   41562       8
   41568   41565       9   41574   41571       8   41577   41571       8   41577
   41574       9   41583   41580       8   41586   41580       8   41586   41583
       9   41592   41589       8   41595   41589       8   41595   41592       9
   41601   41598       8   41604   41598       8   41604   41601       9   41610
   41607       8   41613   41607       8   41613   41610       9   41619   41616
       8   41622   41616       8   41622   41619       9   41628   41625       8
   41631   41625       8   41631   41628       9   41637   41634       8   41640
   41634       8   41640   41637       9   41646   41643       8   41649   41643
       8   41649   41646       9   41655   41652       8   41658   41652       8
   41658   41655       9   41664   41661       8   41667   41661       8   41667
   41664       9   41673   41670       8   41676   41670       8   41676   41673
       9   41682   41679       8   41685   41679       8   41685   41682       9
   41691   41688       8   41694   41688       8   41694   41691       9   41700
   41697       8   41703   41697       8   41703   41700       9   41709   41706
       8   41712   41706       8   41712   41709       9   41718   41715       8
   41721   41715       8   41721   41718       9   41727   41724       8   41730
   41724       8   41730   41727       9   41736   41733       8   41739   41733
       8   41739   41736       9   41745   41742       8   41748   41742       8
   41748   41745       9   41754   41751       8   41757   41751       8   41757
   41754       9   41763   41760       8   41766   41760       8   41766   41763
       9   41772   41769       8   41775   41769       8   41775   41772       9
   41781   41778       8   41784   41778       8   41784   41781       9   41790
   41787       8   41793   41787       8   41793   41790       9   41799   41796
       8   41802   41796       8   41802   41799       9   41808   41805       8
   41811   41805       8   41811   41808       9   41817   41814       8   41820
   41814       8   41820   41817       9   41826   41823       8   41829   41823
       8   41829   41826       9   41835   41832       8   41838   41832       8
   41838   41835       9   41844   41841       8   41847   41841       8   41847
   41844       9   41853   41850       8   41856   41850       8   41856   41853
       9   41862   41859       8   41865   41859       8   41865   41862       9
   41871   41868       8   41874   41868       8   41874   41871       9   41880
   41877       8   41883   41877       8   41883   41880       9   41889   41886
       8   41892   41886       8   41892   41889       9   41898   41895       8
   41901   41895       8   41901   41898       9   41907   41904       8   41910
   41904       8   41910   41907       9   41916   41913       8   41919   41913
       8   41919   41916       9   41925   41922       8   41928   41922       8
   41928   41925       9   41934   41931       8   41937   41931       8   41937
   41934       9   41943   41940       8   41946   41940       8   41946   41943
       9   41952   41949       8   41955   41949       8   41955   41952       9
   41961   41958       8   41964   41958       8   41964   41961       9   41970
   41967       8   41973   41967       8   41973   41970       9   41979   41976
       8   41982   41976       8   41982   41979       9   41988   41985       8
   41991   41985       8   41991   41988       9   41997   41994       8   42000
   41994       8   42000   41997       9   42006   42003       8   42009   42003
       8   42009   42006       9   42015   42012       8   42018   42012       8
   42018   42015       9   42024   42021       8   42027   42021       8   42027
   42024       9   42033   42030       8   42036   42030       8   42036   42033
       9   42042   42039       8   42045   42039       8   42045   42042       9
   42051   42048       8   42054   42048       8   42054   42051       9   42060
   42057       8   42063   42057       8   42063   42060       9   42069   42066
       8   42072   42066       8   42072   42069       9   42078   42075       8
   42081   42075       8   42081   42078       9   42087   42084       8   42090
   42084       8   42090   42087       9   42096   42093       8   42099   42093
       8   42099   42096       9   42105   42102       8   42108   42102       8
   42108   42105       9   42114   42111       8   42117   42111       8   42117
   42114       9   42123   42120       8   42126   42120       8   42126   42123
       9   42132   42129       8   42135   42129       8   42135   42132       9
   42141   42138       8   42144   42138       8   42144   42141       9   42150
   42147       8   42153   42147       8   42153   42150       9   42159   42156
       8   42162   42156       8   42162   42159       9   42168   42165       8
   42171   42165       8   42171   42168       9   42177   42174       8   42180
   42174       8   42180   42177       9   42186   42183       8   42189   42183
       8   42189   42186       9   42195   42192       8   42198   42192       8
   42198   42195       9   42204   42201       8   42207   42201       8   42207
   42204       9   42213   42210       8   42216   42210       8   42216   42213
       9   42222   42219       8   42225   42219       8   42225   42222       9
   42231   42228       8   42234   42228       8   42234   42231       9   42240
   42237       8   42243   42237       8   42243   42240       9   42249   42246
       8   42252   42246       8   42252   42249       9   42258   42255       8
   42261   42255       8   42261   42258       9   42267   42264       8   42270
   42264       8   42270   42267       9   42276   42273       8   42279   42273
       8   42279   42276       9   42285   42282       8   42288   42282       8
   42288   42285       9   42294   42291       8   42297   42291       8   42297
   42294       9   42303   42300       8   42306   42300       8   42306   42303
       9   42312   42309       8   42315   42309       8   42315   42312       9
   42321   42318       8   42324   42318       8   42324   42321       9   42330
   42327       8   42333   42327       8   42333   42330       9   42339   42336
       8   42342   42336       8   42342   42339       9   42348   42345       8
   42351   42345       8   42351   42348       9   42357   42354       8   42360
   42354       8   42360   42357       9   42366   42363       8   42369   42363
       8   42369   42366       9   42375   42372       8   42378   42372       8
   42378   42375       9   42384   42381       8   42387   42381       8   42387
   42384       9   42393   42390       8   42396   42390       8   42396   42393
       9   42402   42399       8   42405   42399       8   42405   42402       9
   42411   42408       8   42414   42408       8   42414   42411       9   42420
   42417       8   42423   42417       8   42423   42420       9   42429   42426
       8   42432   42426       8   42432   42429       9   42438   42435       8
   42441   42435       8   42441   42438       9   42447   42444       8   42450
   42444       8   42450   42447       9   42456   42453       8   42459   42453
       8   42459   42456       9   42465   42462       8   42468   42462       8
   42468   42465       9   42474   42471       8   42477   42471       8   42477
   42474       9   42483   42480       8   42486   42480       8   42486   42483
       9   42492   42489       8   42495   42489       8   42495   42492       9
   42501   42498       8   42504   42498       8   42504   42501       9   42510
   42507       8   42513   42507       8   42513   42510       9   42519   42516
       8   42522   42516       8   42522   42519       9   42528   42525       8
   42531   42525       8   42531   42528       9   42537   42534       8   42540
   42534       8   42540   42537       9   42546   42543       8   42549   42543
       8   42549   42546       9   42555   42552       8   42558   42552       8
   42558   42555       9   42564   42561       8   42567   42561       8   42567
   42564       9   42573   42570       8   42576   42570       8   42576   42573
       9   42582   42579       8   42585   42579       8   42585   42582       9
   42591   42588       8   42594   42588       8   42594   42591       9   42600
   42597       8   42603   42597       8   42603   42600       9   42609   42606
       8   42612   42606       8   42612   42609       9   42618   42615       8
   42621   42615       8   42621   42618       9   42627   42624       8   42630
   42624       8   42630   42627       9   42636   42633       8   42639   42633
       8   42639   42636       9   42645   42642       8   42648   42642       8
   42648   42645       9   42654   42651       8   42657   42651       8   42657
   42654       9   42663   42660       8   42666   42660       8   42666   42663
       9   42672   42669       8   42675   42669       8   42675   42672       9
   42681   42678       8   42684   42678       8   42684   42681       9   42690
   42687       8   42693   42687       8   42693   42690       9   42699   42696
       8   42702   42696       8   42702   42699       9   42708   42705       8
   42711   42705       8   42711   42708       9   42717   42714       8   42720
   42714       8   42720   42717       9   42726   42723       8   42729   42723
       8   42729   42726       9   42735   42732       8   42738   42732       8
   42738   42735       9   42744   42741       8   42747   42741       8   42747
   42744       9   42753   42750       8   42756   42750       8   42756   42753
       9   42762   42759       8   42765   42759       8   42765   42762       9
   42771   42768       8   42774   42768       8   42774   42771       9   42780
   42777       8   42783   42777       8   42783   42780       9   42789   42786
       8   42792   42786       8   42792   42789       9   42798   42795       8
   42801   42795       8   42801   42798       9   42807   42804       8   42810
   42804       8   42810   42807       9   42816   42813       8   42819   42813
       8   42819   42816       9   42825   42822       8   42828   42822       8
   42828   42825       9   42834   42831       8   42837   42831       8   42837
   42834       9   42843   42840       8   42846   42840       8   42846   42843
       9   42852   42849       8   42855   42849       8   42855   42852       9
   42861   42858       8   42864   42858       8   42864   42861       9   42870
   42867       8   42873   42867       8   42873   42870       9   42879   42876
       8   42882   42876       8   42882   42879       9   42888   42885       8
   42891   42885       8   42891   42888       9   42897   42894       8   42900
   42894       8   42900   42897       9   42906   42903       8   42909   42903
       8   42909   42906       9   42915   42912       8   42918   42912       8
   42918   42915       9   42924   42921       8   42927   42921       8   42927
   42924       9   42933   42930       8   42936   42930       8   42936   42933
       9   42942   42939       8   42945   42939       8   42945   42942       9
   42951   42948       8   42954   42948       8   42954   42951       9   42960
   42957       8   42963   42957       8   42963   42960       9   42969   42966
       8   42972   42966       8   42972   42969       9   42978   42975       8
   42981   42975       8   42981   42978       9   42987   42984       8   42990
   42984       8   42990   42987       9   42996   42993       8   42999   42993
       8   42999   42996       9   43005   43002       8   43008   43002       8
   43008   43005       9   43014   43011       8   43017   43011       8   43017
   43014       9   43023   43020       8   43026   43020       8   43026   43023
       9   43032   43029       8   43035   43029       8   43035   43032       9
   43041   43038       8   43044   43038       8   43044   43041       9   43050
   43047       8   43053   43047       8   43053   43050       9   43059   43056
       8   43062   43056       8   43062   43059       9   43068   43065       8
   43071   43065       8   43071   43068       9   43077   43074       8   43080
   43074       8   43080   43077       9   43086   43083       8   43089   43083
       8   43089   43086       9   43095   43092       8   43098   43092       8
   43098   43095       9   43104   43101       8   43107   43101       8   43107
   43104       9   43113   43110       8   43116   43110       8   43116   43113
       9   43122   43119       8   43125   43119       8   43125   43122       9
   43131   43128       8   43134   43128       8   43134   43131       9   43140
   43137       8   43143   43137       8   43143   43140       9   43149   43146
       8   43152   43146       8   43152   43149       9   43158   43155       8
   43161   43155       8   43161   43158       9   43167   43164       8   43170
   43164       8   43170   43167       9   43176   43173       8   43179   43173
       8   43179   43176       9   43185   43182       8   43188   43182       8
   43188   43185       9   43194   43191       8   43197   43191       8   43197
   43194       9   43203   43200       8   43206   43200       8   43206   43203
       9   43212   43209       8   43215   43209       8   43215   43212       9
   43221   43218       8   43224   43218       8   43224   43221       9   43230
   43227       8   43233   43227       8   43233   43230       9   43239   43236
       8   43242   43236       8   43242   43239       9   43248   43245       8
   43251   43245       8   43251   43248       9   43257   43254       8   43260
   43254       8   43260   43257       9   43266   43263       8   43269   43263
       8   43269   43266       9   43275   43272       8   43278   43272       8
   43278   43275       9   43284   43281       8   43287   43281       8   43287
   43284       9   43293   43290       8   43296   43290       8   43296   43293
       9   43302   43299       8   43305   43299       8   43305   43302       9
   43311   43308       8   43314   43308       8   43314   43311       9   43320
   43317       8   43323   43317       8   43323   43320       9   43329   43326
       8   43332   43326       8   43332   43329       9   43338   43335       8
   43341   43335       8   43341   43338       9   43347   43344       8   43350
   43344       8   43350   43347       9   43356   43353       8   43359   43353
       8   43359   43356       9   43365   43362       8   43368   43362       8
   43368   43365       9   43374   43371       8   43377   43371       8   43377
   43374       9   43383   43380       8   43386   43380       8   43386   43383
       9   43392   43389       8   43395   43389       8   43395   43392       9
   43401   43398       8   43404   43398       8   43404   43401       9   43410
   43407       8   43413   43407       8   43413   43410       9   43419   43416
       8   43422   43416       8   43422   43419       9   43428   43425       8
   43431   43425       8   43431   43428       9   43437   43434       8   43440
   43434       8   43440   43437       9   43446   43443       8   43449   43443
       8   43449   43446       9   43455   43452       8   43458   43452       8
   43458   43455       9   43464   43461       8   43467   43461       8   43467
   43464       9   43473   43470       8   43476   43470       8   43476   43473
       9   43482   43479       8   43485   43479       8   43485   43482       9
   43491   43488       8   43494   43488       8   43494   43491       9   43500
   43497       8   43503   43497       8   43503   43500       9   43509   43506
       8   43512   43506       8   43512   43509       9   43518   43515       8
   43521   43515       8   43521   43518       9   43527   43524       8   43530
   43524       8   43530   43527       9   43536   43533       8   43539   43533
       8   43539   43536       9   43545   43542       8   43548   43542       8
   43548   43545       9   43554   43551       8   43557   43551       8   43557
   43554       9   43563   43560       8   43566   43560       8   43566   43563
       9   43572   43569       8   43575   43569       8   43575   43572       9
   43581   43578       8   43584   43578       8   43584   43581       9   43590
   43587       8   43593   43587       8   43593   43590       9   43599   43596
       8   43602   43596       8   43602   43599       9   43608   43605       8
   43611   43605       8   43611   43608       9   43617   43614       8   43620
   43614       8   43620   43617       9   43626   43623       8   43629   43623
       8   43629   43626       9   43635   43632       8   43638   43632       8
   43638   43635       9   43644   43641       8   43647   43641       8   43647
   43644       9   43653   43650       8   43656   43650       8   43656   43653
       9   43662   43659       8   43665   43659       8   43665   43662       9
   43671   43668       8   43674   43668       8   43674   43671       9   43680
   43677       8   43683   43677       8   43683   43680       9   43689   43686
       8   43692   43686       8   43692   43689       9   43698   43695       8
   43701   43695       8   43701   43698       9   43707   43704       8   43710
   43704       8   43710   43707       9   43716   43713       8   43719   43713
       8   43719   43716       9   43725   43722       8   43728   43722       8
   43728   43725       9   43734   43731       8   43737   43731       8   43737
   43734       9   43743   43740       8   43746   43740       8   43746   43743
       9   43752   43749       8   43755   43749       8   43755   43752       9
   43761   43758       8   43764   43758       8   43764   43761       9   43770
   43767       8   43773   43767       8   43773   43770       9   43779   43776
       8   43782   43776       8   43782   43779       9   43788   43785       8
   43791   43785       8   43791   43788       9   43797   43794       8   43800
   43794       8   43800   43797       9   43806   43803       8   43809   43803
       8   43809   43806       9   43815   43812       8   43818   43812       8
   43818   43815       9   43824   43821       8   43827   43821       8   43827
   43824       9   43833   43830       8   43836   43830       8   43836   43833
       9   43842   43839       8   43845   43839       8   43845   43842       9
   43851   43848       8   43854   43848       8   43854   43851       9   43860
   43857       8   43863   43857       8   43863   43860       9   43869   43866
       8   43872   43866       8   43872   43869       9   43878   43875       8
   43881   43875       8   43881   43878       9   43887   43884       8   43890
   43884       8   43890   43887       9   43896   43893       8   43899   43893
       8   43899   43896       9   43905   43902       8   43908   43902       8
   43908   43905       9   43914   43911       8   43917   43911       8   43917
   43914       9   43923   43920       8   43926   43920       8   43926   43923
       9   43932   43929       8   43935   43929       8   43935   43932       9
   43941   43938       8   43944   43938       8   43944   43941       9   43950
   43947       8   43953   43947       8   43953   43950       9   43959   43956
       8   43962   43956       8   43962   43959       9   43968   43965       8
   43971   43965       8   43971   43968       9   43977   43974       8   43980
   43974       8   43980   43977       9   43986   43983       8   43989   43983
       8   43989   43986       9   43995   43992       8   43998   43992       8
   43998   43995       9   44004   44001       8   44007   44001       8   44007
   44004       9   44013   44010       8   44016   44010       8   44016   44013
       9   44022   44019       8   44025   44019       8   44025   44022       9
   44031   44028       8   44034   44028       8   44034   44031       9   44040
   44037       8   44043   44037       8   44043   44040       9   44049   44046
       8   44052   44046       8   44052   44049       9   44058   44055       8
   44061   44055       8   44061   44058       9   44067   44064       8   44070
   44064       8   44070   44067       9   44076   44073       8   44079   44073
       8   44079   44076       9   44085   44082       8   44088   44082       8
   44088   44085       9   44094   44091       8   44097   44091       8   44097
   44094       9   44103   44100       8   44106   44100       8   44106   44103
       9   44112   44109       8   44115   44109       8   44115   44112       9
   44121   44118       8   44124   44118       8   44124   44121       9   44130
   44127       8   44133   44127       8   44133   44130       9   44139   44136
       8   44142   44136       8   44142   44139       9   44148   44145       8
   44151   44145       8   44151   44148       9   44157   44154       8   44160
   44154       8   44160   44157       9   44166   44163       8   44169   44163
       8   44169   44166       9   44175   44172       8   44178   44172       8
   44178   44175       9   44184   44181       8   44187   44181       8   44187
   44184       9   44193   44190       8   44196   44190       8   44196   44193
       9   44202   44199       8   44205   44199       8   44205   44202       9
   44211   44208       8   44214   44208       8   44214   44211       9   44220
   44217       8   44223   44217       8   44223   44220       9   44229   44226
       8   44232   44226       8   44232   44229       9   44238   44235       8
   44241   44235       8   44241   44238       9   44247   44244       8   44250
   44244       8   44250   44247       9   44256   44253       8   44259   44253
       8   44259   44256       9   44265   44262       8   44268   44262       8
   44268   44265       9   44274   44271       8   44277   44271       8   44277
   44274       9   44283   44280       8   44286   44280       8   44286   44283
       9   44292   44289       8   44295   44289       8   44295   44292       9
   44301   44298       8   44304   44298       8   44304   44301       9   44310
   44307       8   44313   44307       8   44313   44310       9   44319   44316
       8   44322   44316       8   44322   44319       9   44328   44325       8
   44331   44325       8   44331   44328       9   44337   44334       8   44340
   44334       8   44340   44337       9   44346   44343       8   44349   44343
       8   44349   44346       9   44355   44352       8   44358   44352       8
   44358   44355       9   44364   44361       8   44367   44361       8   44367
   44364       9   44373   44370       8   44376   44370       8   44376   44373
       9   44382   44379       8   44385   44379       8   44385   44382       9
   44391   44388       8   44394   44388       8   44394   44391       9   44400
   44397       8   44403   44397       8   44403   44400       9   44409   44406
       8   44412   44406       8   44412   44409       9   44418   44415       8
   44421   44415       8   44421   44418       9   44427   44424       8   44430
   44424       8   44430   44427       9   44436   44433       8   44439   44433
       8   44439   44436       9   44445   44442       8   44448   44442       8
   44448   44445       9   44454   44451       8   44457   44451       8   44457
   44454       9   44463   44460       8   44466   44460       8   44466   44463
       9   44472   44469       8   44475   44469       8   44475   44472       9
   44481   44478       8   44484   44478       8   44484   44481       9   44490
   44487       8   44493   44487       8   44493   44490       9   44499   44496
       8   44502   44496       8   44502   44499       9   44508   44505       8
   44511   44505       8   44511   44508       9   44517   44514       8   44520
   44514       8   44520   44517       9   44526   44523       8   44529   44523
       8   44529   44526       9   44535   44532       8   44538   44532       8
   44538   44535       9   44544   44541       8   44547   44541       8   44547
   44544       9   44553   44550       8   44556   44550       8   44556   44553
       9   44562   44559       8   44565   44559       8   44565   44562       9
   44571   44568       8   44574   44568       8   44574   44571       9   44580
   44577       8   44583   44577       8   44583   44580       9   44589   44586
       8   44592   44586       8   44592   44589       9   44598   44595       8
   44601   44595       8   44601   44598       9   44607   44604       8   44610
   44604       8   44610   44607       9   44616   44613       8   44619   44613
       8   44619   44616       9   44625   44622       8   44628   44622       8
   44628   44625       9   44634   44631       8   44637   44631       8   44637
   44634       9   44643   44640       8   44646   44640       8   44646   44643
       9   44652   44649       8   44655   44649       8   44655   44652       9
   44661   44658       8   44664   44658       8   44664   44661       9   44670
   44667       8   44673   44667       8   44673   44670       9   44679   44676
       8   44682   44676       8   44682   44679       9   44688   44685       8
   44691   44685       8   44691   44688       9   44697   44694       8   44700
   44694       8   44700   44697       9   44706   44703       8   44709   44703
       8   44709   44706       9   44715   44712       8   44718   44712       8
   44718   44715       9   44724   44721       8   44727   44721       8   44727
   44724       9   44733   44730       8   44736   44730       8   44736   44733
       9   44742   44739       8   44745   44739       8   44745   44742       9
   44751   44748       8   44754   44748       8   44754   44751       9   44760
   44757       8   44763   44757       8   44763   44760       9   44769   44766
       8   44772   44766       8   44772   44769       9   44778   44775       8
   44781   44775       8   44781   44778       9   44787   44784       8   44790
   44784       8   44790   44787       9   44796   44793       8   44799   44793
       8   44799   44796       9   44805   44802       8   44808   44802       8
   44808   44805       9   44814   44811       8   44817   44811       8   44817
   44814       9   44823   44820       8   44826   44820       8   44826   44823
       9   44832   44829       8   44835   44829       8   44835   44832       9
   44841   44838       8   44844   44838       8   44844   44841       9   44850
   44847       8   44853   44847       8   44853   44850       9   44859   44856
       8   44862   44856       8   44862   44859       9   44868   44865       8
   44871   44865       8   44871   44868       9   44877   44874       8   44880
   44874       8   44880   44877       9   44886   44883       8   44889   44883
       8   44889   44886       9   44895   44892       8   44898   44892       8
   44898   44895       9   44904   44901       8   44907   44901       8   44907
   44904       9   44913   44910       8   44916   44910       8   44916   44913
       9   44922   44919       8   44925   44919       8   44925   44922       9
   44931   44928       8   44934   44928       8   44934   44931       9   44940
   44937       8   44943   44937       8   44943   44940       9   44949   44946
       8   44952   44946       8   44952   44949       9   44958   44955       8
   44961   44955       8   44961   44958       9   44967   44964       8   44970
   44964       8   44970   44967       9   44976   44973       8   44979   44973
       8   44979   44976       9   44985   44982       8   44988   44982       8
   44988   44985       9   44994   44991       8   44997   44991       8   44997
   44994       9   45003   45000       8   45006   45000       8   45006   45003
       9   45012   45009       8   45015   45009       8   45015   45012       9
   45021   45018       8   45024   45018       8   45024   45021       9   45030
   45027       8   45033   45027       8   45033   45030       9   45039   45036
       8   45042   45036       8   45042   45039       9   45048   45045       8
   45051   45045       8   45051   45048       9   45057   45054       8   45060
   45054       8   45060   45057       9   45066   45063       8   45069   45063
       8   45069   45066       9   45075   45072       8   45078   45072       8
   45078   45075       9   45084   45081       8   45087   45081       8   45087
   45084       9   45093   45090       8   45096   45090       8   45096   45093
       9   45102   45099       8   45105   45099       8   45105   45102       9
   45111   45108       8   45114   45108       8   45114   45111       9   45120
   45117       8   45123   45117       8   45123   45120       9   45129   45126
       8   45132   45126       8   45132   45129       9   45138   45135       8
   45141   45135       8   45141   45138       9   45147   45144       8   45150
   45144       8   45150   45147       9   45156   45153       8   45159   45153
       8   45159   45156       9   45165   45162       8   45168   45162       8
   45168   45165       9   45174   45171       8   45177   45171       8   45177
   45174       9   45183   45180       8   45186   45180       8   45186   45183
       9   45192   45189       8   45195   45189       8   45195   45192       9
   45201   45198       8   45204   45198       8   45204   45201       9   45210
   45207       8   45213   45207       8   45213   45210       9   45219   45216
       8   45222   45216       8   45222   45219       9   45228   45225       8
   45231   45225       8   45231   45228       9   45237   45234       8   45240
   45234       8   45240   45237       9   45246   45243       8   45249   45243
       8   45249   45246       9   45255   45252       8   45258   45252       8
   45258   45255       9   45264   45261       8   45267   45261       8   45267
   45264       9   45273   45270       8   45276   45270       8   45276   45273
       9   45282   45279       8   45285   45279       8   45285   45282       9
   45291   45288       8   45294   45288       8   45294   45291       9   45300
   45297       8   45303   45297       8   45303   45300       9   45309   45306
       8   45312   45306       8   45312   45309       9   45318   45315       8
   45321   45315       8   45321   45318       9   45327   45324       8   45330
   45324       8   45330   45327       9   45336   45333       8   45339   45333
       8   45339   45336       9   45345   45342       8   45348   45342       8
   45348   45345       9   45354   45351       8   45357   45351       8   45357
   45354       9   45363   45360       8   45366   45360       8   45366   45363
       9   45372   45369       8   45375   45369       8   45375   45372       9
   45381   45378       8   45384   45378       8   45384   45381       9   45390
   45387       8   45393   45387       8   45393   45390       9   45399   45396
       8   45402   45396       8   45402   45399       9   45408   45405       8
   45411   45405       8   45411   45408       9   45417   45414       8   45420
   45414       8   45420   45417       9   45426   45423       8   45429   45423
       8   45429   45426       9   45435   45432       8   45438   45432       8
   45438   45435       9   45444   45441       8   45447   45441       8   45447
   45444       9   45453   45450       8   45456   45450       8   45456   45453
       9   45462   45459       8   45465   45459       8   45465   45462       9
   45471   45468       8   45474   45468       8   45474   45471       9   45480
   45477       8   45483   45477       8   45483   45480       9   45489   45486
       8   45492   45486       8   45492   45489       9   45498   45495       8
   45501   45495       8   45501   45498       9   45507   45504       8   45510
   45504       8   45510   45507       9   45516   45513       8   45519   45513
       8   45519   45516       9   45525   45522       8   45528   45522       8
   45528   45525       9   45534   45531       8   45537   45531       8   45537
   45534       9   45543   45540       8   45546   45540       8   45546   45543
       9   45552   45549       8   45555   45549       8   45555   45552       9
   45561   45558       8   45564   45558       8   45564   45561       9   45570
   45567       8   45573   45567       8   45573   45570       9   45579   45576
       8   45582   45576       8   45582   45579       9   45588   45585       8
   45591   45585       8   45591   45588       9   45597   45594       8   45600
   45594       8   45600   45597       9   45606   45603       8   45609   45603
       8   45609   45606       9   45615   45612       8   45618   45612       8
   45618   45615       9   45624   45621       8   45627   45621       8   45627
   45624       9   45633   45630       8   45636   45630       8   45636   45633
       9   45642   45639       8   45645   45639       8   45645   45642       9
   45651   45648       8   45654   45648       8   45654   45651       9   45660
   45657       8   45663   45657       8   45663   45660       9   45669   45666
       8   45672   45666       8   45672   45669       9   45678   45675       8
   45681   45675       8   45681   45678       9   45687   45684       8   45690
   45684       8   45690   45687       9   45696   45693       8   45699   45693
       8   45699   45696       9   45705   45702       8   45708   45702       8
   45708   45705       9   45714   45711       8   45717   45711       8   45717
   45714       9   45723   45720       8   45726   45720       8   45726   45723
       9   45732   45729       8   45735   45729       8   45735   45732       9
   45741   45738       8   45744   45738       8   45744   45741       9   45750
   45747       8   45753   45747       8   45753   45750       9   45759   45756
       8   45762   45756       8   45762   45759       9   45768   45765       8
   45771   45765       8   45771   45768       9   45777   45774       8   45780
   45774       8   45780   45777       9   45786   45783       8   45789   45783
       8   45789   45786       9   45795   45792       8   45798   45792       8
   45798   45795       9   45804   45801       8   45807   45801       8   45807
   45804       9   45813   45810       8   45816   45810       8   45816   45813
       9   45822   45819       8   45825   45819       8   45825   45822       9
   45831   45828       8   45834   45828       8   45834   45831       9   45840
   45837       8   45843   45837       8   45843   45840       9   45849   45846
       8   45852   45846       8   45852   45849       9   45858   45855       8
   45861   45855       8   45861   45858       9   45867   45864       8   45870
   45864       8   45870   45867       9   45876   45873       8   45879   45873
       8   45879   45876       9   45885   45882       8   45888   45882       8
   45888   45885       9   45894   45891       8   45897   45891       8   45897
   45894       9   45903   45900       8   45906   45900       8   45906   45903
       9   45912   45909       8   45915   45909       8   45915   45912       9
   45921   45918       8   45924   45918       8   45924   45921       9   45930
   45927       8   45933   45927       8   45933   45930       9   45939   45936
       8   45942   45936       8   45942   45939       9   45948   45945       8
   45951   45945       8   45951   45948       9   45957   45954       8   45960
   45954       8   45960   45957       9   45966   45963       8   45969   45963
       8   45969   45966       9   45975   45972       8   45978   45972       8
   45978   45975       9   45984   45981       8   45987   45981       8   45987
   45984       9   45993   45990       8   45996   45990       8   45996   45993
       9   46002   45999       8   46005   45999       8   46005   46002       9
   46011   46008       8   46014   46008       8   46014   46011       9   46020
   46017       8   46023   46017       8   46023   46020       9   46029   46026
       8   46032   46026       8   46032   46029       9   46038   46035       8
   46041   46035       8   46041   46038       9   46047   46044       8   46050
   46044       8   46050   46047       9   46056   46053       8   46059   46053
       8   46059   46056       9   46065   46062       8   46068   46062       8
   46068   46065       9   46074   46071       8   46077   46071       8   46077
   46074       9   46083   46080       8   46086   46080       8   46086   46083
       9   46092   46089       8   46095   46089       8   46095   46092       9
   46101   46098       8   46104   46098       8   46104   46101       9   46110
   46107       8   46113   46107       8   46113   46110       9   46119   46116
       8   46122   46116       8   46122   46119       9   46128   46125       8
   46131   46125       8   46131   46128       9   46137   46134       8   46140
   46134       8   46140   46137       9   46146   46143       8   46149   46143
       8   46149   46146       9   46155   46152       8   46158   46152       8
   46158   46155       9   46164   46161       8   46167   46161       8   46167
   46164       9   46173   46170       8   46176   46170       8   46176   46173
       9   46182   46179       8   46185   46179       8   46185   46182       9
   46191   46188       8   46194   46188       8   46194   46191       9   46200
   46197       8   46203   46197       8   46203   46200       9   46209   46206
       8   46212   46206       8   46212   46209       9   46218   46215       8
   46221   46215       8   46221   46218       9   46227   46224       8   46230
   46224       8   46230   46227       9   46236   46233       8   46239   46233
       8   46239   46236       9   46245   46242       8   46248   46242       8
   46248   46245       9   46254   46251       8   46257   46251       8   46257
   46254       9   46263   46260       8   46266   46260       8   46266   46263
       9   46272   46269       8   46275   46269       8   46275   46272       9
   46281   46278       8   46284   46278       8   46284   46281       9   46290
   46287       8   46293   46287       8   46293   46290       9   46299   46296
       8   46302   46296       8   46302   46299       9   46308   46305       8
   46311   46305       8   46311   46308       9   46317   46314       8   46320
   46314       8   46320   46317       9   46326   46323       8   46329   46323
       8   46329   46326       9   46335   46332       8   46338   46332       8
   46338   46335       9   46344   46341       8   46347   46341       8   46347
   46344       9   46353   46350       8   46356   46350       8   46356   46353
       9   46362   46359       8   46365   46359       8   46365   46362       9
   46371   46368       8   46374   46368       8   46374   46371       9   46380
   46377       8   46383   46377       8   46383   46380       9   46389   46386
       8   46392   46386       8   46392   46389       9   46398   46395       8
   46401   46395       8   46401   46398       9   46407   46404       8   46410
   46404       8   46410   46407       9   46416   46413       8   46419   46413
       8   46419   46416       9   46425   46422       8   46428   46422       8
   46428   46425       9   46434   46431       8   46437   46431       8   46437
   46434       9   46443   46440       8   46446   46440       8   46446   46443
       9   46452   46449       8   46455   46449       8   46455   46452       9
   46461   46458       8   46464   46458       8   46464   46461       9   46470
   46467       8   46473   46467       8   46473   46470       9   46479   46476
       8   46482   46476       8   46482   46479       9   46488   46485       8
   46491   46485       8   46491   46488       9   46497   46494       8   46500
   46494       8   46500   46497       9   46506   46503       8   46509   46503
       8   46509   46506       9   46515   46512       8   46518   46512       8
   46518   46515       9   46524   46521       8   46527   46521       8   46527
   46524       9   46533   46530       8   46536   46530       8   46536   46533
       9   46542   46539       8   46545   46539       8   46545   46542       9
   46551   46548       8   46554   46548       8   46554   46551       9   46560
   46557       8   46563   46557       8   46563   46560       9   46569   46566
       8   46572   46566       8   46572   46569       9   46578   46575       8
   46581   46575       8   46581   46578       9   46587   46584       8   46590
   46584       8   46590   46587       9   46596   46593       8   46599   46593
       8   46599   46596       9   46605   46602       8   46608   46602       8
   46608   46605       9   46614   46611       8   46617   46611       8   46617
   46614       9   46623   46620       8   46626   46620       8   46626   46623
       9   46632   46629       8   46635   46629       8   46635   46632       9
   46641   46638       8   46644   46638       8   46644   46641       9   46650
   46647       8   46653   46647       8   46653   46650       9   46659   46656
       8   46662   46656       8   46662   46659       9   46668   46665       8
   46671   46665       8   46671   46668       9   46677   46674       8   46680
   46674       8   46680   46677       9   46686   46683       8   46689   46683
       8   46689   46686       9   46695   46692       8   46698   46692       8
   46698   46695       9   46704   46701       8   46707   46701       8   46707
   46704       9   46713   46710       8   46716   46710       8   46716   46713
       9   46722   46719       8   46725   46719       8   46725   46722       9
   46731   46728       8   46734   46728       8   46734   46731       9   46740
   46737       8   46743   46737       8   46743   46740       9   46749   46746
       8   46752   46746       8   46752   46749       9   46758   46755       8
   46761   46755       8   46761   46758       9   46767   46764       8   46770
   46764       8   46770   46767       9   46776   46773       8   46779   46773
       8   46779   46776       9   46785   46782       8   46788   46782       8
   46788   46785       9   46794   46791       8   46797   46791       8   46797
   46794       9   46803   46800       8   46806   46800       8   46806   46803
       9   46812   46809       8   46815   46809       8   46815   46812       9
   46821   46818       8   46824   46818       8   46824   46821       9   46830
   46827       8   46833   46827       8   46833   46830       9   46839   46836
       8   46842   46836       8   46842   46839       9   46848   46845       8
   46851   46845       8   46851   46848       9   46857   46854       8   46860
   46854       8   46860   46857       9   46866   46863       8   46869   46863
       8   46869   46866       9   46875   46872       8   46878   46872       8
   46878   46875       9   46884   46881       8   46887   46881       8   46887
   46884       9   46893   46890       8   46896   46890       8   46896   46893
       9   46902   46899       8   46905   46899       8   46905   46902       9
   46911   46908       8   46914   46908       8   46914   46911       9   46920
   46917       8   46923   46917       8   46923   46920       9   46929   46926
       8   46932   46926       8   46932   46929       9   46938   46935       8
   46941   46935       8   46941   46938       9   46947   46944       8   46950
   46944       8   46950   46947       9   46956   46953       8   46959   46953
       8   46959   46956       9   46965   46962       8   46968   46962       8
   46968   46965       9   46974   46971       8   46977   46971       8   46977
   46974       9   46983   46980       8   46986   46980       8   46986   46983
       9   46992   46989       8   46995   46989       8   46995   46992       9
   47001   46998       8   47004   46998       8   47004   47001       9   47010
   47007       8   47013   47007       8   47013   47010       9   47019   47016
       8   47022   47016       8   47022   47019       9   47028   47025       8
   47031   47025       8   47031   47028       9   47037   47034       8   47040
   47034       8   47040   47037       9   47046   47043       8   47049   47043
       8   47049   47046       9   47055   47052       8   47058   47052       8
   47058   47055       9   47064   47061       8   47067   47061       8   47067
   47064       9   47073   47070       8   47076   47070       8   47076   47073
       9   47082   47079       8   47085   47079       8   47085   47082       9
   47091   47088       8   47094   47088       8   47094   47091       9   47100
   47097       8   47103   47097       8   47103   47100       9   47109   47106
       8   47112   47106       8   47112   47109       9   47118   47115       8
   47121   47115       8   47121   47118       9   47127   47124       8   47130
   47124       8   47130   47127       9   47136   47133       8   47139   47133
       8   47139   47136       9   47145   47142       8   47148   47142       8
   47148   47145       9   47154   47151       8   47157   47151       8   47157
   47154       9   47163   47160       8   47166   47160       8   47166   47163
       9   47172   47169       8   47175   47169       8   47175   47172       9
   47181   47178       8   47184   47178       8   47184   47181       9   47190
   47187       8   47193   47187       8   47193   47190       9   47199   47196
       8   47202   47196       8   47202   47199       9   47208   47205       8
   47211   47205       8   47211   47208       9   47217   47214       8   47220
   47214       8   47220   47217       9   47226   47223       8   47229   47223
       8   47229   47226       9   47235   47232       8   47238   47232       8
   47238   47235       9   47244   47241       8   47247   47241       8   47247
   47244       9   47253   47250       8   47256   47250       8   47256   47253
       9   47262   47259       8   47265   47259       8   47265   47262       9
   47271   47268       8   47274   47268       8   47274   47271       9   47280
   47277       8   47283   47277       8   47283   47280       9   47289   47286
       8   47292   47286       8   47292   47289       9   47298   47295       8
   47301   47295       8   47301   47298       9   47307   47304       8   47310
   47304       8   47310   47307       9   47316   47313       8   47319   47313
       8   47319   47316       9   47325   47322       8   47328   47322       8
   47328   47325       9   47334   47331       8   47337   47331       8   47337
   47334       9   47343   47340       8   47346   47340       8   47346   47343
       9   47352   47349       8   47355   47349       8   47355   47352       9
   47361   47358       8   47364   47358       8   47364   47361       9   47370
   47367       8   47373   47367       8   47373   47370       9   47379   47376
       8   47382   47376       8   47382   47379       9   47388   47385       8
   47391   47385       8   47391   47388       9   47397   47394       8   47400
   47394       8   47400   47397       9   47406   47403       8   47409   47403
       8   47409   47406       9   47415   47412       8   47418   47412       8
   47418   47415       9   47424   47421       8   47427   47421       8   47427
   47424       9   47433   47430       8   47436   47430       8   47436   47433
       9   47442   47439       8   47445   47439       8   47445   47442       9
   47451   47448       8   47454   47448       8   47454   47451       9   47460
   47457       8   47463   47457       8   47463   47460       9   47469   47466
       8   47472   47466       8   47472   47469       9   47478   47475       8
   47481   47475       8   47481   47478       9   47487   47484       8   47490
   47484       8   47490   47487       9   47496   47493       8   47499   47493
       8   47499   47496       9   47505   47502       8   47508   47502       8
   47508   47505       9   47514   47511       8   47517   47511       8   47517
   47514       9   47523   47520       8   47526   47520       8   47526   47523
       9   47532   47529       8   47535   47529       8   47535   47532       9
   47541   47538       8   47544   47538       8   47544   47541       9   47550
   47547       8   47553   47547       8   47553   47550       9   47559   47556
       8   47562   47556       8   47562   47559       9   47568   47565       8
   47571   47565       8   47571   47568       9   47577   47574       8   47580
   47574       8   47580   47577       9   47586   47583       8   47589   47583
       8   47589   47586       9   47595   47592       8   47598   47592       8
   47598   47595       9   47604   47601       8   47607   47601       8   47607
   47604       9   47613   47610       8   47616   47610       8   47616   47613
       9   47622   47619       8   47625   47619       8   47625   47622       9
   47631   47628       8   47634   47628       8   47634   47631       9   47640
   47637       8   47643   47637       8   47643   47640       9   47649   47646
       8   47652   47646       8   47652   47649       9   47658   47655       8
   47661   47655       8   47661   47658       9   47667   47664       8   47670
   47664       8   47670   47667       9   47676   47673       8   47679   47673
       8   47679   47676       9   47685   47682       8   47688   47682       8
   47688   47685       9   47694   47691       8   47697   47691       8   47697
   47694       9   47703   47700       8   47706   47700       8   47706   47703
       9   47712   47709       8   47715   47709       8   47715   47712       9
   47721   47718       8   47724   47718       8   47724   47721       9   47730
   47727       8   47733   47727       8   47733   47730       9   47739   47736
       8   47742   47736       8   47742   47739       9   47748   47745       8
   47751   47745       8   47751   47748       9   47757   47754       8   47760
   47754       8   47760   47757       9   47766   47763       8   47769   47763
       8   47769   47766       9   47775   47772       8   47778   47772       8
   47778   47775       9   47784   47781       8   47787   47781       8   47787
   47784       9   47793   47790       8   47796   47790       8   47796   47793
       9   47802   47799       8   47805   47799       8   47805   47802       9
   47811   47808       8   47814   47808       8   47814   47811       9   47820
   47817       8   47823   47817       8   47823   47820       9   47829   47826
       8   47832   47826       8   47832   47829       9   47838   47835       8
   47841   47835       8   47841   47838       9   47847   47844       8   47850
   47844       8   47850   47847       9   47856   47853       8   47859   47853
       8   47859   47856       9   47865   47862       8   47868   47862       8
   47868   47865       9   47874   47871       8   47877   47871       8   47877
   47874       9   47883   47880       8   47886   47880       8   47886   47883
       9   47892   47889       8   47895   47889       8   47895   47892       9
   47901   47898       8   47904   47898       8   47904   47901       9   47910
   47907       8   47913   47907       8   47913   47910       9   47919   47916
       8   47922   47916       8   47922   47919       9   47928   47925       8
   47931   47925       8   47931   47928       9   47937   47934       8   47940
   47934       8   47940   47937       9   47946   47943       8   47949   47943
       8   47949   47946       9   47955   47952       8   47958   47952       8
   47958   47955       9   47964   47961       8   47967   47961       8   47967
   47964       9   47973   47970       8   47976   47970       8   47976   47973
       9   47982   47979       8   47985   47979       8   47985   47982       9
   47991   47988       8   47994   47988       8   47994   47991       9   48000
   47997       8   48003   47997       8   48003   48000       9   48009   48006
       8   48012   48006       8   48012   48009       9   48018   48015       8
   48021   48015       8   48021   48018       9   48027   48024       8   48030
   48024       8   48030   48027       9   48036   48033       8   48039   48033
       8   48039   48036       9   48045   48042       8   48048   48042       8
   48048   48045       9   48054   48051       8   48057   48051       8   48057
   48054       9   48063   48060       8   48066   48060       8   48066   48063
       9   48072   48069       8   48075   48069       8   48075   48072       9
   48081   48078       8   48084   48078       8   48084   48081       9   48090
   48087       8   48093   48087       8   48093   48090       9   48099   48096
       8   48102   48096       8   48102   48099       9   48108   48105       8
   48111   48105       8   48111   48108       9   48117   48114       8   48120
   48114       8   48120   48117       9   48126   48123       8   48129   48123
       8   48129   48126       9   48135   48132       8   48138   48132       8
   48138   48135       9   48144   48141       8   48147   48141       8   48147
   48144       9   48153   48150       8   48156   48150       8   48156   48153
       9   48162   48159       8   48165   48159       8   48165   48162       9
   48171   48168       8   48174   48168       8   48174   48171       9   48180
   48177       8   48183   48177       8   48183   48180       9   48189   48186
       8   48192   48186       8   48192   48189       9   48198   48195       8
   48201   48195       8   48201   48198       9   48207   48204       8   48210
   48204       8   48210   48207       9   48216   48213       8   48219   48213
       8   48219   48216       9   48225   48222       8   48228   48222       8
   48228   48225       9   48234   48231       8   48237   48231       8   48237
   48234       9   48243   48240       8   48246   48240       8   48246   48243
       9   48252   48249       8   48255   48249       8   48255   48252       9
   48261   48258       8   48264   48258       8   48264   48261       9   48270
   48267       8   48273   48267       8   48273   48270       9   48279   48276
       8   48282   48276       8   48282   48279       9   48288   48285       8
   48291   48285       8   48291   48288       9   48297   48294       8   48300
   48294       8   48300   48297       9   48306   48303       8   48309   48303
       8   48309   48306       9   48315   48312       8   48318   48312       8
   48318   48315       9   48324   48321       8   48327   48321       8   48327
   48324       9   48333   48330       8   48336   48330       8   48336   48333
       9   48342   48339       8   48345   48339       8   48345   48342       9
   48351   48348       8   48354   48348       8   48354   48351       9   48360
   48357       8   48363   48357       8   48363   48360       9   48369   48366
       8   48372   48366       8   48372   48369       9   48378   48375       8
   48381   48375       8   48381   48378       9   48387   48384       8   48390
   48384       8   48390   48387       9   48396   48393       8   48399   48393
       8   48399   48396       9   48405   48402       8   48408   48402       8
   48408   48405       9   48414   48411       8   48417   48411       8   48417
   48414       9   48423   48420       8   48426   48420       8   48426   48423
       9   48432   48429       8   48435   48429       8   48435   48432       9
   48441   48438       8   48444   48438       8   48444   48441       9   48450
   48447       8   48453   48447       8   48453   48450       9   48459   48456
       8   48462   48456       8   48462   48459       9   48468   48465       8
   48471   48465       8   48471   48468       9   48477   48474       8   48480
   48474       8   48480   48477       9   48486   48483       8   48489   48483
       8   48489   48486       9   48495   48492       8   48498   48492       8
   48498   48495       9   48504   48501       8   48507   48501       8   48507
   48504       9   48513   48510       8   48516   48510       8   48516   48513
       9   48522   48519       8   48525   48519       8   48525   48522       9
   48531   48528       8   48534   48528       8   48534   48531       9   48540
   48537       8   48543   48537       8   48543   48540       9   48549   48546
       8   48552   48546       8   48552   48549       9   48558   48555       8
   48561   48555       8   48561   48558       9   48567   48564       8   48570
   48564       8   48570   48567       9   48576   48573       8   48579   48573
       8   48579   48576       9   48585   48582       8   48588   48582       8
   48588   48585       9   48594   48591       8   48597   48591       8   48597
   48594       9   48603   48600       8   48606   48600       8   48606   48603
       9   48612   48609       8   48615   48609       8   48615   48612       9
   48621   48618       8   48624   48618       8   48624   48621       9   48630
   48627       8   48633   48627       8   48633   48630       9   48639   48636
       8   48642   48636       8   48642   48639       9   48648   48645       8
   48651   48645       8   48651   48648       9   48657   48654       8   48660
   48654       8   48660   48657       9   48666   48663       8   48669   48663
       8   48669   48666       9   48675   48672       8   48678   48672       8
   48678   48675       9   48684   48681       8   48687   48681       8   48687
   48684       9   48693   48690       8   48696   48690       8   48696   48693
       9   48702   48699       8   48705   48699       8   48705   48702       9
   48711   48708       8   48714   48708       8   48714   48711       9   48720
   48717       8   48723   48717       8   48723   48720       9   48729   48726
       8   48732   48726       8   48732   48729       9   48738   48735       8
   48741   48735       8   48741   48738       9   48747   48744       8   48750
   48744       8   48750   48747       9   48756   48753       8   48759   48753
       8   48759   48756       9   48765   48762       8   48768   48762       8
   48768   48765       9   48774   48771       8   48777   48771       8   48777
   48774       9   48783   48780       8   48786   48780       8   48786   48783
       9   48792   48789       8   48795   48789       8   48795   48792       9
   48801   48798       8   48804   48798       8   48804   48801       9   48810
   48807       8   48813   48807       8   48813   48810       9   48819   48816
       8   48822   48816       8   48822   48819       9   48828   48825       8
   48831   48825       8   48831   48828       9   48837   48834       8   48840
   48834       8   48840   48837       9   48846   48843       8   48849   48843
       8   48849   48846       9   48855   48852       8   48858   48852       8
   48858   48855       9   48864   48861       8   48867   48861       8   48867
   48864       9   48873   48870       8   48876   48870       8   48876   48873
       9   48882   48879       8   48885   48879       8   48885   48882       9
   48891   48888       8   48894   48888       8   48894   48891       9   48900
   48897       8   48903   48897       8   48903   48900       9   48909   48906
       8   48912   48906       8   48912   48909       9   48918   48915       8
   48921   48915       8   48921   48918       9   48927   48924       8   48930
   48924       8   48930   48927       9   48936   48933       8   48939   48933
       8   48939   48936       9   48945   48942       8   48948   48942       8
   48948   48945       9   48954   48951       8   48957   48951       8   48957
   48954       9   48963   48960       8   48966   48960       8   48966   48963
       9   48972   48969       8   48975   48969       8   48975   48972       9
   48981   48978       8   48984   48978       8   48984   48981       9   48990
   48987       8   48993   48987       8   48993   48990       9   48999   48996
       8   49002   48996       8   49002   48999       9   49008   49005       8
   49011   49005       8   49011   49008       9   49017   49014       8   49020
   49014       8   49020   49017       9   49026   49023       8   49029   49023
       8   49029   49026       9   49035   49032       8   49038   49032       8
   49038   49035       9   49044   49041       8   49047   49041       8   49047
   49044       9   49053   49050       8   49056   49050       8   49056   49053
       9   49062   49059       8   49065   49059       8   49065   49062       9
   49071   49068       8   49074   49068       8   49074   49071       9   49080
   49077       8   49083   49077       8   49083   49080       9   49089   49086
       8   49092   49086       8   49092   49089       9   49098   49095       8
   49101   49095       8   49101   49098       9   49107   49104       8   49110
   49104       8   49110   49107       9   49116   49113       8   49119   49113
       8   49119   49116       9   49125   49122       8   49128   49122       8
   49128   49125       9   49134   49131       8   49137   49131       8   49137
   49134       9   49143   49140       8   49146   49140       8   49146   49143
       9   49152   49149       8   49155   49149       8   49155   49152       9
   49161   49158       8   49164   49158       8   49164   49161       9   49170
   49167       8   49173   49167       8   49173   49170       9   49179   49176
       8   49182   49176       8   49182   49179       9   49188   49185       8
   49191   49185       8   49191   49188       9   49197   49194       8   49200
   49194       8   49200   49197       9   49206   49203       8   49209   49203
       8   49209   49206       9   49215   49212       8   49218   49212       8
   49218   49215       9   49224   49221       8   49227   49221       8   49227
   49224       9   49233   49230       8   49236   49230       8   49236   49233
       9   49242   49239       8   49245   49239       8   49245   49242       9
   49251   49248       8   49254   49248       8   49254   49251       9   49260
   49257       8   49263   49257       8   49263   49260       9   49269   49266
       8   49272   49266       8   49272   49269       9   49278   49275       8
   49281   49275       8   49281   49278       9   49287   49284       8   49290
   49284       8   49290   49287       9   49296   49293       8   49299   49293
       8   49299   49296       9   49305   49302       8   49308   49302       8
   49308   49305       9   49314   49311       8   49317   49311       8   49317
   49314       9   49323   49320       8   49326   49320       8   49326   49323
       9   49332   49329       8   49335   49329       8   49335   49332       9
   49341   49338       8   49344   49338       8   49344   49341       9   49350
   49347       8   49353   49347       8   49353   49350       9   49359   49356
       8   49362   49356       8   49362   49359       9   49368   49365       8
   49371   49365       8   49371   49368       9   49377   49374       8   49380
   49374       8   49380   49377       9   49386   49383       8   49389   49383
       8   49389   49386       9   49395   49392       8   49398   49392       8
   49398   49395       9   49404   49401       8   49407   49401       8   49407
   49404       9   49413   49410       8   49416   49410       8   49416   49413
       9   49422   49419       8   49425   49419       8   49425   49422       9
   49431   49428       8   49434   49428       8   49434   49431       9   49440
   49437       8   49443   49437       8   49443   49440       9   49449   49446
       8   49452   49446       8   49452   49449       9   49458   49455       8
   49461   49455       8   49461   49458       9   49467   49464       8   49470
   49464       8   49470   49467       9   49476   49473       8   49479   49473
       8   49479   49476       9   49485   49482       8   49488   49482       8
   49488   49485       9   49494   49491       8   49497   49491       8   49497
   49494       9   49503   49500       8   49506   49500       8   49506   49503
       9   49512   49509       8   49515   49509       8   49515   49512       9
   49521   49518       8   49524   49518       8   49524   49521       9   49530
   49527       8   49533   49527       8   49533   49530       9   49539   49536
       8   49542   49536       8   49542   49539       9   49548   49545       8
   49551   49545       8   49551   49548       9   49557   49554       8   49560
   49554       8   49560   49557       9   49566   49563       8   49569   49563
       8   49569   49566       9   49575   49572       8   49578   49572       8
   49578   49575       9   49584   49581       8   49587   49581       8   49587
   49584       9   49593   49590       8   49596   49590       8   49596   49593
       9   49602   49599       8   49605   49599       8   49605   49602       9
   49611   49608       8   49614   49608       8   49614   49611       9   49620
   49617       8   49623   49617       8   49623   49620       9   49629   49626
       8   49632   49626       8   49632   49629       9   49638   49635       8
   49641   49635       8   49641   49638       9   49647   49644       8   49650
   49644       8   49650   49647       9   49656   49653       8   49659   49653
       8   49659   49656       9   49665   49662       8   49668   49662       8
   49668   49665       9   49674   49671       8   49677   49671       8   49677
   49674       9   49683   49680       8   49686   49680       8   49686   49683
       9   49692   49689       8   49695   49689       8   49695   49692       9
   49701   49698       8   49704   49698       8   49704   49701       9   49710
   49707       8   49713   49707       8   49713   49710       9   49719   49716
       8   49722   49716       8   49722   49719       9   49728   49725       8
   49731   49725       8   49731   49728       9   49737   49734       8   49740
   49734       8   49740   49737       9   49746   49743       8   49749   49743
       8   49749   49746       9   49755   49752       8   49758   49752       8
   49758   49755       9   49764   49761       8   49767   49761       8   49767
   49764       9   49773   49770       8   49776   49770       8   49776   49773
       9   49782   49779       8   49785   49779       8   49785   49782       9
   49791   49788       8   49794   49788       8   49794   49791       9   49800
   49797       8   49803   49797       8   49803   49800       9   49809   49806
       8   49812   49806       8   49812   49809       9   49818   49815       8
   49821   49815       8   49821   49818       9   49827   49824       8   49830
   49824       8   49830   49827       9   49836   49833       8   49839   49833
       8   49839   49836       9   49845   49842       8   49848   49842       8
   49848   49845       9   49854   49851       8   49857   49851       8   49857
   49854       9   49863   49860       8   49866   49860       8   49866   49863
       9   49872   49869       8   49875   49869       8   49875   49872       9
   49881   49878       8   49884   49878       8   49884   49881       9   49890
   49887       8   49893   49887       8   49893   49890       9   49899   49896
       8   49902   49896       8   49902   49899       9   49908   49905       8
   49911   49905       8   49911   49908       9   49917   49914       8   49920
   49914       8   49920   49917       9   49926   49923       8   49929   49923
       8   49929   49926       9   49935   49932       8   49938   49932       8
   49938   49935       9   49944   49941       8   49947   49941       8   49947
   49944       9   49953   49950       8   49956   49950       8   49956   49953
       9   49962   49959       8   49965   49959       8   49965   49962       9
   49971   49968       8   49974   49968       8   49974   49971       9   49980
   49977       8   49983   49977       8   49983   49980       9   49989   49986
       8   49992   49986       8   49992   49989       9   49998   49995       8
   50001   49995       8   50001   49998       9   50007   50004       8   50010
   50004       8   50010   50007       9   50016   50013       8   50019   50013
       8   50019   50016       9   50025   50022       8   50028   50022       8
   50028   50025       9   50034   50031       8   50037   50031       8   50037
   50034       9   50043   50040       8   50046   50040       8   50046   50043
       9   50052   50049       8   50055   50049       8   50055   50052       9
   50061   50058       8   50064   50058       8   50064   50061       9   50070
   50067       8   50073   50067       8   50073   50070       9   50079   50076
       8   50082   50076       8   50082   50079       9   50088   50085       8
   50091   50085       8   50091   50088       9   50097   50094       8   50100
   50094       8   50100   50097       9   50106   50103       8   50109   50103
       8   50109   50106       9   50115   50112       8   50118   50112       8
   50118   50115       9   50124   50121       8   50127   50121       8   50127
   50124       9   50133   50130       8   50136   50130       8   50136   50133
       9   50142   50139       8   50145   50139       8   50145   50142       9
   50151   50148       8   50154   50148       8   50154   50151       9   50160
   50157       8   50163   50157       8   50163   50160       9   50169   50166
       8   50172   50166       8   50172   50169       9   50178   50175       8
   50181   50175       8   50181   50178       9   50187   50184       8   50190
   50184       8   50190   50187       9   50196   50193       8   50199   50193
       8   50199   50196       9   50205   50202       8   50208   50202       8
   50208   50205       9   50214   50211       8   50217   50211       8   50217
   50214       9   50223   50220       8   50226   50220       8   50226   50223
       9   50232   50229       8   50235   50229       8   50235   50232       9
   50241   50238       8   50244   50238       8   50244   50241       9   50250
   50247       8   50253   50247       8   50253   50250       9   50259   50256
       8   50262   50256       8   50262   50259       9   50268   50265       8
   50271   50265       8   50271   50268       9   50277   50274       8   50280
   50274       8   50280   50277       9   50286   50283       8   50289   50283
       8   50289   50286       9   50295   50292       8   50298   50292       8
   50298   50295       9   50304   50301       8   50307   50301       8   50307
   50304       9   50313   50310       8   50316   50310       8   50316   50313
       9   50322   50319       8   50325   50319       8   50325   50322       9
   50331   50328       8   50334   50328       8   50334   50331       9   50340
   50337       8   50343   50337       8   50343   50340       9   50349   50346
       8   50352   50346       8   50352   50349       9   50358   50355       8
   50361   50355       8   50361   50358       9   50367   50364       8   50370
   50364       8   50370   50367       9   50376   50373       8   50379   50373
       8   50379   50376       9   50385   50382       8   50388   50382       8
   50388   50385       9   50394   50391       8   50397   50391       8   50397
   50394       9   50403   50400       8   50406   50400       8   50406   50403
       9   50412   50409       8   50415   50409       8   50415   50412       9
   50421   50418       8   50424   50418       8   50424   50421       9   50430
   50427       8   50433   50427       8   50433   50430       9   50439   50436
       8   50442   50436       8   50442   50439       9   50448   50445       8
   50451   50445       8   50451   50448       9   50457   50454       8   50460
   50454       8   50460   50457       9   50466   50463       8   50469   50463
       8   50469   50466       9   50475   50472       8   50478   50472       8
   50478   50475       9   50484   50481       8   50487   50481       8   50487
   50484       9   50493   50490       8   50496   50490       8   50496   50493
       9   50502   50499       8   50505   50499       8   50505   50502       9
   50511   50508       8   50514   50508       8   50514   50511       9   50520
   50517       8   50523   50517       8   50523   50520       9   50529   50526
       8   50532   50526       8   50532   50529       9   50538   50535       8
   50541   50535       8   50541   50538       9   50547   50544       8   50550
   50544       8   50550   50547       9   50556   50553       8   50559   50553
       8   50559   50556       9   50565   50562       8   50568   50562       8
   50568   50565       9   50574   50571       8   50577   50571       8   50577
   50574       9   50583   50580       8   50586   50580       8   50586   50583
       9   50592   50589       8   50595   50589       8   50595   50592       9
   50601   50598       8   50604   50598       8   50604   50601       9   50610
   50607       8   50613   50607       8   50613   50610       9   50619   50616
       8   50622   50616       8   50622   50619       9   50628   50625       8
   50631   50625       8   50631   50628       9   50637   50634       8   50640
   50634       8   50640   50637       9   50646   50643       8   50649   50643
       8   50649   50646       9   50655   50652       8   50658   50652       8
   50658   50655       9   50664   50661       8   50667   50661       8   50667
   50664       9   50673   50670       8   50676   50670       8   50676   50673
       9   50682   50679       8   50685   50679       8   50685   50682       9
   50691   50688       8   50694   50688       8   50694   50691       9   50700
   50697       8   50703   50697       8   50703   50700       9   50709   50706
       8   50712   50706       8   50712   50709       9   50718   50715       8
   50721   50715       8   50721   50718       9   50727   50724       8   50730
   50724       8   50730   50727       9   50736   50733       8   50739   50733
       8   50739   50736       9   50745   50742       8   50748   50742       8
   50748   50745       9   50754   50751       8   50757   50751       8   50757
   50754       9   50763   50760       8   50766   50760       8   50766   50763
       9   50772   50769       8   50775   50769       8   50775   50772       9
   50781   50778       8   50784   50778       8   50784   50781       9   50790
   50787       8   50793   50787       8   50793   50790       9   50799   50796
       8   50802   50796       8   50802   50799       9   50808   50805       8
   50811   50805       8   50811   50808       9   50817   50814       8   50820
   50814       8   50820   50817       9   50826   50823       8   50829   50823
       8   50829   50826       9   50835   50832       8   50838   50832       8
   50838   50835       9   50844   50841       8   50847   50841       8   50847
   50844       9   50853   50850       8   50856   50850       8   50856   50853
       9   50862   50859       8   50865   50859       8   50865   50862       9
   50871   50868       8   50874   50868       8   50874   50871       9   50880
   50877       8   50883   50877       8   50883   50880       9   50889   50886
       8   50892   50886       8   50892   50889       9   50898   50895       8
   50901   50895       8   50901   50898       9   50907   50904       8   50910
   50904       8   50910   50907       9   50916   50913       8   50919   50913
       8   50919   50916       9   50925   50922       8   50928   50922       8
   50928   50925       9   50934   50931       8   50937   50931       8   50937
   50934       9   50943   50940       8   50946   50940       8   50946   50943
       9   50952   50949       8   50955   50949       8   50955   50952       9
   50961   50958       8   50964   50958       8   50964   50961       9   50970
   50967       8   50973   50967       8   50973   50970       9   50979   50976
       8   50982   50976       8   50982   50979       9   50988   50985       8
   50991   50985       8   50991   50988       9   50997   50994       8   51000
   50994       8   51000   50997       9   51006   51003       8   51009   51003
       8   51009   51006       9   51015   51012       8   51018   51012       8
   51018   51015       9   51024   51021       8   51027   51021       8   51027
   51024       9   51033   51030       8   51036   51030       8   51036   51033
       9   51042   51039       8   51045   51039       8   51045   51042       9
   51051   51048       8   51054   51048       8   51054   51051       9   51060
   51057       8   51063   51057       8   51063   51060       9   51069   51066
       8   51072   51066       8   51072   51069       9   51078   51075       8
   51081   51075       8   51081   51078       9   51087   51084       8   51090
   51084       8   51090   51087       9   51096   51093       8   51099   51093
       8   51099   51096       9   51105   51102       8   51108   51102       8
   51108   51105       9   51114   51111       8   51117   51111       8   51117
   51114       9   51123   51120       8   51126   51120       8   51126   51123
       9   51132   51129       8   51135   51129       8   51135   51132       9
   51141   51138       8   51144   51138       8   51144   51141       9   51150
   51147       8   51153   51147       8   51153   51150       9   51159   51156
       8   51162   51156       8   51162   51159       9   51168   51165       8
   51171   51165       8   51171   51168       9   51177   51174       8   51180
   51174       8   51180   51177       9   51186   51183       8   51189   51183
       8   51189   51186       9   51195   51192       8   51198   51192       8
   51198   51195       9   51204   51201       8   51207   51201       8   51207
   51204       9   51213   51210       8   51216   51210       8   51216   51213
       9   51222   51219       8   51225   51219       8   51225   51222       9
   51231   51228       8   51234   51228       8   51234   51231       9   51240
   51237       8   51243   51237       8   51243   51240       9   51249   51246
       8   51252   51246       8   51252   51249       9   51258   51255       8
   51261   51255       8   51261   51258       9   51267   51264       8   51270
   51264       8   51270   51267       9   51276   51273       8   51279   51273
       8   51279   51276       9   51285   51282       8   51288   51282       8
   51288   51285       9   51294   51291       8   51297   51291       8   51297
   51294       9   51303   51300       8   51306   51300       8   51306   51303
       9   51312   51309       8   51315   51309       8   51315   51312       9
   51321   51318       8   51324   51318       8   51324   51321       9   51330
   51327       8   51333   51327       8   51333   51330       9   51339   51336
       8   51342   51336       8   51342   51339       9   51348   51345       8
   51351   51345       8   51351   51348       9   51357   51354       8   51360
   51354       8   51360   51357       9   51366   51363       8   51369   51363
       8   51369   51366       9   51375   51372       8   51378   51372       8
   51378   51375       9   51384   51381       8   51387   51381       8   51387
   51384       9   51393   51390       8   51396   51390       8   51396   51393
       9   51402   51399       8   51405   51399       8   51405   51402       9
   51411   51408       8   51414   51408       8   51414   51411       9   51420
   51417       8   51423   51417       8   51423   51420       9   51429   51426
       8   51432   51426       8   51432   51429       9   51438   51435       8
   51441   51435       8   51441   51438       9   51447   51444       8   51450
   51444       8   51450   51447       9   51456   51453       8   51459   51453
       8   51459   51456       9   51465   51462       8   51468   51462       8
   51468   51465       9   51474   51471       8   51477   51471       8   51477
   51474       9   51483   51480       8   51486   51480       8   51486   51483
       9   51492   51489       8   51495   51489       8   51495   51492       9
   51501   51498       8   51504   51498       8   51504   51501       9   51510
   51507       8   51513   51507       8   51513   51510       9   51519   51516
       8   51522   51516       8   51522   51519       9   51528   51525       8
   51531   51525       8   51531   51528       9   51537   51534       8   51540
   51534       8   51540   51537       9   51546   51543       8   51549   51543
       8   51549   51546       9   51555   51552       8   51558   51552       8
   51558   51555       9   51564   51561       8   51567   51561       8   51567
   51564       9   51573   51570       8   51576   51570       8   51576   51573
       9   51582   51579       8   51585   51579       8   51585   51582       9
   51591   51588       8   51594   51588       8   51594   51591       9   51600
   51597       8   51603   51597       8   51603   51600       9   51609   51606
       8   51612   51606       8   51612   51609       9   51618   51615       8
   51621   51615       8   51621   51618       9   51627   51624       8   51630
   51624       8   51630   51627       9   51636   51633       8   51639   51633
       8   51639   51636       9   51645   51642       8   51648   51642       8
   51648   51645       9   51654   51651       8   51657   51651       8   51657
   51654       9   51663   51660       8   51666   51660       8   51666   51663
       9   51672   51669       8   51675   51669       8   51675   51672       9
   51681   51678       8   51684   51678       8   51684   51681       9   51690
   51687       8   51693   51687       8   51693   51690       9   51699   51696
       8   51702   51696       8   51702   51699       9   51708   51705       8
   51711   51705       8   51711   51708       9   51717   51714       8   51720
   51714       8   51720   51717       9   51726   51723       8   51729   51723
       8   51729   51726       9   51735   51732       8   51738   51732       8
   51738   51735       9   51744   51741       8   51747   51741       8   51747
   51744       9   51753   51750       8   51756   51750       8   51756   51753
       9   51762   51759       8   51765   51759       8   51765   51762       9
   51771   51768       8   51774   51768       8   51774   51771       9   51780
   51777       8   51783   51777       8   51783   51780       9   51789   51786
       8   51792   51786       8   51792   51789       9   51798   51795       8
   51801   51795       8   51801   51798       9   51807   51804       8   51810
   51804       8   51810   51807       9   51816   51813       8   51819   51813
       8   51819   51816       9   51825   51822       8   51828   51822       8
   51828   51825       9   51834   51831       8   51837   51831       8   51837
   51834       9   51843   51840       8   51846   51840       8   51846   51843
       9   51852   51849       8   51855   51849       8   51855   51852       9
   51861   51858       8   51864   51858       8   51864   51861       9   51870
   51867       8   51873   51867       8   51873   51870       9   51879   51876
       8   51882   51876       8   51882   51879       9   51888   51885       8
   51891   51885       8   51891   51888       9   51897   51894       8   51900
   51894       8   51900   51897       9   51906   51903       8   51909   51903
       8   51909   51906       9   51915   51912       8   51918   51912       8
   51918   51915       9   51924   51921       8   51927   51921       8   51927
   51924       9   51933   51930       8   51936   51930       8   51936   51933
       9   51942   51939       8   51945   51939       8   51945   51942       9
   51951   51948       8   51954   51948       8   51954   51951       9   51960
   51957       8   51963   51957       8   51963   51960       9   51969   51966
       8   51972   51966       8   51972   51969       9   51978   51975       8
   51981   51975       8   51981   51978       9   51987   51984       8   51990
   51984       8   51990   51987       9   51996   51993       8   51999   51993
       8   51999   51996       9   52005   52002       8   52008   52002       8
   52008   52005       9   52014   52011       8   52017   52011       8   52017
   52014       9   52023   52020       8   52026   52020       8   52026   52023
       9   52032   52029       8   52035   52029       8   52035   52032       9
   52041   52038       8   52044   52038       8   52044   52041       9   52050
   52047       8   52053   52047       8   52053   52050       9   52059   52056
       8   52062   52056       8   52062   52059       9   52068   52065       8
   52071   52065       8   52071   52068       9   52077   52074       8   52080
   52074       8   52080   52077       9   52086   52083       8   52089   52083
       8   52089   52086       9   52095   52092       8   52098   52092       8
   52098   52095       9   52104   52101       8   52107   52101       8   52107
   52104       9   52113   52110       8   52116   52110       8   52116   52113
       9   52122   52119       8   52125   52119       8   52125   52122       9
   52131   52128       8   52134   52128       8   52134   52131       9   52140
   52137       8   52143   52137       8   52143   52140       9   52149   52146
       8   52152   52146       8   52152   52149       9   52158   52155       8
   52161   52155       8   52161   52158       9   52167   52164       8   52170
   52164       8   52170   52167       9   52176   52173       8   52179   52173
       8   52179   52176       9   52185   52182       8   52188   52182       8
   52188   52185       9   52194   52191       8   52197   52191       8   52197
   52194       9   52203   52200       8   52206   52200       8   52206   52203
       9   52212   52209       8   52215   52209       8   52215   52212       9
   52221   52218       8   52224   52218       8   52224   52221       9   52230
   52227       8   52233   52227       8   52233   52230       9   52239   52236
       8   52242   52236       8   52242   52239       9   52248   52245       8
   52251   52245       8   52251   52248       9   52257   52254       8   52260
   52254       8   52260   52257       9   52266   52263       8   52269   52263
       8   52269   52266       9   52275   52272       8   52278   52272       8
   52278   52275       9   52284   52281       8   52287   52281       8   52287
   52284       9   52293   52290       8   52296   52290       8   52296   52293
       9   52302   52299       8   52305   52299       8   52305   52302       9
   52311   52308       8   52314   52308       8   52314   52311       9   52320
   52317       8   52323   52317       8   52323   52320       9   52329   52326
       8   52332   52326       8   52332   52329       9   52338   52335       8
   52341   52335       8   52341   52338       9   52347   52344       8   52350
   52344       8   52350   52347       9   52356   52353       8   52359   52353
       8   52359   52356       9   52365   52362       8   52368   52362       8
   52368   52365       9   52374   52371       8   52377   52371       8   52377
   52374       9   52383   52380       8   52386   52380       8   52386   52383
       9   52392   52389       8   52395   52389       8   52395   52392       9
   52401   52398       8   52404   52398       8   52404   52401       9   52410
   52407       8   52413   52407       8   52413   52410       9   52419   52416
       8   52422   52416       8   52422   52419       9   52428   52425       8
   52431   52425       8   52431   52428       9   52437   52434       8   52440
   52434       8   52440   52437       9   52446   52443       8   52449   52443
       8   52449   52446       9   52455   52452       8   52458   52452       8
   52458   52455       9   52464   52461       8   52467   52461       8   52467
   52464       9   52473   52470       8   52476   52470       8   52476   52473
       9   52482   52479       8   52485   52479       8   52485   52482       9
   52491   52488       8   52494   52488       8   52494   52491       9   52500
   52497       8   52503   52497       8   52503   52500       9   52509   52506
       8   52512   52506       8   52512   52509       9   52518   52515       8
   52521   52515       8   52521   52518       9   52527   52524       8   52530
   52524       8   52530   52527       9   52536   52533       8   52539   52533
       8   52539   52536       9   52545   52542       8   52548   52542       8
   52548   52545       9   52554   52551       8   52557   52551       8   52557
   52554       9   52563   52560       8   52566   52560       8   52566   52563
       9   52572   52569       8   52575   52569       8   52575   52572       9
   52581   52578       8   52584   52578       8   52584   52581       9   52590
   52587       8   52593   52587       8   52593   52590       9   52599   52596
       8   52602   52596       8   52602   52599       9   52608   52605       8
   52611   52605       8   52611   52608       9   52617   52614       8   52620
   52614       8   52620   52617       9   52626   52623       8   52629   52623
       8   52629   52626       9   52635   52632       8   52638   52632       8
   52638   52635       9   52644   52641       8   52647   52641       8   52647
   52644       9   52653   52650       8   52656   52650       8   52656   52653
       9   52662   52659       8   52665   52659       8   52665   52662       9
   52671   52668       8   52674   52668       8   52674   52671       9   52680
   52677       8   52683   52677       8   52683   52680       9   52689   52686
       8   52692   52686       8   52692   52689       9   52698   52695       8
   52701   52695       8   52701   52698       9   52707   52704       8   52710
   52704       8   52710   52707       9   52716   52713       8   52719   52713
       8   52719   52716       9   52725   52722       8   52728   52722       8
   52728   52725       9   52734   52731       8   52737   52731       8   52737
   52734       9   52743   52740       8   52746   52740       8   52746   52743
       9   52752   52749       8   52755   52749       8   52755   52752       9
   52761   52758       8   52764   52758       8   52764   52761       9   52770
   52767       8   52773   52767       8   52773   52770       9   52779   52776
       8   52782   52776       8   52782   52779       9   52788   52785       8
   52791   52785       8   52791   52788       9   52797   52794       8   52800
   52794       8   52800   52797       9   52806   52803       8   52809   52803
       8   52809   52806       9   52815   52812       8   52818   52812       8
   52818   52815       9   52824   52821       8   52827   52821       8   52827
   52824       9   52833   52830       8   52836   52830       8   52836   52833
       9   52842   52839       8   52845   52839       8   52845   52842       9
   52851   52848       8   52854   52848       8   52854   52851       9   52860
   52857       8   52863   52857       8   52863   52860       9   52869   52866
       8   52872   52866       8   52872   52869       9   52878   52875       8
   52881   52875       8   52881   52878       9   52887   52884       8   52890
   52884       8   52890   52887       9   52896   52893       8   52899   52893
       8   52899   52896       9   52905   52902       8   52908   52902       8
   52908   52905       9   52914   52911       8   52917   52911       8   52917
   52914       9   52923   52920       8   52926   52920       8   52926   52923
       9   52932   52929       8   52935   52929       8   52935   52932       9
   52941   52938       8   52944   52938       8   52944   52941       9   52950
   52947       8   52953   52947       8   52953   52950       9   52959   52956
       8   52962   52956       8   52962   52959       9   52968   52965       8
   52971   52965       8   52971   52968       9   52977   52974       8   52980
   52974       8   52980   52977       9   52986   52983       8   52989   52983
       8   52989   52986       9   52995   52992       8   52998   52992       8
   52998   52995       9   53004   53001       8   53007   53001       8   53007
   53004       9   53013   53010       8   53016   53010       8   53016   53013
       9   53022   53019       8   53025   53019       8   53025   53022       9
   53031   53028       8   53034   53028       8   53034   53031       9   53040
   53037       8   53043   53037       8   53043   53040       9   53049   53046
       8   53052   53046       8   53052   53049       9   53058   53055       8
   53061   53055       8   53061   53058       9   53067   53064       8   53070
   53064       8   53070   53067       9   53076   53073       8   53079   53073
       8   53079   53076       9   53085   53082       8   53088   53082       8
   53088   53085       9   53094   53091       8   53097   53091       8   53097
   53094       9   53103   53100       8   53106   53100       8   53106   53103
       9   53112   53109       8   53115   53109       8   53115   53112       9
   53121   53118       8   53124   53118       8   53124   53121       9   53130
   53127       8   53133   53127       8   53133   53130       9   53139   53136
       8   53142   53136       8   53142   53139       9   53148   53145       8
   53151   53145       8   53151   53148       9   53157   53154       8   53160
   53154       8   53160   53157       9   53166   53163       8   53169   53163
       8   53169   53166       9   53175   53172       8   53178   53172       8
   53178   53175       9   53184   53181       8   53187   53181       8   53187
   53184       9   53193   53190       8   53196   53190       8   53196   53193
       9   53202   53199       8   53205   53199       8   53205   53202       9
   53211   53208       8   53214   53208       8   53214   53211       9   53220
   53217       8   53223   53217       8   53223   53220       9   53229   53226
       8   53232   53226       8   53232   53229       9   53238   53235       8
   53241   53235       8   53241   53238       9   53247   53244       8   53250
   53244       8   53250   53247       9   53256   53253       8   53259   53253
       8   53259   53256       9   53265   53262       8   53268   53262       8
   53268   53265       9   53274   53271       8   53277   53271       8   53277
   53274       9   53283   53280       8   53286   53280       8   53286   53283
       9   53292   53289       8   53295   53289       8   53295   53292       9
   53301   53298       8   53304   53298       8   53304   53301       9   53310
   53307       8   53313   53307       8   53313   53310       9   53319   53316
       8   53322   53316       8   53322   53319       9   53328   53325       8
   53331   53325       8   53331   53328       9   53337   53334       8   53340
   53334       8   53340   53337       9   53346   53343       8   53349   53343
       8   53349   53346       9   53355   53352       8   53358   53352       8
   53358   53355       9   53364   53361       8   53367   53361       8   53367
   53364       9   53373   53370       8   53376   53370       8   53376   53373
       9   53382   53379       8   53385   53379       8   53385   53382       9
   53391   53388       8   53394   53388       8   53394   53391       9   53400
   53397       8   53403   53397       8   53403   53400       9   53409   53406
       8   53412   53406       8   53412   53409       9   53418   53415       8
   53421   53415       8   53421   53418       9   53427   53424       8   53430
   53424       8   53430   53427       9   53436   53433       8   53439   53433
       8   53439   53436       9   53445   53442       8   53448   53442       8
   53448   53445       9   53454   53451       8   53457   53451       8   53457
   53454       9   53463   53460       8   53466   53460       8   53466   53463
       9   53472   53469       8   53475   53469       8   53475   53472       9
   53481   53478       8   53484   53478       8   53484   53481       9   53490
   53487       8   53493   53487       8   53493   53490       9   53499   53496
       8   53502   53496       8   53502   53499       9   53508   53505       8
   53511   53505       8   53511   53508       9   53517   53514       8   53520
   53514       8   53520   53517       9   53526   53523       8   53529   53523
       8   53529   53526       9   53535   53532       8   53538   53532       8
   53538   53535       9   53544   53541       8   53547   53541       8   53547
   53544       9   53553   53550       8   53556   53550       8   53556   53553
       9   53562   53559       8   53565   53559       8   53565   53562       9
   53571   53568       8   53574   53568       8   53574   53571       9   53580
   53577       8   53583   53577       8   53583   53580       9   53589   53586
       8   53592   53586       8   53592   53589       9   53598   53595       8
   53601   53595       8   53601   53598       9   53607   53604       8   53610
   53604       8   53610   53607       9   53616   53613       8   53619   53613
       8   53619   53616       9   53625   53622       8   53628   53622       8
   53628   53625       9   53634   53631       8   53637   53631       8   53637
   53634       9   53643   53640       8   53646   53640       8   53646   53643
       9   53652   53649       8   53655   53649       8   53655   53652       9
   53661   53658       8   53664   53658       8   53664   53661       9   53670
   53667       8   53673   53667       8   53673   53670       9   53679   53676
       8   53682   53676       8   53682   53679       9   53688   53685       8
   53691   53685       8   53691   53688       9   53697   53694       8   53700
   53694       8   53700   53697       9   53706   53703       8   53709   53703
       8   53709   53706       9   53715   53712       8   53718   53712       8
   53718   53715       9   53724   53721       8   53727   53721       8   53727
   53724       9   53733   53730       8   53736   53730       8   53736   53733
       9   53742   53739       8   53745   53739       8   53745   53742       9
   53751   53748       8   53754   53748       8   53754   53751       9   53760
   53757       8   53763   53757       8   53763   53760       9   53769   53766
       8   53772   53766       8   53772   53769       9   53778   53775       8
   53781   53775       8   53781   53778       9   53787   53784       8   53790
   53784       8   53790   53787       9   53796   53793       8   53799   53793
       8   53799   53796       9   53805   53802       8   53808   53802       8
   53808   53805       9   53814   53811       8   53817   53811       8   53817
   53814       9   53823   53820       8   53826   53820       8   53826   53823
       9   53832   53829       8   53835   53829       8   53835   53832       9
   53841   53838       8   53844   53838       8   53844   53841       9   53850
   53847       8   53853   53847       8   53853   53850       9   53859   53856
       8   53862   53856       8   53862   53859       9   53868   53865       8
   53871   53865       8   53871   53868       9   53877   53874       8   53880
   53874       8   53880   53877       9   53886   53883       8   53889   53883
       8   53889   53886       9   53895   53892       8   53898   53892       8
   53898   53895       9   53904   53901       8   53907   53901       8   53907
   53904       9   53913   53910       8   53916   53910       8   53916   53913
       9   53922   53919       8   53925   53919       8   53925   53922       9
   53931   53928       8   53934   53928       8   53934   53931       9   53940
   53937       8   53943   53937       8   53943   53940       9   53949   53946
       8   53952   53946       8   53952   53949       9   53958   53955       8
   53961   53955       8   53961   53958       9   53967   53964       8   53970
   53964       8   53970   53967       9   53976   53973       8   53979   53973
       8   53979   53976       9   53985   53982       8   53988   53982       8
   53988   53985       9   53994   53991       8   53997   53991       8   53997
   53994       9   54003   54000       8   54006   54000       8   54006   54003
       9   54012   54009       8   54015   54009       8   54015   54012       9
   54021   54018       8   54024   54018       8   54024   54021       9   54030
   54027       8   54033   54027       8   54033   54030       9   54039   54036
       8   54042   54036       8   54042   54039       9   54048   54045       8
   54051   54045       8   54051   54048       9   54057   54054       8   54060
   54054       8   54060   54057       9   54066   54063       8   54069   54063
       8   54069   54066       9   54075   54072       8   54078   54072       8
   54078   54075       9   54084   54081       8   54087   54081       8   54087
   54084       9   54093   54090       8   54096   54090       8   54096   54093
       9   54102   54099       8   54105   54099       8   54105   54102       9
   54111   54108       8   54114   54108       8   54114   54111       9   54120
   54117       8   54123   54117       8   54123   54120       9   54129   54126
       8   54132   54126       8   54132   54129       9   54138   54135       8
   54141   54135       8   54141   54138       9   54147   54144       8   54150
   54144       8   54150   54147       9   54156   54153       8   54159   54153
       8   54159   54156       9   54165   54162       8   54168   54162       8
   54168   54165       9   54174   54171       8   54177   54171       8   54177
   54174       9   54183   54180       8   54186   54180       8   54186   54183
       9   54192   54189       8   54195   54189       8   54195   54192       9
   54201   54198       8   54204   54198       8   54204   54201       9   54210
   54207       8   54213   54207       8   54213   54210       9   54219   54216
       8   54222   54216       8   54222   54219       9   54228   54225       8
   54231   54225       8   54231   54228       9   54237   54234       8   54240
   54234       8   54240   54237       9   54246   54243       8   54249   54243
       8   54249   54246       9   54255   54252       8   54258   54252       8
   54258   54255       9   54264   54261       8   54267   54261       8   54267
   54264       9   54273   54270       8   54276   54270       8   54276   54273
       9   54282   54279       8   54285   54279       8   54285   54282       9
   54291   54288       8   54294   54288       8   54294   54291       9   54300
   54297       8   54303   54297       8   54303   54300       9   54309   54306
       8   54312   54306       8   54312   54309       9   54318   54315       8
   54321   54315       8   54321   54318       9   54327   54324       8   54330
   54324       8   54330   54327       9   54336   54333       8   54339   54333
       8   54339   54336       9   54345   54342       8   54348   54342       8
   54348   54345       9   54354   54351       8   54357   54351       8   54357
   54354       9   54363   54360       8   54366   54360       8   54366   54363
       9   54372   54369       8   54375   54369       8   54375   54372       9
   54381   54378       8   54384   54378       8   54384   54381       9   54390
   54387       8   54393   54387       8   54393   54390       9   54399   54396
       8   54402   54396       8   54402   54399       9   54408   54405       8
   54411   54405       8   54411   54408       9   54417   54414       8   54420
   54414       8   54420   54417       9   54426   54423       8   54429   54423
       8   54429   54426       9   54435   54432       8   54438   54432       8
   54438   54435       9   54444   54441       8   54447   54441       8   54447
   54444       9   54453   54450       8   54456   54450       8   54456   54453
       9   54462   54459       8   54465   54459       8   54465   54462       9
   54471   54468       8   54474   54468       8   54474   54471       9   54480
   54477       8   54483   54477       8   54483   54480       9   54489   54486
       8   54492   54486       8   54492   54489       9   54498   54495       8
   54501   54495       8   54501   54498       9   54507   54504       8   54510
   54504       8   54510   54507       9   54516   54513       8   54519   54513
       8   54519   54516       9   54525   54522       8   54528   54522       8
   54528   54525       9   54534   54531       8   54537   54531       8   54537
   54534       9   54543   54540       8   54546   54540       8   54546   54543
       9   54552   54549       8   54555   54549       8   54555   54552       9
   54561   54558       8   54564   54558       8   54564   54561       9   54570
   54567       8   54573   54567       8   54573   54570       9   54579   54576
       8   54582   54576       8   54582   54579       9   54588   54585       8
   54591   54585       8   54591   54588       9   54597   54594       8   54600
   54594       8   54600   54597       9   54606   54603       8   54609   54603
       8   54609   54606       9   54615   54612       8   54618   54612       8
   54618   54615       9   54624   54621       8   54627   54621       8   54627
   54624       9   54633   54630       8   54636   54630       8   54636   54633
       9   54642   54639       8   54645   54639       8   54645   54642       9
   54651   54648       8   54654   54648       8   54654   54651       9   54660
   54657       8   54663   54657       8   54663   54660       9   54669   54666
       8   54672   54666       8   54672   54669       9   54678   54675       8
   54681   54675       8   54681   54678       9   54687   54684       8   54690
   54684       8   54690   54687       9   54696   54693       8   54699   54693
       8   54699   54696       9   54705   54702       8   54708   54702       8
   54708   54705       9   54714   54711       8   54717   54711       8   54717
   54714       9   54723   54720       8   54726   54720       8   54726   54723
       9   54732   54729       8   54735   54729       8   54735   54732       9
   54741   54738       8   54744   54738       8   54744   54741       9   54750
   54747       8   54753   54747       8   54753   54750       9   54759   54756
       8   54762   54756       8   54762   54759       9   54768   54765       8
   54771   54765       8   54771   54768       9   54777   54774       8   54780
   54774       8   54780   54777       9   54786   54783       8   54789   54783
       8   54789   54786       9   54795   54792       8   54798   54792       8
   54798   54795       9   54804   54801       8   54807   54801       8   54807
   54804       9   54813   54810       8   54816   54810       8   54816   54813
       9   54822   54819       8   54825   54819       8   54825   54822       9
   54831   54828       8   54834   54828       8   54834   54831       9   54840
   54837       8   54843   54837       8   54843   54840       9   54849   54846
       8   54852   54846       8   54852   54849       9   54858   54855       8
   54861   54855       8   54861   54858       9   54867   54864       8   54870
   54864       8   54870   54867       9   54876   54873       8   54879   54873
       8   54879   54876       9   54885   54882       8   54888   54882       8
   54888   54885       9   54894   54891       8   54897   54891       8   54897
   54894       9   54903   54900       8   54906   54900       8   54906   54903
       9   54912   54909       8   54915   54909       8   54915   54912       9
   54921   54918       8   54924   54918       8   54924   54921       9   54930
   54927       8   54933   54927       8   54933   54930       9   54939   54936
       8   54942   54936       8   54942   54939       9   54948   54945       8
   54951   54945       8   54951   54948       9   54957   54954       8   54960
   54954       8   54960   54957       9   54966   54963       8   54969   54963
       8   54969   54966       9   54975   54972       8   54978   54972       8
   54978   54975       9   54984   54981       8   54987   54981       8   54987
   54984       9   54993   54990       8   54996   54990       8   54996   54993
       9   55002   54999       8   55005   54999       8   55005   55002       9
   55011   55008       8   55014   55008       8   55014   55011       9   55020
   55017       8   55023   55017       8   55023   55020       9   55029   55026
       8   55032   55026       8   55032   55029       9   55038   55035       8
   55041   55035       8   55041   55038       9   55047   55044       8   55050
   55044       8   55050   55047       9   55056   55053       8   55059   55053
       8   55059   55056       9   55065   55062       8   55068   55062       8
   55068   55065       9   55074   55071       8   55077   55071       8   55077
   55074       9   55083   55080       8   55086   55080       8   55086   55083
       9   55092   55089       8   55095   55089       8   55095   55092       9
   55101   55098       8   55104   55098       8   55104   55101       9   55110
   55107       8   55113   55107       8   55113   55110       9   55119   55116
       8   55122   55116       8   55122   55119       9   55128   55125       8
   55131   55125       8   55131   55128       9   55137   55134       8   55140
   55134       8   55140   55137       9   55146   55143       8   55149   55143
       8   55149   55146       9   55155   55152       8   55158   55152       8
   55158   55155       9   55164   55161       8   55167   55161       8   55167
   55164       9   55173   55170       8   55176   55170       8   55176   55173
       9   55182   55179       8   55185   55179       8   55185   55182       9
   55191   55188       8   55194   55188       8   55194   55191       9   55200
   55197       8   55203   55197       8   55203   55200       9   55209   55206
       8   55212   55206       8   55212   55209       9   55218   55215       8
   55221   55215       8   55221   55218       9   55227   55224       8   55230
   55224       8   55230   55227       9   55236   55233       8   55239   55233
       8   55239   55236       9   55245   55242       8   55248   55242       8
   55248   55245       9   55254   55251       8   55257   55251       8   55257
   55254       9   55263   55260       8   55266   55260       8   55266   55263
       9   55272   55269       8   55275   55269       8   55275   55272       9
   55281   55278       8   55284   55278       8   55284   55281       9   55290
   55287       8   55293   55287       8   55293   55290       9   55299   55296
       8   55302   55296       8   55302   55299       9   55308   55305       8
   55311   55305       8   55311   55308       9   55317   55314       8   55320
   55314       8   55320   55317       9   55326   55323       8   55329   55323
       8   55329   55326       9   55335   55332       8   55338   55332       8
   55338   55335       9   55344   55341       8   55347   55341       8   55347
   55344       9   55353   55350       8   55356   55350       8   55356   55353
       9   55362   55359       8   55365   55359       8   55365   55362       9
   55371   55368       8   55374   55368       8   55374   55371       9   55380
   55377       8   55383   55377       8   55383   55380       9   55389   55386
       8   55392   55386       8   55392   55389       9   55398   55395       8
   55401   55395       8   55401   55398       9   55407   55404       8   55410
   55404       8   55410   55407       9   55416   55413       8   55419   55413
       8   55419   55416       9   55425   55422       8   55428   55422       8
   55428   55425       9   55434   55431       8   55437   55431       8   55437
   55434       9   55443   55440       8   55446   55440       8   55446   55443
       9   55452   55449       8   55455   55449       8   55455   55452       9
   55461   55458       8   55464   55458       8   55464   55461       9   55470
   55467       8   55473   55467       8   55473   55470       9   55479   55476
       8   55482   55476       8   55482   55479       9   55488   55485       8
   55491   55485       8   55491   55488       9   55497   55494       8   55500
   55494       8   55500   55497       9   55506   55503       8   55509   55503
       8   55509   55506       9   55515   55512       8   55518   55512       8
   55518   55515       9   55524   55521       8   55527   55521       8   55527
   55524       9   55533   55530       8   55536   55530       8   55536   55533
       9   55542   55539       8   55545   55539       8   55545   55542       9
   55551   55548       8   55554   55548       8   55554   55551       9   55560
   55557       8   55563   55557       8   55563   55560       9   55569   55566
       8   55572   55566       8   55572   55569       9   55578   55575       8
   55581   55575       8   55581   55578       9   55587   55584       8   55590
   55584       8   55590   55587       9   55596   55593       8   55599   55593
       8   55599   55596       9   55605   55602       8   55608   55602       8
   55608   55605       9   55614   55611       8   55617   55611       8   55617
   55614       9   55623   55620       8   55626   55620       8   55626   55623
       9   55632   55629       8   55635   55629       8   55635   55632       9
   55641   55638       8   55644   55638       8   55644   55641       9   55650
   55647       8   55653   55647       8   55653   55650       9   55659   55656
       8   55662   55656       8   55662   55659       9   55668   55665       8
   55671   55665       8   55671   55668       9   55677   55674       8   55680
   55674       8   55680   55677       9   55686   55683       8   55689   55683
       8   55689   55686       9   55695   55692       8   55698   55692       8
   55698   55695       9   55704   55701       8   55707   55701       8   55707
   55704       9   55713   55710       8   55716   55710       8   55716   55713
       9   55722   55719       8   55725   55719       8   55725   55722       9
   55731   55728       8   55734   55728       8   55734   55731       9   55740
   55737       8   55743   55737       8   55743   55740       9   55749   55746
       8   55752   55746       8   55752   55749       9   55758   55755       8
   55761   55755       8   55761   55758       9   55767   55764       8   55770
   55764       8   55770   55767       9   55776   55773       8   55779   55773
       8   55779   55776       9   55785   55782       8   55788   55782       8
   55788   55785       9   55794   55791       8   55797   55791       8   55797
   55794       9   55803   55800       8   55806   55800       8   55806   55803
       9   55812   55809       8   55815   55809       8   55815   55812       9
   55821   55818       8   55824   55818       8   55824   55821       9   55830
   55827       8   55833   55827       8   55833   55830       9   55839   55836
       8   55842   55836       8   55842   55839       9   55848   55845       8
   55851   55845       8   55851   55848       9   55857   55854       8   55860
   55854       8   55860   55857       9   55866   55863       8   55869   55863
       8   55869   55866       9   55875   55872       8   55878   55872       8
   55878   55875       9   55884   55881       8   55887   55881       8   55887
   55884       9   55893   55890       8   55896   55890       8   55896   55893
       9   55902   55899       8   55905   55899       8   55905   55902       9
   55911   55908       8   55914   55908       8   55914   55911       9   55920
   55917       8   55923   55917       8   55923   55920       9   55929   55926
       8   55932   55926       8   55932   55929       9   55938   55935       8
   55941   55935       8   55941   55938       9   55947   55944       8   55950
   55944       8   55950   55947       9   55956   55953       8   55959   55953
       8   55959   55956       9   55965   55962       8   55968   55962       8
   55968   55965       9   55974   55971       8   55977   55971       8   55977
   55974       9   55983   55980       8   55986   55980       8   55986   55983
       9   55992   55989       8   55995   55989       8   55995   55992       9
   56001   55998       8   56004   55998       8   56004   56001       9   56010
   56007       8   56013   56007       8   56013   56010       9   56019   56016
       8   56022   56016       8   56022   56019       9   56028   56025       8
   56031   56025       8   56031   56028       9   56037   56034       8   56040
   56034       8   56040   56037       9   56046   56043       8   56049   56043
       8   56049   56046       9   56055   56052       8   56058   56052       8
   56058   56055       9   56064   56061       8   56067   56061       8   56067
   56064       9   56073   56070       8   56076   56070       8   56076   56073
       9   56082   56079       8   56085   56079       8   56085   56082       9
   56091   56088       8   56094   56088       8   56094   56091       9   56100
   56097       8   56103   56097       8   56103   56100       9   56109   56106
       8   56112   56106       8   56112   56109       9   56118   56115       8
   56121   56115       8   56121   56118       9   56127   56124       8   56130
   56124       8   56130   56127       9   56136   56133       8   56139   56133
       8   56139   56136       9   56145   56142       8   56148   56142       8
   56148   56145       9   56154   56151       8   56157   56151       8   56157
   56154       9   56163   56160       8   56166   56160       8   56166   56163
       9   56172   56169       8   56175   56169       8   56175   56172       9
   56181   56178       8   56184   56178       8   56184   56181       9   56190
   56187       8   56193   56187       8   56193   56190       9   56199   56196
       8   56202   56196       8   56202   56199       9   56208   56205       8
   56211   56205       8   56211   56208       9   56217   56214       8   56220
   56214       8   56220   56217       9   56226   56223       8   56229   56223
       8   56229   56226       9   56235   56232       8   56238   56232       8
   56238   56235       9   56244   56241       8   56247   56241       8   56247
   56244       9   56253   56250       8   56256   56250       8   56256   56253
       9   56262   56259       8   56265   56259       8   56265   56262       9
   56271   56268       8   56274   56268       8   56274   56271       9   56280
   56277       8   56283   56277       8   56283   56280       9   56289   56286
       8   56292   56286       8   56292   56289       9   56298   56295       8
   56301   56295       8   56301   56298       9   56307   56304       8   56310
   56304       8   56310   56307       9   56316   56313       8   56319   56313
       8   56319   56316       9   56325   56322       8   56328   56322       8
   56328   56325       9   56334   56331       8   56337   56331       8   56337
   56334       9   56343   56340       8   56346   56340       8   56346   56343
       9   56352   56349       8   56355   56349       8   56355   56352       9
   56361   56358       8   56364   56358       8   56364   56361       9   56370
   56367       8   56373   56367       8   56373   56370       9   56379   56376
       8   56382   56376       8   56382   56379       9   56388   56385       8
   56391   56385       8   56391   56388       9   56397   56394       8   56400
   56394       8   56400   56397       9   56406   56403       8   56409   56403
       8   56409   56406       9   56415   56412       8   56418   56412       8
   56418   56415       9   56424   56421       8   56427   56421       8   56427
   56424       9   56433   56430       8   56436   56430       8   56436   56433
       9   56442   56439       8   56445   56439       8   56445   56442       9
   56451   56448       8   56454   56448       8   56454   56451       9   56460
   56457       8   56463   56457       8   56463   56460       9   56469   56466
       8   56472   56466       8   56472   56469       9   56478   56475       8
   56481   56475       8   56481   56478       9   56487   56484       8   56490
   56484       8   56490   56487       9   56496   56493       8   56499   56493
       8   56499   56496       9   56505   56502       8   56508   56502       8
   56508   56505       9   56514   56511       8   56517   56511       8   56517
   56514       9   56523   56520       8   56526   56520       8   56526   56523
       9   56532   56529       8   56535   56529       8   56535   56532       9
   56541   56538       8   56544   56538       8   56544   56541       9   56550
   56547       8   56553   56547       8   56553   56550       9   56559   56556
       8   56562   56556       8   56562   56559       9   56568   56565       8
   56571   56565       8   56571   56568       9   56577   56574       8   56580
   56574       8   56580   56577       9   56586   56583       8   56589   56583
       8   56589   56586       9   56595   56592       8   56598   56592       8
   56598   56595       9   56604   56601       8   56607   56601       8   56607
   56604       9   56613   56610       8   56616   56610       8   56616   56613
       9   56622   56619       8   56625   56619       8   56625   56622       9
   56631   56628       8   56634   56628       8   56634   56631       9   56640
   56637       8   56643   56637       8   56643   56640       9   56649   56646
       8   56652   56646       8   56652   56649       9   56658   56655       8
   56661   56655       8   56661   56658       9   56667   56664       8   56670
   56664       8   56670   56667       9   56676   56673       8   56679   56673
       8   56679   56676       9   56685   56682       8   56688   56682       8
   56688   56685       9   56694   56691       8   56697   56691       8   56697
   56694       9   56703   56700       8   56706   56700       8   56706   56703
       9   56712   56709       8   56715   56709       8   56715   56712       9
   56721   56718       8   56724   56718       8   56724   56721       9   56730
   56727       8   56733   56727       8   56733   56730       9   56739   56736
       8   56742   56736       8   56742   56739       9   56748   56745       8
   56751   56745       8   56751   56748       9   56757   56754       8   56760
   56754       8   56760   56757       9   56766   56763       8   56769   56763
       8   56769   56766       9   56775   56772       8   56778   56772       8
   56778   56775       9   56784   56781       8   56787   56781       8   56787
   56784       9   56793   56790       8   56796   56790       8   56796   56793
       9   56802   56799       8   56805   56799       8   56805   56802       9
   56811   56808       8   56814   56808       8   56814   56811       9   56820
   56817       8   56823   56817       8   56823   56820       9   56829   56826
       8   56832   56826       8   56832   56829       9   56838   56835       8
   56841   56835       8   56841   56838       9   56847   56844       8   56850
   56844       8   56850   56847       9   56856   56853       8   56859   56853
       8   56859   56856       9   56865   56862       8   56868   56862       8
   56868   56865       9   56874   56871       8   56877   56871       8   56877
   56874       9   56883   56880       8   56886   56880       8   56886   56883
       9   56892   56889       8   56895   56889       8   56895   56892       9
   56901   56898       8   56904   56898       8   56904   56901       9   56910
   56907       8   56913   56907       8   56913   56910       9   56919   56916
       8   56922   56916       8   56922   56919       9   56928   56925       8
   56931   56925       8   56931   56928       9   56937   56934       8   56940
   56934       8   56940   56937       9   56946   56943       8   56949   56943
       8   56949   56946       9   56955   56952       8   56958   56952       8
   56958   56955       9   56964   56961       8   56967   56961       8   56967
   56964       9   56973   56970       8   56976   56970       8   56976   56973
       9   56982   56979       8   56985   56979       8   56985   56982       9
   56991   56988       8   56994   56988       8   56994   56991       9   57000
   56997       8   57003   56997       8   57003   57000       9   57009   57006
       8   57012   57006       8   57012   57009       9   57018   57015       8
   57021   57015       8   57021   57018       9   57027   57024       8   57030
   57024       8   57030   57027       9   57036   57033       8   57039   57033
       8   57039   57036       9   57045   57042       8   57048   57042       8
   57048   57045       9   57054   57051       8   57057   57051       8   57057
   57054       9   57063   57060       8   57066   57060       8   57066   57063
       9   57072   57069       8   57075   57069       8   57075   57072       9
   57081   57078       8   57084   57078       8   57084   57081       9   57090
   57087       8   57093   57087       8   57093   57090       9   57099   57096
       8   57102   57096       8   57102   57099       9   57108   57105       8
   57111   57105       8   57111   57108       9   57117   57114       8   57120
   57114       8   57120   57117       9   57126   57123       8   57129   57123
       8   57129   57126       9   57135   57132       8   57138   57132       8
   57138   57135       9   57144   57141       8   57147   57141       8   57147
   57144       9   57153   57150       8   57156   57150       8   57156   57153
       9   57162   57159       8   57165   57159       8   57165   57162       9
   57171   57168       8   57174   57168       8   57174   57171       9   57180
   57177       8   57183   57177       8   57183   57180       9   57189   57186
       8   57192   57186       8   57192   57189       9   57198   57195       8
   57201   57195       8   57201   57198       9   57207   57204       8   57210
   57204       8   57210   57207       9   57216   57213       8   57219   57213
       8   57219   57216       9   57225   57222       8   57228   57222       8
   57228   57225       9   57234   57231       8   57237   57231       8   57237
   57234       9   57243   57240       8   57246   57240       8   57246   57243
       9   57252   57249       8   57255   57249       8   57255   57252       9
   57261   57258       8   57264   57258       8   57264   57261       9   57270
   57267       8   57273   57267       8   57273   57270       9   57279   57276
       8   57282   57276       8   57282   57279       9   57288   57285       8
   57291   57285       8   57291   57288       9   57297   57294       8   57300
   57294       8   57300   57297       9   57306   57303       8   57309   57303
       8   57309   57306       9   57315   57312       8   57318   57312       8
   57318   57315       9   57324   57321       8   57327   57321       8   57327
   57324       9   57333   57330       8   57336   57330       8   57336   57333
       9   57342   57339       8   57345   57339       8   57345   57342       9
   57351   57348       8   57354   57348       8   57354   57351       9   57360
   57357       8   57363   57357       8   57363   57360       9   57369   57366
       8   57372   57366       8   57372   57369       9   57378   57375       8
   57381   57375       8   57381   57378       9   57387   57384       8   57390
   57384       8   57390   57387       9   57396   57393       8   57399   57393
       8   57399   57396       9   57405   57402       8   57408   57402       8
   57408   57405       9   57414   57411       8   57417   57411       8   57417
   57414       9   57423   57420       8   57426   57420       8   57426   57423
       9   57432   57429       8   57435   57429       8   57435   57432       9
   57441   57438       8   57444   57438       8   57444   57441       9   57450
   57447       8   57453   57447       8   57453   57450       9   57459   57456
       8   57462   57456       8   57462   57459       9   57468   57465       8
   57471   57465       8   57471   57468       9   57477   57474       8   57480
   57474       8   57480   57477       9   57486   57483       8   57489   57483
       8   57489   57486       9   57495   57492       8   57498   57492       8
   57498   57495       9   57504   57501       8   57507   57501       8   57507
   57504       9   57513   57510       8   57516   57510       8   57516   57513
       9   57522   57519       8   57525   57519       8   57525   57522       9
   57531   57528       8   57534   57528       8   57534   57531       9   57540
   57537       8   57543   57537       8   57543   57540       9   57549   57546
       8   57552   57546       8   57552   57549       9   57558   57555       8
   57561   57555       8   57561   57558       9   57567   57564       8   57570
   57564       8   57570   57567       9   57576   57573       8   57579   57573
       8   57579   57576       9   57585   57582       8   57588   57582       8
   57588   57585       9   57594   57591       8   57597   57591       8   57597
   57594       9   57603   57600       8   57606   57600       8   57606   57603
       9   57612   57609       8   57615   57609       8   57615   57612       9
   57621   57618       8   57624   57618       8   57624   57621       9   57630
   57627       8   57633   57627       8   57633   57630       9   57639   57636
       8   57642   57636       8   57642   57639       9   57648   57645       8
   57651   57645       8   57651   57648       9   57657   57654       8   57660
   57654       8   57660   57657       9   57666   57663       8   57669   57663
       8   57669   57666       9   57675   57672       8   57678   57672       8
   57678   57675       9   57684   57681       8   57687   57681       8   57687
   57684       9   57693   57690       8   57696   57690       8   57696   57693
       9   57702   57699       8   57705   57699       8   57705   57702       9
   57711   57708       8   57714   57708       8   57714   57711       9   57720
   57717       8   57723   57717       8   57723   57720       9   57729   57726
       8   57732   57726       8   57732   57729       9   57738   57735       8
   57741   57735       8   57741   57738       9   57747   57744       8   57750
   57744       8   57750   57747       9   57756   57753       8   57759   57753
       8   57759   57756       9   57765   57762       8   57768   57762       8
   57768   57765       9   57774   57771       8   57777   57771       8   57777
   57774       9   57783   57780       8   57786   57780       8   57786   57783
       9   57792   57789       8   57795   57789       8   57795   57792       9
   57801   57798       8   57804   57798       8   57804   57801       9   57810
   57807       8   57813   57807       8   57813   57810       9   57819   57816
       8   57822   57816       8   57822   57819       9   57828   57825       8
   57831   57825       8   57831   57828       9   57837   57834       8   57840
   57834       8   57840   57837       9   57846   57843       8   57849   57843
       8   57849   57846       9   57855   57852       8   57858   57852       8
   57858   57855       9   57864   57861       8   57867   57861       8   57867
   57864       9   57873   57870       8   57876   57870       8   57876   57873
       9   57882   57879       8   57885   57879       8   57885   57882       9
   57891   57888       8   57894   57888       8   57894   57891       9   57900
   57897       8   57903   57897       8   57903   57900       9   57909   57906
       8   57912   57906       8   57912   57909       9   57918   57915       8
   57921   57915       8   57921   57918       9   57927   57924       8   57930
   57924       8   57930   57927       9   57936   57933       8   57939   57933
       8   57939   57936       9   57945   57942       8   57948   57942       8
   57948   57945       9   57954   57951       8   57957   57951       8   57957
   57954       9   57963   57960       8   57966   57960       8   57966   57963
       9   57972   57969       8   57975   57969       8   57975   57972       9
   57981   57978       8   57984   57978       8   57984   57981       9   57990
   57987       8   57993   57987       8   57993   57990       9   57999   57996
       8   58002   57996       8   58002   57999       9   58008   58005       8
   58011   58005       8   58011   58008       9   58017   58014       8   58020
   58014       8   58020   58017       9   58026   58023       8   58029   58023
       8   58029   58026       9   58035   58032       8   58038   58032       8
   58038   58035       9   58044   58041       8   58047   58041       8   58047
   58044       9   58053   58050       8   58056   58050       8   58056   58053
       9   58062   58059       8   58065   58059       8   58065   58062       9
   58071   58068       8   58074   58068       8   58074   58071       9   58080
   58077       8   58083   58077       8   58083   58080       9   58089   58086
       8   58092   58086       8   58092   58089       9   58098   58095       8
   58101   58095       8   58101   58098       9   58107   58104       8   58110
   58104       8   58110   58107       9   58116   58113       8   58119   58113
       8   58119   58116       9   58125   58122       8   58128   58122       8
   58128   58125       9   58134   58131       8   58137   58131       8   58137
   58134       9   58143   58140       8   58146   58140       8   58146   58143
       9   58152   58149       8   58155   58149       8   58155   58152       9
   58161   58158       8   58164   58158       8   58164   58161       9   58170
   58167       8   58173   58167       8   58173   58170       9   58179   58176
       8   58182   58176       8   58182   58179       9   58188   58185       8
   58191   58185       8   58191   58188       9   58197   58194       8   58200
   58194       8   58200   58197       9   58206   58203       8   58209   58203
       8   58209   58206       9   58215   58212       8   58218   58212       8
   58218   58215       9   58224   58221       8   58227   58221       8   58227
   58224       9   58233   58230       8   58236   58230       8   58236   58233
       9   58242   58239       8   58245   58239       8   58245   58242       9
   58251   58248       8   58254   58248       8   58254   58251       9   58260
   58257       8   58263   58257       8   58263   58260       9   58269   58266
       8   58272   58266       8   58272   58269       9   58278   58275       8
   58281   58275       8   58281   58278       9   58287   58284       8   58290
   58284       8   58290   58287       9   58296   58293       8   58299   58293
       8   58299   58296       9   58305   58302       8   58308   58302       8
   58308   58305       9   58314   58311       8   58317   58311       8   58317
   58314       9   58323   58320       8   58326   58320       8   58326   58323
       9   58332   58329       8   58335   58329       8   58335   58332       9
   58341   58338       8   58344   58338       8   58344   58341       9   58350
   58347       8   58353   58347       8   58353   58350       9   58359   58356
       8   58362   58356       8   58362   58359       9   58368   58365       8
   58371   58365       8   58371   58368       9   58377   58374       8   58380
   58374       8   58380   58377       9   58386   58383       8   58389   58383
       8   58389   58386       9   58395   58392       8   58398   58392       8
   58398   58395       9   58404   58401       8   58407   58401       8   58407
   58404       9   58413   58410       8   58416   58410       8   58416   58413
       9   58422   58419       8   58425   58419       8   58425   58422       9
   58431   58428       8   58434   58428       8   58434   58431       9   58440
   58437       8   58443   58437       8   58443   58440       9   58449   58446
       8   58452   58446       8   58452   58449       9   58458   58455       8
   58461   58455       8   58461   58458       9   58467   58464       8   58470
   58464       8   58470   58467       9   58476   58473       8   58479   58473
       8   58479   58476       9   58485   58482       8   58488   58482       8
   58488   58485       9   58494   58491       8   58497   58491       8   58497
   58494       9   58503   58500       8   58506   58500       8   58506   58503
       9   58512   58509       8   58515   58509       8   58515   58512       9
   58521   58518       8   58524   58518       8   58524   58521       9   58530
   58527       8   58533   58527       8   58533   58530       9   58539   58536
       8   58542   58536       8   58542   58539       9   58548   58545       8
   58551   58545       8   58551   58548       9   58557   58554       8   58560
   58554       8   58560   58557       9   58566   58563       8   58569   58563
       8   58569   58566       9   58575   58572       8   58578   58572       8
   58578   58575       9   58584   58581       8   58587   58581       8   58587
   58584       9   58593   58590       8   58596   58590       8   58596   58593
       9   58602   58599       8   58605   58599       8   58605   58602       9
   58611   58608       8   58614   58608       8   58614   58611       9   58620
   58617       8   58623   58617       8   58623   58620       9   58629   58626
       8   58632   58626       8   58632   58629       9   58638   58635       8
   58641   58635       8   58641   58638       9   58647   58644       8   58650
   58644       8   58650   58647       9   58656   58653       8   58659   58653
       8   58659   58656       9   58665   58662       8   58668   58662       8
   58668   58665       9   58674   58671       8   58677   58671       8   58677
   58674       9   58683   58680       8   58686   58680       8   58686   58683
       9   58692   58689       8   58695   58689       8   58695   58692       9
   58701   58698       8   58704   58698       8   58704   58701       9   58710
   58707       8   58713   58707       8   58713   58710       9   58719   58716
       8   58722   58716       8   58722   58719       9   58728   58725       8
   58731   58725       8   58731   58728       9   58737   58734       8   58740
   58734       8   58740   58737       9   58746   58743       8   58749   58743
       8   58749   58746       9   58755   58752       8   58758   58752       8
   58758   58755       9   58764   58761       8   58767   58761       8   58767
   58764       9   58773   58770       8   58776   58770       8   58776   58773
       9   58782   58779       8   58785   58779       8   58785   58782       9
   58791   58788       8   58794   58788       8   58794   58791       9   58800
   58797       8   58803   58797       8   58803   58800       9   58809   58806
       8   58812   58806       8   58812   58809       9   58818   58815       8
   58821   58815       8   58821   58818       9   58827   58824       8   58830
   58824       8   58830   58827       9   58836   58833       8   58839   58833
       8   58839   58836       9   58845   58842       8   58848   58842       8
   58848   58845       9   58854   58851       8   58857   58851       8   58857
   58854       9   58863   58860       8   58866   58860       8   58866   58863
       9   58872   58869       8   58875   58869       8   58875   58872       9
   58881   58878       8   58884   58878       8   58884   58881       9   58890
   58887       8   58893   58887       8   58893   58890       9   58899   58896
       8   58902   58896       8   58902   58899       9   58908   58905       8
   58911   58905       8   58911   58908       9   58917   58914       8   58920
   58914       8   58920   58917       9   58926   58923       8   58929   58923
       8   58929   58926       9   58935   58932       8   58938   58932       8
   58938   58935       9   58944   58941       8   58947   58941       8   58947
   58944       9   58953   58950       8   58956   58950       8   58956   58953
       9   58962   58959       8   58965   58959       8   58965   58962       9
   58971   58968       8   58974   58968       8   58974   58971       9   58980
   58977       8   58983   58977       8   58983   58980       9   58989   58986
       8   58992   58986       8   58992   58989       9   58998   58995       8
   59001   58995       8   59001   58998       9   59007   59004       8   59010
   59004       8   59010   59007       9   59016   59013       8   59019   59013
       8   59019   59016       9   59025   59022       8   59028   59022       8
   59028   59025       9   59034   59031       8   59037   59031       8   59037
   59034       9   59043   59040       8   59046   59040       8   59046   59043
       9   59052   59049       8   59055   59049       8   59055   59052       9
   59061   59058       8   59064   59058       8   59064   59061       9   59070
   59067       8   59073   59067       8   59073   59070       9   59079   59076
       8   59082   59076       8   59082   59079       9   59088   59085       8
   59091   59085       8   59091   59088       9   59097   59094       8   59100
   59094       8   59100   59097       9   59106   59103       8   59109   59103
       8   59109   59106       9   59115   59112       8   59118   59112       8
   59118   59115       9   59124   59121       8   59127   59121       8   59127
   59124       9   59133   59130       8   59136   59130       8   59136   59133
       9   59142   59139       8   59145   59139       8   59145   59142       9
   59151   59148       8   59154   59148       8   59154   59151       9   59160
   59157       8   59163   59157       8   59163   59160       9   59169   59166
       8   59172   59166       8   59172   59169       9   59178   59175       8
   59181   59175       8   59181   59178       9   59187   59184       8   59190
   59184       8   59190   59187       9   59196   59193       8   59199   59193
       8   59199   59196       9   59205   59202       8   59208   59202       8
   59208   59205       9   59214   59211       8   59217   59211       8   59217
   59214       9   59223   59220       8   59226   59220       8   59226   59223
       9   59232   59229       8   59235   59229       8   59235   59232       9
   59241   59238       8   59244   59238       8   59244   59241       9   59250
   59247       8   59253   59247       8   59253   59250       9   59259   59256
       8   59262   59256       8   59262   59259       9   59268   59265       8
   59271   59265       8   59271   59268       9   59277   59274       8   59280
   59274       8   59280   59277       9   59286   59283       8   59289   59283
       8   59289   59286       9   59295   59292       8   59298   59292       8
   59298   59295       9   59304   59301       8   59307   59301       8   59307
   59304       9   59313   59310       8   59316   59310       8   59316   59313
       9   59322   59319       8   59325   59319       8   59325   59322       9
   59331   59328       8   59334   59328       8   59334   59331       9   59340
   59337       8   59343   59337       8   59343   59340       9   59349   59346
       8   59352   59346       8   59352   59349       9   59358   59355       8
   59361   59355       8   59361   59358       9   59367   59364       8   59370
   59364       8   59370   59367       9   59376   59373       8   59379   59373
       8   59379   59376       9   59385   59382       8   59388   59382       8
   59388   59385       9   59394   59391       8   59397   59391       8   59397
   59394       9   59403   59400       8   59406   59400       8   59406   59403
       9   59412   59409       8   59415   59409       8   59415   59412       9
   59421   59418       8   59424   59418       8   59424   59421       9   59430
   59427       8   59433   59427       8   59433   59430       9   59439   59436
       8   59442   59436       8   59442   59439       9   59448   59445       8
   59451   59445       8   59451   59448       9   59457   59454       8   59460
   59454       8   59460   59457       9   59466   59463       8   59469   59463
       8   59469   59466       9   59475   59472       8   59478   59472       8
   59478   59475       9   59484   59481       8   59487   59481       8   59487
   59484       9   59493   59490       8   59496   59490       8   59496   59493
       9   59502   59499       8   59505   59499       8   59505   59502       9
   59511   59508       8   59514   59508       8   59514   59511       9   59520
   59517       8   59523   59517       8   59523   59520       9   59529   59526
       8   59532   59526       8   59532   59529       9   59538   59535       8
   59541   59535       8   59541   59538       9   59547   59544       8   59550
   59544       8   59550   59547       9   59556   59553       8   59559   59553
       8   59559   59556       9   59565   59562       8   59568   59562       8
   59568   59565       9   59574   59571       8   59577   59571       8   59577
   59574       9   59583   59580       8   59586   59580       8   59586   59583
       9   59592   59589       8   59595   59589       8   59595   59592       9
   59601   59598       8   59604   59598       8   59604   59601       9   59610
   59607       8   59613   59607       8   59613   59610       9   59619   59616
       8   59622   59616       8   59622   59619       9   59628   59625       8
   59631   59625       8   59631   59628       9   59637   59634       8   59640
   59634       8   59640   59637       9   59646   59643       8   59649   59643
       8   59649   59646       9   59655   59652       8   59658   59652       8
   59658   59655       9   59664   59661       8   59667   59661       8   59667
   59664       9   59673   59670       8   59676   59670       8   59676   59673
       9   59682   59679       8   59685   59679       8   59685   59682       9
   59691   59688       8   59694   59688       8   59694   59691       9   59700
   59697       8   59703   59697       8   59703   59700       9   59709   59706
       8   59712   59706       8   59712   59709       9   59718   59715       8
   59721   59715       8   59721   59718       9   59727   59724       8   59730
   59724       8   59730   59727       9   59736   59733       8   59739   59733
       8   59739   59736       9   59745   59742       8   59748   59742       8
   59748   59745       9   59754   59751       8   59757   59751       8   59757
   59754       9   59763   59760       8   59766   59760       8   59766   59763
       9   59772   59769       8   59775   59769       8   59775   59772       9
   59781   59778       8   59784   59778       8   59784   59781       9   59790
   59787       8   59793   59787       8   59793   59790       9   59799   59796
       8   59802   59796       8   59802   59799       9   59808   59805       8
   59811   59805       8   59811   59808       9   59817   59814       8   59820
   59814       8   59820   59817       9   59826   59823       8   59829   59823
       8   59829   59826       9   59835   59832       8   59838   59832       8
   59838   59835       9   59844   59841       8   59847   59841       8   59847
   59844       9   59853   59850       8   59856   59850       8   59856   59853
       9   59862   59859       8   59865   59859       8   59865   59862       9
   59871   59868       8   59874   59868       8   59874   59871       9   59880
   59877       8   59883   59877       8   59883   59880       9   59889   59886
       8   59892   59886       8   59892   59889       9   59898   59895       8
   59901   59895       8   59901   59898       9   59907   59904       8   59910
   59904       8   59910   59907       9   59916   59913       8   59919   59913
       8   59919   59916       9   59925   59922       8   59928   59922       8
   59928   59925       9   59934   59931       8   59937   59931       8   59937
   59934       9   59943   59940       8   59946   59940       8   59946   59943
       9   59952   59949       8   59955   59949       8   59955   59952       9
   59961   59958       8   59964   59958       8   59964   59961       9   59970
   59967       8   59973   59967       8   59973   59970       9   59979   59976
       8   59982   59976       8   59982   59979       9   59988   59985       8
   59991   59985       8   59991   59988       9   59997   59994       8   60000
   59994       8   60000   59997       9   60006   60003       8   60009   60003
       8   60009   60006       9   60015   60012       8   60018   60012       8
   60018   60015       9   60024   60021       8   60027   60021       8   60027
   60024       9   60033   60030       8   60036   60030       8   60036   60033
       9   60042   60039       8   60045   60039       8   60045   60042       9
   60051   60048       8   60054   60048       8   60054   60051       9   60060
   60057       8   60063   60057       8   60063   60060       9   60069   60066
       8   60072   60066       8   60072   60069       9   60078   60075       8
   60081   60075       8   60081   60078       9   60087   60084       8   60090
   60084       8   60090   60087       9   60096   60093       8   60099   60093
       8   60099   60096       9   60105   60102       8   60108   60102       8
   60108   60105       9   60114   60111       8   60117   60111       8   60117
   60114       9   60123   60120       8   60126   60120       8   60126   60123
       9   60132   60129       8   60135   60129       8   60135   60132       9
   60141   60138       8   60144   60138       8   60144   60141       9   60150
   60147       8   60153   60147       8   60153   60150       9   60159   60156
       8   60162   60156       8   60162   60159       9   60168   60165       8
   60171   60165       8   60171   60168       9   60177   60174       8   60180
   60174       8   60180   60177       9   60186   60183       8   60189   60183
       8   60189   60186       9   60195   60192       8   60198   60192       8
   60198   60195       9   60204   60201       8   60207   60201       8   60207
   60204       9   60213   60210       8   60216   60210       8   60216   60213
       9   60222   60219       8   60225   60219       8   60225   60222       9
   60231   60228       8   60234   60228       8   60234   60231       9   60240
   60237       8   60243   60237       8   60243   60240       9   60249   60246
       8   60252   60246       8   60252   60249       9   60258   60255       8
   60261   60255       8   60261   60258       9   60267   60264       8   60270
   60264       8   60270   60267       9   60276   60273       8   60279   60273
       8   60279   60276       9   60285   60282       8   60288   60282       8
   60288   60285       9   60294   60291       8   60297   60291       8   60297
   60294       9   60303   60300       8   60306   60300       8   60306   60303
       9   60312   60309       8   60315   60309       8   60315   60312       9
   60321   60318       8   60324   60318       8   60324   60321       9   60330
   60327       8   60333   60327       8   60333   60330       9   60339   60336
       8   60342   60336       8   60342   60339       9   60348   60345       8
   60351   60345       8   60351   60348       9   60357   60354       8   60360
   60354       8   60360   60357       9   60366   60363       8   60369   60363
       8   60369   60366       9   60375   60372       8   60378   60372       8
   60378   60375       9   60384   60381       8   60387   60381       8   60387
   60384       9   60393   60390       8   60396   60390       8   60396   60393
       9   60402   60399       8   60405   60399       8   60405   60402       9
   60411   60408       8   60414   60408       8   60414   60411       9   60420
   60417       8   60423   60417       8   60423   60420       9   60429   60426
       8   60432   60426       8   60432   60429       9   60438   60435       8
   60441   60435       8   60441   60438       9   60447   60444       8   60450
   60444       8   60450   60447       9   60456   60453       8   60459   60453
       8   60459   60456       9   60465   60462       8   60468   60462       8
   60468   60465       9   60474   60471       8   60477   60471       8   60477
   60474       9   60483   60480       8   60486   60480       8   60486   60483
       9   60492   60489       8   60495   60489       8   60495   60492       9
   60501   60498       8   60504   60498       8   60504   60501       9   60510
   60507       8   60513   60507       8   60513   60510       9   60519   60516
       8   60522   60516       8   60522   60519       9   60528   60525       8
   60531   60525       8   60531   60528       9   60537   60534       8   60540
   60534       8   60540   60537       9   60546   60543       8   60549   60543
       8   60549   60546       9   60555   60552       8   60558   60552       8
   60558   60555       9   60564   60561       8   60567   60561       8   60567
   60564       9   60573   60570       8   60576   60570       8   60576   60573
       9   60582   60579       8   60585   60579       8   60585   60582       9
   60591   60588       8   60594   60588       8   60594   60591       9   60600
   60597       8   60603   60597       8   60603   60600       9   60609   60606
       8   60612   60606       8   60612   60609       9   60618   60615       8
   60621   60615       8   60621   60618       9   60627   60624       8   60630
   60624       8   60630   60627       9   60636   60633       8   60639   60633
       8   60639   60636       9   60645   60642       8   60648   60642       8
   60648   60645       9   60654   60651       8   60657   60651       8   60657
   60654       9   60663   60660       8   60666   60660       8   60666   60663
       9   60672   60669       8   60675   60669       8   60675   60672       9
   60681   60678       8   60684   60678       8   60684   60681       9   60690
   60687       8   60693   60687       8   60693   60690       9   60699   60696
       8   60702   60696       8   60702   60699       9   60708   60705       8
   60711   60705       8   60711   60708       9   60717   60714       8   60720
   60714       8   60720   60717       9   60726   60723       8   60729   60723
       8   60729   60726       9   60735   60732       8   60738   60732       8
   60738   60735       9   60744   60741       8   60747   60741       8   60747
   60744       9   60753   60750       8   60756   60750       8   60756   60753
       9   60762   60759       8   60765   60759       8   60765   60762       9
   60771   60768       8   60774   60768       8   60774   60771       9   60780
   60777       8   60783   60777       8   60783   60780       9   60789   60786
       8   60792   60786       8   60792   60789       9   60798   60795       8
   60801   60795       8   60801   60798       9   60807   60804       8   60810
   60804       8   60810   60807       9   60816   60813       8   60819   60813
       8   60819   60816       9   60825   60822       8   60828   60822       8
   60828   60825       9   60834   60831       8   60837   60831       8   60837
   60834       9   60843   60840       8   60846   60840       8   60846   60843
       9   60852   60849       8   60855   60849       8   60855   60852       9
   60861   60858       8   60864   60858       8   60864   60861       9   60870
   60867       8   60873   60867       8   60873   60870       9   60879   60876
       8   60882   60876       8   60882   60879       9   60888   60885       8
   60891   60885       8   60891   60888       9   60897   60894       8   60900
   60894       8   60900   60897       9   60906   60903       8   60909   60903
       8   60909   60906       9   60915   60912       8   60918   60912       8
   60918   60915       9   60924   60921       8   60927   60921       8   60927
   60924       9   60933   60930       8   60936   60930       8   60936   60933
       9   60942   60939       8   60945   60939       8   60945   60942       9
   60951   60948       8   60954   60948       8   60954   60951       9   60960
   60957       8   60963   60957       8   60963   60960       9   60969   60966
       8   60972   60966       8   60972   60969       9   60978   60975       8
   60981   60975       8   60981   60978       9   60987   60984       8   60990
   60984       8   60990   60987       9   60996   60993       8   60999   60993
       8   60999   60996       9   61005   61002       8   61008   61002       8
   61008   61005       9   61014   61011       8   61017   61011       8   61017
   61014       9   61023   61020       8   61026   61020       8   61026   61023
       9   61032   61029       8   61035   61029       8   61035   61032       9
   61041   61038       8   61044   61038       8   61044   61041       9   61050
   61047       8   61053   61047       8   61053   61050       9   61059   61056
       8   61062   61056       8   61062   61059       9   61068   61065       8
   61071   61065       8   61071   61068       9   61077   61074       8   61080
   61074       8   61080   61077       9   61086   61083       8   61089   61083
       8   61089   61086       9   61095   61092       8   61098   61092       8
   61098   61095       9   61104   61101       8   61107   61101       8   61107
   61104       9   61113   61110       8   61116   61110       8   61116   61113
       9   61122   61119       8   61125   61119       8   61125   61122       9
   61131   61128       8   61134   61128       8   61134   61131       9   61140
   61137       8   61143   61137       8   61143   61140       9   61149   61146
       8   61152   61146       8   61152   61149       9   61158   61155       8
   61161   61155       8   61161   61158       9   61167   61164       8   61170
   61164       8   61170   61167       9   61176   61173       8   61179   61173
       8   61179   61176       9   61185   61182       8   61188   61182       8
   61188   61185       9   61194   61191       8   61197   61191       8   61197
   61194       9   61203   61200       8   61206   61200       8   61206   61203
       9   61212   61209       8   61215   61209       8   61215   61212       9
   61221   61218       8   61224   61218       8   61224   61221       9   61230
   61227       8   61233   61227       8   61233   61230       9   61239   61236
       8   61242   61236       8   61242   61239       9   61248   61245       8
   61251   61245       8   61251   61248       9   61257   61254       8   61260
   61254       8   61260   61257       9   61266   61263       8   61269   61263
       8   61269   61266       9   61275   61272       8   61278   61272       8
   61278   61275       9   61284   61281       8   61287   61281       8   61287
   61284       9   61293   61290       8   61296   61290       8   61296   61293
       9   61302   61299       8   61305   61299       8   61305   61302       9
   61311   61308       8   61314   61308       8   61314   61311       9   61320
   61317       8   61323   61317       8   61323   61320       9   61329   61326
       8   61332   61326       8   61332   61329       9   61338   61335       8
   61341   61335       8   61341   61338       9   61347   61344       8   61350
   61344       8   61350   61347       9   61356   61353       8   61359   61353
       8   61359   61356       9   61365   61362       8   61368   61362       8
   61368   61365       9   61374   61371       8   61377   61371       8   61377
   61374       9   61383   61380       8   61386   61380       8   61386   61383
       9   61392   61389       8   61395   61389       8   61395   61392       9
   61401   61398       8   61404   61398       8   61404   61401       9   61410
   61407       8   61413   61407       8   61413   61410       9   61419   61416
       8   61422   61416       8   61422   61419       9   61428   61425       8
   61431   61425       8   61431   61428       9   61437   61434       8   61440
   61434       8   61440   61437       9   61446   61443       8   61449   61443
       8   61449   61446       9   61455   61452       8   61458   61452       8
   61458   61455       9   61464   61461       8   61467   61461       8   61467
   61464       9   61473   61470       8   61476   61470       8   61476   61473
       9   61482   61479       8   61485   61479       8   61485   61482       9
   61491   61488       8   61494   61488       8   61494   61491       9   61500
   61497       8   61503   61497       8   61503   61500       9   61509   61506
       8   61512   61506       8   61512   61509       9   61518   61515       8
   61521   61515       8   61521   61518       9   61527   61524       8   61530
   61524       8   61530   61527       9   61536   61533       8   61539   61533
       8   61539   61536       9   61545   61542       8   61548   61542       8
   61548   61545       9   61554   61551       8   61557   61551       8   61557
   61554       9   61563   61560       8   61566   61560       8   61566   61563
       9   61572   61569       8   61575   61569       8   61575   61572       9
   61581   61578       8   61584   61578       8   61584   61581       9   61590
   61587       8   61593   61587       8   61593   61590       9   61599   61596
       8   61602   61596       8   61602   61599       9   61608   61605       8
   61611   61605       8   61611   61608       9   61617   61614       8   61620
   61614       8   61620   61617       9   61626   61623       8   61629   61623
       8   61629   61626       9   61635   61632       8   61638   61632       8
   61638   61635       9   61644   61641       8   61647   61641       8   61647
   61644       9   61653   61650       8   61656   61650       8   61656   61653
       9   61662   61659       8   61665   61659       8   61665   61662       9
   61671   61668       8   61674   61668       8   61674   61671       9   61680
   61677       8   61683   61677       8   61683   61680       9   61689   61686
       8   61692   61686       8   61692   61689       9   61698   61695       8
   61701   61695       8   61701   61698       9   61707   61704       8   61710
   61704       8   61710   61707       9   61716   61713       8   61719   61713
       8   61719   61716       9   61725   61722       8   61728   61722       8
   61728   61725       9   61734   61731       8   61737   61731       8   61737
   61734       9   61743   61740       8   61746   61740       8   61746   61743
       9   61752   61749       8   61755   61749       8   61755   61752       9
   61761   61758       8   61764   61758       8   61764   61761       9   61770
   61767       8   61773   61767       8   61773   61770       9   61779   61776
       8   61782   61776       8   61782   61779       9   61788   61785       8
   61791   61785       8   61791   61788       9   61797   61794       8   61800
   61794       8   61800   61797       9   61806   61803       8   61809   61803
       8   61809   61806       9   61815   61812       8   61818   61812       8
   61818   61815       9   61824   61821       8   61827   61821       8   61827
   61824       9   61833   61830       8   61836   61830       8   61836   61833
       9   61842   61839       8   61845   61839       8   61845   61842       9
   61851   61848       8   61854   61848       8   61854   61851       9   61860
   61857       8   61863   61857       8   61863   61860       9   61869   61866
       8   61872   61866       8   61872   61869       9   61878   61875       8
   61881   61875       8   61881   61878       9   61887   61884       8   61890
   61884       8   61890   61887       9   61896   61893       8   61899   61893
       8   61899   61896       9   61905   61902       8   61908   61902       8
   61908   61905       9   61914   61911       8   61917   61911       8   61917
   61914       9   61923   61920       8   61926   61920       8   61926   61923
       9   61932   61929       8   61935   61929       8   61935   61932       9
   61941   61938       8   61944   61938       8   61944   61941       9   61950
   61947       8   61953   61947       8   61953   61950       9   61959   61956
       8   61962   61956       8   61962   61959       9   61968   61965       8
   61971   61965       8   61971   61968       9   61977   61974       8   61980
   61974       8   61980   61977       9   61986   61983       8   61989   61983
       8   61989   61986       9   61995   61992       8   61998   61992       8
   61998   61995       9   62004   62001       8   62007   62001       8   62007
   62004       9   62013   62010       8   62016   62010       8   62016   62013
       9   62022   62019       8   62025   62019       8   62025   62022       9
   62031   62028       8   62034   62028       8   62034   62031       9   62040
   62037       8   62043   62037       8   62043   62040       9   62049   62046
       8   62052   62046       8   62052   62049       9   62058   62055       8
   62061   62055       8   62061   62058       9   62067   62064       8   62070
   62064       8   62070   62067       9   62076   62073       8   62079   62073
       8   62079   62076       9   62085   62082       8   62088   62082       8
   62088   62085       9   62094   62091       8   62097   62091       8   62097
   62094       9   62103   62100       8   62106   62100       8   62106   62103
       9   62112   62109       8   62115   62109       8   62115   62112       9
   62121   62118       8   62124   62118       8   62124   62121       9   62130
   62127       8   62133   62127       8   62133   62130       9   62139   62136
       8   62142   62136       8   62142   62139       9   62148   62145       8
   62151   62145       8   62151   62148       9   62157   62154       8   62160
   62154       8   62160   62157       9   62166   62163       8   62169   62163
       8   62169   62166       9   62175   62172       8   62178   62172       8
   62178   62175       9   62184   62181       8   62187   62181       8   62187
   62184       9   62193   62190       8   62196   62190       8   62196   62193
       9   62202   62199       8   62205   62199       8   62205   62202       9
   62211   62208       8   62214   62208       8   62214   62211       9   62220
   62217       8   62223   62217       8   62223   62220       9   62229   62226
       8   62232   62226       8   62232   62229       9   62238   62235       8
   62241   62235       8   62241   62238       9   62247   62244       8   62250
   62244       8   62250   62247       9   62256   62253       8   62259   62253
       8   62259   62256       9   62265   62262       8   62268   62262       8
   62268   62265       9   62274   62271       8   62277   62271       8   62277
   62274       9   62283   62280       8   62286   62280       8   62286   62283
       9   62292   62289       8   62295   62289       8   62295   62292       9
   62301   62298       8   62304   62298       8   62304   62301       9   62310
   62307       8   62313   62307       8   62313   62310       9   62319   62316
       8   62322   62316       8   62322   62319       9   62328   62325       8
   62331   62325       8   62331   62328       9   62337   62334       8   62340
   62334       8   62340   62337       9   62346   62343       8   62349   62343
       8   62349   62346       9   62355   62352       8   62358   62352       8
   62358   62355       9   62364   62361       8   62367   62361       8   62367
   62364       9   62373   62370       8   62376   62370       8   62376   62373
       9   62382   62379       8   62385   62379       8   62385   62382       9
   62391   62388       8   62394   62388       8   62394   62391       9   62400
   62397       8   62403   62397       8   62403   62400       9   62409   62406
       8   62412   62406       8   62412   62409       9   62418   62415       8
   62421   62415       8   62421   62418       9   62427   62424       8   62430
   62424       8   62430   62427       9   62436   62433       8   62439   62433
       8   62439   62436       9   62445   62442       8   62448   62442       8
   62448   62445       9   62454   62451       8   62457   62451       8   62457
   62454       9   62463   62460       8   62466   62460       8   62466   62463
       9   62472   62469       8   62475   62469       8   62475   62472       9
   62481   62478       8   62484   62478       8   62484   62481       9   62490
   62487       8   62493   62487       8   62493   62490       9   62499   62496
       8   62502   62496       8   62502   62499       9   62508   62505       8
   62511   62505       8   62511   62508       9   62517   62514       8   62520
   62514       8   62520   62517       9   62526   62523       8   62529   62523
       8   62529   62526       9   62535   62532       8   62538   62532       8
   62538   62535       9   62544   62541       8   62547   62541       8   62547
   62544       9   62553   62550       8   62556   62550       8   62556   62553
       9   62562   62559       8   62565   62559       8   62565   62562       9
   62571   62568       8   62574   62568       8   62574   62571       9   62580
   62577       8   62583   62577       8   62583   62580       9   62589   62586
       8   62592   62586       8   62592   62589       9   62598   62595       8
   62601   62595       8   62601   62598       9   62607   62604       8   62610
   62604       8   62610   62607       9   62616   62613       8   62619   62613
       8   62619   62616       9   62625   62622       8   62628   62622       8
   62628   62625       9   62634   62631       8   62637   62631       8   62637
   62634       9   62643   62640       8   62646   62640       8   62646   62643
       9   62652   62649       8   62655   62649       8   62655   62652       9
   62661   62658       8   62664   62658       8   62664   62661       9   62670
   62667       8   62673   62667       8   62673   62670       9   62679   62676
       8   62682   62676       8   62682   62679       9   62688   62685       8
   62691   62685       8   62691   62688       9   62697   62694       8   62700
   62694       8   62700   62697       9   62706   62703       8   62709   62703
       8   62709   62706       9   62715   62712       8   62718   62712       8
   62718   62715       9   62724   62721       8   62727   62721       8   62727
   62724       9   62733   62730       8   62736   62730       8   62736   62733
       9   62742   62739       8   62745   62739       8   62745   62742       9
   62751   62748       8   62754   62748       8   62754   62751       9   62760
   62757       8   62763   62757       8   62763   62760       9   62769   62766
       8   62772   62766       8   62772   62769       9   62778   62775       8
   62781   62775       8   62781   62778       9   62787   62784       8   62790
   62784       8   62790   62787       9   62796   62793       8   62799   62793
       8   62799   62796       9   62805   62802       8   62808   62802       8
   62808   62805       9   62814   62811       8   62817   62811       8   62817
   62814       9   62823   62820       8   62826   62820       8   62826   62823
       9   62832   62829       8   62835   62829       8   62835   62832       9
   62841   62838       8   62844   62838       8   62844   62841       9   62850
   62847       8   62853   62847       8   62853   62850       9   62859   62856
       8   62862   62856       8   62862   62859       9   62868   62865       8
   62871   62865       8   62871   62868       9   62877   62874       8   62880
   62874       8   62880   62877       9   62886   62883       8   62889   62883
       8   62889   62886       9   62895   62892       8   62898   62892       8
   62898   62895       9   62904   62901       8   62907   62901       8   62907
   62904       9   62913   62910       8   62916   62910       8   62916   62913
       9   62922   62919       8   62925   62919       8   62925   62922       9
   62931   62928       8   62934   62928       8   62934   62931       9   62940
   62937       8   62943   62937       8   62943   62940       9   62949   62946
       8   62952   62946       8   62952   62949       9   62958   62955       8
   62961   62955       8   62961   62958       9   62967   62964       8   62970
   62964       8   62970   62967       9   62976   62973       8   62979   62973
       8   62979   62976       9   62985   62982       8   62988   62982       8
   62988   62985       9   62994   62991       8   62997   62991       8   62997
   62994       9   63003   63000       8   63006   63000       8   63006   63003
       9   63012   63009       8   63015   63009       8   63015   63012       9
   63021   63018       8   63024   63018       8   63024   63021       9   63030
   63027       8   63033   63027       8   63033   63030       9   63039   63036
       8   63042   63036       8   63042   63039       9   63048   63045       8
   63051   63045       8   63051   63048       9   63057   63054       8   63060
   63054       8   63060   63057       9   63066   63063       8   63069   63063
       8   63069   63066       9   63075   63072       8   63078   63072       8
   63078   63075       9   63084   63081       8   63087   63081       8   63087
   63084       9   63093   63090       8   63096   63090       8   63096   63093
       9   63102   63099       8   63105   63099       8   63105   63102       9
   63111   63108       8   63114   63108       8   63114   63111       9   63120
   63117       8   63123   63117       8   63123   63120       9   63129   63126
       8   63132   63126       8   63132   63129       9   63138   63135       8
   63141   63135       8   63141   63138       9   63147   63144       8   63150
   63144       8   63150   63147       9   63156   63153       8   63159   63153
       8   63159   63156       9   63165   63162       8   63168   63162       8
   63168   63165       9   63174   63171       8   63177   63171       8   63177
   63174       9   63183   63180       8   63186   63180       8   63186   63183
       9   63192   63189       8   63195   63189       8   63195   63192       9
   63201   63198       8   63204   63198       8   63204   63201       9   63210
   63207       8   63213   63207       8   63213   63210       9   63219   63216
       8   63222   63216       8   63222   63219       9   63228   63225       8
   63231   63225       8   63231   63228       9   63237   63234       8   63240
   63234       8   63240   63237       9   63246   63243       8   63249   63243
       8   63249   63246       9   63255   63252       8   63258   63252       8
   63258   63255       9   63264   63261       8   63267   63261       8   63267
   63264       9   63273   63270       8   63276   63270       8   63276   63273
       9   63282   63279       8   63285   63279       8   63285   63282       9
   63291   63288       8   63294   63288       8   63294   63291       9   63300
   63297       8   63303   63297       8   63303   63300       9   63309   63306
       8   63312   63306       8   63312   63309       9   63318   63315       8
   63321   63315       8   63321   63318       9   63327   63324       8   63330
   63324       8   63330   63327       9   63336   63333       8   63339   63333
       8   63339   63336       9   63345   63342       8   63348   63342       8
   63348   63345       9   63354   63351       8   63357   63351       8   63357
   63354       9   63363   63360       8   63366   63360       8   63366   63363
       9   63372   63369       8   63375   63369       8   63375   63372       9
   63381   63378       8   63384   63378       8   63384   63381       9   63390
   63387       8   63393   63387       8   63393   63390       9   63399   63396
       8   63402   63396       8   63402   63399       9   63408   63405       8
   63411   63405       8   63411   63408       9   63417   63414       8   63420
   63414       8   63420   63417       9   63426   63423       8   63429   63423
       8   63429   63426       9   63435   63432       8   63438   63432       8
   63438   63435       9   63444   63441       8   63447   63441       8   63447
   63444       9   63453   63450       8   63456   63450       8   63456   63453
       9   63462   63459       8   63465   63459       8   63465   63462       9
   63471   63468       8   63474   63468       8   63474   63471       9   63480
   63477       8   63483   63477       8   63483   63480       9   63489   63486
       8   63492   63486       8   63492   63489       9   63498   63495       8
   63501   63495       8   63501   63498       9   63507   63504       8   63510
   63504       8   63510   63507       9   63516   63513       8   63519   63513
       8   63519   63516       9   63525   63522       8   63528   63522       8
   63528   63525       9   63534   63531       8   63537   63531       8   63537
   63534       9   63543   63540       8   63546   63540       8   63546   63543
       9   63552   63549       8   63555   63549       8   63555   63552       9
   63561   63558       8   63564   63558       8   63564   63561       9   63570
   63567       8   63573   63567       8   63573   63570       9   63579   63576
       8   63582   63576       8   63582   63579       9   63588   63585       8
   63591   63585       8   63591   63588       9   63597   63594       8   63600
   63594       8   63600   63597       9   63606   63603       8   63609   63603
       8   63609   63606       9   63615   63612       8   63618   63612       8
   63618   63615       9   63624   63621       8   63627   63621       8   63627
   63624       9   63633   63630       8   63636   63630       8   63636   63633
       9   63642   63639       8   63645   63639       8   63645   63642       9
   63651   63648       8   63654   63648       8   63654   63651       9   63660
   63657       8   63663   63657       8   63663   63660       9   63669   63666
       8   63672   63666       8   63672   63669       9   63678   63675       8
   63681   63675       8   63681   63678       9   63687   63684       8   63690
   63684       8   63690   63687       9   63696   63693       8   63699   63693
       8   63699   63696       9   63705   63702       8   63708   63702       8
   63708   63705       9   63714   63711       8   63717   63711       8   63717
   63714       9   63723   63720       8   63726   63720       8   63726   63723
       9   63732   63729       8   63735   63729       8   63735   63732       9
   63741   63738       8   63744   63738       8   63744   63741       9   63750
   63747       8   63753   63747       8   63753   63750       9   63759   63756
       8   63762   63756       8   63762   63759       9   63768   63765       8
   63771   63765       8   63771   63768       9   63777   63774       8   63780
   63774       8   63780   63777       9   63786   63783       8   63789   63783
       8   63789   63786       9   63795   63792       8   63798   63792       8
   63798   63795       9   63804   63801       8   63807   63801       8   63807
   63804       9   63813   63810       8   63816   63810       8   63816   63813
       9   63822   63819       8   63825   63819       8   63825   63822       9
   63831   63828       8   63834   63828       8   63834   63831       9   63840
   63837       8   63843   63837       8   63843   63840       9   63849   63846
       8   63852   63846       8   63852   63849       9   63858   63855       8
   63861   63855       8   63861   63858       9   63867   63864       8   63870
   63864       8   63870   63867       9   63876   63873       8   63879   63873
       8   63879   63876       9   63885   63882       8   63888   63882       8
   63888   63885       9   63894   63891       8   63897   63891       8   63897
   63894       9   63903   63900       8   63906   63900       8   63906   63903
       9   63912   63909       8   63915   63909       8   63915   63912       9
   63921   63918       8   63924   63918       8   63924   63921       9   63930
   63927       8   63933   63927       8   63933   63930       9   63939   63936
       8   63942   63936       8   63942   63939       9   63948   63945       8
   63951   63945       8   63951   63948       9   63957   63954       8   63960
   63954       8   63960   63957       9   63966   63963       8   63969   63963
       8   63969   63966       9   63975   63972       8   63978   63972       8
   63978   63975       9   63984   63981       8   63987   63981       8   63987
   63984       9   63993   63990       8   63996   63990       8   63996   63993
       9   64002   63999       8   64005   63999       8   64005   64002       9
   64011   64008       8   64014   64008       8   64014   64011       9   64020
   64017       8   64023   64017       8   64023   64020       9   64029   64026
       8   64032   64026       8   64032   64029       9   64038   64035       8
   64041   64035       8   64041   64038       9   64047   64044       8   64050
   64044       8   64050   64047       9   64056   64053       8   64059   64053
       8   64059   64056       9   64065   64062       8   64068   64062       8
   64068   64065       9   64074   64071       8   64077   64071       8   64077
   64074       9   64083   64080       8   64086   64080       8   64086   64083
       9   64092   64089       8   64095   64089       8   64095   64092       9
   64101   64098       8   64104   64098       8   64104   64101       9   64110
   64107       8   64113   64107       8   64113   64110       9   64119   64116
       8   64122   64116       8   64122   64119       9   64128   64125       8
   64131   64125       8   64131   64128       9   64137   64134       8   64140
   64134       8   64140   64137       9   64146   64143       8   64149   64143
       8   64149   64146       9   64155   64152       8   64158   64152       8
   64158   64155       9   64164   64161       8   64167   64161       8   64167
   64164       9   64173   64170       8   64176   64170       8   64176   64173
       9   64182   64179       8   64185   64179       8   64185   64182       9
   64191   64188       8   64194   64188       8   64194   64191       9   64200
   64197       8   64203   64197       8   64203   64200       9   64209   64206
       8   64212   64206       8   64212   64209       9   64218   64215       8
   64221   64215       8   64221   64218       9   64227   64224       8   64230
   64224       8   64230   64227       9   64236   64233       8   64239   64233
       8   64239   64236       9   64245   64242       8   64248   64242       8
   64248   64245       9   64254   64251       8   64257   64251       8   64257
   64254       9   64263   64260       8   64266   64260       8   64266   64263
       9   64272   64269       8   64275   64269       8   64275   64272       9
   64281   64278       8   64284   64278       8   64284   64281       9   64290
   64287       8   64293   64287       8   64293   64290       9   64299   64296
       8   64302   64296       8   64302   64299       9   64308   64305       8
   64311   64305       8   64311   64308       9   64317   64314       8   64320
   64314       8   64320   64317       9   64326   64323       8   64329   64323
       8   64329   64326       9   64335   64332       8   64338   64332       8
   64338   64335       9   64344   64341       8   64347   64341       8   64347
   64344       9   64353   64350       8   64356   64350       8   64356   64353
       9   64362   64359       8   64365   64359       8   64365   64362       9
   64371   64368       8   64374   64368       8   64374   64371       9   64380
   64377       8   64383   64377       8   64383   64380       9   64389   64386
       8   64392   64386       8   64392   64389       9   64398   64395       8
   64401   64395       8   64401   64398       9   64407   64404       8   64410
   64404       8   64410   64407       9   64416   64413       8   64419   64413
       8   64419   64416       9   64425   64422       8   64428   64422       8
   64428   64425       9   64434   64431       8   64437   64431       8   64437
   64434       9   64443   64440       8   64446   64440       8   64446   64443
       9   64452   64449       8   64455   64449       8   64455   64452       9
   64461   64458       8   64464   64458       8   64464   64461       9   64470
   64467       8   64473   64467       8   64473   64470       9   64479   64476
       8   64482   64476       8   64482   64479       9   64488   64485       8
   64491   64485       8   64491   64488       9   64497   64494       8   64500
   64494       8   64500   64497       9   64506   64503       8   64509   64503
       8   64509   64506       9   64515   64512       8   64518   64512       8
   64518   64515       9   64524   64521       8   64527   64521       8   64527
   64524       9   64533   64530       8   64536   64530       8   64536   64533
       9   64542   64539       8   64545   64539       8   64545   64542       9
   64551   64548       8   64554   64548       8   64554   64551       9   64560
   64557       8   64563   64557       8   64563   64560       9   64569   64566
       8   64572   64566       8   64572   64569       9   64578   64575       8
   64581   64575       8   64581   64578       9   64587   64584       8   64590
   64584       8   64590   64587       9   64596   64593       8   64599   64593
       8   64599   64596       9   64605   64602       8   64608   64602       8
   64608   64605       9   64614   64611       8   64617   64611       8   64617
   64614       9   64623   64620       8   64626   64620       8   64626   64623
       9   64632   64629       8   64635   64629       8   64635   64632       9
   64641   64638       8   64644   64638       8   64644   64641       9   64650
   64647       8   64653   64647       8   64653   64650       9   64659   64656
       8   64662   64656       8   64662   64659       9   64668   64665       8
   64671   64665       8   64671   64668       9   64677   64674       8   64680
   64674       8   64680   64677       9   64686   64683       8   64689   64683
       8   64689   64686       9   64695   64692       8   64698   64692       8
   64698   64695       9   64704   64701       8   64707   64701       8   64707
   64704       9   64713   64710       8   64716   64710       8   64716   64713
       9   64722   64719       8   64725   64719       8   64725   64722       9
   64731   64728       8   64734   64728       8   64734   64731       9   64740
   64737       8   64743   64737       8   64743   64740       9   64749   64746
       8   64752   64746       8   64752   64749       9   64758   64755       8
   64761   64755       8   64761   64758       9   64767   64764       8   64770
   64764       8   64770   64767       9   64776   64773       8   64779   64773
       8   64779   64776       9   64785   64782       8   64788   64782       8
   64788   64785       9   64794   64791       8   64797   64791       8   64797
   64794       9   64803   64800       8   64806   64800       8   64806   64803
       9   64812   64809       8   64815   64809       8   64815   64812       9
   64821   64818       8   64824   64818       8   64824   64821       9   64830
   64827       8   64833   64827       8   64833   64830       9   64839   64836
       8   64842   64836       8   64842   64839       9   64848   64845       8
   64851   64845       8   64851   64848       9   64857   64854       8   64860
   64854       8   64860   64857       9   64866   64863       8   64869   64863
       8   64869   64866       9   64875   64872       8   64878   64872       8
   64878   64875       9   64884   64881       8   64887   64881       8   64887
   64884       9   64893   64890       8   64896   64890       8   64896   64893
       9   64902   64899       8   64905   64899       8   64905   64902       9
   64911   64908       8   64914   64908       8   64914   64911       9   64920
   64917       8   64923   64917       8   64923   64920       9   64929   64926
       8   64932   64926       8   64932   64929       9   64938   64935       8
   64941   64935       8   64941   64938       9   64947   64944       8   64950
   64944       8   64950   64947       9   64956   64953       8   64959   64953
       8   64959   64956       9   64965   64962       8   64968   64962       8
   64968   64965       9   64974   64971       8   64977   64971       8   64977
   64974       9   64983   64980       8   64986   64980       8   64986   64983
       9   64992   64989       8   64995   64989       8   64995   64992       9
   65001   64998       8   65004   64998       8   65004   65001       9   65010
   65007       8   65013   65007       8   65013   65010       9   65019   65016
       8   65022   65016       8   65022   65019       9   65028   65025       8
   65031   65025       8   65031   65028       9   65037   65034       8   65040
   65034       8   65040   65037       9   65046   65043       8   65049   65043
       8   65049   65046       9   65055   65052       8   65058   65052       8
   65058   65055       9   65064   65061       8   65067   65061       8   65067
   65064       9   65073   65070       8   65076   65070       8   65076   65073
       9   65082   65079       8   65085   65079       8   65085   65082       9
   65091   65088       8   65094   65088       8   65094   65091       9   65100
   65097       8   65103   65097       8   65103   65100       9   65109   65106
       8   65112   65106       8   65112   65109       9   65118   65115       8
   65121   65115       8   65121   65118       9   65127   65124       8   65130
   65124       8   65130   65127       9   65136   65133       8   65139   65133
       8   65139   65136       9   65145   65142       8   65148   65142       8
   65148   65145       9   65154   65151       8   65157   65151       8   65157
   65154       9   65163   65160       8   65166   65160       8   65166   65163
       9   65172   65169       8   65175   65169       8   65175   65172       9
   65181   65178       8   65184   65178       8   65184   65181       9   65190
   65187       8   65193   65187       8   65193   65190       9   65199   65196
       8   65202   65196       8   65202   65199       9   65208   65205       8
   65211   65205       8   65211   65208       9   65217   65214       8   65220
   65214       8   65220   65217       9   65226   65223       8   65229   65223
       8   65229   65226       9   65235   65232       8   65238   65232       8
   65238   65235       9   65244   65241       8   65247   65241       8   65247
   65244       9   65253   65250       8   65256   65250       8   65256   65253
       9   65262   65259       8   65265   65259       8   65265   65262       9
   65271   65268       8   65274   65268       8   65274   65271       9   65280
   65277       8   65283   65277       8   65283   65280       9   65289   65286
       8   65292   65286       8   65292   65289       9   65298   65295       8
   65301   65295       8   65301   65298       9   65307   65304       8   65310
   65304       8   65310   65307       9   65316   65313       8   65319   65313
       8   65319   65316       9   65325   65322       8   65328   65322       8
   65328   65325       9   65334   65331       8   65337   65331       8   65337
   65334       9   65343   65340       8   65346   65340       8   65346   65343
       9   65352   65349       8   65355   65349       8   65355   65352       9
   65361   65358       8   65364   65358       8   65364   65361       9   65370
   65367       8   65373   65367       8   65373   65370       9   65379   65376
       8   65382   65376       8   65382   65379       9   65388   65385       8
   65391   65385       8   65391   65388       9   65397   65394       8   65400
   65394       8   65400   65397       9   65406   65403       8   65409   65403
       8   65409   65406       9   65415   65412       8   65418   65412       8
   65418   65415       9   65424   65421       8   65427   65421       8   65427
   65424       9   65433   65430       8   65436   65430       8   65436   65433
       9   65442   65439       8   65445   65439       8   65445   65442       9
   65451   65448       8   65454   65448       8   65454   65451       9   65460
   65457       8   65463   65457       8   65463   65460       9   65469   65466
       8   65472   65466       8   65472   65469       9   65478   65475       8
   65481   65475       8   65481   65478       9   65487   65484       8   65490
   65484       8   65490   65487       9   65496   65493       8   65499   65493
       8   65499   65496       9   65505   65502       8   65508   65502       8
   65508   65505       9   65514   65511       8   65517   65511       8   65517
   65514       9   65523   65520       8   65526   65520       8   65526   65523
       9   65532   65529       8   65535   65529       8   65535   65532       9
   65541   65538       8   65544   65538       8   65544   65541       9   65550
   65547       8   65553   65547       8   65553   65550       9   65559   65556
       8   65562   65556       8   65562   65559       9   65568   65565       8
   65571   65565       8   65571   65568       9   65577   65574       8   65580
   65574       8   65580   65577       9   65586   65583       8   65589   65583
       8   65589   65586       9   65595   65592       8   65598   65592       8
   65598   65595       9   65604   65601       8   65607   65601       8   65607
   65604       9   65613   65610       8   65616   65610       8   65616   65613
       9   65622   65619       8   65625   65619       8   65625   65622       9
   65631   65628       8   65634   65628       8   65634   65631       9   65640
   65637       8   65643   65637       8   65643   65640       9   65649   65646
       8   65652   65646       8   65652   65649       9   65658   65655       8
   65661   65655       8   65661   65658       9   65667   65664       8   65670
   65664       8   65670   65667       9   65676   65673       8   65679   65673
       8   65679   65676       9   65685   65682       8   65688   65682       8
   65688   65685       9   65694   65691       8   65697   65691       8   65697
   65694       9   65703   65700       8   65706   65700       8   65706   65703
       9   65712   65709       8   65715   65709       8   65715   65712       9
   65721   65718       8   65724   65718       8   65724   65721       9   65730
   65727       8   65733   65727       8   65733   65730       9   65739   65736
       8   65742   65736       8   65742   65739       9   65748   65745       8
   65751   65745       8   65751   65748       9   65757   65754       8   65760
   65754       8   65760   65757       9   65766   65763       8   65769   65763
       8   65769   65766       9   65775   65772       8   65778   65772       8
   65778   65775       9   65784   65781       8   65787   65781       8   65787
   65784       9   65793   65790       8   65796   65790       8   65796   65793
       9   65802   65799       8   65805   65799       8   65805   65802       9
   65811   65808       8   65814   65808       8   65814   65811       9   65820
   65817       8   65823   65817       8   65823   65820       9   65829   65826
       8   65832   65826       8   65832   65829       9   65838   65835       8
   65841   65835       8   65841   65838       9   65847   65844       8   65850
   65844       8   65850   65847       9   65856   65853       8   65859   65853
       8   65859   65856       9   65865   65862       8   65868   65862       8
   65868   65865       9   65874   65871       8   65877   65871       8   65877
   65874       9   65883   65880       8   65886   65880       8   65886   65883
       9   65892   65889       8   65895   65889       8   65895   65892       9
   65901   65898       8   65904   65898       8   65904   65901       9   65910
   65907       8   65913   65907       8   65913   65910       9   65919   65916
       8   65922   65916       8   65922   65919       9   65928   65925       8
   65931   65925       8   65931   65928       9   65937   65934       8   65940
   65934       8   65940   65937       9   65946   65943       8   65949   65943
       8   65949   65946       9   65955   65952       8   65958   65952       8
   65958   65955       9   65964   65961       8   65967   65961       8   65967
   65964       9   65973   65970       8   65976   65970       8   65976   65973
       9   65982   65979       8   65985   65979       8   65985   65982       9
   65991   65988       8   65994   65988       8   65994   65991       9   66000
   65997       8   66003   65997       8   66003   66000       9   66009   66006
       8   66012   66006       8   66012   66009       9   66018   66015       8
   66021   66015       8   66021   66018       9   66027   66024       8   66030
   66024       8   66030   66027       9   66036   66033       8   66039   66033
       8   66039   66036       9   66045   66042       8   66048   66042       8
   66048   66045       9   66054   66051       8   66057   66051       8   66057
   66054       9   66063   66060       8   66066   66060       8   66066   66063
       9   66072   66069       8   66075   66069       8   66075   66072       9
   66081   66078       8   66084   66078       8   66084   66081       9   66090
   66087       8   66093   66087       8   66093   66090       9   66099   66096
       8   66102   66096       8   66102   66099       9   66108   66105       8
   66111   66105       8   66111   66108       9   66117   66114       8   66120
   66114       8   66120   66117       9   66126   66123       8   66129   66123
       8   66129   66126       9   66135   66132       8   66138   66132       8
   66138   66135       9   66144   66141       8   66147   66141       8   66147
   66144       9   66153   66150       8   66156   66150       8   66156   66153
       9   66162   66159       8   66165   66159       8   66165   66162       9
   66171   66168       8   66174   66168       8   66174   66171       9   66180
   66177       8   66183   66177       8   66183   66180       9   66189   66186
       8   66192   66186       8   66192   66189       9   66198   66195       8
   66201   66195       8   66201   66198       9   66207   66204       8   66210
   66204       8   66210   66207       9   66216   66213       8   66219   66213
       8   66219   66216       9   66225   66222       8   66228   66222       8
   66228   66225       9   66234   66231       8   66237   66231       8   66237
   66234       9   66243   66240       8   66246   66240       8   66246   66243
       9   66252   66249       8   66255   66249       8   66255   66252       9
   66261   66258       8   66264   66258       8   66264   66261       9   66270
   66267       8   66273   66267       8   66273   66270       9   66279   66276
       8   66282   66276       8   66282   66279       9   66288   66285       8
   66291   66285       8   66291   66288       9   66297   66294       8   66300
   66294       8   66300   66297       9   66306   66303       8   66309   66303
       8   66309   66306       9   66315   66312       8   66318   66312       8
   66318   66315       9   66324   66321       8   66327   66321       8   66327
   66324       9   66333   66330       8   66336   66330       8   66336   66333
       9   66342   66339       8   66345   66339       8   66345   66342       9
   66351   66348       8   66354   66348       8   66354   66351       9   66360
   66357       8   66363   66357       8   66363   66360       9   66369   66366
       8   66372   66366       8   66372   66369       9   66378   66375       8
   66381   66375       8   66381   66378       9   66387   66384       8   66390
   66384       8   66390   66387       9   66396   66393       8   66399   66393
       8   66399   66396       9   66405   66402       8   66408   66402       8
   66408   66405       9   66414   66411       8   66417   66411       8   66417
   66414       9   66423   66420       8   66426   66420       8   66426   66423
       9   66432   66429       8   66435   66429       8   66435   66432       9
   66441   66438       8   66444   66438       8   66444   66441       9   66450
   66447       8   66453   66447       8   66453   66450       9   66459   66456
       8   66462   66456       8   66462   66459       9   66468   66465       8
   66471   66465       8   66471   66468       9   66477   66474       8   66480
   66474       8   66480   66477       9   66486   66483       8   66489   66483
       8   66489   66486       9   66495   66492       8   66498   66492       8
   66498   66495       9   66504   66501       8   66507   66501       8   66507
   66504       9   66513   66510       8   66516   66510       8   66516   66513
       9   66522   66519       8   66525   66519       8   66525   66522       9
   66531   66528       8   66534   66528       8   66534   66531       9   66540
   66537       8   66543   66537       8   66543   66540       9   66549   66546
       8   66552   66546       8   66552   66549       9   66558   66555       8
   66561   66555       8   66561   66558       9   66567   66564       8   66570
   66564       8   66570   66567       9   66576   66573       8   66579   66573
       8   66579   66576       9   66585   66582       8   66588   66582       8
   66588   66585       9   66594   66591       8   66597   66591       8   66597
   66594       9   66603   66600       8   66606   66600       8   66606   66603
       9   66612   66609       8   66615   66609       8   66615   66612       9
   66621   66618       8   66624   66618       8   66624   66621       9   66630
   66627       8   66633   66627       8   66633   66630       9   66639   66636
       8   66642   66636       8   66642   66639       9   66648   66645       8
   66651   66645       8   66651   66648       9   66657   66654       8   66660
   66654       8   66660   66657       9   66666   66663       8   66669   66663
       8   66669   66666       9   66675   66672       8   66678   66672       8
   66678   66675       9   66684   66681       8   66687   66681       8   66687
   66684       9   66693   66690       8   66696   66690       8   66696   66693
       9   66702   66699       8   66705   66699       8   66705   66702       9
   66711   66708       8   66714   66708       8   66714   66711       9   66720
   66717       8   66723   66717       8   66723   66720       9   66729   66726
       8   66732   66726       8   66732   66729       9   66738   66735       8
   66741   66735       8   66741   66738       9   66747   66744       8   66750
   66744       8   66750   66747       9   66756   66753       8   66759   66753
       8   66759   66756       9   66765   66762       8   66768   66762       8
   66768   66765       9   66774   66771       8   66777   66771       8   66777
   66774       9   66783   66780       8   66786   66780       8   66786   66783
       9   66792   66789       8   66795   66789       8   66795   66792       9
   66801   66798       8   66804   66798       8   66804   66801       9   66810
   66807       8   66813   66807       8   66813   66810       9   66819   66816
       8   66822   66816       8   66822   66819       9   66828   66825       8
   66831   66825       8   66831   66828       9   66837   66834       8   66840
   66834       8   66840   66837       9   66846   66843       8   66849   66843
       8   66849   66846       9   66855   66852       8   66858   66852       8
   66858   66855       9   66864   66861       8   66867   66861       8   66867
   66864       9   66873   66870       8   66876   66870       8   66876   66873
       9   66882   66879       8   66885   66879       8   66885   66882       9
   66891   66888       8   66894   66888       8   66894   66891       9   66900
   66897       8   66903   66897       8   66903   66900       9   66909   66906
       8   66912   66906       8   66912   66909       9   66918   66915       8
   66921   66915       8   66921   66918       9   66927   66924       8   66930
   66924       8   66930   66927       9   66936   66933       8   66939   66933
       8   66939   66936       9   66945   66942       8   66948   66942       8
   66948   66945       9   66954   66951       8   66957   66951       8   66957
   66954       9   66963   66960       8   66966   66960       8   66966   66963
       9   66972   66969       8   66975   66969       8   66975   66972       9
   66981   66978       8   66984   66978       8   66984   66981       9   66990
   66987       8   66993   66987       8   66993   66990       9   66999   66996
       8   67002   66996       8   67002   66999       9   67008   67005       8
   67011   67005       8   67011   67008       9   67017   67014       8   67020
   67014       8   67020   67017       9   67026   67023       8   67029   67023
       8   67029   67026       9   67035   67032       8   67038   67032       8
   67038   67035       9   67044   67041       8   67047   67041       8   67047
   67044       9   67053   67050       8   67056   67050       8   67056   67053
       9   67062   67059       8   67065   67059       8   67065   67062       9
   67071   67068       8   67074   67068       8   67074   67071       9   67080
   67077       8   67083   67077       8   67083   67080       9   67089   67086
       8   67092   67086       8   67092   67089       9   67098   67095       8
   67101   67095       8   67101   67098       9   67107   67104       8   67110
   67104       8   67110   67107       9   67116   67113       8   67119   67113
       8   67119   67116       9   67125   67122       8   67128   67122       8
   67128   67125       9   67134   67131       8   67137   67131       8   67137
   67134       9   67143   67140       8   67146   67140       8   67146   67143
       9   67152   67149       8   67155   67149       8   67155   67152       9
   67161   67158       8   67164   67158       8   67164   67161       9   67170
   67167       8   67173   67167       8   67173   67170       9   67179   67176
       8   67182   67176       8   67182   67179       9   67188   67185       8
   67191   67185       8   67191   67188       9   67197   67194       8   67200
   67194       8   67200   67197       9   67206   67203       8   67209   67203
       8   67209   67206       9   67215   67212       8   67218   67212       8
   67218   67215       9   67224   67221       8   67227   67221       8   67227
   67224       9   67233   67230       8   67236   67230       8   67236   67233
       9   67242   67239       8   67245   67239       8   67245   67242       9
   67251   67248       8   67254   67248       8   67254   67251       9   67260
   67257       8   67263   67257       8   67263   67260       9   67269   67266
       8   67272   67266       8   67272   67269       9   67278   67275       8
   67281   67275       8   67281   67278       9   67287   67284       8   67290
   67284       8   67290   67287       9   67296   67293       8   67299   67293
       8   67299   67296       9   67305   67302       8   67308   67302       8
   67308   67305       9   67314   67311       8   67317   67311       8   67317
   67314       9   67323   67320       8   67326   67320       8   67326   67323
       9   67332   67329       8   67335   67329       8   67335   67332       9
   67341   67338       8   67344   67338       8   67344   67341       9   67350
   67347       8   67353   67347       8   67353   67350       9   67359   67356
       8   67362   67356       8   67362   67359       9   67368   67365       8
   67371   67365       8   67371   67368       9   67377   67374       8   67380
   67374       8   67380   67377       9   67386   67383       8   67389   67383
       8   67389   67386       9   67395   67392       8   67398   67392       8
   67398   67395       9   67404   67401       8   67407   67401       8   67407
   67404       9   67413   67410       8   67416   67410       8   67416   67413
       9   67422   67419       8   67425   67419       8   67425   67422       9
   67431   67428       8   67434   67428       8   67434   67431       9   67440
   67437       8   67443   67437       8   67443   67440       9   67449   67446
       8   67452   67446       8   67452   67449       9   67458   67455       8
   67461   67455       8   67461   67458       9   67467   67464       8   67470
   67464       8   67470   67467       9   67476   67473       8   67479   67473
       8   67479   67476       9   67485   67482       8   67488   67482       8
   67488   67485       9   67494   67491       8   67497   67491       8   67497
   67494       9   67503   67500       8   67506   67500       8   67506   67503
       9   67512   67509       8   67515   67509       8   67515   67512       9
   67521   67518       8   67524   67518       8   67524   67521       9   67530
   67527       8   67533   67527       8   67533   67530       9   67539   67536
       8   67542   67536       8   67542   67539       9   67548   67545       8
   67551   67545       8   67551   67548       9   67557   67554       8   67560
   67554       8   67560   67557       9   67566   67563       8   67569   67563
       8   67569   67566       9   67575   67572       8   67578   67572       8
   67578   67575       9   67584   67581       8   67587   67581       8   67587
   67584       9   67593   67590       8   67596   67590       8   67596   67593
       9   67602   67599       8   67605   67599       8   67605   67602       9
   67611   67608       8   67614   67608       8   67614   67611       9   67620
   67617       8   67623   67617       8   67623   67620       9   67629   67626
       8   67632   67626       8   67632   67629       9   67638   67635       8
   67641   67635       8   67641   67638       9   67647   67644       8   67650
   67644       8   67650   67647       9   67656   67653       8   67659   67653
       8   67659   67656       9   67665   67662       8   67668   67662       8
   67668   67665       9   67674   67671       8   67677   67671       8   67677
   67674       9   67683   67680       8   67686   67680       8   67686   67683
       9   67692   67689       8   67695   67689       8   67695   67692       9
   67701   67698       8   67704   67698       8   67704   67701       9   67710
   67707       8   67713   67707       8   67713   67710       9   67719   67716
       8   67722   67716       8   67722   67719       9   67728   67725       8
   67731   67725       8   67731   67728       9   67737   67734       8   67740
   67734       8   67740   67737       9   67746   67743       8   67749   67743
       8   67749   67746       9   67755   67752       8   67758   67752       8
   67758   67755       9   67764   67761       8   67767   67761       8   67767
   67764       9   67773   67770       8   67776   67770       8   67776   67773
       9   67782   67779       8   67785   67779       8   67785   67782       9
   67791   67788       8   67794   67788       8   67794   67791       9   67800
   67797       8   67803   67797       8   67803   67800       9   67809   67806
       8   67812   67806       8   67812   67809       9   67818   67815       8
   67821   67815       8   67821   67818       9   67827   67824       8   67830
   67824       8   67830   67827       9   67836   67833       8   67839   67833
       8   67839   67836       9   67845   67842       8   67848   67842       8
   67848   67845       9   67854   67851       8   67857   67851       8   67857
   67854       9   67863   67860       8   67866   67860       8   67866   67863
       9   67872   67869       8   67875   67869       8   67875   67872       9
   67881   67878       8   67884   67878       8   67884   67881       9   67890
   67887       8   67893   67887       8   67893   67890       9   67899   67896
       8   67902   67896       8   67902   67899       9   67908   67905       8
   67911   67905       8   67911   67908       9   67917   67914       8   67920
   67914       8   67920   67917       9   67926   67923       8   67929   67923
       8   67929   67926       9   67935   67932       8   67938   67932       8
   67938   67935       9   67944   67941       8   67947   67941       8   67947
   67944       9   67953   67950       8   67956   67950       8   67956   67953
       9   67962   67959       8   67965   67959       8   67965   67962       9
   67971   67968       8   67974   67968       8   67974   67971       9   67980
   67977       8   67983   67977       8   67983   67980       9   67989   67986
       8   67992   67986       8   67992   67989       9   67998   67995       8
   68001   67995       8   68001   67998       9   68007   68004       8   68010
   68004       8   68010   68007       9   68016   68013       8   68019   68013
       8   68019   68016       9   68025   68022       8   68028   68022       8
   68028   68025       9   68034   68031       8   68037   68031       8   68037
   68034       9   68043   68040       8   68046   68040       8   68046   68043
       9   68052   68049       8   68055   68049       8   68055   68052       9
   68061   68058       8   68064   68058       8   68064   68061       9   68070
   68067       8   68073   68067       8   68073   68070       9   68079   68076
       8   68082   68076       8   68082   68079       9   68088   68085       8
   68091   68085       8   68091   68088       9   68097   68094       8   68100
   68094       8   68100   68097       9   68106   68103       8   68109   68103
       8   68109   68106       9   68115   68112       8   68118   68112       8
   68118   68115       9   68124   68121       8   68127   68121       8   68127
   68124       9   68133   68130       8   68136   68130       8   68136   68133
       9   68142   68139       8   68145   68139       8   68145   68142       9
   68151   68148       8   68154   68148       8   68154   68151       9   68160
   68157       8   68163   68157       8   68163   68160       9   68169   68166
       8   68172   68166       8   68172   68169       9   68178   68175       8
   68181   68175       8   68181   68178       9   68187   68184       8   68190
   68184       8   68190   68187       9   68196   68193       8   68199   68193
       8   68199   68196       9   68205   68202       8   68208   68202       8
   68208   68205       9   68214   68211       8   68217   68211       8   68217
   68214       9   68223   68220       8   68226   68220       8   68226   68223
       9   68232   68229       8   68235   68229       8   68235   68232       9
   68241   68238       8   68244   68238       8   68244   68241       9   68250
   68247       8   68253   68247       8   68253   68250       9   68259   68256
       8   68262   68256       8   68262   68259       9   68268   68265       8
   68271   68265       8   68271   68268       9   68277   68274       8   68280
   68274       8   68280   68277       9   68286   68283       8   68289   68283
       8   68289   68286       9   68295   68292       8   68298   68292       8
   68298   68295       9   68304   68301       8   68307   68301       8   68307
   68304       9   68313   68310       8   68316   68310       8   68316   68313
       9   68322   68319       8   68325   68319       8   68325   68322       9
   68331   68328       8   68334   68328       8   68334   68331       9   68340
   68337       8   68343   68337       8   68343   68340       9   68349   68346
       8   68352   68346       8   68352   68349       9   68358   68355       8
   68361   68355       8   68361   68358       9   68367   68364       8   68370
   68364       8   68370   68367       9   68376   68373       8   68379   68373
       8   68379   68376       9   68385   68382       8   68388   68382       8
   68388   68385       9   68394   68391       8   68397   68391       8   68397
   68394       9   68403   68400       8   68406   68400       8   68406   68403
       9   68412   68409       8   68415   68409       8   68415   68412       9
   68421   68418       8   68424   68418       8   68424   68421       9   68430
   68427       8   68433   68427       8   68433   68430       9   68439   68436
       8   68442   68436       8   68442   68439       9   68448   68445       8
   68451   68445       8   68451   68448       9   68457   68454       8   68460
   68454       8   68460   68457       9   68466   68463       8   68469   68463
       8   68469   68466       9   68475   68472       8   68478   68472       8
   68478   68475       9   68484   68481       8   68487   68481       8   68487
   68484       9   68493   68490       8   68496   68490       8   68496   68493
       9   68502   68499       8   68505   68499       8   68505   68502       9
   68511   68508       8   68514   68508       8   68514   68511       9   68520
   68517       8   68523   68517       8   68523   68520       9   68529   68526
       8   68532   68526       8   68532   68529       9   68538   68535       8
   68541   68535       8   68541   68538       9   68547   68544       8   68550
   68544       8   68550   68547       9   68556   68553       8   68559   68553
       8   68559   68556       9   68565   68562       8   68568   68562       8
   68568   68565       9   68574   68571       8   68577   68571       8   68577
   68574       9   68583   68580       8   68586   68580       8   68586   68583
       9   68592   68589       8   68595   68589       8   68595   68592       9
   68601   68598       8   68604   68598       8   68604   68601       9   68610
   68607       8   68613   68607       8   68613   68610       9   68619   68616
       8   68622   68616       8   68622   68619       9   68628   68625       8
   68631   68625       8   68631   68628       9   68637   68634       8   68640
   68634       8   68640   68637       9   68646   68643       8   68649   68643
       8   68649   68646       9   68655   68652       8   68658   68652       8
   68658   68655       9   68664   68661       8   68667   68661       8   68667
   68664       9   68673   68670       8   68676   68670       8   68676   68673
       9   68682   68679       8   68685   68679       8   68685   68682       9
   68691   68688       8   68694   68688       8   68694   68691       9   68700
   68697       8   68703   68697       8   68703   68700       9   68709   68706
       8   68712   68706       8   68712   68709       9   68718   68715       8
   68721   68715       8   68721   68718       9   68727   68724       8   68730
   68724       8   68730   68727       9   68736   68733       8   68739   68733
       8   68739   68736       9   68745   68742       8   68748   68742       8
   68748   68745       9   68754   68751       8   68757   68751       8   68757
   68754       9   68763   68760       8   68766   68760       8   68766   68763
       9   68772   68769       8   68775   68769       8   68775   68772       9
   68781   68778       8   68784   68778       8   68784   68781       9   68790
   68787       8   68793   68787       8   68793   68790       9   68799   68796
       8   68802   68796       8   68802   68799       9   68808   68805       8
   68811   68805       8   68811   68808       9   68817   68814       8   68820
   68814       8   68820   68817       9   68826   68823       8   68829   68823
       8   68829   68826       9   68835   68832       8   68838   68832       8
   68838   68835       9   68844   68841       8   68847   68841       8   68847
   68844       9   68853   68850       8   68856   68850       8   68856   68853
       9   68862   68859       8   68865   68859       8   68865   68862       9
   68871   68868       8   68874   68868       8   68874   68871       9   68880
   68877       8   68883   68877       8   68883   68880       9   68889   68886
       8   68892   68886       8   68892   68889       9   68898   68895       8
   68901   68895       8   68901   68898       9   68907   68904       8   68910
   68904       8   68910   68907       9   68916   68913       8   68919   68913
       8   68919   68916       9   68925   68922       8   68928   68922       8
   68928   68925       9   68934   68931       8   68937   68931       8   68937
   68934       9   68943   68940       8   68946   68940       8   68946   68943
       9   68952   68949       8   68955   68949       8   68955   68952       9
   68961   68958       8   68964   68958       8   68964   68961       9   68970
   68967       8   68973   68967       8   68973   68970       9   68979   68976
       8   68982   68976       8   68982   68979       9   68988   68985       8
   68991   68985       8   68991   68988       9   68997   68994       8   69000
   68994       8   69000   68997       9   69006   69003       8   69009   69003
       8   69009   69006       9   69015   69012       8   69018   69012       8
   69018   69015       9   69024   69021       8   69027   69021       8   69027
   69024       9   69033   69030       8   69036   69030       8   69036   69033
       9   69042   69039       8   69045   69039       8   69045   69042       9
   69051   69048       8   69054   69048       8   69054   69051       9   69060
   69057       8   69063   69057       8   69063   69060       9   69069   69066
       8   69072   69066       8   69072   69069       9   69078   69075       8
   69081   69075       8   69081   69078       9   69087   69084       8   69090
   69084       8   69090   69087       9   69096   69093       8   69099   69093
       8   69099   69096       9   69105   69102       8   69108   69102       8
   69108   69105       9   69114   69111       8   69117   69111       8   69117
   69114       9   69123   69120       8   69126   69120       8   69126   69123
       9   69132   69129       8   69135   69129       8   69135   69132       9
   69141   69138       8   69144   69138       8   69144   69141       9   69150
   69147       8   69153   69147       8   69153   69150       9   69159   69156
       8   69162   69156       8   69162   69159       9   69168   69165       8
   69171   69165       8   69171   69168       9   69177   69174       8   69180
   69174       8   69180   69177       9   69186   69183       8   69189   69183
       8   69189   69186       9   69195   69192       8   69198   69192       8
   69198   69195       9   69204   69201       8   69207   69201       8   69207
   69204       9   69213   69210       8   69216   69210       8   69216   69213
       9   69222   69219       8   69225   69219       8   69225   69222       9
   69231   69228       8   69234   69228       8   69234   69231       9   69240
   69237       8   69243   69237       8   69243   69240       9   69249   69246
       8   69252   69246       8   69252   69249       9   69258   69255       8
   69261   69255       8   69261   69258       9   69267   69264       8   69270
   69264       8   69270   69267       9   69276   69273       8   69279   69273
       8   69279   69276       9   69285   69282       8   69288   69282       8
   69288   69285       9   69294   69291       8   69297   69291       8   69297
   69294       9   69303   69300       8   69306   69300       8   69306   69303
       9   69312   69309       8   69315   69309       8   69315   69312       9
   69321   69318       8   69324   69318       8   69324   69321       9   69330
   69327       8   69333   69327       8   69333   69330       9   69339   69336
       8   69342   69336       8   69342   69339       9   69348   69345       8
   69351   69345       8   69351   69348       9   69357   69354       8   69360
   69354       8   69360   69357       9   69366   69363       8   69369   69363
       8   69369   69366       9   69375   69372       8   69378   69372       8
   69378   69375       9   69384   69381       8   69387   69381       8   69387
   69384       9   69393   69390       8   69396   69390       8   69396   69393
       9   69402   69399       8   69405   69399       8   69405   69402       9
   69411   69408       8   69414   69408       8   69414   69411       9   69420
   69417       8   69423   69417       8   69423   69420       9   69429   69426
       8   69432   69426       8   69432   69429       9   69438   69435       8
   69441   69435       8   69441   69438       9   69447   69444       8   69450
   69444       8   69450   69447       9   69456   69453       8   69459   69453
       8   69459   69456       9   69465   69462       8   69468   69462       8
   69468   69465       9   69474   69471       8   69477   69471       8   69477
   69474       9   69483   69480       8   69486   69480       8   69486   69483
       9   69492   69489       8   69495   69489       8   69495   69492       9
   69501   69498       8   69504   69498       8   69504   69501       9   69510
   69507       8   69513   69507       8   69513   69510       9   69519   69516
       8   69522   69516       8   69522   69519       9   69528   69525       8
   69531   69525       8   69531   69528       9   69537   69534       8   69540
   69534       8   69540   69537       9   69546   69543       8   69549   69543
       8   69549   69546       9   69555   69552       8   69558   69552       8
   69558   69555       9   69564   69561       8   69567   69561       8   69567
   69564       9   69573   69570       8   69576   69570       8   69576   69573
       9   69582   69579       8   69585   69579       8   69585   69582       9
   69591   69588       8   69594   69588       8   69594   69591       9   69600
   69597       8   69603   69597       8   69603   69600       9   69609   69606
       8   69612   69606       8   69612   69609       9   69618   69615       8
   69621   69615       8   69621   69618       9   69627   69624       8   69630
   69624       8   69630   69627       9   69636   69633       8   69639   69633
       8   69639   69636       9   69645   69642       8   69648   69642       8
   69648   69645       9   69654   69651       8   69657   69651       8   69657
   69654       9   69663   69660       8   69666   69660       8   69666   69663
       9   69672   69669       8   69675   69669       8   69675   69672       9
   69681   69678       8   69684   69678       8   69684   69681       9   69690
   69687       8   69693   69687       8   69693   69690       9   69699   69696
       8   69702   69696       8   69702   69699       9   69708   69705       8
   69711   69705       8   69711   69708       9   69717   69714       8   69720
   69714       8   69720   69717       9   69726   69723       8   69729   69723
       8   69729   69726       9   69735   69732       8   69738   69732       8
   69738   69735       9   69744   69741       8   69747   69741       8   69747
   69744       9   69753   69750       8   69756   69750       8   69756   69753
       9   69762   69759       8   69765   69759       8   69765   69762       9
   69771   69768       8   69774   69768       8   69774   69771       9   69780
   69777       8   69783   69777       8   69783   69780       9   69789   69786
       8   69792   69786       8   69792   69789       9   69798   69795       8
   69801   69795       8   69801   69798       9   69807   69804       8   69810
   69804       8   69810   69807       9   69816   69813       8   69819   69813
       8   69819   69816       9   69825   69822       8   69828   69822       8
   69828   69825       9   69834   69831       8   69837   69831       8   69837
   69834       9   69843   69840       8   69846   69840       8   69846   69843
       9   69852   69849       8   69855   69849       8   69855   69852       9
   69861   69858       8   69864   69858       8   69864   69861       9   69870
   69867       8   69873   69867       8   69873   69870       9   69879   69876
       8   69882   69876       8   69882   69879       9   69888   69885       8
   69891   69885       8   69891   69888       9   69897   69894       8   69900
   69894       8   69900   69897       9   69906   69903       8   69909   69903
       8   69909   69906       9   69915   69912       8   69918   69912       8
   69918   69915       9   69924   69921       8   69927   69921       8   69927
   69924       9   69933   69930       8   69936   69930       8   69936   69933
       9   69942   69939       8   69945   69939       8   69945   69942       9
   69951   69948       8   69954   69948       8   69954   69951       9   69960
   69957       8   69963   69957       8   69963   69960       9   69969   69966
       8   69972   69966       8   69972   69969       9   69978   69975       8
   69981   69975       8   69981   69978       9   69987   69984       8   69990
   69984       8   69990   69987       9   69996   69993       8   69999   69993
       8   69999   69996       9   70005   70002       8   70008   70002       8
   70008   70005       9   70014   70011       8   70017   70011       8   70017
   70014       9   70023   70020       8   70026   70020       8   70026   70023
       9   70032   70029       8   70035   70029       8   70035   70032       9
   70041   70038       8   70044   70038       8   70044   70041       9   70050
   70047       8   70053   70047       8   70053   70050       9   70059   70056
       8   70062   70056       8   70062   70059       9   70068   70065       8
   70071   70065       8   70071   70068       9   70077   70074       8   70080
   70074       8   70080   70077       9   70086   70083       8   70089   70083
       8   70089   70086       9   70095   70092       8   70098   70092       8
   70098   70095       9   70104   70101       8   70107   70101       8   70107
   70104       9   70113   70110       8   70116   70110       8   70116   70113
       9   70122   70119       8   70125   70119       8   70125   70122       9
   70131   70128       8   70134   70128       8   70134   70131       9   70140
   70137       8   70143   70137       8   70143   70140       9   70149   70146
       8   70152   70146       8   70152   70149       9   70158   70155       8
   70161   70155       8   70161   70158       9   70167   70164       8   70170
   70164       8   70170   70167       9   70176   70173       8   70179   70173
       8   70179   70176       9   70185   70182       8   70188   70182       8
   70188   70185       9   70194   70191       8   70197   70191       8   70197
   70194       9   70203   70200       8   70206   70200       8   70206   70203
       9   70212   70209       8   70215   70209       8   70215   70212       9
   70221   70218       8   70224   70218       8   70224   70221       9   70230
   70227       8   70233   70227       8   70233   70230       9   70239   70236
       8   70242   70236       8   70242   70239       9   70248   70245       8
   70251   70245       8   70251   70248       9   70257   70254       8   70260
   70254       8   70260   70257       9   70266   70263       8   70269   70263
       8   70269   70266       9   70275   70272       8   70278   70272       8
   70278   70275       9   70284   70281       8   70287   70281       8   70287
   70284       9   70293   70290       8   70296   70290       8   70296   70293
       9   70302   70299       8   70305   70299       8   70305   70302       9
   70311   70308       8   70314   70308       8   70314   70311       9   70320
   70317       8   70323   70317       8   70323   70320       9   70329   70326
       8   70332   70326       8   70332   70329       9   70338   70335       8
   70341   70335       8   70341   70338       9   70347   70344       8   70350
   70344       8   70350   70347       9   70356   70353       8   70359   70353
       8   70359   70356       9   70365   70362       8   70368   70362       8
   70368   70365       9   70374   70371       8   70377   70371       8   70377
   70374       9   70383   70380       8   70386   70380       8   70386   70383
       9   70392   70389       8   70395   70389       8   70395   70392       9
   70401   70398       8   70404   70398       8   70404   70401       9   70410
   70407       8   70413   70407       8   70413   70410       9   70419   70416
       8   70422   70416       8   70422   70419       9   70428   70425       8
   70431   70425       8   70431   70428       9   70437   70434       8   70440
   70434       8   70440   70437       9   70446   70443       8   70449   70443
       8   70449   70446       9   70455   70452       8   70458   70452       8
   70458   70455       9   70464   70461       8   70467   70461       8   70467
   70464       9   70473   70470       8   70476   70470       8   70476   70473
       9   70482   70479       8   70485   70479       8   70485   70482       9
   70491   70488       8   70494   70488       8   70494   70491       9   70500
   70497       8   70503   70497       8   70503   70500       9   70509   70506
       8   70512   70506       8   70512   70509       9   70518   70515       8
   70521   70515       8   70521   70518       9   70527   70524       8   70530
   70524       8   70530   70527       9   70536   70533       8   70539   70533
       8   70539   70536       9   70545   70542       8   70548   70542       8
   70548   70545       9   70554   70551       8   70557   70551       8   70557
   70554       9   70563   70560       8   70566   70560       8   70566   70563
       9   70572   70569       8   70575   70569       8   70575   70572       9
   70581   70578       8   70584   70578       8   70584   70581       9   70590
   70587       8   70593   70587       8   70593   70590       9   70599   70596
       8   70602   70596       8   70602   70599       9   70608   70605       8
   70611   70605       8   70611   70608       9   70617   70614       8   70620
   70614       8   70620   70617       9   70626   70623       8   70629   70623
       8   70629   70626       9   70635   70632       8   70638   70632       8
   70638   70635       9   70644   70641       8   70647   70641       8   70647
   70644       9   70653   70650       8   70656   70650       8   70656   70653
       9   70662   70659       8   70665   70659       8   70665   70662       9
   70671   70668       8   70674   70668       8   70674   70671       9   70680
   70677       8   70683   70677       8   70683   70680       9   70689   70686
       8   70692   70686       8   70692   70689       9   70698   70695       8
   70701   70695       8   70701   70698       9   70707   70704       8   70710
   70704       8   70710   70707       9   70716   70713       8   70719   70713
       8   70719   70716       9   70725   70722       8   70728   70722       8
   70728   70725       9   70734   70731       8   70737   70731       8   70737
   70734       9   70743   70740       8   70746   70740       8   70746   70743
       9   70752   70749       8   70755   70749       8   70755   70752       9
   70761   70758       8   70764   70758       8   70764   70761       9   70770
   70767       8   70773   70767       8   70773   70770       9   70779   70776
       8   70782   70776       8   70782   70779       9   70788   70785       8
   70791   70785       8   70791   70788       9   70797   70794       8   70800
   70794       8   70800   70797       9   70806   70803       8   70809   70803
       8   70809   70806       9   70815   70812       8   70818   70812       8
   70818   70815       9   70824   70821       8   70827   70821       8   70827
   70824       9   70833   70830       8   70836   70830       8   70836   70833
       9   70842   70839       8   70845   70839       8   70845   70842       9
   70851   70848       8   70854   70848       8   70854   70851       9   70860
   70857       8   70863   70857       8   70863   70860       9   70869   70866
       8   70872   70866       8   70872   70869       9   70878   70875       8
   70881   70875       8   70881   70878       9   70887   70884       8   70890
   70884       8   70890   70887       9   70896   70893       8   70899   70893
       8   70899   70896       9   70905   70902       8   70908   70902       8
   70908   70905       9   70914   70911       8   70917   70911       8   70917
   70914       9   70923   70920       8   70926   70920       8   70926   70923
       9   70932   70929       8   70935   70929       8   70935   70932       9
   70941   70938       8   70944   70938       8   70944   70941       9   70950
   70947       8   70953   70947       8   70953   70950       9   70959   70956
       8   70962   70956       8   70962   70959       9   70968   70965       8
   70971   70965       8   70971   70968       9   70977   70974       8   70980
   70974       8   70980   70977       9   70986   70983       8   70989   70983
       8   70989   70986       9   70995   70992       8   70998   70992       8
   70998   70995       9   71004   71001       8   71007   71001       8   71007
   71004       9   71013   71010       8   71016   71010       8   71016   71013
       9   71022   71019       8   71025   71019       8   71025   71022       9
   71031   71028       8   71034   71028       8   71034   71031       9   71040
   71037       8   71043   71037       8   71043   71040       9   71049   71046
       8   71052   71046       8   71052   71049       9   71058   71055       8
   71061   71055       8   71061   71058       9   71067   71064       8   71070
   71064       8   71070   71067       9   71076   71073       8   71079   71073
       8   71079   71076       9   71085   71082       8   71088   71082       8
   71088   71085       9   71094   71091       8   71097   71091       8   71097
   71094       9   71103   71100       8   71106   71100       8   71106   71103
       9   71112   71109       8   71115   71109       8   71115   71112       9
   71121   71118       8   71124   71118       8   71124   71121       9   71130
   71127       8   71133   71127       8   71133   71130       9   71139   71136
       8   71142   71136       8   71142   71139       9   71148   71145       8
   71151   71145       8   71151   71148       9   71157   71154       8   71160
   71154       8   71160   71157       9   71166   71163       8   71169   71163
       8   71169   71166       9   71175   71172       8   71178   71172       8
   71178   71175       9   71184   71181       8   71187   71181       8   71187
   71184       9   71193   71190       8   71196   71190       8   71196   71193
       9   71202   71199       8   71205   71199       8   71205   71202       9
   71211   71208       8   71214   71208       8   71214   71211       9   71220
   71217       8   71223   71217       8   71223   71220       9   71229   71226
       8   71232   71226       8   71232   71229       9   71238   71235       8
   71241   71235       8   71241   71238       9   71247   71244       8   71250
   71244       8   71250   71247       9   71256   71253       8   71259   71253
       8   71259   71256       9   71265   71262       8   71268   71262       8
   71268   71265       9   71274   71271       8   71277   71271       8   71277
   71274       9   71283   71280       8   71286   71280       8   71286   71283
       9   71292   71289       8   71295   71289       8   71295   71292       9
   71301   71298       8   71304   71298       8   71304   71301       9   71310
   71307       8   71313   71307       8   71313   71310       9   71319   71316
       8   71322   71316       8   71322   71319       9   71328   71325       8
   71331   71325       8   71331   71328       9   71337   71334       8   71340
   71334       8   71340   71337       9   71346   71343       8   71349   71343
       8   71349   71346       9   71355   71352       8   71358   71352       8
   71358   71355       9   71364   71361       8   71367   71361       8   71367
   71364       9   71373   71370       8   71376   71370       8   71376   71373
       9   71382   71379       8   71385   71379       8   71385   71382       9
   71391   71388       8   71394   71388       8   71394   71391       9   71400
   71397       8   71403   71397       8   71403   71400       9   71409   71406
       8   71412   71406       8   71412   71409       9   71418   71415       8
   71421   71415       8   71421   71418       9   71427   71424       8   71430
   71424       8   71430   71427       9   71436   71433       8   71439   71433
       8   71439   71436       9   71445   71442       8   71448   71442       8
   71448   71445       9   71454   71451       8   71457   71451       8   71457
   71454       9   71463   71460       8   71466   71460       8   71466   71463
       9   71472   71469       8   71475   71469       8   71475   71472       9
   71481   71478       8   71484   71478       8   71484   71481       9   71490
   71487       8   71493   71487       8   71493   71490       9   71499   71496
       8   71502   71496       8   71502   71499       9   71508   71505       8
   71511   71505       8   71511   71508       9   71517   71514       8   71520
   71514       8   71520   71517       9   71526   71523       8   71529   71523
       8   71529   71526       9   71535   71532       8   71538   71532       8
   71538   71535       9   71544   71541       8   71547   71541       8   71547
   71544       9   71553   71550       8   71556   71550       8   71556   71553
       9   71562   71559       8   71565   71559       8   71565   71562       9
   71571   71568       8   71574   71568       8   71574   71571       9   71580
   71577       8   71583   71577       8   71583   71580       9   71589   71586
       8   71592   71586       8   71592   71589       9   71598   71595       8
   71601   71595       8   71601   71598       9   71607   71604       8   71610
   71604       8   71610   71607       9   71616   71613       8   71619   71613
       8   71619   71616       9   71625   71622       8   71628   71622       8
   71628   71625       9   71634   71631       8   71637   71631       8   71637
   71634       9   71643   71640       8   71646   71640       8   71646   71643
       9   71652   71649       8   71655   71649       8   71655   71652       9
   71661   71658       8   71664   71658       8   71664   71661       9   71670
   71667       8   71673   71667       8   71673   71670       9   71679   71676
       8   71682   71676       8   71682   71679       9   71688   71685       8
   71691   71685       8   71691   71688       9   71697   71694       8   71700
   71694       8   71700   71697       9   71706   71703       8   71709   71703
       8   71709   71706       9   71715   71712       8   71718   71712       8
   71718   71715       9   71724   71721       8   71727   71721       8   71727
   71724       9   71733   71730       8   71736   71730       8   71736   71733
       9   71742   71739       8   71745   71739       8   71745   71742       9
   71751   71748       8   71754   71748       8   71754   71751       9   71760
   71757       8   71763   71757       8   71763   71760       9   71769   71766
       8   71772   71766       8   71772   71769       9   71778   71775       8
   71781   71775       8   71781   71778       9   71787   71784       8   71790
   71784       8   71790   71787       9   71796   71793       8   71799   71793
       8   71799   71796       9   71805   71802       8   71808   71802       8
   71808   71805       9   71814   71811       8   71817   71811       8   71817
   71814       9   71823   71820       8   71826   71820       8   71826   71823
       9   71832   71829       8   71835   71829       8   71835   71832       9
   71841   71838       8   71844   71838       8   71844   71841       9   71850
   71847       8   71853   71847       8   71853   71850       9   71859   71856
       8   71862   71856       8   71862   71859       9   71868   71865       8
   71871   71865       8   71871   71868       9   71877   71874       8   71880
   71874       8   71880   71877       9   71886   71883       8   71889   71883
       8   71889   71886       9   71895   71892       8   71898   71892       8
   71898   71895       9   71904   71901       8   71907   71901       8   71907
   71904       9   71913   71910       8   71916   71910       8   71916   71913
       9   71922   71919       8   71925   71919       8   71925   71922       9
   71931   71928       8   71934   71928       8   71934   71931       9   71940
   71937       8   71943   71937       8   71943   71940       9   71949   71946
       8   71952   71946       8   71952   71949       9   71958   71955       8
   71961   71955       8   71961   71958       9   71967   71964       8   71970
   71964       8   71970   71967       9   71976   71973       8   71979   71973
       8   71979   71976       9   71985   71982       8   71988   71982       8
   71988   71985       9   71994   71991       8   71997   71991       8   71997
   71994       9   72003   72000       8   72006   72000       8   72006   72003
       9   72012   72009       8   72015   72009       8   72015   72012       9
   72021   72018       8   72024   72018       8   72024   72021       9   72030
   72027       8   72033   72027       8   72033   72030       9   72039   72036
       8   72042   72036       8   72042   72039       9   72048   72045       8
   72051   72045       8   72051   72048       9   72057   72054       8   72060
   72054       8   72060   72057       9   72066   72063       8   72069   72063
       8   72069   72066       9   72075   72072       8   72078   72072       8
   72078   72075       9   72084   72081       8   72087   72081       8   72087
   72084       9   72093   72090       8   72096   72090       8   72096   72093
       9   72102   72099       8   72105   72099       8   72105   72102       9
   72111   72108       8   72114   72108       8   72114   72111       9   72120
   72117       8   72123   72117       8   72123   72120       9   72129   72126
       8   72132   72126       8   72132   72129       9   72138   72135       8
   72141   72135       8   72141   72138       9   72147   72144       8   72150
   72144       8   72150   72147       9   72156   72153       8   72159   72153
       8   72159   72156       9   72165   72162       8   72168   72162       8
   72168   72165       9   72174   72171       8   72177   72171       8   72177
   72174       9   72183   72180       8   72186   72180       8   72186   72183
       9   72192   72189       8   72195   72189       8   72195   72192       9
   72201   72198       8   72204   72198       8   72204   72201       9   72210
   72207       8   72213   72207       8   72213   72210       9   72219   72216
       8   72222   72216       8   72222   72219       9   72228   72225       8
   72231   72225       8   72231   72228       9   72237   72234       8   72240
   72234       8   72240   72237       9   72246   72243       8   72249   72243
       8   72249   72246       9   72255   72252       8   72258   72252       8
   72258   72255       9   72264   72261       8   72267   72261       8   72267
   72264       9   72273   72270       8   72276   72270       8   72276   72273
       9   72282   72279       8   72285   72279       8   72285   72282       9
   72291   72288       8   72294   72288       8   72294   72291       9   72300
   72297       8   72303   72297       8   72303   72300       9   72309   72306
       8   72312   72306       8   72312   72309       9   72318   72315       8
   72321   72315       8   72321   72318       9   72327   72324       8   72330
   72324       8   72330   72327       9   72336   72333       8   72339   72333
       8   72339   72336       9   72345   72342       8   72348   72342       8
   72348   72345       9   72354   72351       8   72357   72351       8   72357
   72354       9   72363   72360       8   72366   72360       8   72366   72363
       9   72372   72369       8   72375   72369       8   72375   72372       9
   72381   72378       8   72384   72378       8   72384   72381       9   72390
   72387       8   72393   72387       8   72393   72390       9   72399   72396
       8   72402   72396       8   72402   72399       9   72408   72405       8
   72411   72405       8   72411   72408       9   72417   72414       8   72420
   72414       8   72420   72417       9   72426   72423       8   72429   72423
       8   72429   72426       9   72435   72432       8   72438   72432       8
   72438   72435       9   72444   72441       8   72447   72441       8   72447
   72444       9   72453   72450       8   72456   72450       8   72456   72453
       9   72462   72459       8   72465   72459       8   72465   72462       9
   72471   72468       8   72474   72468       8   72474   72471       9   72480
   72477       8   72483   72477       8   72483   72480       9   72489   72486
       8   72492   72486       8   72492   72489       9   72498   72495       8
   72501   72495       8   72501   72498       9   72507   72504       8   72510
   72504       8   72510   72507       9   72516   72513       8   72519   72513
       8   72519   72516       9   72525   72522       8   72528   72522       8
   72528   72525       9   72534   72531       8   72537   72531       8   72537
   72534       9   72543   72540       8   72546   72540       8   72546   72543
       9   72552   72549       8   72555   72549       8   72555   72552       9
   72561   72558       8   72564   72558       8   72564   72561       9   72570
   72567       8   72573   72567       8   72573   72570       9   72579   72576
       8   72582   72576       8   72582   72579       9   72588   72585       8
   72591   72585       8   72591   72588       9   72597   72594       8   72600
   72594       8   72600   72597       9   72606   72603       8   72609   72603
       8   72609   72606       9   72615   72612       8   72618   72612       8
   72618   72615       9   72624   72621       8   72627   72621       8   72627
   72624       9   72633   72630       8   72636   72630       8   72636   72633
       9   72642   72639       8   72645   72639       8   72645   72642       9
   72651   72648       8   72654   72648       8   72654   72651       9   72660
   72657       8   72663   72657       8   72663   72660       9   72669   72666
       8   72672   72666       8   72672   72669       9   72678   72675       8
   72681   72675       8   72681   72678       9   72687   72684       8   72690
   72684       8   72690   72687       9   72696   72693       8   72699   72693
       8   72699   72696       9   72705   72702       8   72708   72702       8
   72708   72705       9   72714   72711       8   72717   72711       8   72717
   72714       9   72723   72720       8   72726   72720       8   72726   72723
       9   72732   72729       8   72735   72729       8   72735   72732       9
   72741   72738       8   72744   72738       8   72744   72741       9   72750
   72747       8   72753   72747       8   72753   72750       9   72759   72756
       8   72762   72756       8   72762   72759       9   72768   72765       8
   72771   72765       8   72771   72768       9   72777   72774       8   72780
   72774       8   72780   72777       9   72786   72783       8   72789   72783
       8   72789   72786       9   72795   72792       8   72798   72792       8
   72798   72795       9   72804   72801       8   72807   72801       8   72807
   72804       9   72813   72810       8   72816   72810       8   72816   72813
       9   72822   72819       8   72825   72819       8   72825   72822       9
   72831   72828       8   72834   72828       8   72834   72831       9   72840
   72837       8   72843   72837       8   72843   72840       9   72849   72846
       8   72852   72846       8   72852   72849       9   72858   72855       8
   72861   72855       8   72861   72858       9   72867   72864       8   72870
   72864       8   72870   72867       9   72876   72873       8   72879   72873
       8   72879   72876       9   72885   72882       8   72888   72882       8
   72888   72885       9   72894   72891       8   72897   72891       8   72897
   72894       9   72903   72900       8   72906   72900       8   72906   72903
       9   72912   72909       8   72915   72909       8   72915   72912       9
   72921   72918       8   72924   72918       8   72924   72921       9   72930
   72927       8   72933   72927       8   72933   72930       9   72939   72936
       8   72942   72936       8   72942   72939       9   72948   72945       8
   72951   72945       8   72951   72948       9   72957   72954       8   72960
   72954       8   72960   72957       9   72966   72963       8   72969   72963
       8   72969   72966       9   72975   72972       8   72978   72972       8
   72978   72975       9   72984   72981       8   72987   72981       8   72987
   72984       9   72993   72990       8   72996   72990       8   72996   72993
       9   73002   72999       8   73005   72999       8   73005   73002       9
   73011   73008       8   73014   73008       8   73014   73011       9   73020
   73017       8   73023   73017       8   73023   73020       9   73029   73026
       8   73032   73026       8   73032   73029       9   73038   73035       8
   73041   73035       8   73041   73038       9   73047   73044       8   73050
   73044       8   73050   73047       9   73056   73053       8   73059   73053
       8   73059   73056       9   73065   73062       8   73068   73062       8
   73068   73065       9   73074   73071       8   73077   73071       8   73077
   73074       9   73083   73080       8   73086   73080       8   73086   73083
       9   73092   73089       8   73095   73089       8   73095   73092       9
   73101   73098       8   73104   73098       8   73104   73101       9   73110
   73107       8   73113   73107       8   73113   73110       9   73119   73116
       8   73122   73116       8   73122   73119       9   73128   73125       8
   73131   73125       8   73131   73128       9   73137   73134       8   73140
   73134       8   73140   73137       9   73146   73143       8   73149   73143
       8   73149   73146       9   73155   73152       8   73158   73152       8
   73158   73155       9   73164   73161       8   73167   73161       8   73167
   73164       9   73173   73170       8   73176   73170       8   73176   73173
       9   73182   73179       8   73185   73179       8   73185   73182       9
   73191   73188       8   73194   73188       8   73194   73191       9   73200
   73197       8   73203   73197       8   73203   73200       9   73209   73206
       8   73212   73206       8   73212   73209       9   73218   73215       8
   73221   73215       8   73221   73218       9   73227   73224       8   73230
   73224       8   73230   73227       9   73236   73233       8   73239   73233
       8   73239   73236       9   73245   73242       8   73248   73242       8
   73248   73245       9   73254   73251       8   73257   73251       8   73257
   73254       9   73263   73260       8   73266   73260       8   73266   73263
       9   73272   73269       8   73275   73269       8   73275   73272       9
   73281   73278       8   73284   73278       8   73284   73281       9   73290
   73287       8   73293   73287       8   73293   73290       9   73299   73296
       8   73302   73296       8   73302   73299       9   73308   73305       8
   73311   73305       8   73311   73308       9   73317   73314       8   73320
   73314       8   73320   73317       9   73326   73323       8   73329   73323
       8   73329   73326       9   73335   73332       8   73338   73332       8
   73338   73335       9   73344   73341       8   73347   73341       8   73347
   73344       9   73353   73350       8   73356   73350       8   73356   73353
       9   73362   73359       8   73365   73359       8   73365   73362       9
   73371   73368       8   73374   73368       8   73374   73371       9   73380
   73377       8   73383   73377       8   73383   73380       9   73389   73386
       8   73392   73386       8   73392   73389       9   73398   73395       8
   73401   73395       8   73401   73398       9   73407   73404       8   73410
   73404       8   73410   73407       9   73416   73413       8   73419   73413
       8   73419   73416       9   73425   73422       8   73428   73422       8
   73428   73425       9   73434   73431       8   73437   73431       8   73437
   73434       9   73443   73440       8   73446   73440       8   73446   73443
       9   73452   73449       8   73455   73449       8   73455   73452       9
   73461   73458       8   73464   73458       8   73464   73461       9   73470
   73467       8   73473   73467       8   73473   73470       9   73479   73476
       8   73482   73476       8   73482   73479       9   73488   73485       8
   73491   73485       8   73491   73488       9   73497   73494       8   73500
   73494       8   73500   73497       9   73506   73503       8   73509   73503
       8   73509   73506       9   73515   73512       8   73518   73512       8
   73518   73515       9   73524   73521       8   73527   73521       8   73527
   73524       9   73533   73530       8   73536   73530       8   73536   73533
       9   73542   73539       8   73545   73539       8   73545   73542       9
   73551   73548       8   73554   73548       8   73554   73551       9   73560
   73557       8   73563   73557       8   73563   73560       9   73569   73566
       8   73572   73566       8   73572   73569       9   73578   73575       8
   73581   73575       8   73581   73578       9   73587   73584       8   73590
   73584       8   73590   73587       9   73596   73593       8   73599   73593
       8   73599   73596       9   73605   73602       8   73608   73602       8
   73608   73605       9   73614   73611       8   73617   73611       8   73617
   73614       9   73623   73620       8   73626   73620       8   73626   73623
       9   73632   73629       8   73635   73629       8   73635   73632       9
   73641   73638       8   73644   73638       8   73644   73641       9   73650
   73647       8   73653   73647       8   73653   73650       9   73659   73656
       8   73662   73656       8   73662   73659       9   73668   73665       8
   73671   73665       8   73671   73668       9   73677   73674       8   73680
   73674       8   73680   73677       9   73686   73683       8   73689   73683
       8   73689   73686       9   73695   73692       8   73698   73692       8
   73698   73695       9   73704   73701       8   73707   73701       8   73707
   73704       9   73713   73710       8   73716   73710       8   73716   73713
       9   73722   73719       8   73725   73719       8   73725   73722       9
   73731   73728       8   73734   73728       8   73734   73731       9   73740
   73737       8   73743   73737       8   73743   73740       9   73749   73746
       8   73752   73746       8   73752   73749       9   73758   73755       8
   73761   73755       8   73761   73758       9   73767   73764       8   73770
   73764       8   73770   73767       9   73776   73773       8   73779   73773
       8   73779   73776       9   73785   73782       8   73788   73782       8
   73788   73785       9   73794   73791       8   73797   73791       8   73797
   73794       9   73803   73800       8   73806   73800       8   73806   73803
       9   73812   73809       8   73815   73809       8   73815   73812       9
   73821   73818       8   73824   73818       8   73824   73821       9   73830
   73827       8   73833   73827       8   73833   73830       9   73839   73836
       8   73842   73836       8   73842   73839       9   73848   73845       8
   73851   73845       8   73851   73848       9   73857   73854       8   73860
   73854       8   73860   73857       9   73866   73863       8   73869   73863
       8   73869   73866       9   73875   73872       8   73878   73872       8
   73878   73875       9   73884   73881       8   73887   73881       8   73887
   73884       9   73893   73890       8   73896   73890       8   73896   73893
       9   73902   73899       8   73905   73899       8   73905   73902       9
   73911   73908       8   73914   73908       8   73914   73911       9   73920
   73917       8   73923   73917       8   73923   73920       9   73929   73926
       8   73932   73926       8   73932   73929       9   73938   73935       8
   73941   73935       8   73941   73938       9   73947   73944       8   73950
   73944       8   73950   73947       9   73956   73953       8   73959   73953
       8   73959   73956       9   73965   73962       8   73968   73962       8
   73968   73965       9   73974   73971       8   73977   73971       8   73977
   73974       9   73983   73980       8   73986   73980       8   73986   73983
       9   73992   73989       8   73995   73989       8   73995   73992       9
   74001   73998       8   74004   73998       8   74004   74001       9   74010
   74007       8   74013   74007       8   74013   74010       9   74019   74016
       8   74022   74016       8   74022   74019       9   74028   74025       8
   74031   74025       8   74031   74028       9   74037   74034       8   74040
   74034       8   74040   74037       9   74046   74043       8   74049   74043
       8   74049   74046       9   74055   74052       8   74058   74052       8
   74058   74055       9   74064   74061       8   74067   74061       8   74067
   74064       9   74073   74070       8   74076   74070       8   74076   74073
       9   74082   74079       8   74085   74079       8   74085   74082       9
   74091   74088       8   74094   74088       8   74094   74091       9   74100
   74097       8   74103   74097       8   74103   74100       9   74109   74106
       8   74112   74106       8   74112   74109       9   74118   74115       8
   74121   74115       8   74121   74118       9   74127   74124       8   74130
   74124       8   74130   74127       9   74136   74133       8   74139   74133
       8   74139   74136       9   74145   74142       8   74148   74142       8
   74148   74145       9   74154   74151       8   74157   74151       8   74157
   74154       9   74163   74160       8   74166   74160       8   74166   74163
       9   74172   74169       8   74175   74169       8   74175   74172       9
   74181   74178       8   74184   74178       8   74184   74181       9   74190
   74187       8   74193   74187       8   74193   74190       9   74199   74196
       8   74202   74196       8   74202   74199       9   74208   74205       8
   74211   74205       8   74211   74208       9   74217   74214       8   74220
   74214       8   74220   74217       9   74226   74223       8   74229   74223
       8   74229   74226       9   74235   74232       8   74238   74232       8
   74238   74235       9   74244   74241       8   74247   74241       8   74247
   74244       9   74253   74250       8   74256   74250       8   74256   74253
       9   74262   74259       8   74265   74259       8   74265   74262       9
   74271   74268       8   74274   74268       8   74274   74271       9   74280
   74277       8   74283   74277       8   74283   74280       9   74289   74286
       8   74292   74286       8   74292   74289       9   74298   74295       8
   74301   74295       8   74301   74298       9   74307   74304       8   74310
   74304       8   74310   74307       9   74316   74313       8   74319   74313
       8   74319   74316       9   74325   74322       8   74328   74322       8
   74328   74325       9   74334   74331       8   74337   74331       8   74337
   74334       9   74343   74340       8   74346   74340       8   74346   74343
       9   74352   74349       8   74355   74349       8   74355   74352       9
   74361   74358       8   74364   74358       8   74364   74361       9   74370
   74367       8   74373   74367       8   74373   74370       9   74379   74376
       8   74382   74376       8   74382   74379       9   74388   74385       8
   74391   74385       8   74391   74388       9   74397   74394       8   74400
   74394       8   74400   74397       9   74406   74403       8   74409   74403
       8   74409   74406       9   74415   74412       8   74418   74412       8
   74418   74415       9   74424   74421       8   74427   74421       8   74427
   74424       9   74433   74430       8   74436   74430       8   74436   74433
       9   74442   74439       8   74445   74439       8   74445   74442       9
   74451   74448       8   74454   74448       8   74454   74451       9   74460
   74457       8   74463   74457       8   74463   74460       9   74469   74466
       8   74472   74466       8   74472   74469       9   74478   74475       8
   74481   74475       8   74481   74478       9   74487   74484       8   74490
   74484       8   74490   74487       9   74496   74493       8   74499   74493
       8   74499   74496       9   74505   74502       8   74508   74502       8
   74508   74505       9   74514   74511       8   74517   74511       8   74517
   74514       9   74523   74520       8   74526   74520       8   74526   74523
       9   74532   74529       8   74535   74529       8   74535   74532       9
   74541   74538       8   74544   74538       8   74544   74541       9   74550
   74547       8   74553   74547       8   74553   74550       9   74559   74556
       8   74562   74556       8   74562   74559       9   74568   74565       8
   74571   74565       8   74571   74568       9   74577   74574       8   74580
   74574       8   74580   74577       9   74586   74583       8   74589   74583
       8   74589   74586       9   74595   74592       8   74598   74592       8
   74598   74595       9   74604   74601       8   74607   74601       8   74607
   74604       9   74613   74610       8   74616   74610       8   74616   74613
       9   74622   74619       8   74625   74619       8   74625   74622       9
   74631   74628       8   74634   74628       8   74634   74631       9   74640
   74637       8   74643   74637       8   74643   74640       9   74649   74646
       8   74652   74646       8   74652   74649       9   74658   74655       8
   74661   74655       8   74661   74658       9   74667   74664       8   74670
   74664       8   74670   74667       9   74676   74673       8   74679   74673
       8   74679   74676       9   74685   74682       8   74688   74682       8
   74688   74685       9   74694   74691       8   74697   74691       8   74697
   74694       9   74703   74700       8   74706   74700       8   74706   74703
       9   74712   74709       8   74715   74709       8   74715   74712       9
   74721   74718       8   74724   74718       8   74724   74721       9   74730
   74727       8   74733   74727       8   74733   74730       9   74739   74736
       8   74742   74736       8   74742   74739       9   74748   74745       8
   74751   74745       8   74751   74748       9   74757   74754       8   74760
   74754       8   74760   74757       9   74766   74763       8   74769   74763
       8   74769   74766       9   74775   74772       8   74778   74772       8
   74778   74775       9   74784   74781       8   74787   74781       8   74787
   74784       9   74793   74790       8   74796   74790       8   74796   74793
       9   74802   74799       8   74805   74799       8   74805   74802       9
   74811   74808       8   74814   74808       8   74814   74811       9   74820
   74817       8   74823   74817       8   74823   74820       9   74829   74826
       8   74832   74826       8   74832   74829       9   74838   74835       8
   74841   74835       8   74841   74838       9   74847   74844       8   74850
   74844       8   74850   74847       9   74856   74853       8   74859   74853
       8   74859   74856       9   74865   74862       8   74868   74862       8
   74868   74865       9   74874   74871       8   74877   74871       8   74877
   74874       9   74883   74880       8   74886   74880       8   74886   74883
       9   74892   74889       8   74895   74889       8   74895   74892       9
   74901   74898       8   74904   74898       8   74904   74901       9   74910
   74907       8   74913   74907       8   74913   74910       9   74919   74916
       8   74922   74916       8   74922   74919       9   74928   74925       8
   74931   74925       8   74931   74928       9   74937   74934       8   74940
   74934       8   74940   74937       9   74946   74943       8   74949   74943
       8   74949   74946       9   74955   74952       8   74958   74952       8
   74958   74955       9   74964   74961       8   74967   74961       8   74967
   74964       9   74973   74970       8   74976   74970       8   74976   74973
       9   74982   74979       8   74985   74979       8   74985   74982       9
   74991   74988       8   74994   74988       8   74994   74991       9   75000
   74997       8   75003   74997       8   75003   75000       9   75009   75006
       8   75012   75006       8   75012   75009       9   75018   75015       8
   75021   75015       8   75021   75018       9   75027   75024       8   75030
   75024       8   75030   75027       9   75036   75033       8   75039   75033
       8   75039   75036       9   75045   75042       8   75048   75042       8
   75048   75045       9   75054   75051       8   75057   75051       8   75057
   75054       9   75063   75060       8   75066   75060       8   75066   75063
       9   75072   75069       8   75075   75069       8   75075   75072       9
   75081   75078       8   75084   75078       8   75084   75081       9   75090
   75087       8   75093   75087       8   75093   75090       9   75099   75096
       8   75102   75096       8   75102   75099       9   75108   75105       8
   75111   75105       8   75111   75108       9   75117   75114       8   75120
   75114       8   75120   75117       9   75126   75123       8   75129   75123
       8   75129   75126       9   75135   75132       8   75138   75132       8
   75138   75135       9   75144   75141       8   75147   75141       8   75147
   75144       9   75153   75150       8   75156   75150       8   75156   75153
       9   75162   75159       8   75165   75159       8   75165   75162       9
   75171   75168       8   75174   75168       8   75174   75171       9   75180
   75177       8   75183   75177       8   75183   75180       9   75189   75186
       8   75192   75186       8   75192   75189       9   75198   75195       8
   75201   75195       8   75201   75198       9   75207   75204       8   75210
   75204       8   75210   75207       9   75216   75213       8   75219   75213
       8   75219   75216       9   75225   75222       8   75228   75222       8
   75228   75225       9   75234   75231       8   75237   75231       8   75237
   75234       9   75243   75240       8   75246   75240       8   75246   75243
       9   75252   75249       8   75255   75249       8   75255   75252       9
   75261   75258       8   75264   75258       8   75264   75261       9   75270
   75267       8   75273   75267       8   75273   75270       9   75279   75276
       8   75282   75276       8   75282   75279       9   75288   75285       8
   75291   75285       8   75291   75288       9   75297   75294       8   75300
   75294       8   75300   75297       9   75306   75303       8   75309   75303
       8   75309   75306       9   75315   75312       8   75318   75312       8
   75318   75315       9   75324   75321       8   75327   75321       8   75327
   75324       9   75333   75330       8   75336   75330       8   75336   75333
       9   75342   75339       8   75345   75339       8   75345   75342       9
   75351   75348       8   75354   75348       8   75354   75351       9   75360
   75357       8   75363   75357       8   75363   75360       9   75369   75366
       8   75372   75366       8   75372   75369       9   75378   75375       8
   75381   75375       8   75381   75378       9   75387   75384       8   75390
   75384       8   75390   75387       9   75396   75393       8   75399   75393
       8   75399   75396       9   75405   75402       8   75408   75402       8
   75408   75405       9   75414   75411       8   75417   75411       8   75417
   75414       9   75423   75420       8   75426   75420       8   75426   75423
       9   75432   75429       8   75435   75429       8   75435   75432       9
   75441   75438       8   75444   75438       8   75444   75441       9   75450
   75447       8   75453   75447       8   75453   75450       9   75459   75456
       8   75462   75456       8   75462   75459       9   75468   75465       8
   75471   75465       8   75471   75468       9   75477   75474       8   75480
   75474       8   75480   75477       9   75486   75483       8   75489   75483
       8   75489   75486       9   75495   75492       8   75498   75492       8
   75498   75495       9   75504   75501       8   75507   75501       8   75507
   75504       9   75513   75510       8   75516   75510       8   75516   75513
       9   75522   75519       8   75525   75519       8   75525   75522       9
   75531   75528       8   75534   75528       8   75534   75531       9   75540
   75537       8   75543   75537       8   75543   75540       9   75549   75546
       8   75552   75546       8   75552   75549       9   75558   75555       8
   75561   75555       8   75561   75558       9   75567   75564       8   75570
   75564       8   75570   75567       9   75576   75573       8   75579   75573
       8   75579   75576       9   75585   75582       8   75588   75582       8
   75588   75585       9   75594   75591       8   75597   75591       8   75597
   75594       9   75603   75600       8   75606   75600       8   75606   75603
       9   75612   75609       8   75615   75609       8   75615   75612       9
   75621   75618       8   75624   75618       8   75624   75621       9   75630
   75627       8   75633   75627       8   75633   75630       9   75639   75636
       8   75642   75636       8   75642   75639       9   75648   75645       8
   75651   75645       8   75651   75648       9   75657   75654       8   75660
   75654       8   75660   75657       9   75666   75663       8   75669   75663
       8   75669   75666       9   75675   75672       8   75678   75672       8
   75678   75675       9   75684   75681       8   75687   75681       8   75687
   75684       9   75693   75690       8   75696   75690       8   75696   75693
       9   75702   75699       8   75705   75699       8   75705   75702       9
   75711   75708       8   75714   75708       8   75714   75711       9   75720
   75717       8   75723   75717       8   75723   75720       9   75729   75726
       8   75732   75726       8   75732   75729       9   75738   75735       8
   75741   75735       8   75741   75738       9   75747   75744       8   75750
   75744       8   75750   75747       9   75756   75753       8   75759   75753
       8   75759   75756       9   75765   75762       8   75768   75762       8
   75768   75765       9   75774   75771       8   75777   75771       8   75777
   75774       9   75783   75780       8   75786   75780       8   75786   75783
       9   75792   75789       8   75795   75789       8   75795   75792       9
   75801   75798       8   75804   75798       8   75804   75801       9   75810
   75807       8   75813   75807       8   75813   75810       9   75819   75816
       8   75822   75816       8   75822   75819       9   75828   75825       8
   75831   75825       8   75831   75828       9   75837   75834       8   75840
   75834       8   75840   75837       9   75846   75843       8   75849   75843
       8   75849   75846       9   75855   75852       8   75858   75852       8
   75858   75855       9   75864   75861       8   75867   75861       8   75867
   75864       9   75873   75870       8   75876   75870       8   75876   75873
       9   75882   75879       8   75885   75879       8   75885   75882       9
   75891   75888       8   75894   75888       8   75894   75891       9   75900
   75897       8   75903   75897       8   75903   75900       9   75909   75906
       8   75912   75906       8   75912   75909       9   75918   75915       8
   75921   75915       8   75921   75918       9   75927   75924       8   75930
   75924       8   75930   75927       9   75936   75933       8   75939   75933
       8   75939   75936       9   75945   75942       8   75948   75942       8
   75948   75945       9   75954   75951       8   75957   75951       8   75957
   75954       9   75963   75960       8   75966   75960       8   75966   75963
       9   75972   75969       8   75975   75969       8   75975   75972       9
   75981   75978       8   75984   75978       8   75984   75981       9   75990
   75987       8   75993   75987       8   75993   75990       9   75999   75996
       8   76002   75996       8   76002   75999       9   76008   76005       8
   76011   76005       8   76011   76008       9   76017   76014       8   76020
   76014       8   76020   76017       9   76026   76023       8   76029   76023
       8   76029   76026       9   76035   76032       8   76038   76032       8
   76038   76035       9   76044   76041       8   76047   76041       8   76047
   76044       9   76053   76050       8   76056   76050       8   76056   76053
       9   76062   76059       8   76065   76059       8   76065   76062       9
   76071   76068       8   76074   76068       8   76074   76071       9   76080
   76077       8   76083   76077       8   76083   76080       9   76089   76086
       8   76092   76086       8   76092   76089       9   76098   76095       8
   76101   76095       8   76101   76098       9   76107   76104       8   76110
   76104       8   76110   76107       9   76116   76113       8   76119   76113
       8   76119   76116       9   76125   76122       8   76128   76122       8
   76128   76125       9   76134   76131       8   76137   76131       8   76137
   76134       9   76143   76140       8   76146   76140       8   76146   76143
       9   76152   76149       8   76155   76149       8   76155   76152       9
   76161   76158       8   76164   76158       8   76164   76161       9   76170
   76167       8   76173   76167       8   76173   76170       9   76179   76176
       8   76182   76176       8   76182   76179       9   76188   76185       8
   76191   76185       8   76191   76188       9   76197   76194       8   76200
   76194       8   76200   76197       9   76206   76203       8   76209   76203
       8   76209   76206       9   76215   76212       8   76218   76212       8
   76218   76215       9   76224   76221       8   76227   76221       8   76227
   76224       9   76233   76230       8   76236   76230       8   76236   76233
       9   76242   76239       8   76245   76239       8   76245   76242       9
   76251   76248       8   76254   76248       8   76254   76251       9   76260
   76257       8   76263   76257       8   76263   76260       9   76269   76266
       8   76272   76266       8   76272   76269       9   76278   76275       8
   76281   76275       8   76281   76278       9   76287   76284       8   76290
   76284       8   76290   76287       9   76296   76293       8   76299   76293
       8   76299   76296       9   76305   76302       8   76308   76302       8
   76308   76305       9   76314   76311       8   76317   76311       8   76317
   76314       9   76323   76320       8   76326   76320       8   76326   76323
       9   76332   76329       8   76335   76329       8   76335   76332       9
   76341   76338       8   76344   76338       8   76344   76341       9   76350
   76347       8   76353   76347       8   76353   76350       9   76359   76356
       8   76362   76356       8   76362   76359       9   76368   76365       8
   76371   76365       8   76371   76368       9   76377   76374       8   76380
   76374       8   76380   76377       9   76386   76383       8   76389   76383
       8   76389   76386       9   76395   76392       8   76398   76392       8
   76398   76395       9   76404   76401       8   76407   76401       8   76407
   76404       9   76413   76410       8   76416   76410       8   76416   76413
       9   76422   76419       8   76425   76419       8   76425   76422       9
   76431   76428       8   76434   76428       8   76434   76431       9   76440
   76437       8   76443   76437       8   76443   76440       9   76449   76446
       8   76452   76446       8   76452   76449       9   76458   76455       8
   76461   76455       8   76461   76458       9   76467   76464       8   76470
   76464       8   76470   76467       9   76476   76473       8   76479   76473
       8   76479   76476       9   76485   76482       8   76488   76482       8
   76488   76485       9   76494   76491       8   76497   76491       8   76497
   76494       9   76503   76500       8   76506   76500       8   76506   76503
       9   76512   76509       8   76515   76509       8   76515   76512       9
   76521   76518       8   76524   76518       8   76524   76521       9   76530
   76527       8   76533   76527       8   76533   76530       9   76539   76536
       8   76542   76536       8   76542   76539       9   76548   76545       8
   76551   76545       8   76551   76548       9   76557   76554       8   76560
   76554       8   76560   76557       9   76566   76563       8   76569   76563
       8   76569   76566       9   76575   76572       8   76578   76572       8
   76578   76575       9   76584   76581       8   76587   76581       8   76587
   76584       9   76593   76590       8   76596   76590       8   76596   76593
       9   76602   76599       8   76605   76599       8   76605   76602       9
   76611   76608       8   76614   76608       8   76614   76611       9   76620
   76617       8   76623   76617       8   76623   76620       9   76629   76626
       8   76632   76626       8   76632   76629       9   76638   76635       8
   76641   76635       8   76641   76638       9   76647   76644       8   76650
   76644       8   76650   76647       9   76656   76653       8   76659   76653
       8   76659   76656       9   76665   76662       8   76668   76662       8
   76668   76665       9   76674   76671       8   76677   76671       8   76677
   76674       9   76683   76680       8   76686   76680       8   76686   76683
       9   76692   76689       8   76695   76689       8   76695   76692       9
   76701   76698       8   76704   76698       8   76704   76701       9   76710
   76707       8   76713   76707       8   76713   76710       9   76719   76716
       8   76722   76716       8   76722   76719       9   76728   76725       8
   76731   76725       8   76731   76728       9   76737   76734       8   76740
   76734       8   76740   76737       9   76746   76743       8   76749   76743
       8   76749   76746       9   76755   76752       8   76758   76752       8
   76758   76755       9   76764   76761       8   76767   76761       8   76767
   76764       9   76773   76770       8   76776   76770       8   76776   76773
       9   76782   76779       8   76785   76779       8   76785   76782       9
   76791   76788       8   76794   76788       8   76794   76791       9   76800
   76797       8   76803   76797       8   76803   76800       9   76809   76806
       8   76812   76806       8   76812   76809       9   76818   76815       8
   76821   76815       8   76821   76818       9   76827   76824       8   76830
   76824       8   76830   76827       9   76836   76833       8   76839   76833
       8   76839   76836       9   76845   76842       8   76848   76842       8
   76848   76845       9   76854   76851       8   76857   76851       8   76857
   76854       9   76863   76860       8   76866   76860       8   76866   76863
       9   76872   76869       8   76875   76869       8   76875   76872       9
   76881   76878       8   76884   76878       8   76884   76881       9   76890
   76887       8   76893   76887       8   76893   76890       9   76899   76896
       8   76902   76896       8   76902   76899       9   76908   76905       8
   76911   76905       8   76911   76908       9   76917   76914       8   76920
   76914       8   76920   76917       9   76926   76923       8   76929   76923
       8   76929   76926       9   76935   76932       8   76938   76932       8
   76938   76935       9   76944   76941       8   76947   76941       8   76947
   76944       9   76953   76950       8   76956   76950       8   76956   76953
       9   76962   76959       8   76965   76959       8   76965   76962       9
   76971   76968       8   76974   76968       8   76974   76971       9   76980
   76977       8   76983   76977       8   76983   76980       9   76989   76986
       8   76992   76986       8   76992   76989       9   76998   76995       8
   77001   76995       8   77001   76998       9   77007   77004       8   77010
   77004       8   77010   77007       9   77016   77013       8   77019   77013
       8   77019   77016       9   77025   77022       8   77028   77022       8
   77028   77025       9   77034   77031       8   77037   77031       8   77037
   77034       9   77043   77040       8   77046   77040       8   77046   77043
       9   77052   77049       8   77055   77049       8   77055   77052       9
   77061   77058       8   77064   77058       8   77064   77061       9   77070
   77067       8   77073   77067       8   77073   77070       9   77079   77076
       8   77082   77076       8   77082   77079       9   77088   77085       8
   77091   77085       8   77091   77088       9   77097   77094       8   77100
   77094       8   77100   77097       9   77106   77103       8   77109   77103
       8   77109   77106       9   77115   77112       8   77118   77112       8
   77118   77115       9   77124   77121       8   77127   77121       8   77127
   77124       9   77133   77130       8   77136   77130       8   77136   77133
       9   77142   77139       8   77145   77139       8   77145   77142       9
   77151   77148       8   77154   77148       8   77154   77151       9   77160
   77157       8   77163   77157       8   77163   77160       9   77169   77166
       8   77172   77166       8   77172   77169       9   77178   77175       8
   77181   77175       8   77181   77178       9   77187   77184       8   77190
   77184       8   77190   77187       9   77196   77193       8   77199   77193
       8   77199   77196       9   77205   77202       8   77208   77202       8
   77208   77205       9   77214   77211       8   77217   77211       8   77217
   77214       9   77223   77220       8   77226   77220       8   77226   77223
       9   77232   77229       8   77235   77229       8   77235   77232       9
   77241   77238       8   77244   77238       8   77244   77241       9   77250
   77247       8   77253   77247       8   77253   77250       9   77259   77256
       8   77262   77256       8   77262   77259       9   77268   77265       8
   77271   77265       8   77271   77268       9   77277   77274       8   77280
   77274       8   77280   77277       9   77286   77283       8   77289   77283
       8   77289   77286       9   77295   77292       8   77298   77292       8
   77298   77295       9   77304   77301       8   77307   77301       8   77307
   77304       9   77313   77310       8   77316   77310       8   77316   77313
       9   77322   77319       8   77325   77319       8   77325   77322       9
   77331   77328       8   77334   77328       8   77334   77331       9   77340
   77337       8   77343   77337       8   77343   77340       9   77349   77346
       8   77352   77346       8   77352   77349       9   77358   77355       8
   77361   77355       8   77361   77358       9   77367   77364       8   77370
   77364       8   77370   77367       9   77376   77373       8   77379   77373
       8   77379   77376       9   77385   77382       8   77388   77382       8
   77388   77385       9   77394   77391       8   77397   77391       8   77397
   77394       9   77403   77400       8   77406   77400       8   77406   77403
       9   77412   77409       8   77415   77409       8   77415   77412       9
   77421   77418       8   77424   77418       8   77424   77421       9   77430
   77427       8   77433   77427       8   77433   77430       9   77439   77436
       8   77442   77436       8   77442   77439       9   77448   77445       8
   77451   77445       8   77451   77448       9   77457   77454       8   77460
   77454       8   77460   77457       9   77466   77463       8   77469   77463
       8   77469   77466       9   77475   77472       8   77478   77472       8
   77478   77475       9   77484   77481       8   77487   77481       8   77487
   77484       9   77493   77490       8   77496   77490       8   77496   77493
       9   77502   77499       8   77505   77499       8   77505   77502       9
   77511   77508       8   77514   77508       8   77514   77511       9   77520
   77517       8   77523   77517       8   77523   77520       9   77529   77526
       8   77532   77526       8   77532   77529       9   77538   77535       8
   77541   77535       8   77541   77538       9   77547   77544       8   77550
   77544       8   77550   77547       9   77556   77553       8   77559   77553
       8   77559   77556       9   77565   77562       8   77568   77562       8
   77568   77565       9   77574   77571       8   77577   77571       8   77577
   77574       9   77583   77580       8   77586   77580       8   77586   77583
       9   77592   77589       8   77595   77589       8   77595   77592       9
   77601   77598       8   77604   77598       8   77604   77601       9   77610
   77607       8   77613   77607       8   77613   77610       9   77619   77616
       8   77622   77616       8   77622   77619       9   77628   77625       8
   77631   77625       8   77631   77628       9   77637   77634       8   77640
   77634       8   77640   77637       9   77646   77643       8   77649   77643
       8   77649   77646       9   77655   77652       8   77658   77652       8
   77658   77655       9   77664   77661       8   77667   77661       8   77667
   77664       9   77673   77670       8   77676   77670       8   77676   77673
       9   77682   77679       8   77685   77679       8   77685   77682       9
   77691   77688       8   77694   77688       8   77694   77691       9   77700
   77697       8   77703   77697       8   77703   77700       9   77709   77706
       8   77712   77706       8   77712   77709       9   77718   77715       8
   77721   77715       8   77721   77718       9   77727   77724       8   77730
   77724       8   77730   77727       9   77736   77733       8   77739   77733
       8   77739   77736       9   77745   77742       8   77748   77742       8
   77748   77745       9   77754   77751       8   77757   77751       8   77757
   77754       9   77763   77760       8   77766   77760       8   77766   77763
       9   77772   77769       8   77775   77769       8   77775   77772       9
   77781   77778       8   77784   77778       8   77784   77781       9   77790
   77787       8   77793   77787       8   77793   77790       9   77799   77796
       8   77802   77796       8   77802   77799       9   77808   77805       8
   77811   77805       8   77811   77808       9   77817   77814       8   77820
   77814       8   77820   77817       9   77826   77823       8   77829   77823
       8   77829   77826       9   77835   77832       8   77838   77832       8
   77838   77835       9   77844   77841       8   77847   77841       8   77847
   77844       9   77853   77850       8   77856   77850       8   77856   77853
       9   77862   77859       8   77865   77859       8   77865   77862       9
   77871   77868       8   77874   77868       8   77874   77871       9   77880
   77877       8   77883   77877       8   77883   77880       9   77889   77886
       8   77892   77886       8   77892   77889       9   77898   77895       8
   77901   77895       8   77901   77898       9   77907   77904       8   77910
   77904       8   77910   77907       9   77916   77913       8   77919   77913
       8   77919   77916       9   77925   77922       8   77928   77922       8
   77928   77925       9   77934   77931       8   77937   77931       8   77937
   77934       9   77943   77940       8   77946   77940       8   77946   77943
       9   77952   77949       8   77955   77949       8   77955   77952       9
   77961   77958       8   77964   77958       8   77964   77961       9   77970
   77967       8   77973   77967       8   77973   77970       9   77979   77976
       8   77982   77976       8   77982   77979       9   77988   77985       8
   77991   77985       8   77991   77988       9   77997   77994       8   78000
   77994       8   78000   77997       9   78006   78003       8   78009   78003
       8   78009   78006       9   78015   78012       8   78018   78012       8
   78018   78015       9   78024   78021       8   78027   78021       8   78027
   78024       9   78033   78030       8   78036   78030       8   78036   78033
       9   78042   78039       8   78045   78039       8   78045   78042       9
   78051   78048       8   78054   78048       8   78054   78051       9   78060
   78057       8   78063   78057       8   78063   78060       9   78069   78066
       8   78072   78066       8   78072   78069       9   78078   78075       8
   78081   78075       8   78081   78078       9   78087   78084       8   78090
   78084       8   78090   78087       9   78096   78093       8   78099   78093
       8   78099   78096       9   78105   78102       8   78108   78102       8
   78108   78105       9   78114   78111       8   78117   78111       8   78117
   78114       9   78123   78120       8   78126   78120       8   78126   78123
       9   78132   78129       8   78135   78129       8   78135   78132       9
   78141   78138       8   78144   78138       8   78144   78141       9   78150
   78147       8   78153   78147       8   78153   78150       9   78159   78156
       8   78162   78156       8   78162   78159       9   78168   78165       8
   78171   78165       8   78171   78168       9   78177   78174       8   78180
   78174       8   78180   78177       9   78186   78183       8   78189   78183
       8   78189   78186       9   78195   78192       8   78198   78192       8
   78198   78195       9   78204   78201       8   78207   78201       8   78207
   78204       9   78213   78210       8   78216   78210       8   78216   78213
       9   78222   78219       8   78225   78219       8   78225   78222       9
   78231   78228       8   78234   78228       8   78234   78231       9   78240
   78237       8   78243   78237       8   78243   78240       9   78249   78246
       8   78252   78246       8   78252   78249       9   78258   78255       8
   78261   78255       8   78261   78258       9   78267   78264       8   78270
   78264       8   78270   78267       9   78276   78273       8   78279   78273
       8   78279   78276       9   78285   78282       8   78288   78282       8
   78288   78285       9   78294   78291       8   78297   78291       8   78297
   78294       9   78303   78300       8   78306   78300       8   78306   78303
       9   78312   78309       8   78315   78309       8   78315   78312       9
   78321   78318       8   78324   78318       8   78324   78321       9   78330
   78327       8   78333   78327       8   78333   78330       9   78339   78336
       8   78342   78336       8   78342   78339       9   78348   78345       8
   78351   78345       8   78351   78348       9   78357   78354       8   78360
   78354       8   78360   78357       9   78366   78363       8   78369   78363
       8   78369   78366       9   78375   78372       8   78378   78372       8
   78378   78375       9   78384   78381       8   78387   78381       8   78387
   78384       9   78393   78390       8   78396   78390       8   78396   78393
       9   78402   78399       8   78405   78399       8   78405   78402       9
   78411   78408       8   78414   78408       8   78414   78411       9   78420
   78417       8   78423   78417       8   78423   78420       9   78429   78426
       8   78432   78426       8   78432   78429       9   78438   78435       8
   78441   78435       8   78441   78438       9   78447   78444       8   78450
   78444       8   78450   78447       9   78456   78453       8   78459   78453
       8   78459   78456       9   78465   78462       8   78468   78462       8
   78468   78465       9   78474   78471       8   78477   78471       8   78477
   78474       9   78483   78480       8   78486   78480       8   78486   78483
       9   78492   78489       8   78495   78489       8   78495   78492       9
   78501   78498       8   78504   78498       8   78504   78501       9   78510
   78507       8   78513   78507       8   78513   78510       9   78519   78516
       8   78522   78516       8   78522   78519       9   78528   78525       8
   78531   78525       8   78531   78528       9   78537   78534       8   78540
   78534       8   78540   78537       9   78546   78543       8   78549   78543
       8   78549   78546       9   78555   78552       8   78558   78552       8
   78558   78555       9   78564   78561       8   78567   78561       8   78567
   78564       9   78573   78570       8   78576   78570       8   78576   78573
       9   78582   78579       8   78585   78579       8   78585   78582       9
   78591   78588       8   78594   78588       8   78594   78591       9   78600
   78597       8   78603   78597       8   78603   78600       9   78609   78606
       8   78612   78606       8   78612   78609       9   78618   78615       8
   78621   78615       8   78621   78618       9   78627   78624       8   78630
   78624       8   78630   78627       9   78636   78633       8   78639   78633
       8   78639   78636       9   78645   78642       8   78648   78642       8
   78648   78645       9   78654   78651       8   78657   78651       8   78657
   78654       9   78663   78660       8   78666   78660       8   78666   78663
       9   78672   78669       8   78675   78669       8   78675   78672       9
   78681   78678       8   78684   78678       8   78684   78681       9   78690
   78687       8   78693   78687       8   78693   78690       9   78699   78696
       8   78702   78696       8   78702   78699       9   78708   78705       8
   78711   78705       8   78711   78708       9   78717   78714       8   78720
   78714       8   78720   78717       9   78726   78723       8   78729   78723
       8   78729   78726       9   78735   78732       8   78738   78732       8
   78738   78735       9   78744   78741       8   78747   78741       8   78747
   78744       9   78753   78750       8   78756   78750       8   78756   78753
       9   78762   78759       8   78765   78759       8   78765   78762       9
   78771   78768       8   78774   78768       8   78774   78771       9   78780
   78777       8   78783   78777       8   78783   78780       9   78789   78786
       8   78792   78786       8   78792   78789       9   78798   78795       8
   78801   78795       8   78801   78798       9   78807   78804       8   78810
   78804       8   78810   78807       9   78816   78813       8   78819   78813
       8   78819   78816       9   78825   78822       8   78828   78822       8
   78828   78825       9   78834   78831       8   78837   78831       8   78837
   78834       9   78843   78840       8   78846   78840       8   78846   78843
       9   78852   78849       8   78855   78849       8   78855   78852       9
   78861   78858       8   78864   78858       8   78864   78861       9   78870
   78867       8   78873   78867       8   78873   78870       9   78879   78876
       8   78882   78876       8   78882   78879       9   78888   78885       8
   78891   78885       8   78891   78888       9   78897   78894       8   78900
   78894       8   78900   78897       9   78906   78903       8   78909   78903
       8   78909   78906       9   78915   78912       8   78918   78912       8
   78918   78915       9   78924   78921       8   78927   78921       8   78927
   78924       9   78933   78930       8   78936   78930       8   78936   78933
       9   78942   78939       8   78945   78939       8   78945   78942       9
   78951   78948       8   78954   78948       8   78954   78951       9   78960
   78957       8   78963   78957       8   78963   78960       9   78969   78966
       8   78972   78966       8   78972   78969       9   78978   78975       8
   78981   78975       8   78981   78978       9   78987   78984       8   78990
   78984       8   78990   78987       9   78996   78993       8   78999   78993
       8   78999   78996       9   79005   79002       8   79008   79002       8
   79008   79005       9   79014   79011       8   79017   79011       8   79017
   79014       9   79023   79020       8   79026   79020       8   79026   79023
       9   79032   79029       8   79035   79029       8   79035   79032       9
   79041   79038       8   79044   79038       8   79044   79041       9   79050
   79047       8   79053   79047       8   79053   79050       9   79059   79056
       8   79062   79056       8   79062   79059       9   79068   79065       8
   79071   79065       8   79071   79068       9   79077   79074       8   79080
   79074       8   79080   79077       9   79086   79083       8   79089   79083
       8   79089   79086       9   79095   79092       8   79098   79092       8
   79098   79095       9   79104   79101       8   79107   79101       8   79107
   79104       9   79113   79110       8   79116   79110       8   79116   79113
       9   79122   79119       8   79125   79119       8   79125   79122       9
   79131   79128       8   79134   79128       8   79134   79131       9   79140
   79137       8   79143   79137       8   79143   79140       9   79149   79146
       8   79152   79146       8   79152   79149       9   79158   79155       8
   79161   79155       8   79161   79158       9   79167   79164       8   79170
   79164       8   79170   79167       9   79176   79173       8   79179   79173
       8   79179   79176       9   79185   79182       8   79188   79182       8
   79188   79185       9   79194   79191       8   79197   79191       8   79197
   79194       9   79203   79200       8   79206   79200       8   79206   79203
       9   79212   79209       8   79215   79209       8   79215   79212       9
   79221   79218       8   79224   79218       8   79224   79221       9   79230
   79227       8   79233   79227       8   79233   79230       9   79239   79236
       8   79242   79236       8   79242   79239       9   79248   79245       8
   79251   79245       8   79251   79248       9   79257   79254       8   79260
   79254       8   79260   79257       9   79266   79263       8   79269   79263
       8   79269   79266       9   79275   79272       8   79278   79272       8
   79278   79275       9   79284   79281       8   79287   79281       8   79287
   79284       9   79293   79290       8   79296   79290       8   79296   79293
       9   79302   79299       8   79305   79299       8   79305   79302       9
   79311   79308       8   79314   79308       8   79314   79311       9   79320
   79317       8   79323   79317       8   79323   79320       9   79329   79326
       8   79332   79326       8   79332   79329       9   79338   79335       8
   79341   79335       8   79341   79338       9   79347   79344       8   79350
   79344       8   79350   79347       9   79356   79353       8   79359   79353
       8   79359   79356       9   79365   79362       8   79368   79362       8
   79368   79365       9   79374   79371       8   79377   79371       8   79377
   79374       9   79383   79380       8   79386   79380       8   79386   79383
       9   79392   79389       8   79395   79389       8   79395   79392       9
   79401   79398       8   79404   79398       8   79404   79401       9   79410
   79407       8   79413   79407       8   79413   79410       9   79419   79416
       8   79422   79416       8   79422   79419       9   79428   79425       8
   79431   79425       8   79431   79428       9   79437   79434       8   79440
   79434       8   79440   79437       9   79446   79443       8   79449   79443
       8   79449   79446       9   79455   79452       8   79458   79452       8
   79458   79455       9   79464   79461       8   79467   79461       8   79467
   79464       9   79473   79470       8   79476   79470       8   79476   79473
       9   79482   79479       8   79485   79479       8   79485   79482       9
   79491   79488       8   79494   79488       8   79494   79491       9   79500
   79497       8   79503   79497       8   79503   79500       9   79509   79506
       8   79512   79506       8   79512   79509       9   79518   79515       8
   79521   79515       8   79521   79518       9   79527   79524       8   79530
   79524       8   79530   79527       9   79536   79533       8   79539   79533
       8   79539   79536       9   79545   79542       8   79548   79542       8
   79548   79545       9   79554   79551       8   79557   79551       8   79557
   79554       9   79563   79560       8   79566   79560       8   79566   79563
       9   79572   79569       8   79575   79569       8   79575   79572       9
   79581   79578       8   79584   79578       8   79584   79581       9   79590
   79587       8   79593   79587       8   79593   79590       9   79599   79596
       8   79602   79596       8   79602   79599       9   79608   79605       8
   79611   79605       8   79611   79608       9   79617   79614       8   79620
   79614       8   79620   79617       9   79626   79623       8   79629   79623
       8   79629   79626       9   79635   79632       8   79638   79632       8
   79638   79635       9   79644   79641       8   79647   79641       8   79647
   79644       9   79653   79650       8   79656   79650       8   79656   79653
       9   79662   79659       8   79665   79659       8   79665   79662       9
   79671   79668       8   79674   79668       8   79674   79671       9   79680
   79677       8   79683   79677       8   79683   79680       9   79689   79686
       8   79692   79686       8   79692   79689       9   79698   79695       8
   79701   79695       8   79701   79698       9   79707   79704       8   79710
   79704       8   79710   79707       9   79716   79713       8   79719   79713
       8   79719   79716       9   79725   79722       8   79728   79722       8
   79728   79725       9   79734   79731       8   79737   79731       8   79737
   79734       9   79743   79740       8   79746   79740       8   79746   79743
       9   79752   79749       8   79755   79749       8   79755   79752       9
   79761   79758       8   79764   79758       8   79764   79761       9   79770
   79767       8   79773   79767       8   79773   79770       9   79779   79776
       8   79782   79776       8   79782   79779       9   79788   79785       8
   79791   79785       8   79791   79788       9   79797   79794       8   79800
   79794       8   79800   79797       9   79806   79803       8   79809   79803
       8   79809   79806       9   79815   79812       8   79818   79812       8
   79818   79815       9   79824   79821       8   79827   79821       8   79827
   79824       9   79833   79830       8   79836   79830       8   79836   79833
       9   79842   79839       8   79845   79839       8   79845   79842       9
   79851   79848       8   79854   79848       8   79854   79851       9   79860
   79857       8   79863   79857       8   79863   79860       9   79869   79866
       8   79872   79866       8   79872   79869       9   79878   79875       8
   79881   79875       8   79881   79878       9   79887   79884       8   79890
   79884       8   79890   79887       9   79896   79893       8   79899   79893
       8   79899   79896       9   79905   79902       8   79908   79902       8
   79908   79905       9   79914   79911       8   79917   79911       8   79917
   79914       9   79923   79920       8   79926   79920       8   79926   79923
       9   79932   79929       8   79935   79929       8   79935   79932       9
   79941   79938       8   79944   79938       8   79944   79941       9   79950
   79947       8   79953   79947       8   79953   79950       9   79959   79956
       8   79962   79956       8   79962   79959       9   79968   79965       8
   79971   79965       8   79971   79968       9   79977   79974       8   79980
   79974       8   79980   79977       9   79986   79983       8   79989   79983
       8   79989   79986       9   79995   79992       8   79998   79992       8
   79998   79995       9   80004   80001       8   80007   80001       8   80007
   80004       9   80013   80010       8   80016   80010       8   80016   80013
       9   80022   80019       8   80025   80019       8   80025   80022       9
   80031   80028       8   80034   80028       8   80034   80031       9   80040
   80037       8   80043   80037       8   80043   80040       9   80049   80046
       8   80052   80046       8   80052   80049       9   80058   80055       8
   80061   80055       8   80061   80058       9   80067   80064       8   80070
   80064       8   80070   80067       9   80076   80073       8   80079   80073
       8   80079   80076       9   80085   80082       8   80088   80082       8
   80088   80085       9   80094   80091       8   80097   80091       8   80097
   80094       9   80103   80100       8   80106   80100       8   80106   80103
       9   80112   80109       8   80115   80109       8   80115   80112       9
   80121   80118       8   80124   80118       8   80124   80121       9   80130
   80127       8   80133   80127       8   80133   80130       9   80139   80136
       8   80142   80136       8   80142   80139       9   80148   80145       8
   80151   80145       8   80151   80148       9   80157   80154       8   80160
   80154       8   80160   80157       9   80166   80163       8   80169   80163
       8   80169   80166       9   80175   80172       8   80178   80172       8
   80178   80175       9   80184   80181       8   80187   80181       8   80187
   80184       9   80193   80190       8   80196   80190       8   80196   80193
       9   80202   80199       8   80205   80199       8   80205   80202       9
   80211   80208       8   80214   80208       8   80214   80211       9   80220
   80217       8   80223   80217       8   80223   80220       9   80229   80226
       8   80232   80226       8   80232   80229       9   80238   80235       8
   80241   80235       8   80241   80238       9   80247   80244       8   80250
   80244       8   80250   80247       9   80256   80253       8   80259   80253
       8   80259   80256       9   80265   80262       8   80268   80262       8
   80268   80265       9   80274   80271       8   80277   80271       8   80277
   80274       9   80283   80280       8   80286   80280       8   80286   80283
       9   80292   80289       8   80295   80289       8   80295   80292       9
   80301   80298       8   80304   80298       8   80304   80301       9   80310
   80307       8   80313   80307       8   80313   80310       9   80319   80316
       8   80322   80316       8   80322   80319       9   80328   80325       8
   80331   80325       8   80331   80328       9   80337   80334       8   80340
   80334       8   80340   80337       9   80346   80343       8   80349   80343
       8   80349   80346       9   80355   80352       8   80358   80352       8
   80358   80355       9   80364   80361       8   80367   80361       8   80367
   80364       9   80373   80370       8   80376   80370       8   80376   80373
       9   80382   80379       8   80385   80379       8   80385   80382       9
   80391   80388       8   80394   80388       8   80394   80391       9   80400
   80397       8   80403   80397       8   80403   80400       9   80409   80406
       8   80412   80406       8   80412   80409       9   80418   80415       8
   80421   80415       8   80421   80418       9   80427   80424       8   80430
   80424       8   80430   80427       9   80436   80433       8   80439   80433
       8   80439   80436       9   80445   80442       8   80448   80442       8
   80448   80445       9   80454   80451       8   80457   80451       8   80457
   80454       9   80463   80460       8   80466   80460       8   80466   80463
       9   80472   80469       8   80475   80469       8   80475   80472       9
   80481   80478       8   80484   80478       8   80484   80481       9   80490
   80487       8   80493   80487       8   80493   80490       9   80499   80496
       8   80502   80496       8   80502   80499       9   80508   80505       8
   80511   80505       8   80511   80508       9   80517   80514       8   80520
   80514       8   80520   80517       9   80526   80523       8   80529   80523
       8   80529   80526       9   80535   80532       8   80538   80532       8
   80538   80535       9   80544   80541       8   80547   80541       8   80547
   80544       9   80553   80550       8   80556   80550       8   80556   80553
       9   80562   80559       8   80565   80559       8   80565   80562       9
   80571   80568       8   80574   80568       8   80574   80571       9   80580
   80577       8   80583   80577       8   80583   80580       9   80589   80586
       8   80592   80586       8   80592   80589       9   80598   80595       8
   80601   80595       8   80601   80598       9   80607   80604       8   80610
   80604       8   80610   80607       9   80616   80613       8   80619   80613
       8   80619   80616       9   80625   80622       8   80628   80622       8
   80628   80625       9   80634   80631       8   80637   80631       8   80637
   80634       9   80643   80640       8   80646   80640       8   80646   80643
       9   80652   80649       8   80655   80649       8   80655   80652       9
   80661   80658       8   80664   80658       8   80664   80661       9   80670
   80667       8   80673   80667       8   80673   80670       9   80679   80676
       8   80682   80676       8   80682   80679       9   80688   80685       8
   80691   80685       8   80691   80688       9   80697   80694       8   80700
   80694       8   80700   80697       9   80706   80703       8   80709   80703
       8   80709   80706       9   80715   80712       8   80718   80712       8
   80718   80715       9   80724   80721       8   80727   80721       8   80727
   80724       9   80733   80730       8   80736   80730       8   80736   80733
       9   80742   80739       8   80745   80739       8   80745   80742       9
   80751   80748       8   80754   80748       8   80754   80751       9   80760
   80757       8   80763   80757       8   80763   80760       9   80769   80766
       8   80772   80766       8   80772   80769       9   80778   80775       8
   80781   80775       8   80781   80778       9   80787   80784       8   80790
   80784       8   80790   80787       9   80796   80793       8   80799   80793
       8   80799   80796       9   80805   80802       8   80808   80802       8
   80808   80805       9   80814   80811       8   80817   80811       8   80817
   80814       9   80823   80820       8   80826   80820       8   80826   80823
       9   80832   80829       8   80835   80829       8   80835   80832       9
   80841   80838       8   80844   80838       8   80844   80841       9   80850
   80847       8   80853   80847       8   80853   80850       9   80859   80856
       8   80862   80856       8   80862   80859       9   80868   80865       8
   80871   80865       8   80871   80868       9   80877   80874       8   80880
   80874       8   80880   80877       9   80886   80883       8   80889   80883
       8   80889   80886       9   80895   80892       8   80898   80892       8
   80898   80895       9   80904   80901       8   80907   80901       8   80907
   80904       9   80913   80910       8   80916   80910       8   80916   80913
       9   80922   80919       8   80925   80919       8   80925   80922       9
   80931   80928       8   80934   80928       8   80934   80931       9   80940
   80937       8   80943   80937       8   80943   80940       9   80949   80946
       8   80952   80946       8   80952   80949       9   80958   80955       8
   80961   80955       8   80961   80958       9   80967   80964       8   80970
   80964       8   80970   80967       9   80976   80973       8   80979   80973
       8   80979   80976       9   80985   80982       8   80988   80982       8
   80988   80985       9   80994   80991       8   80997   80991       8   80997
   80994       9   81003   81000       8   81006   81000       8   81006   81003
       9   81012   81009       8   81015   81009       8   81015   81012       9
   81021   81018       8   81024   81018       8   81024   81021       9   81030
   81027       8   81033   81027       8   81033   81030       9   81039   81036
       8   81042   81036       8   81042   81039       9   81048   81045       8
   81051   81045       8   81051   81048       9   81057   81054       8   81060
   81054       8   81060   81057       9   81066   81063       8   81069   81063
       8   81069   81066       9   81075   81072       8   81078   81072       8
   81078   81075       9   81084   81081       8   81087   81081       8   81087
   81084       9   81093   81090       8   81096   81090       8   81096   81093
       9   81102   81099       8   81105   81099       8   81105   81102       9
   81111   81108       8   81114   81108       8   81114   81111       9   81120
   81117       8   81123   81117       8   81123   81120       9   81129   81126
       8   81132   81126       8   81132   81129       9   81138   81135       8
   81141   81135       8   81141   81138       9   81147   81144       8   81150
   81144       8   81150   81147       9   81156   81153       8   81159   81153
       8   81159   81156       9   81165   81162       8   81168   81162       8
   81168   81165       9   81174   81171       8   81177   81171       8   81177
   81174       9   81183   81180       8   81186   81180       8   81186   81183
       9   81192   81189       8   81195   81189       8   81195   81192       9
   81201   81198       8   81204   81198       8   81204   81201       9   81210
   81207       8   81213   81207       8   81213   81210       9   81219   81216
       8   81222   81216       8   81222   81219       9   81228   81225       8
   81231   81225       8   81231   81228       9   81237   81234       8   81240
   81234       8   81240   81237       9   81246   81243       8   81249   81243
       8   81249   81246       9   81255   81252       8   81258   81252       8
   81258   81255       9   81264   81261       8   81267   81261       8   81267
   81264       9   81273   81270       8   81276   81270       8   81276   81273
       9   81282   81279       8   81285   81279       8   81285   81282       9
   81291   81288       8   81294   81288       8   81294   81291       9   81300
   81297       8   81303   81297       8   81303   81300       9   81309   81306
       8   81312   81306       8   81312   81309       9   81318   81315       8
   81321   81315       8   81321   81318       9   81327   81324       8   81330
   81324       8   81330   81327       9   81336   81333       8   81339   81333
       8   81339   81336       9   81345   81342       8   81348   81342       8
   81348   81345       9   81354   81351       8   81357   81351       8   81357
   81354       9   81363   81360       8   81366   81360       8   81366   81363
       9   81372   81369       8   81375   81369       8   81375   81372       9
   81381   81378       8   81384   81378       8   81384   81381       9   81390
   81387       8   81393   81387       8   81393   81390       9   81399   81396
       8   81402   81396       8   81402   81399       9   81408   81405       8
   81411   81405       8   81411   81408       9   81417   81414       8   81420
   81414       8   81420   81417       9   81426   81423       8   81429   81423
       8   81429   81426       9   81435   81432       8   81438   81432       8
   81438   81435       9   81444   81441       8   81447   81441       8   81447
   81444       9   81453   81450       8   81456   81450       8   81456   81453
       9   81462   81459       8   81465   81459       8   81465   81462       9
   81471   81468       8   81474   81468       8   81474   81471       9   81480
   81477       8   81483   81477       8   81483   81480       9   81489   81486
       8   81492   81486       8   81492   81489       9   81498   81495       8
   81501   81495       8   81501   81498       9   81507   81504       8   81510
   81504       8   81510   81507       9   81516   81513       8   81519   81513
       8   81519   81516       9   81525   81522       8   81528   81522       8
   81528   81525       9   81534   81531       8   81537   81531       8   81537
   81534       9   81543   81540       8   81546   81540       8   81546   81543
       9   81552   81549       8   81555   81549       8   81555   81552       9
   81561   81558       8   81564   81558       8   81564   81561       9   81570
   81567       8   81573   81567       8   81573   81570       9   81579   81576
       8   81582   81576       8   81582   81579       9   81588   81585       8
   81591   81585       8   81591   81588       9   81597   81594       8   81600
   81594       8   81600   81597       9   81606   81603       8   81609   81603
       8   81609   81606       9   81615   81612       8   81618   81612       8
   81618   81615       9   81624   81621       8   81627   81621       8   81627
   81624       9   81633   81630       8   81636   81630       8   81636   81633
       9   81642   81639       8   81645   81639       8   81645   81642       9
   81651   81648       8   81654   81648       8   81654   81651       9   81660
   81657       8   81663   81657       8   81663   81660       9   81669   81666
       8   81672   81666       8   81672   81669       9   81678   81675       8
   81681   81675       8   81681   81678       9   81687   81684       8   81690
   81684       8   81690   81687       9   81696   81693       8   81699   81693
       8   81699   81696       9   81705   81702       8   81708   81702       8
   81708   81705       9   81714   81711       8   81717   81711       8   81717
   81714       9   81723   81720       8   81726   81720       8   81726   81723
       9   81732   81729       8   81735   81729       8   81735   81732       9
   81741   81738       8   81744   81738       8   81744   81741       9   81750
   81747       8   81753   81747       8   81753   81750       9   81759   81756
       8   81762   81756       8   81762   81759       9   81768   81765       8
   81771   81765       8   81771   81768       9   81777   81774       8   81780
   81774       8   81780   81777       9   81786   81783       8   81789   81783
       8   81789   81786       9   81795   81792       8   81798   81792       8
   81798   81795       9   81804   81801       8   81807   81801       8   81807
   81804       9   81813   81810       8   81816   81810       8   81816   81813
       9   81822   81819       8   81825   81819       8   81825   81822       9
   81831   81828       8   81834   81828       8   81834   81831       9   81840
   81837       8   81843   81837       8   81843   81840       9   81849   81846
       8   81852   81846       8   81852   81849       9   81858   81855       8
   81861   81855       8   81861   81858       9   81867   81864       8   81870
   81864       8   81870   81867       9   81876   81873       8   81879   81873
       8   81879   81876       9   81885   81882       8   81888   81882       8
   81888   81885       9   81894   81891       8   81897   81891       8   81897
   81894       9   81903   81900       8   81906   81900       8   81906   81903
       9   81912   81909       8   81915   81909       8   81915   81912       9
   81921   81918       8   81924   81918       8   81924   81921       9   81930
   81927       8   81933   81927       8   81933   81930       9   81939   81936
       8   81942   81936       8   81942   81939       9   81948   81945       8
   81951   81945       8   81951   81948       9   81957   81954       8   81960
   81954       8   81960   81957       9   81966   81963       8   81969   81963
       8   81969   81966       9   81975   81972       8   81978   81972       8
   81978   81975       9   81984   81981       8   81987   81981       8   81987
   81984       9   81993   81990       8   81996   81990       8   81996   81993
       9   82002   81999       8   82005   81999       8   82005   82002       9
   82011   82008       8   82014   82008       8   82014   82011       9   82020
   82017       8   82023   82017       8   82023   82020       9   82029   82026
       8   82032   82026       8   82032   82029       9   82038   82035       8
   82041   82035       8   82041   82038       9   82047   82044       8   82050
   82044       8   82050   82047       9   82056   82053       8   82059   82053
       8   82059   82056       9   82065   82062       8   82068   82062       8
   82068   82065       9   82074   82071       8   82077   82071       8   82077
   82074       9   82083   82080       8   82086   82080       8   82086   82083
       9   82092   82089       8   82095   82089       8   82095   82092       9
   82101   82098       8   82104   82098       8   82104   82101       9   82110
   82107       8   82113   82107       8   82113   82110       9   82119   82116
       8   82122   82116       8   82122   82119       9   82128   82125       8
   82131   82125       8   82131   82128       9   82137   82134       8   82140
   82134       8   82140   82137       9   82146   82143       8   82149   82143
       8   82149   82146       9   82155   82152       8   82158   82152       8
   82158   82155       9   82164   82161       8   82167   82161       8   82167
   82164       9   82173   82170       8   82176   82170       8   82176   82173
       9   82182   82179       8   82185   82179       8   82185   82182       9
   82191   82188       8   82194   82188       8   82194   82191       9   82200
   82197       8   82203   82197       8   82203   82200       9   82209   82206
       8   82212   82206       8   82212   82209       9   82218   82215       8
   82221   82215       8   82221   82218       9   82227   82224       8   82230
   82224       8   82230   82227       9   82236   82233       8   82239   82233
       8   82239   82236       9   82245   82242       8   82248   82242       8
   82248   82245       9   82254   82251       8   82257   82251       8   82257
   82254       9   82263   82260       8   82266   82260       8   82266   82263
       9   82272   82269       8   82275   82269       8   82275   82272       9
   82281   82278       8   82284   82278       8   82284   82281       9   82290
   82287       8   82293   82287       8   82293   82290       9   82299   82296
       8   82302   82296       8   82302   82299       9   82308   82305       8
   82311   82305       8   82311   82308       9   82317   82314       8   82320
   82314       8   82320   82317       9   82326   82323       8   82329   82323
       8   82329   82326       9   82335   82332       8   82338   82332       8
   82338   82335       9   82344   82341       8   82347   82341       8   82347
   82344       9   82353   82350       8   82356   82350       8   82356   82353
       9   82362   82359       8   82365   82359       8   82365   82362       9
   82371   82368       8   82374   82368       8   82374   82371       9   82380
   82377       8   82383   82377       8   82383   82380       9   82389   82386
       8   82392   82386       8   82392   82389       9   82398   82395       8
   82401   82395       8   82401   82398       9   82407   82404       8   82410
   82404       8   82410   82407       9   82416   82413       8   82419   82413
       8   82419   82416       9   82425   82422       8   82428   82422       8
   82428   82425       9   82434   82431       8   82437   82431       8   82437
   82434       9   82443   82440       8   82446   82440       8   82446   82443
       9   82452   82449       8   82455   82449       8   82455   82452       9
   82461   82458       8   82464   82458       8   82464   82461       9   82470
   82467       8   82473   82467       8   82473   82470       9   82479   82476
       8   82482   82476       8   82482   82479       9   82488   82485       8
   82491   82485       8   82491   82488       9   82497   82494       8   82500
   82494       8   82500   82497       9   82506   82503       8   82509   82503
       8   82509   82506       9   82515   82512       8   82518   82512       8
   82518   82515       9   82524   82521       8   82527   82521       8   82527
   82524       9   82533   82530       8   82536   82530       8   82536   82533
       9   82542   82539       8   82545   82539       8   82545   82542       9
   82551   82548       8   82554   82548       8   82554   82551       9   82560
   82557       8   82563   82557       8   82563   82560       9   82569   82566
       8   82572   82566       8   82572   82569       9   82578   82575       8
   82581   82575       8   82581   82578       9   82587   82584       8   82590
   82584       8   82590   82587       9   82596   82593       8   82599   82593
       8   82599   82596       9   82605   82602       8   82608   82602       8
   82608   82605       9   82614   82611       8   82617   82611       8   82617
   82614       9   82623   82620       8   82626   82620       8   82626   82623
       9   82632   82629       8   82635   82629       8   82635   82632       9
   82641   82638       8   82644   82638       8   82644   82641       9   82650
   82647       8   82653   82647       8   82653   82650       9   82659   82656
       8   82662   82656       8   82662   82659       9   82668   82665       8
   82671   82665       8   82671   82668       9   82677   82674       8   82680
   82674       8   82680   82677       9   82686   82683       8   82689   82683
       8   82689   82686       9   82695   82692       8   82698   82692       8
   82698   82695       9   82704   82701       8   82707   82701       8   82707
   82704       9   82713   82710       8   82716   82710       8   82716   82713
       9   82722   82719       8   82725   82719       8   82725   82722       9
   82731   82728       8   82734   82728       8   82734   82731       9   82740
   82737       8   82743   82737       8   82743   82740       9   82749   82746
       8   82752   82746       8   82752   82749       9   82758   82755       8
   82761   82755       8   82761   82758       9   82767   82764       8   82770
   82764       8   82770   82767       9   82776   82773       8   82779   82773
       8   82779   82776       9   82785   82782       8   82788   82782       8
   82788   82785       9   82794   82791       8   82797   82791       8   82797
   82794       9   82803   82800       8   82806   82800       8   82806   82803
       9   82812   82809       8   82815   82809       8   82815   82812       9
   82821   82818       8   82824   82818       8   82824   82821       9   82830
   82827       8   82833   82827       8   82833   82830       9   82839   82836
       8   82842   82836       8   82842   82839       9   82848   82845       8
   82851   82845       8   82851   82848       9   82857   82854       8   82860
   82854       8   82860   82857       9   82866   82863       8   82869   82863
       8   82869   82866       9   82875   82872       8   82878   82872       8
   82878   82875       9   82884   82881       8   82887   82881       8   82887
   82884       9   82893   82890       8   82896   82890       8   82896   82893
       9   82902   82899       8   82905   82899       8   82905   82902       9
   82911   82908       8   82914   82908       8   82914   82911       9   82920
   82917       8   82923   82917       8   82923   82920       9   82929   82926
       8   82932   82926       8   82932   82929       9   82938   82935       8
   82941   82935       8   82941   82938       9   82947   82944       8   82950
   82944       8   82950   82947       9   82956   82953       8   82959   82953
       8   82959   82956       9   82965   82962       8   82968   82962       8
   82968   82965       9   82974   82971       8   82977   82971       8   82977
   82974       9   82983   82980       8   82986   82980       8   82986   82983
       9   82992   82989       8   82995   82989       8   82995   82992       9
   83001   82998       8   83004   82998       8   83004   83001       9   83010
   83007       8   83013   83007       8   83013   83010       9   83019   83016
       8   83022   83016       8   83022   83019       9   83028   83025       8
   83031   83025       8   83031   83028       9   83037   83034       8   83040
   83034       8   83040   83037       9   83046   83043       8   83049   83043
       8   83049   83046       9   83055   83052       8   83058   83052       8
   83058   83055       9   83064   83061       8   83067   83061       8   83067
   83064       9   83073   83070       8   83076   83070       8   83076   83073
       9   83082   83079       8   83085   83079       8   83085   83082       9
   83091   83088       8   83094   83088       8   83094   83091       9   83100
   83097       8   83103   83097       8   83103   83100       9   83109   83106
       8   83112   83106       8   83112   83109       9   83118   83115       8
   83121   83115       8   83121   83118       9   83127   83124       8   83130
   83124       8   83130   83127       9   83136   83133       8   83139   83133
       8   83139   83136       9   83145   83142       8   83148   83142       8
   83148   83145       9   83154   83151       8   83157   83151       8   83157
   83154       9   83163   83160       8   83166   83160       8   83166   83163
       9   83172   83169       8   83175   83169       8   83175   83172       9
   83181   83178       8   83184   83178       8   83184   83181       9   83190
   83187       8   83193   83187       8   83193   83190       9   83199   83196
       8   83202   83196       8   83202   83199       9   83208   83205       8
   83211   83205       8   83211   83208       9   83217   83214       8   83220
   83214       8   83220   83217       9   83226   83223       8   83229   83223
       8   83229   83226       9   83235   83232       8   83238   83232       8
   83238   83235       9   83244   83241       8   83247   83241       8   83247
   83244       9   83253   83250       8   83256   83250       8   83256   83253
       9   83262   83259       8   83265   83259       8   83265   83262       9
   83271   83268       8   83274   83268       8   83274   83271       9   83280
   83277       8   83283   83277       8   83283   83280       9   83289   83286
       8   83292   83286       8   83292   83289       9   83298   83295       8
   83301   83295       8   83301   83298       9   83307   83304       8   83310
   83304       8   83310   83307       9   83316   83313       8   83319   83313
       8   83319   83316       9   83325   83322       8   83328   83322       8
   83328   83325       9   83334   83331       8   83337   83331       8   83337
   83334       9   83343   83340       8   83346   83340       8   83346   83343
       9   83352   83349       8   83355   83349       8   83355   83352       9
   83361   83358       8   83364   83358       8   83364   83361       9   83370
   83367       8   83373   83367       8   83373   83370       9   83379   83376
       8   83382   83376       8   83382   83379       9   83388   83385       8
   83391   83385       8   83391   83388       9   83397   83394       8   83400
   83394       8   83400   83397       9   83406   83403       8   83409   83403
       8   83409   83406       9   83415   83412       8   83418   83412       8
   83418   83415       9   83424   83421       8   83427   83421       8   83427
   83424       9   83433   83430       8   83436   83430       8   83436   83433
       9   83442   83439       8   83445   83439       8   83445   83442       9
   83451   83448       8   83454   83448       8   83454   83451       9   83460
   83457       8   83463   83457       8   83463   83460       9   83469   83466
       8   83472   83466       8   83472   83469       9   83478   83475       8
   83481   83475       8   83481   83478       9   83487   83484       8   83490
   83484       8   83490   83487       9   83496   83493       8   83499   83493
       8   83499   83496       9   83505   83502       8   83508   83502       8
   83508   83505       9   83514   83511       8   83517   83511       8   83517
   83514       9   83523   83520       8   83526   83520       8   83526   83523
       9   83532   83529       8   83535   83529       8   83535   83532       9
   83541   83538       8   83544   83538       8   83544   83541       9   83550
   83547       8   83553   83547       8   83553   83550       9   83559   83556
       8   83562   83556       8   83562   83559       9   83568   83565       8
   83571   83565       8   83571   83568       9   83577   83574       8   83580
   83574       8   83580   83577       9   83586   83583       8   83589   83583
       8   83589   83586       9   83595   83592       8   83598   83592       8
   83598   83595       9   83604   83601       8   83607   83601       8   83607
   83604       9   83613   83610       8   83616   83610       8   83616   83613
       9   83622   83619       8   83625   83619       8   83625   83622       9
   83631   83628       8   83634   83628       8   83634   83631       9   83640
   83637       8   83643   83637       8   83643   83640       9   83649   83646
       8   83652   83646       8   83652   83649       9   83658   83655       8
   83661   83655       8   83661   83658       9   83667   83664       8   83670
   83664       8   83670   83667       9   83676   83673       8   83679   83673
       8   83679   83676       9   83685   83682       8   83688   83682       8
   83688   83685       9   83694   83691       8   83697   83691       8   83697
   83694       9   83703   83700       8   83706   83700       8   83706   83703
       9   83712   83709       8   83715   83709       8   83715   83712       9
   83721   83718       8   83724   83718       8   83724   83721       9   83730
   83727       8   83733   83727       8   83733   83730       9   83739   83736
       8   83742   83736       8   83742   83739       9   83748   83745       8
   83751   83745       8   83751   83748       9   83757   83754       8   83760
   83754       8   83760   83757       9   83766   83763       8   83769   83763
       8   83769   83766       9   83775   83772       8   83778   83772       8
   83778   83775       9   83784   83781       8   83787   83781       8   83787
   83784       9   83793   83790       8   83796   83790       8   83796   83793
       9   83802   83799       8   83805   83799       8   83805   83802       9
   83811   83808       8   83814   83808       8   83814   83811       9   83820
   83817       8   83823   83817       8   83823   83820       9   83829   83826
       8   83832   83826       8   83832   83829       9   83838   83835       8
   83841   83835       8   83841   83838       9   83847   83844       8   83850
   83844       8   83850   83847       9   83856   83853       8   83859   83853
       8   83859   83856       9   83865   83862       8   83868   83862       8
   83868   83865       9   83874   83871       8   83877   83871       8   83877
   83874       9   83883   83880       8   83886   83880       8   83886   83883
       9   83892   83889       8   83895   83889       8   83895   83892       9
   83901   83898       8   83904   83898       8   83904   83901       9   83910
   83907       8   83913   83907       8   83913   83910       9   83919   83916
       8   83922   83916       8   83922   83919       9   83928   83925       8
   83931   83925       8   83931   83928       9   83937   83934       8   83940
   83934       8   83940   83937       9   83946   83943       8   83949   83943
       8   83949   83946       9   83955   83952       8   83958   83952       8
   83958   83955       9   83964   83961       8   83967   83961       8   83967
   83964       9   83973   83970       8   83976   83970       8   83976   83973
       9   83982   83979       8   83985   83979       8   83985   83982       9
   83991   83988       8   83994   83988       8   83994   83991       9   84000
   83997       8   84003   83997       8   84003   84000       9   84009   84006
       8   84012   84006       8   84012   84009       9   84018   84015       8
   84021   84015       8   84021   84018       9   84027   84024       8   84030
   84024       8   84030   84027       9   84036   84033       8   84039   84033
       8   84039   84036       9   84045   84042       8   84048   84042       8
   84048   84045       9   84054   84051       8   84057   84051       8   84057
   84054       9   84063   84060       8   84066   84060       8   84066   84063
       9   84072   84069       8   84075   84069       8   84075   84072       9
   84081   84078       8   84084   84078       8   84084   84081       9   84090
   84087       8   84093   84087       8   84093   84090       9   84099   84096
       8   84102   84096       8   84102   84099       9   84108   84105       8
   84111   84105       8   84111   84108       9   84117   84114       8   84120
   84114       8   84120   84117       9   84126   84123       8   84129   84123
       8   84129   84126       9   84135   84132       8   84138   84132       8
   84138   84135       9   84144   84141       8   84147   84141       8   84147
   84144       9   84153   84150       8   84156   84150       8   84156   84153
       9   84162   84159       8   84165   84159       8   84165   84162       9
   84171   84168       8   84174   84168       8   84174   84171       9   84180
   84177       8   84183   84177       8   84183   84180       9   84189   84186
       8   84192   84186       8   84192   84189       9   84198   84195       8
   84201   84195       8   84201   84198       9   84207   84204       8   84210
   84204       8   84210   84207       9   84216   84213       8   84219   84213
       8   84219   84216       9   84225   84222       8   84228   84222       8
   84228   84225       9   84234   84231       8   84237   84231       8   84237
   84234       9   84243   84240       8   84246   84240       8   84246   84243
       9   84252   84249       8   84255   84249       8   84255   84252       9
   84261   84258       8   84264   84258       8   84264   84261       9   84270
   84267       8   84273   84267       8   84273   84270       9   84279   84276
       8   84282   84276       8   84282   84279       9   84288   84285       8
   84291   84285       8   84291   84288       9   84297   84294       8   84300
   84294       8   84300   84297       9   84306   84303       8   84309   84303
       8   84309   84306       9   84315   84312       8   84318   84312       8
   84318   84315       9   84324   84321       8   84327   84321       8   84327
   84324       9   84333   84330       8   84336   84330       8   84336   84333
       9   84342   84339       8   84345   84339       8   84345   84342       9
   84351   84348       8   84354   84348       8   84354   84351       9   84360
   84357       8   84363   84357       8   84363   84360       9   84369   84366
       8   84372   84366       8   84372   84369       9   84378   84375       8
   84381   84375       8   84381   84378       9   84387   84384       8   84390
   84384       8   84390   84387       9   84396   84393       8   84399   84393
       8   84399   84396       9   84405   84402       8   84408   84402       8
   84408   84405       9   84414   84411       8   84417   84411       8   84417
   84414       9   84423   84420       8   84426   84420       8   84426   84423
       9   84432   84429       8   84435   84429       8   84435   84432       9
   84441   84438       8   84444   84438       8   84444   84441       9   84450
   84447       8   84453   84447       8   84453   84450       9   84459   84456
       8   84462   84456       8   84462   84459       9   84468   84465       8
   84471   84465       8   84471   84468       9   84477   84474       8   84480
   84474       8   84480   84477       9   84486   84483       8   84489   84483
       8   84489   84486       9   84495   84492       8   84498   84492       8
   84498   84495       9   84504   84501       8   84507   84501       8   84507
   84504       9   84513   84510       8   84516   84510       8   84516   84513
       9   84522   84519       8   84525   84519       8   84525   84522       9
   84531   84528       8   84534   84528       8   84534   84531       9   84540
   84537       8   84543   84537       8   84543   84540       9   84549   84546
       8   84552   84546       8   84552   84549       9   84558   84555       8
   84561   84555       8   84561   84558       9   84567   84564       8   84570
   84564       8   84570   84567       9   84576   84573       8   84579   84573
       8   84579   84576       9   84585   84582       8   84588   84582       8
   84588   84585       9   84594   84591       8   84597   84591       8   84597
   84594       9   84603   84600       8   84606   84600       8   84606   84603
       9   84612   84609       8   84615   84609       8   84615   84612       9
   84621   84618       8   84624   84618       8   84624   84621       9   84630
   84627       8   84633   84627       8   84633   84630       9   84639   84636
       8   84642   84636       8   84642   84639       9   84648   84645       8
   84651   84645       8   84651   84648       9   84657   84654       8   84660
   84654       8   84660   84657       9   84666   84663       8   84669   84663
       8   84669   84666       9   84675   84672       8   84678   84672       8
   84678   84675       9   84684   84681       8   84687   84681       8   84687
   84684       9   84693   84690       8   84696   84690       8   84696   84693
       9   84702   84699       8   84705   84699       8   84705   84702       9
   84711   84708       8   84714   84708       8   84714   84711       9   84720
   84717       8   84723   84717       8   84723   84720       9   84729   84726
       8   84732   84726       8   84732   84729       9   84738   84735       8
   84741   84735       8   84741   84738       9   84747   84744       8   84750
   84744       8   84750   84747       9   84756   84753       8   84759   84753
       8   84759   84756       9   84765   84762       8   84768   84762       8
   84768   84765       9   84774   84771       8   84777   84771       8   84777
   84774       9   84783   84780       8   84786   84780       8   84786   84783
       9   84792   84789       8   84795   84789       8   84795   84792       9
   84801   84798       8   84804   84798       8   84804   84801       9   84810
   84807       8   84813   84807       8   84813   84810       9   84819   84816
       8   84822   84816       8   84822   84819       9   84828   84825       8
   84831   84825       8   84831   84828       9   84837   84834       8   84840
   84834       8   84840   84837       9   84846   84843       8   84849   84843
       8   84849   84846       9   84855   84852       8   84858   84852       8
   84858   84855       9   84864   84861       8   84867   84861       8   84867
   84864       9   84873   84870       8   84876   84870       8   84876   84873
       9   84882   84879       8   84885   84879       8   84885   84882       9
   84891   84888       8   84894   84888       8   84894   84891       9   84900
   84897       8   84903   84897       8   84903   84900       9   84909   84906
       8   84912   84906       8   84912   84909       9   84918   84915       8
   84921   84915       8   84921   84918       9   84927   84924       8   84930
   84924       8   84930   84927       9   84936   84933       8   84939   84933
       8   84939   84936       9   84945   84942       8   84948   84942       8
   84948   84945       9   84954   84951       8   84957   84951       8   84957
   84954       9   84963   84960       8   84966   84960       8   84966   84963
       9   84972   84969       8   84975   84969       8   84975   84972       9
   84981   84978       8   84984   84978       8   84984   84981       9   84990
   84987       8   84993   84987       8   84993   84990       9   84999   84996
       8   85002   84996       8   85002   84999       9   85008   85005       8
   85011   85005       8   85011   85008       9   85017   85014       8   85020
   85014       8   85020   85017       9   85026   85023       8   85029   85023
       8   85029   85026       9   85035   85032       8   85038   85032       8
   85038   85035       9   85044   85041       8   85047   85041       8   85047
   85044       9   85053   85050       8   85056   85050       8   85056   85053
       9   85062   85059       8   85065   85059       8   85065   85062       9
   85071   85068       8   85074   85068       8   85074   85071       9   85080
   85077       8   85083   85077       8   85083   85080       9   85089   85086
       8   85092   85086       8   85092   85089       9   85098   85095       8
   85101   85095       8   85101   85098       9   85107   85104       8   85110
   85104       8   85110   85107       9   85116   85113       8   85119   85113
       8   85119   85116       9   85125   85122       8   85128   85122       8
   85128   85125       9   85134   85131       8   85137   85131       8   85137
   85134       9   85143   85140       8   85146   85140       8   85146   85143
       9   85152   85149       8   85155   85149       8   85155   85152       9
   85161   85158       8   85164   85158       8   85164   85161       9   85170
   85167       8   85173   85167       8   85173   85170       9   85179   85176
       8   85182   85176       8   85182   85179       9   85188   85185       8
   85191   85185       8   85191   85188       9   85197   85194       8   85200
   85194       8   85200   85197       9   85206   85203       8   85209   85203
       8   85209   85206       9   85215   85212       8   85218   85212       8
   85218   85215       9   85224   85221       8   85227   85221       8   85227
   85224       9   85233   85230       8   85236   85230       8   85236   85233
       9   85242   85239       8   85245   85239       8   85245   85242       9
   85251   85248       8   85254   85248       8   85254   85251       9   85260
   85257       8   85263   85257       8   85263   85260       9   85269   85266
       8   85272   85266       8   85272   85269       9   85278   85275       8
   85281   85275       8   85281   85278       9   85287   85284       8   85290
   85284       8   85290   85287       9   85296   85293       8   85299   85293
       8   85299   85296       9   85305   85302       8   85308   85302       8
   85308   85305       9   85314   85311       8   85317   85311       8   85317
   85314       9   85323   85320       8   85326   85320       8   85326   85323
       9   85332   85329       8   85335   85329       8   85335   85332       9
   85341   85338       8   85344   85338       8   85344   85341       9   85350
   85347       8   85353   85347       8   85353   85350       9   85359   85356
       8   85362   85356       8   85362   85359       9   85368   85365       8
   85371   85365       8   85371   85368       9   85377   85374       8   85380
   85374       8   85380   85377       9   85386   85383       8   85389   85383
       8   85389   85386       9   85395   85392       8   85398   85392       8
   85398   85395       9   85404   85401       8   85407   85401       8   85407
   85404       9   85413   85410       8   85416   85410       8   85416   85413
       9   85422   85419       8   85425   85419       8   85425   85422       9
   85431   85428       8   85434   85428       8   85434   85431       9   85440
   85437       8   85443   85437       8   85443   85440       9   85449   85446
       8   85452   85446       8   85452   85449       9   85458   85455       8
   85461   85455       8   85461   85458       9   85467   85464       8   85470
   85464       8   85470   85467       9   85476   85473       8   85479   85473
       8   85479   85476       9   85485   85482       8   85488   85482       8
   85488   85485       9   85494   85491       8   85497   85491       8   85497
   85494       9   85503   85500       8   85506   85500       8   85506   85503
       9   85512   85509       8   85515   85509       8   85515   85512       9
   85521   85518       8   85524   85518       8   85524   85521       9   85530
   85527       8   85533   85527       8   85533   85530       9   85539   85536
       8   85542   85536       8   85542   85539       9   85548   85545       8
   85551   85545       8   85551   85548       9   85557   85554       8   85560
   85554       8   85560   85557       9   85566   85563       8   85569   85563
       8   85569   85566       9   85575   85572       8   85578   85572       8
   85578   85575       9   85584   85581       8   85587   85581       8   85587
   85584       9   85593   85590       8   85596   85590       8   85596   85593
       9   85602   85599       8   85605   85599       8   85605   85602       9
   85611   85608       8   85614   85608       8   85614   85611       9   85620
   85617       8   85623   85617       8   85623   85620       9   85629   85626
       8   85632   85626       8   85632   85629       9   85638   85635       8
   85641   85635       8   85641   85638       9   85647   85644       8   85650
   85644       8   85650   85647       9   85656   85653       8   85659   85653
       8   85659   85656       9   85665   85662       8   85668   85662       8
   85668   85665       9   85674   85671       8   85677   85671       8   85677
   85674       9   85683   85680       8   85686   85680       8   85686   85683
       9   85692   85689       8   85695   85689       8   85695   85692       9
   85701   85698       8   85704   85698       8   85704   85701       9   85710
   85707       8   85713   85707       8   85713   85710       9   85719   85716
       8   85722   85716       8   85722   85719       9   85728   85725       8
   85731   85725       8   85731   85728       9   85737   85734       8   85740
   85734       8   85740   85737       9   85746   85743       8   85749   85743
       8   85749   85746       9   85755   85752       8   85758   85752       8
   85758   85755       9   85764   85761       8   85767   85761       8   85767
   85764       9   85773   85770       8   85776   85770       8   85776   85773
       9   85782   85779       8   85785   85779       8   85785   85782       9
   85791   85788       8   85794   85788       8   85794   85791       9   85800
   85797       8   85803   85797       8   85803   85800       9   85809   85806
       8   85812   85806       8   85812   85809       9   85818   85815       8
   85821   85815       8   85821   85818       9   85827   85824       8   85830
   85824       8   85830   85827       9   85836   85833       8   85839   85833
       8   85839   85836       9   85845   85842       8   85848   85842       8
   85848   85845       9   85854   85851       8   85857   85851       8   85857
   85854       9   85863   85860       8   85866   85860       8   85866   85863
       9   85872   85869       8   85875   85869       8   85875   85872       9
   85881   85878       8   85884   85878       8   85884   85881       9   85890
   85887       8   85893   85887       8   85893   85890       9   85899   85896
       8   85902   85896       8   85902   85899       9   85908   85905       8
   85911   85905       8   85911   85908       9   85917   85914       8   85920
   85914       8   85920   85917       9   85926   85923       8   85929   85923
       8   85929   85926       9   85935   85932       8   85938   85932       8
   85938   85935       9   85944   85941       8   85947   85941       8   85947
   85944       9   85953   85950       8   85956   85950       8   85956   85953
       9   85962   85959       8   85965   85959       8   85965   85962       9
   85971   85968       8   85974   85968       8   85974   85971       9   85980
   85977       8   85983   85977       8   85983   85980       9   85989   85986
       8   85992   85986       8   85992   85989       9   85998   85995       8
   86001   85995       8   86001   85998       9   86007   86004       8   86010
   86004       8   86010   86007       9   86016   86013       8   86019   86013
       8   86019   86016       9   86025   86022       8   86028   86022       8
   86028   86025       9   86034   86031       8   86037   86031       8   86037
   86034       9   86043   86040       8   86046   86040       8   86046   86043
       9   86052   86049       8   86055   86049       8   86055   86052       9
   86061   86058       8   86064   86058       8   86064   86061       9   86070
   86067       8   86073   86067       8   86073   86070       9   86079   86076
       8   86082   86076       8   86082   86079       9   86088   86085       8
   86091   86085       8   86091   86088       9   86097   86094       8   86100
   86094       8   86100   86097       9   86106   86103       8   86109   86103
       8   86109   86106       9   86115   86112       8   86118   86112       8
   86118   86115       9   86124   86121       8   86127   86121       8   86127
   86124       9   86133   86130       8   86136   86130       8   86136   86133
       9   86142   86139       8   86145   86139       8   86145   86142       9
   86151   86148       8   86154   86148       8   86154   86151       9   86160
   86157       8   86163   86157       8   86163   86160       9   86169   86166
       8   86172   86166       8   86172   86169       9   86178   86175       8
   86181   86175       8   86181   86178       9   86187   86184       8   86190
   86184       8   86190   86187       9   86196   86193       8   86199   86193
       8   86199   86196       9   86205   86202       8   86208   86202       8
   86208   86205       9   86214   86211       8   86217   86211       8   86217
   86214       9   86223   86220       8   86226   86220       8   86226   86223
       9   86232   86229       8   86235   86229       8   86235   86232       9
   86241   86238       8   86244   86238       8   86244   86241       9   86250
   86247       8   86253   86247       8   86253   86250       9   86259   86256
       8   86262   86256       8   86262   86259       9   86268   86265       8
   86271   86265       8   86271   86268       9   86277   86274       8   86280
   86274       8   86280   86277       9   86286   86283       8   86289   86283
       8   86289   86286       9   86295   86292       8   86298   86292       8
   86298   86295       9   86304   86301       8   86307   86301       8   86307
   86304       9   86313   86310       8   86316   86310       8   86316   86313
       9   86322   86319       8   86325   86319       8   86325   86322       9
   86331   86328       8   86334   86328       8   86334   86331       9   86340
   86337       8   86343   86337       8   86343   86340       9   86349   86346
       8   86352   86346       8   86352   86349       9   86358   86355       8
   86361   86355       8   86361   86358       9   86367   86364       8   86370
   86364       8   86370   86367       9   86376   86373       8   86379   86373
       8   86379   86376       9   86385   86382       8   86388   86382       8
   86388   86385       9   86394   86391       8   86397   86391       8   86397
   86394       9   86403   86400       8   86406   86400       8   86406   86403
       9   86412   86409       8   86415   86409       8   86415   86412       9
   86421   86418       8   86424   86418       8   86424   86421       9   86430
   86427       8   86433   86427       8   86433   86430       9   86439   86436
       8   86442   86436       8   86442   86439       9   86448   86445       8
   86451   86445       8   86451   86448       9   86457   86454       8   86460
   86454       8   86460   86457       9   86466   86463       8   86469   86463
       8   86469   86466       9   86475   86472       8   86478   86472       8
   86478   86475       9   86484   86481       8   86487   86481       8   86487
   86484       9   86493   86490       8   86496   86490       8   86496   86493
       9   86502   86499       8   86505   86499       8   86505   86502       9
   86511   86508       8   86514   86508       8   86514   86511       9   86520
   86517       8   86523   86517       8   86523   86520       9   86529   86526
       8   86532   86526       8   86532   86529       9   86538   86535       8
   86541   86535       8   86541   86538       9   86547   86544       8   86550
   86544       8   86550   86547       9   86556   86553       8   86559   86553
       8   86559   86556       9   86565   86562       8   86568   86562       8
   86568   86565       9   86574   86571       8   86577   86571       8   86577
   86574       9   86583   86580       8   86586   86580       8   86586   86583
       9   86592   86589       8   86595   86589       8   86595   86592       9
   86601   86598       8   86604   86598       8   86604   86601       9   86610
   86607       8   86613   86607       8   86613   86610       9   86619   86616
       8   86622   86616       8   86622   86619       9   86628   86625       8
   86631   86625       8   86631   86628       9   86637   86634       8   86640
   86634       8   86640   86637       9   86646   86643       8   86649   86643
       8   86649   86646       9   86655   86652       8   86658   86652       8
   86658   86655       9   86664   86661       8   86667   86661       8   86667
   86664       9   86673   86670       8   86676   86670       8   86676   86673
       9   86682   86679       8   86685   86679       8   86685   86682       9
   86691   86688       8   86694   86688       8   86694   86691       9   86700
   86697       8   86703   86697       8   86703   86700       9   86709   86706
       8   86712   86706       8   86712   86709       9   86718   86715       8
   86721   86715       8   86721   86718       9   86727   86724       8   86730
   86724       8   86730   86727       9   86736   86733       8   86739   86733
       8   86739   86736       9   86745   86742       8   86748   86742       8
   86748   86745       9   86754   86751       8   86757   86751       8   86757
   86754       9   86763   86760       8   86766   86760       8   86766   86763
       9   86772   86769       8   86775   86769       8   86775   86772       9
   86781   86778       8   86784   86778       8   86784   86781       9   86790
   86787       8   86793   86787       8   86793   86790       9   86799   86796
       8   86802   86796       8   86802   86799       9   86808   86805       8
   86811   86805       8   86811   86808       9   86817   86814       8   86820
   86814       8   86820   86817       9   86826   86823       8   86829   86823
       8   86829   86826       9   86835   86832       8   86838   86832       8
   86838   86835       9   86844   86841       8   86847   86841       8   86847
   86844       9   86853   86850       8   86856   86850       8   86856   86853
       9   86862   86859       8   86865   86859       8   86865   86862       9
   86871   86868       8   86874   86868       8   86874   86871       9   86880
   86877       8   86883   86877       8   86883   86880       9   86889   86886
       8   86892   86886       8   86892   86889       9   86898   86895       8
   86901   86895       8   86901   86898       9   86907   86904       8   86910
   86904       8   86910   86907       9   86916   86913       8   86919   86913
       8   86919   86916       9   86925   86922       8   86928   86922       8
   86928   86925       9   86934   86931       8   86937   86931       8   86937
   86934       9   86943   86940       8   86946   86940       8   86946   86943
       9   86952   86949       8   86955   86949       8   86955   86952       9
   86961   86958       8   86964   86958       8   86964   86961       9   86970
   86967       8   86973   86967       8   86973   86970       9   86979   86976
       8   86982   86976       8   86982   86979       9   86988   86985       8
   86991   86985       8   86991   86988       9   86997   86994       8   87000
   86994       8   87000   86997       9   87006   87003       8   87009   87003
       8   87009   87006       9   87015   87012       8   87018   87012       8
   87018   87015       9   87024   87021       8   87027   87021       8   87027
   87024       9   87033   87030       8   87036   87030       8   87036   87033
       9   87042   87039       8   87045   87039       8   87045   87042       9
   87051   87048       8   87054   87048       8   87054   87051       9   87060
   87057       8   87063   87057       8   87063   87060       9   87069   87066
       8   87072   87066       8   87072   87069       9   87078   87075       8
   87081   87075       8   87081   87078       9   87087   87084       8   87090
   87084       8   87090   87087       9   87096   87093       8   87099   87093
       8   87099   87096       9   87105   87102       8   87108   87102       8
   87108   87105       9   87114   87111       8   87117   87111       8   87117
   87114       9   87123   87120       8   87126   87120       8   87126   87123
       9   87132   87129       8   87135   87129       8   87135   87132       9
   87141   87138       8   87144   87138       8   87144   87141       9   87150
   87147       8   87153   87147       8   87153   87150       9   87159   87156
       8   87162   87156       8   87162   87159       9   87168   87165       8
   87171   87165       8   87171   87168       9   87177   87174       8   87180
   87174       8   87180   87177       9   87186   87183       8   87189   87183
       8   87189   87186       9   87195   87192       8   87198   87192       8
   87198   87195       9   87204   87201       8   87207   87201       8   87207
   87204       9   87213   87210       8   87216   87210       8   87216   87213
       9   87222   87219       8   87225   87219       8   87225   87222       9
   87231   87228       8   87234   87228       8   87234   87231       9   87240
   87237       8   87243   87237       8   87243   87240       9   87249   87246
       8   87252   87246       8   87252   87249       9   87258   87255       8
   87261   87255       8   87261   87258       9   87267   87264       8   87270
   87264       8   87270   87267       9   87276   87273       8   87279   87273
       8   87279   87276       9   87285   87282       8   87288   87282       8
   87288   87285       9   87294   87291       8   87297   87291       8   87297
   87294       9   87303   87300       8   87306   87300       8   87306   87303
       9   87312   87309       8   87315   87309       8   87315   87312       9
   87321   87318       8   87324   87318       8   87324   87321       9   87330
   87327       8   87333   87327       8   87333   87330       9   87339   87336
       8   87342   87336       8   87342   87339       9   87348   87345       8
   87351   87345       8   87351   87348       9   87357   87354       8   87360
   87354       8   87360   87357       9   87366   87363       8   87369   87363
       8   87369   87366       9   87375   87372       8   87378   87372       8
   87378   87375       9   87384   87381       8   87387   87381       8   87387
   87384       9   87393   87390       8   87396   87390       8   87396   87393
       9   87402   87399       8   87405   87399       8   87405   87402       9
   87411   87408       8   87414   87408       8   87414   87411       9   87420
   87417       8   87423   87417       8   87423   87420       9   87429   87426
       8   87432   87426       8   87432   87429       9   87438   87435       8
   87441   87435       8   87441   87438       9   87447   87444       8   87450
   87444       8   87450   87447       9   87456   87453       8   87459   87453
       8   87459   87456       9   87465   87462       8   87468   87462       8
   87468   87465       9   87474   87471       8   87477   87471       8   87477
   87474       9   87483   87480       8   87486   87480       8   87486   87483
       9   87492   87489       8   87495   87489       8   87495   87492       9
   87501   87498       8   87504   87498       8   87504   87501       9   87510
   87507       8   87513   87507       8   87513   87510       9   87519   87516
       8   87522   87516       8   87522   87519       9   87528   87525       8
   87531   87525       8   87531   87528       9   87537   87534       8   87540
   87534       8   87540   87537       9   87546   87543       8   87549   87543
       8   87549   87546       9   87555   87552       8   87558   87552       8
   87558   87555       9   87564   87561       8   87567   87561       8   87567
   87564       9   87573   87570       8   87576   87570       8   87576   87573
       9   87582   87579       8   87585   87579       8   87585   87582       9
   87591   87588       8   87594   87588       8   87594   87591       9   87600
   87597       8   87603   87597       8   87603   87600       9   87609   87606
       8   87612   87606       8   87612   87609       9   87618   87615       8
   87621   87615       8   87621   87618       9   87627   87624       8   87630
   87624       8   87630   87627       9   87636   87633       8   87639   87633
       8   87639   87636       9   87645   87642       8   87648   87642       8
   87648   87645       9   87654   87651       8   87657   87651       8   87657
   87654       9   87663   87660       8   87666   87660       8   87666   87663
       9   87672   87669       8   87675   87669       8   87675   87672       9
   87681   87678       8   87684   87678       8   87684   87681       9   87690
   87687       8   87693   87687       8   87693   87690       9   87699   87696
       8   87702   87696       8   87702   87699       9   87708   87705       8
   87711   87705       8   87711   87708       9   87717   87714       8   87720
   87714       8   87720   87717       9   87726   87723       8   87729   87723
       8   87729   87726       9   87735   87732       8   87738   87732       8
   87738   87735       9   87744   87741       8   87747   87741       8   87747
   87744       9   87753   87750       8   87756   87750       8   87756   87753
       9   87762   87759       8   87765   87759       8   87765   87762       9
   87771   87768       8   87774   87768       8   87774   87771       9   87780
   87777       8   87783   87777       8   87783   87780       9   87789   87786
       8   87792   87786       8   87792   87789       9   87798   87795       8
   87801   87795       8   87801   87798       9   87807   87804       8   87810
   87804       8   87810   87807       9   87816   87813       8   87819   87813
       8   87819   87816       9   87825   87822       8   87828   87822       8
   87828   87825       9   87834   87831       8   87837   87831       8   87837
   87834       9   87843   87840       8   87846   87840       8   87846   87843
       9   87852   87849       8   87855   87849       8   87855   87852       9
   87861   87858       8   87864   87858       8   87864   87861       9   87870
   87867       8   87873   87867       8   87873   87870       9   87879   87876
       8   87882   87876       8   87882   87879       9   87888   87885       8
   87891   87885       8   87891   87888       9   87897   87894       8   87900
   87894       8   87900   87897       9   87906   87903       8   87909   87903
       8   87909   87906       9   87915   87912       8   87918   87912       8
   87918   87915       9   87924   87921       8   87927   87921       8   87927
   87924       9   87933   87930       8   87936   87930       8   87936   87933
       9   87942   87939       8   87945   87939       8   87945   87942       9
   87951   87948       8   87954   87948       8   87954   87951       9   87960
   87957       8   87963   87957       8   87963   87960       9   87969   87966
       8   87972   87966       8   87972   87969       9   87978   87975       8
   87981   87975       8   87981   87978       9   87987   87984       8   87990
   87984       8   87990   87987       9   87996   87993       8   87999   87993
       8   87999   87996       9   88005   88002       8   88008   88002       8
   88008   88005       9   88014   88011       8   88017   88011       8   88017
   88014       9   88023   88020       8   88026   88020       8   88026   88023
       9   88032   88029       8   88035   88029       8   88035   88032       9
   88041   88038       8   88044   88038       8   88044   88041       9   88050
   88047       8   88053   88047       8   88053   88050       9   88059   88056
       8   88062   88056       8   88062   88059       9   88068   88065       8
   88071   88065       8   88071   88068       9   88077   88074       8   88080
   88074       8   88080   88077       9   88086   88083       8   88089   88083
       8   88089   88086       9   88095   88092       8   88098   88092       8
   88098   88095       9   88104   88101       8   88107   88101       8   88107
   88104       9   88113   88110       8   88116   88110       8   88116   88113
       9   88122   88119       8   88125   88119       8   88125   88122       9
   88131   88128       8   88134   88128       8   88134   88131       9   88140
   88137       8   88143   88137       8   88143   88140       9   88149   88146
       8   88152   88146       8   88152   88149       9   88158   88155       8
   88161   88155       8   88161   88158       9   88167   88164       8   88170
   88164       8   88170   88167       9   88176   88173       8   88179   88173
       8   88179   88176       9   88185   88182       8   88188   88182       8
   88188   88185       9   88194   88191       8   88197   88191       8   88197
   88194       9   88203   88200       8   88206   88200       8   88206   88203
       9   88212   88209       8   88215   88209       8   88215   88212       9
   88221   88218       8   88224   88218       8   88224   88221       9   88230
   88227       8   88233   88227       8   88233   88230       9   88239   88236
       8   88242   88236       8   88242   88239       9   88248   88245       8
   88251   88245       8   88251   88248       9   88257   88254       8   88260
   88254       8   88260   88257       9   88266   88263       8   88269   88263
       8   88269   88266       9   88275   88272       8   88278   88272       8
   88278   88275       9   88284   88281       8   88287   88281       8   88287
   88284       9   88293   88290       8   88296   88290       8   88296   88293
       9   88302   88299       8   88305   88299       8   88305   88302       9
   88311   88308       8   88314   88308       8   88314   88311       9   88320
   88317       8   88323   88317       8   88323   88320       9   88329   88326
       8   88332   88326       8   88332   88329       9   88338   88335       8
   88341   88335       8   88341   88338       9   88347   88344       8   88350
   88344       8   88350   88347       9   88356   88353       8   88359   88353
       8   88359   88356       9   88365   88362       8   88368   88362       8
   88368   88365       9   88374   88371       8   88377   88371       8   88377
   88374       9   88383   88380       8   88386   88380       8   88386   88383
       9   88392   88389       8   88395   88389       8   88395   88392       9
   88401   88398       8   88404   88398       8   88404   88401       9   88410
   88407       8   88413   88407       8   88413   88410       9   88419   88416
       8   88422   88416       8   88422   88419       9   88428   88425       8
   88431   88425       8   88431   88428       9   88437   88434       8   88440
   88434       8   88440   88437       9   88446   88443       8   88449   88443
       8   88449   88446       9   88455   88452       8   88458   88452       8
   88458   88455       9   88464   88461       8   88467   88461       8   88467
   88464       9   88473   88470       8   88476   88470       8   88476   88473
       9   88482   88479       8   88485   88479       8   88485   88482       9
   88491   88488       8   88494   88488       8   88494   88491       9   88500
   88497       8   88503   88497       8   88503   88500       9   88509   88506
       8   88512   88506       8   88512   88509       9   88518   88515       8
   88521   88515       8   88521   88518       9   88527   88524       8   88530
   88524       8   88530   88527       9   88536   88533       8   88539   88533
       8   88539   88536       9   88545   88542       8   88548   88542       8
   88548   88545       9   88554   88551       8   88557   88551       8   88557
   88554       9   88563   88560       8   88566   88560       8   88566   88563
       9   88572   88569       8   88575   88569       8   88575   88572       9
   88581   88578       8   88584   88578       8   88584   88581       9   88590
   88587       8   88593   88587       8   88593   88590       9   88599   88596
       8   88602   88596       8   88602   88599       9   88608   88605       8
   88611   88605       8   88611   88608       9   88617   88614       8   88620
   88614       8   88620   88617       9   88626   88623       8   88629   88623
       8   88629   88626       9   88635   88632       8   88638   88632       8
   88638   88635       9   88644   88641       8   88647   88641       8   88647
   88644       9   88653   88650       8   88656   88650       8   88656   88653
       9   88662   88659       8   88665   88659       8   88665   88662       9
   88671   88668       8   88674   88668       8   88674   88671       9   88680
   88677       8   88683   88677       8   88683   88680       9   88689   88686
       8   88692   88686       8   88692   88689       9   88698   88695       8
   88701   88695       8   88701   88698       9   88707   88704       8   88710
   88704       8   88710   88707       9   88716   88713       8   88719   88713
       8   88719   88716       9   88725   88722       8   88728   88722       8
   88728   88725       9   88734   88731       8   88737   88731       8   88737
   88734       9   88743   88740       8   88746   88740       8   88746   88743
       9   88752   88749       8   88755   88749       8   88755   88752       9
   88761   88758       8   88764   88758       8   88764   88761       9   88770
   88767       8   88773   88767       8   88773   88770       9   88779   88776
       8   88782   88776       8   88782   88779       9   88788   88785       8
   88791   88785       8   88791   88788       9   88797   88794       8   88800
   88794       8   88800   88797       9   88806   88803       8   88809   88803
       8   88809   88806       9   88815   88812       8   88818   88812       8
   88818   88815       9   88824   88821       8   88827   88821       8   88827
   88824       9   88833   88830       8   88836   88830       8   88836   88833
       9   88842   88839       8   88845   88839       8   88845   88842       9
   88851   88848       8   88854   88848       8   88854   88851       9   88860
   88857       8   88863   88857       8   88863   88860       9   88869   88866
       8   88872   88866       8   88872   88869       9   88878   88875       8
   88881   88875       8   88881   88878       9   88887   88884       8   88890
   88884       8   88890   88887       9   88896   88893       8   88899   88893
       8   88899   88896       9   88905   88902       8   88908   88902       8
   88908   88905       9   88914   88911       8   88917   88911       8   88917
   88914       9   88923   88920       8   88926   88920       8   88926   88923
       9   88932   88929       8   88935   88929       8   88935   88932       9
   88941   88938       8   88944   88938       8   88944   88941       9   88950
   88947       8   88953   88947       8   88953   88950       9   88959   88956
       8   88962   88956       8   88962   88959       9   88968   88965       8
   88971   88965       8   88971   88968       9   88977   88974       8   88980
   88974       8   88980   88977       9   88986   88983       8   88989   88983
       8   88989   88986       9   88995   88992       8   88998   88992       8
   88998   88995       9   89004   89001       8   89007   89001       8   89007
   89004       9   89013   89010       8   89016   89010       8   89016   89013
       9   89022   89019       8   89025   89019       8   89025   89022       9
   89031   89028       8   89034   89028       8   89034   89031       9   89040
   89037       8   89043   89037       8   89043   89040       9   89049   89046
       8   89052   89046       8   89052   89049       9   89058   89055       8
   89061   89055       8   89061   89058       9   89067   89064       8   89070
   89064       8   89070   89067       9   89076   89073       8   89079   89073
       8   89079   89076       9   89085   89082       8   89088   89082       8
   89088   89085       9   89094   89091       8   89097   89091       8   89097
   89094       9   89103   89100       8   89106   89100       8   89106   89103
       9   89112   89109       8   89115   89109       8   89115   89112       9
   89121   89118       8   89124   89118       8   89124   89121       9   89130
   89127       8   89133   89127       8   89133   89130       9   89139   89136
       8   89142   89136       8   89142   89139       9   89148   89145       8
   89151   89145       8   89151   89148       9   89157   89154       8   89160
   89154       8   89160   89157       9   89166   89163       8   89169   89163
       8   89169   89166       9   89175   89172       8   89178   89172       8
   89178   89175       9   89184   89181       8   89187   89181       8   89187
   89184       9   89193   89190       8   89196   89190       8   89196   89193
       9   89202   89199       8   89205   89199       8   89205   89202       9
   89211   89208       8   89214   89208       8   89214   89211       9   89220
   89217       8   89223   89217       8   89223   89220       9   89229   89226
       8   89232   89226       8   89232   89229       9   89238   89235       8
   89241   89235       8   89241   89238       9   89247   89244       8   89250
   89244       8   89250   89247       9   89256   89253       8   89259   89253
       8   89259   89256       9   89265   89262       8   89268   89262       8
   89268   89265       9   89274   89271       8   89277   89271       8   89277
   89274       9   89283   89280       8   89286   89280       8   89286   89283
       9   89292   89289       8   89295   89289       8   89295   89292       9
   89301   89298       8   89304   89298       8   89304   89301       9   89310
   89307       8   89313   89307       8   89313   89310       9   89319   89316
       8   89322   89316       8   89322   89319       9   89328   89325       8
   89331   89325       8   89331   89328       9   89337   89334       8   89340
   89334       8   89340   89337       9   89346   89343       8   89349   89343
       8   89349   89346       9   89355   89352       8   89358   89352       8
   89358   89355       9   89364   89361       8   89367   89361       8   89367
   89364       9   89373   89370       8   89376   89370       8   89376   89373
       9   89382   89379       8   89385   89379       8   89385   89382       9
   89391   89388       8   89394   89388       8   89394   89391       9   89400
   89397       8   89403   89397       8   89403   89400       9   89409   89406
       8   89412   89406       8   89412   89409       9   89418   89415       8
   89421   89415       8   89421   89418       9   89427   89424       8   89430
   89424       8   89430   89427       9   89436   89433       8   89439   89433
       8   89439   89436       9   89445   89442       8   89448   89442       8
   89448   89445       9   89454   89451       8   89457   89451       8   89457
   89454       9   89463   89460       8   89466   89460       8   89466   89463
       9   89472   89469       8   89475   89469       8   89475   89472       9
   89481   89478       8   89484   89478       8   89484   89481       9   89490
   89487       8   89493   89487       8   89493   89490       9   89499   89496
       8   89502   89496       8   89502   89499       9   89508   89505       8
   89511   89505       8   89511   89508       9   89517   89514       8   89520
   89514       8   89520   89517       9   89526   89523       8   89529   89523
       8   89529   89526       9   89535   89532       8   89538   89532       8
   89538   89535       9   89544   89541       8   89547   89541       8   89547
   89544       9   89553   89550       8   89556   89550       8   89556   89553
       9   89562   89559       8   89565   89559       8   89565   89562       9
   89571   89568       8   89574   89568       8   89574   89571       9   89580
   89577       8   89583   89577       8   89583   89580       9   89589   89586
       8   89592   89586       8   89592   89589       9   89598   89595       8
   89601   89595       8   89601   89598       9   89607   89604       8   89610
   89604       8   89610   89607       9   89616   89613       8   89619   89613
       8   89619   89616       9   89625   89622       8   89628   89622       8
   89628   89625       9   89634   89631       8   89637   89631       8   89637
   89634       9   89643   89640       8   89646   89640       8   89646   89643
       9   89652   89649       8   89655   89649       8   89655   89652       9
   89661   89658       8   89664   89658       8   89664   89661       9   89670
   89667       8   89673   89667       8   89673   89670       9   89679   89676
       8   89682   89676       8   89682   89679       9   89688   89685       8
   89691   89685       8   89691   89688       9   89697   89694       8   89700
   89694       8   89700   89697       9   89706   89703       8   89709   89703
       8   89709   89706       9   89715   89712       8   89718   89712       8
   89718   89715       9   89724   89721       8   89727   89721       8   89727
   89724       9   89733   89730       8   89736   89730       8   89736   89733
       9   89742   89739       8   89745   89739       8   89745   89742       9
   89751   89748       8   89754   89748       8   89754   89751       9   89760
   89757       8   89763   89757       8   89763   89760       9   89769   89766
       8   89772   89766       8   89772   89769       9   89778   89775       8
   89781   89775       8   89781   89778       9   89787   89784       8   89790
   89784       8   89790   89787       9   89796   89793       8   89799   89793
       8   89799   89796       9   89805   89802       8   89808   89802       8
   89808   89805       9   89814   89811       8   89817   89811       8   89817
   89814       9   89823   89820       8   89826   89820       8   89826   89823
       9   89832   89829       8   89835   89829       8   89835   89832       9
   89841   89838       8   89844   89838       8   89844   89841       9   89850
   89847       8   89853   89847       8   89853   89850       9   89859   89856
       8   89862   89856       8   89862   89859       9   89868   89865       8
   89871   89865       8   89871   89868       9   89877   89874       8   89880
   89874       8   89880   89877       9   89886   89883       8   89889   89883
       8   89889   89886       9   89895   89892       8   89898   89892       8
   89898   89895       9   89904   89901       8   89907   89901       8   89907
   89904       9   89913   89910       8   89916   89910       8   89916   89913
       9   89922   89919       8   89925   89919       8   89925   89922       9
   89931   89928       8   89934   89928       8   89934   89931       9   89940
   89937       8   89943   89937       8   89943   89940       9   89949   89946
       8   89952   89946       8   89952   89949       9   89958   89955       8
   89961   89955       8   89961   89958       9   89967   89964       8   89970
   89964       8   89970   89967       9   89976   89973       8   89979   89973
       8   89979   89976       9   89985   89982       8   89988   89982       8
   89988   89985       9   89994   89991       8   89997   89991       8   89997
   89994       9   90003   90000       8   90006   90000       8   90006   90003
       9   90012   90009       8   90015   90009       8   90015   90012       9
   90021   90018       8   90024   90018       8   90024   90021       9   90030
   90027       8   90033   90027       8   90033   90030       9   90039   90036
       8   90042   90036       8   90042   90039       9   90048   90045       8
   90051   90045       8   90051   90048       9   90057   90054       8   90060
   90054       8   90060   90057       9   90066   90063       8   90069   90063
       8   90069   90066       9   90075   90072       8   90078   90072       8
   90078   90075       9   90084   90081       8   90087   90081       8   90087
   90084       9   90093   90090       8   90096   90090       8   90096   90093
       9   90102   90099       8   90105   90099       8   90105   90102       9
   90111   90108       8   90114   90108       8   90114   90111       9   90120
   90117       8   90123   90117       8   90123   90120       9   90129   90126
       8   90132   90126       8   90132   90129       9   90138   90135       8
   90141   90135       8   90141   90138       9   90147   90144       8   90150
   90144       8   90150   90147       9   90156   90153       8   90159   90153
       8   90159   90156       9   90165   90162       8   90168   90162       8
   90168   90165       9   90174   90171       8   90177   90171       8   90177
   90174       9   90183   90180       8   90186   90180       8   90186   90183
       9   90192   90189       8   90195   90189       8   90195   90192       9
   90201   90198       8   90204   90198       8   90204   90201       9   90210
   90207       8   90213   90207       8   90213   90210       9   90219   90216
       8   90222   90216       8   90222   90219       9   90228   90225       8
   90231   90225       8   90231   90228       9   90237   90234       8   90240
   90234       8   90240   90237       9   90246   90243       8   90249   90243
       8   90249   90246       9   90255   90252       8   90258   90252       8
   90258   90255       9   90264   90261       8   90267   90261       8   90267
   90264       9   90273   90270       8   90276   90270       8   90276   90273
       9   90282   90279       8   90285   90279       8   90285   90282       9
   90291   90288       8   90294   90288       8   90294   90291       9   90300
   90297       8   90303   90297       8   90303   90300       9   90309   90306
       8   90312   90306       8   90312   90309       9   90318   90315       8
   90321   90315       8   90321   90318       9   90327   90324       8   90330
   90324       8   90330   90327       9   90336   90333       8   90339   90333
       8   90339   90336       9   90345   90342       8   90348   90342       8
   90348   90345       9   90354   90351       8   90357   90351       8   90357
   90354       9   90363   90360       8   90366   90360       8   90366   90363
       9   90372   90369       8   90375   90369       8   90375   90372       9
   90381   90378       8   90384   90378       8   90384   90381       9   90390
   90387       8   90393   90387       8   90393   90390       9   90399   90396
       8   90402   90396       8   90402   90399       9   90408   90405       8
   90411   90405       8   90411   90408       9   90417   90414       8   90420
   90414       8   90420   90417       9   90426   90423       8   90429   90423
       8   90429   90426       9   90435   90432       8   90438   90432       8
   90438   90435       9   90444   90441       8   90447   90441       8   90447
   90444       9   90453   90450       8   90456   90450       8   90456   90453
       9   90462   90459       8   90465   90459       8   90465   90462       9
   90471   90468       8   90474   90468       8   90474   90471       9   90480
   90477       8   90483   90477       8   90483   90480       9   90489   90486
       8   90492   90486       8   90492   90489       9   90498   90495       8
   90501   90495       8   90501   90498       9   90507   90504       8   90510
   90504       8   90510   90507       9   90516   90513       8   90519   90513
       8   90519   90516       9   90525   90522       8   90528   90522       8
   90528   90525       9   90534   90531       8   90537   90531       8   90537
   90534       9   90543   90540       8   90546   90540       8   90546   90543
       9   90552   90549       8   90555   90549       8   90555   90552       9
   90561   90558       8   90564   90558       8   90564   90561       9   90570
   90567       8   90573   90567       8   90573   90570       9   90579   90576
       8   90582   90576       8   90582   90579       9   90588   90585       8
   90591   90585       8   90591   90588       9   90597   90594       8   90600
   90594       8   90600   90597       9   90606   90603       8   90609   90603
       8   90609   90606       9   90615   90612       8   90618   90612       8
   90618   90615       9   90624   90621       8   90627   90621       8   90627
   90624       9   90633   90630       8   90636   90630       8   90636   90633
       9   90642   90639       8   90645   90639       8   90645   90642       9
   90651   90648       8   90654   90648       8   90654   90651       9   90660
   90657       8   90663   90657       8   90663   90660       9   90669   90666
       8   90672   90666       8   90672   90669       9   90678   90675       8
   90681   90675       8   90681   90678       9   90687   90684       8   90690
   90684       8   90690   90687       9   90696   90693       8   90699   90693
       8   90699   90696       9   90705   90702       8   90708   90702       8
   90708   90705       9   90714   90711       8   90717   90711       8   90717
   90714       9   90723   90720       8   90726   90720       8   90726   90723
       9   90732   90729       8   90735   90729       8   90735   90732       9
   90741   90738       8   90744   90738       8   90744   90741       9   90750
   90747       8   90753   90747       8   90753   90750       9   90759   90756
       8   90762   90756       8   90762   90759       9   90768   90765       8
   90771   90765       8   90771   90768       9   90777   90774       8   90780
   90774       8   90780   90777       9   90786   90783       8   90789   90783
       8   90789   90786       9   90795   90792       8   90798   90792       8
   90798   90795       9   90804   90801       8   90807   90801       8   90807
   90804       9   90813   90810       8   90816   90810       8   90816   90813
       9   90822   90819       8   90825   90819       8   90825   90822       9
   90831   90828       8   90834   90828       8   90834   90831       9   90840
   90837       8   90843   90837       8   90843   90840       9   90849   90846
       8   90852   90846       8   90852   90849       9   90858   90855       8
   90861   90855       8   90861   90858       9   90867   90864       8   90870
   90864       8   90870   90867       9   90876   90873       8   90879   90873
       8   90879   90876       9   90885   90882       8   90888   90882       8
   90888   90885       9   90894   90891       8   90897   90891       8   90897
   90894       9   90903   90900       8   90906   90900       8   90906   90903
       9   90912   90909       8   90915   90909       8   90915   90912       9
   90921   90918       8   90924   90918       8   90924   90921       9   90930
   90927       8   90933   90927       8   90933   90930       9   90939   90936
       8   90942   90936       8   90942   90939       9   90948   90945       8
   90951   90945       8   90951   90948       9   90957   90954       8   90960
   90954       8   90960   90957       9   90966   90963       8   90969   90963
       8   90969   90966       9   90975   90972       8   90978   90972       8
   90978   90975       9   90984   90981       8   90987   90981       8   90987
   90984       9   90993   90990       8   90996   90990       8   90996   90993
       9   91002   90999       8   91005   90999       8   91005   91002       9
   91011   91008       8   91014   91008       8   91014   91011       9   91020
   91017       8   91023   91017       8   91023   91020       9   91029   91026
       8   91032   91026       8   91032   91029       9   91038   91035       8
   91041   91035       8   91041   91038       9   91047   91044       8   91050
   91044       8   91050   91047       9   91056   91053       8   91059   91053
       8   91059   91056       9   91065   91062       8   91068   91062       8
   91068   91065       9   91074   91071       8   91077   91071       8   91077
   91074       9   91083   91080       8   91086   91080       8   91086   91083
       9   91092   91089       8   91095   91089       8   91095   91092       9
   91101   91098       8   91104   91098       8   91104   91101       9   91110
   91107       8   91113   91107       8   91113   91110       9   91119   91116
       8   91122   91116       8   91122   91119       9   91128   91125       8
   91131   91125       8   91131   91128       9   91137   91134       8   91140
   91134       8   91140   91137       9   91146   91143       8   91149   91143
       8   91149   91146       9   91155   91152       8   91158   91152       8
   91158   91155       9   91164   91161       8   91167   91161       8   91167
   91164       9   91173   91170       8   91176   91170       8   91176   91173
       9   91182   91179       8   91185   91179       8   91185   91182       9
   91191   91188       8   91194   91188       8   91194   91191       9   91200
   91197       8   91203   91197       8   91203   91200       9   91209   91206
       8   91212   91206       8   91212   91209       9   91218   91215       8
   91221   91215       8   91221   91218       9   91227   91224       8   91230
   91224       8   91230   91227       9   91236   91233       8   91239   91233
       8   91239   91236       9   91245   91242       8   91248   91242       8
   91248   91245       9   91254   91251       8   91257   91251       8   91257
   91254       9   91263   91260       8   91266   91260       8   91266   91263
       9   91272   91269       8   91275   91269       8   91275   91272       9
   91281   91278       8   91284   91278       8   91284   91281       9   91290
   91287       8   91293   91287       8   91293   91290       9   91299   91296
       8   91302   91296       8   91302   91299       9   91308   91305       8
   91311   91305       8   91311   91308       9   91317   91314       8   91320
   91314       8   91320   91317       9   91326   91323       8   91329   91323
       8   91329   91326       9   91335   91332       8   91338   91332       8
   91338   91335       9   91344   91341       8   91347   91341       8   91347
   91344       9   91353   91350       8   91356   91350       8   91356   91353
       9   91362   91359       8   91365   91359       8   91365   91362       9
   91371   91368       8   91374   91368       8   91374   91371       9   91380
   91377       8   91383   91377       8   91383   91380       9   91389   91386
       8   91392   91386       8   91392   91389       9   91398   91395       8
   91401   91395       8   91401   91398       9   91407   91404       8   91410
   91404       8   91410   91407       9   91416   91413       8   91419   91413
       8   91419   91416       9   91425   91422       8   91428   91422       8
   91428   91425       9   91434   91431       8   91437   91431       8   91437
   91434       9   91443   91440       8   91446   91440       8   91446   91443
       9   91452   91449       8   91455   91449       8   91455   91452       9
   91461   91458       8   91464   91458       8   91464   91461       9   91470
   91467       8   91473   91467       8   91473   91470       9   91479   91476
       8   91482   91476       8   91482   91479       9   91488   91485       8
   91491   91485       8   91491   91488       9   91497   91494       8   91500
   91494       8   91500   91497       9   91506   91503       8   91509   91503
       8   91509   91506       9   91515   91512       8   91518   91512       8
   91518   91515       9   91524   91521       8   91527   91521       8   91527
   91524       9   91533   91530       8   91536   91530       8   91536   91533
       9   91542   91539       8   91545   91539       8   91545   91542       9
   91551   91548       8   91554   91548       8   91554   91551       9   91560
   91557       8   91563   91557       8   91563   91560       9   91569   91566
       8   91572   91566       8   91572   91569       9   91578   91575       8
   91581   91575       8   91581   91578       9   91587   91584       8   91590
   91584       8   91590   91587       9   91596   91593       8   91599   91593
       8   91599   91596       9   91605   91602       8   91608   91602       8
   91608   91605       9   91614   91611       8   91617   91611       8   91617
   91614       9   91623   91620       8   91626   91620       8   91626   91623
       9   91632   91629       8   91635   91629       8   91635   91632       9
   91641   91638       8   91644   91638       8   91644   91641       9   91650
   91647       8   91653   91647       8   91653   91650       9   91659   91656
       8   91662   91656       8   91662   91659       9   91668   91665       8
   91671   91665       8   91671   91668       9   91677   91674       8   91680
   91674       8   91680   91677       9   91686   91683       8   91689   91683
       8   91689   91686       9   91695   91692       8   91698   91692       8
   91698   91695       9   91704   91701       8   91707   91701       8   91707
   91704       9   91713   91710       8   91716   91710       8   91716   91713
       9   91722   91719       8   91725   91719       8   91725   91722       9
   91731   91728       8   91734   91728       8   91734   91731       9   91740
   91737       8   91743   91737       8   91743   91740       9   91749   91746
       8   91752   91746       8   91752   91749       9   91758   91755       8
   91761   91755       8   91761   91758       9   91767   91764       8   91770
   91764       8   91770   91767       9   91776   91773       8   91779   91773
       8   91779   91776       9   91785   91782       8   91788   91782       8
   91788   91785       9   91794   91791       8   91797   91791       8   91797
   91794       9   91803   91800       8   91806   91800       8   91806   91803
       9   91812   91809       8   91815   91809       8   91815   91812       9
   91821   91818       8   91824   91818       8   91824   91821       9   91830
   91827       8   91833   91827       8   91833   91830       9   91839   91836
       8   91842   91836       8   91842   91839       9   91848   91845       8
   91851   91845       8   91851   91848       9   91857   91854       8   91860
   91854       8   91860   91857       9   91866   91863       8   91869   91863
       8   91869   91866       9   91875   91872       8   91878   91872       8
   91878   91875       9   91884   91881       8   91887   91881       8   91887
   91884       9   91893   91890       8   91896   91890       8   91896   91893
       9   91902   91899       8   91905   91899       8   91905   91902       9
   91911   91908       8   91914   91908       8   91914   91911       9   91920
   91917       8   91923   91917       8   91923   91920       9   91929   91926
       8   91932   91926       8   91932   91929       9   91938   91935       8
   91941   91935       8   91941   91938       9   91947   91944       8   91950
   91944       8   91950   91947       9   91956   91953       8   91959   91953
       8   91959   91956       9   91965   91962       8   91968   91962       8
   91968   91965       9   91974   91971       8   91977   91971       8   91977
   91974       9   91983   91980       8   91986   91980       8   91986   91983
       9   91992   91989       8   91995   91989       8   91995   91992       9
   92001   91998       8   92004   91998       8   92004   92001       9   92010
   92007       8   92013   92007       8   92013   92010       9   92019   92016
       8   92022   92016       8   92022   92019       9   92028   92025       8
   92031   92025       8   92031   92028       9   92037   92034       8   92040
   92034       8   92040   92037       9   92046   92043       8   92049   92043
       8   92049   92046       9   92055   92052       8   92058   92052       8
   92058   92055       9   92064   92061       8   92067   92061       8   92067
   92064       9   92073   92070       8   92076   92070       8   92076   92073
       9   92082   92079       8   92085   92079       8   92085   92082       9
   92091   92088       8   92094   92088       8   92094   92091       9   92100
   92097       8   92103   92097       8   92103   92100       9   92109   92106
       8   92112   92106       8   92112   92109       9   92118   92115       8
   92121   92115       8   92121   92118       9   92127   92124       8   92130
   92124       8   92130   92127       9   92136   92133       8   92139   92133
       8   92139   92136       9   92145   92142       8   92148   92142       8
   92148   92145       9   92154   92151       8   92157   92151       8   92157
   92154       9   92163   92160       8   92166   92160       8   92166   92163
       9   92172   92169       8   92175   92169       8   92175   92172       9
   92181   92178       8   92184   92178       8   92184   92181       9   92190
   92187       8   92193   92187       8   92193   92190       9   92199   92196
       8   92202   92196       8   92202   92199       9   92208   92205       8
   92211   92205       8   92211   92208       9   92217   92214       8   92220
   92214       8   92220   92217       9   92226   92223       8   92229   92223
       8   92229   92226       9   92235   92232       8   92238   92232       8
   92238   92235       9   92244   92241       8   92247   92241       8   92247
   92244       9   92253   92250       8   92256   92250       8   92256   92253
       9   92262   92259       8   92265   92259       8   92265   92262       9
   92271   92268       8   92274   92268       8   92274   92271       9   92280
   92277       8   92283   92277       8   92283   92280       9   92289   92286
       8   92292   92286       8   92292   92289       9   92298   92295       8
   92301   92295       8   92301   92298       9   92307   92304       8   92310
   92304       8   92310   92307       9   92316   92313       8   92319   92313
       8   92319   92316       9   92325   92322       8   92328   92322       8
   92328   92325       9   92334   92331       8   92337   92331       8   92337
   92334       9   92343   92340       8   92346   92340       8   92346   92343
       9   92352   92349       8   92355   92349       8   92355   92352       9
   92361   92358       8   92364   92358       8   92364   92361       9   92370
   92367       8   92373   92367       8   92373   92370       9   92379   92376
       8   92382   92376       8   92382   92379       9   92388   92385       8
   92391   92385       8   92391   92388       9   92397   92394       8   92400
   92394       8   92400   92397       9   92406   92403       8   92409   92403
       8   92409   92406       9   92415   92412       8   92418   92412       8
   92418   92415       9   92424   92421       8   92427   92421       8   92427
   92424       9   92433   92430       8   92436   92430       8   92436   92433
       9   92442   92439       8   92445   92439       8   92445   92442       9
   92451   92448       8   92454   92448       8   92454   92451       9   92460
   92457       8   92463   92457       8   92463   92460       9   92469   92466
       8   92472   92466       8   92472   92469       9   92478   92475       8
   92481   92475       8   92481   92478       9   92487   92484       8   92490
   92484       8   92490   92487       9   92496   92493       8   92499   92493
       8   92499   92496       9   92505   92502       8   92508   92502       8
   92508   92505       9   92514   92511       8   92517   92511       8   92517
   92514       9   92523   92520       8   92526   92520       8   92526   92523
       9   92532   92529       8   92535   92529       8   92535   92532       9
   92541   92538       8   92544   92538       8   92544   92541       9   92550
   92547       8   92553   92547       8   92553   92550       9   92559   92556
       8   92562   92556       8   92562   92559       9   92568   92565       8
   92571   92565       8   92571   92568       9   92577   92574       8   92580
   92574       8   92580   92577       9   92586   92583       8   92589   92583
       8   92589   92586       9   92595   92592       8   92598   92592       8
   92598   92595       9   92604   92601       8   92607   92601       8   92607
   92604       9   92613   92610       8   92616   92610       8   92616   92613
       9   92622   92619       8   92625   92619       8   92625   92622       9
   92631   92628       8   92634   92628       8   92634   92631       9   92640
   92637       8   92643   92637       8   92643   92640       9   92649   92646
       8   92652   92646       8   92652   92649       9   92658   92655       8
   92661   92655       8   92661   92658       9   92667   92664       8   92670
   92664       8   92670   92667       9   92676   92673       8   92679   92673
       8   92679   92676       9   92685   92682       8   92688   92682       8
   92688   92685       9   92694   92691       8   92697   92691       8   92697
   92694       9   92703   92700       8   92706   92700       8   92706   92703
       9   92712   92709       8   92715   92709       8   92715   92712       9
   92721   92718       8   92724   92718       8   92724   92721       9   92730
   92727       8   92733   92727       8   92733   92730       9   92739   92736
       8   92742   92736       8   92742   92739       9   92748   92745       8
   92751   92745       8   92751   92748       9   92757   92754       8   92760
   92754       8   92760   92757       9   92766   92763       8   92769   92763
       8   92769   92766       9   92775   92772       8   92778   92772       8
   92778   92775       9   92784   92781       8   92787   92781       8   92787
   92784       9   92793   92790       8   92796   92790       8   92796   92793
       9   92802   92799       8   92805   92799       8   92805   92802       9
   92811   92808       8   92814   92808       8   92814   92811       9   92820
   92817       8   92823   92817       8   92823   92820       9   92829   92826
       8   92832   92826       8   92832   92829       9   92838   92835       8
   92841   92835       8   92841   92838       9   92847   92844       8   92850
   92844       8   92850   92847       9   92856   92853       8   92859   92853
       8   92859   92856       9   92865   92862       8   92868   92862       8
   92868   92865       9   92874   92871       8   92877   92871       8   92877
   92874       9   92883   92880       8   92886   92880       8   92886   92883
       9   92892   92889       8   92895   92889       8   92895   92892       9
   92901   92898       8   92904   92898       8   92904   92901       9   92910
   92907       8   92913   92907       8   92913   92910       9   92919   92916
       8   92922   92916       8   92922   92919       9   92928   92925       8
   92931   92925       8   92931   92928       9   92937   92934       8   92940
   92934       8   92940   92937       9   92946   92943       8   92949   92943
       8   92949   92946       9   92955   92952       8   92958   92952       8
   92958   92955       9   92964   92961       8   92967   92961       8   92967
   92964       9   92973   92970       8   92976   92970       8   92976   92973
       9   92982   92979       8   92985   92979       8   92985   92982       9
   92991   92988       8   92994   92988       8   92994   92991       9   93000
   92997       8   93003   92997       8   93003   93000       9   93009   93006
       8   93012   93006       8   93012   93009       9   93018   93015       8
   93021   93015       8   93021   93018       9   93027   93024       8   93030
   93024       8   93030   93027       9   93036   93033       8   93039   93033
       8   93039   93036       9   93045   93042       8   93048   93042       8
   93048   93045       9   93054   93051       8   93057   93051       8   93057
   93054       9   93063   93060       8   93066   93060       8   93066   93063
       9   93072   93069       8   93075   93069       8   93075   93072       9
   93081   93078       8   93084   93078       8   93084   93081       9   93090
   93087       8   93093   93087       8   93093   93090       9   93099   93096
       8   93102   93096       8   93102   93099       9   93108   93105       8
   93111   93105       8   93111   93108       9   93117   93114       8   93120
   93114       8   93120   93117       9   93126   93123       8   93129   93123
       8   93129   93126       9   93135   93132       8   93138   93132       8
   93138   93135       9   93144   93141       8   93147   93141       8   93147
   93144       9   93153   93150       8   93156   93150       8   93156   93153
       9   93162   93159       8   93165   93159       8   93165   93162       9
   93171   93168       8   93174   93168       8   93174   93171       9   93180
   93177       8   93183   93177       8   93183   93180       9   93189   93186
       8   93192   93186       8   93192   93189       9   93198   93195       8
   93201   93195       8   93201   93198       9   93207   93204       8   93210
   93204       8   93210   93207       9   93216   93213       8   93219   93213
       8   93219   93216       9   93225   93222       8   93228   93222       8
   93228   93225       9   93234   93231       8   93237   93231       8   93237
   93234       9   93243   93240       8   93246   93240       8   93246   93243
       9   93252   93249       8   93255   93249       8   93255   93252       9
   93261   93258       8   93264   93258       8   93264   93261       9   93270
   93267       8   93273   93267       8   93273   93270       9   93279   93276
       8   93282   93276       8   93282   93279       9   93288   93285       8
   93291   93285       8   93291   93288       9   93297   93294       8   93300
   93294       8   93300   93297       9   93306   93303       8   93309   93303
       8   93309   93306       9   93315   93312       8   93318   93312       8
   93318   93315       9   93324   93321       8   93327   93321       8   93327
   93324       9   93333   93330       8   93336   93330       8   93336   93333
       9   93342   93339       8   93345   93339       8   93345   93342       9
   93351   93348       8   93354   93348       8   93354   93351       9   93360
   93357       8   93363   93357       8   93363   93360       9   93369   93366
       8   93372   93366       8   93372   93369       9   93378   93375       8
   93381   93375       8   93381   93378       9   93387   93384       8   93390
   93384       8   93390   93387       9   93396   93393       8   93399   93393
       8   93399   93396       9   93405   93402       8   93408   93402       8
   93408   93405       9   93414   93411       8   93417   93411       8   93417
   93414       9   93423   93420       8   93426   93420       8   93426   93423
       9   93432   93429       8   93435   93429       8   93435   93432       9
   93441   93438       8   93444   93438       8   93444   93441       9   93450
   93447       8   93453   93447       8   93453   93450       9   93459   93456
       8   93462   93456       8   93462   93459       9   93468   93465       8
   93471   93465       8   93471   93468       9   93477   93474       8   93480
   93474       8   93480   93477       9   93486   93483       8   93489   93483
       8   93489   93486       9   93495   93492       8   93498   93492       8
   93498   93495       9   93504   93501       8   93507   93501       8   93507
   93504       9   93513   93510       8   93516   93510       8   93516   93513
       9   93522   93519       8   93525   93519       8   93525   93522       9
   93531   93528       8   93534   93528       8   93534   93531       9   93540
   93537       8   93543   93537       8   93543   93540       9   93549   93546
       8   93552   93546       8   93552   93549       9   93558   93555       8
   93561   93555       8   93561   93558       9   93567   93564       8   93570
   93564       8   93570   93567       9   93576   93573       8   93579   93573
       8   93579   93576       9   93585   93582       8   93588   93582       8
   93588   93585       9   93594   93591       8   93597   93591       8   93597
   93594       9   93603   93600       8   93606   93600       8   93606   93603
       9   93612   93609       8   93615   93609       8   93615   93612       9
   93621   93618       8   93624   93618       8   93624   93621       9   93630
   93627       8   93633   93627       8   93633   93630       9   93639   93636
       8   93642   93636       8   93642   93639       9   93648   93645       8
   93651   93645       8   93651   93648       9   93657   93654       8   93660
   93654       8   93660   93657       9   93666   93663       8   93669   93663
       8   93669   93666       9   93675   93672       8   93678   93672       8
   93678   93675       9   93684   93681       8   93687   93681       8   93687
   93684       9   93693   93690       8   93696   93690       8   93696   93693
       9   93702   93699       8   93705   93699       8   93705   93702       9
   93711   93708       8   93714   93708       8   93714   93711       9   93720
   93717       8   93723   93717       8   93723   93720       9   93729   93726
       8   93732   93726       8   93732   93729       9   93738   93735       8
   93741   93735       8   93741   93738       9   93747   93744       8   93750
   93744       8   93750   93747       9   93756   93753       8   93759   93753
       8   93759   93756       9   93765   93762       8   93768   93762       8
   93768   93765       9   93774   93771       8   93777   93771       8   93777
   93774       9   93783   93780       8   93786   93780       8   93786   93783
       9   93792   93789       8   93795   93789       8   93795   93792       9
   93801   93798       8   93804   93798       8   93804   93801       9   93810
   93807       8   93813   93807       8   93813   93810       9   93819   93816
       8   93822   93816       8   93822   93819       9   93828   93825       8
   93831   93825       8   93831   93828       9   93837   93834       8   93840
   93834       8   93840   93837       9   93846   93843       8   93849   93843
       8   93849   93846       9   93855   93852       8   93858   93852       8
   93858   93855       9   93864   93861       8   93867   93861       8   93867
   93864       9   93873   93870       8   93876   93870       8   93876   93873
       9   93882   93879       8   93885   93879       8   93885   93882       9
   93891   93888       8   93894   93888       8   93894   93891       9   93900
   93897       8   93903   93897       8   93903   93900       9   93909   93906
       8   93912   93906       8   93912   93909       9   93918   93915       8
   93921   93915       8   93921   93918       9   93927   93924       8   93930
   93924       8   93930   93927       9   93936   93933       8   93939   93933
       8   93939   93936       9   93945   93942       8   93948   93942       8
   93948   93945       9   93954   93951       8   93957   93951       8   93957
   93954       9   93963   93960       8   93966   93960       8   93966   93963
       9   93972   93969       8   93975   93969       8   93975   93972       9
   93981   93978       8   93984   93978       8   93984   93981       9   93990
   93987       8   93993   93987       8   93993   93990       9   93999   93996
       8   94002   93996       8   94002   93999       9   94008   94005       8
   94011   94005       8   94011   94008       9   94017   94014       8   94020
   94014       8   94020   94017       9   94026   94023       8   94029   94023
       8   94029   94026       9   94035   94032       8   94038   94032       8
   94038   94035       9   94044   94041       8   94047   94041       8   94047
   94044       9   94053   94050       8   94056   94050       8   94056   94053
       9   94062   94059       8   94065   94059       8   94065   94062       9
   94071   94068       8   94074   94068       8   94074   94071       9   94080
   94077       8   94083   94077       8   94083   94080       9   94089   94086
       8   94092   94086       8   94092   94089       9   94098   94095       8
   94101   94095       8   94101   94098       9   94107   94104       8   94110
   94104       8   94110   94107       9   94116   94113       8   94119   94113
       8   94119   94116       9   94125   94122       8   94128   94122       8
   94128   94125       9   94134   94131       8   94137   94131       8   94137
   94134       9   94143   94140       8   94146   94140       8   94146   94143
       9   94152   94149       8   94155   94149       8   94155   94152       9
   94161   94158       8   94164   94158       8   94164   94161       9   94170
   94167       8   94173   94167       8   94173   94170       9   94179   94176
       8   94182   94176       8   94182   94179       9   94188   94185       8
   94191   94185       8   94191   94188       9   94197   94194       8   94200
   94194       8   94200   94197       9   94206   94203       8   94209   94203
       8   94209   94206       9   94215   94212       8   94218   94212       8
   94218   94215       9   94224   94221       8   94227   94221       8   94227
   94224       9   94233   94230       8   94236   94230       8   94236   94233
       9   94242   94239       8   94245   94239       8   94245   94242       9
   94251   94248       8   94254   94248       8   94254   94251       9   94260
   94257       8   94263   94257       8   94263   94260       9   94269   94266
       8   94272   94266       8   94272   94269       9   94278   94275       8
   94281   94275       8   94281   94278       9   94287   94284       8   94290
   94284       8   94290   94287       9   94296   94293       8   94299   94293
       8   94299   94296       9   94305   94302       8   94308   94302       8
   94308   94305       9   94314   94311       8   94317   94311       8   94317
   94314       9   94323   94320       8   94326   94320       8   94326   94323
       9   94332   94329       8   94335   94329       8   94335   94332       9
   94341   94338       8   94344   94338       8   94344   94341       9   94350
   94347       8   94353   94347       8   94353   94350       9   94359   94356
       8   94362   94356       8   94362   94359       9   94368   94365       8
   94371   94365       8   94371   94368       9   94377   94374       8   94380
   94374       8   94380   94377       9   94386   94383       8   94389   94383
       8   94389   94386       9   94395   94392       8   94398   94392       8
   94398   94395       9   94404   94401       8   94407   94401       8   94407
   94404       9   94413   94410       8   94416   94410       8   94416   94413
       9   94422   94419       8   94425   94419       8   94425   94422       9
   94431   94428       8   94434   94428       8   94434   94431       9   94440
   94437       8   94443   94437       8   94443   94440       9   94449   94446
       8   94452   94446       8   94452   94449       9   94458   94455       8
   94461   94455       8   94461   94458       9   94467   94464       8   94470
   94464       8   94470   94467       9   94476   94473       8   94479   94473
       8   94479   94476       9   94485   94482       8   94488   94482       8
   94488   94485       9   94494   94491       8   94497   94491       8   94497
   94494       9   94503   94500       8   94506   94500       8   94506   94503
       9   94512   94509       8   94515   94509       8   94515   94512       9
   94521   94518       8   94524   94518       8   94524   94521       9   94530
   94527       8   94533   94527       8   94533   94530       9   94539   94536
       8   94542   94536       8   94542   94539       9   94548   94545       8
   94551   94545       8   94551   94548       9   94557   94554       8   94560
   94554       8   94560   94557       9   94566   94563       8   94569   94563
       8   94569   94566       9   94575   94572       8   94578   94572       8
   94578   94575       9   94584   94581       8   94587   94581       8   94587
   94584       9   94593   94590       8   94596   94590       8   94596   94593
       9   94602   94599       8   94605   94599       8   94605   94602       9
   94611   94608       8   94614   94608       8   94614   94611       9   94620
   94617       8   94623   94617       8   94623   94620       9   94629   94626
       8   94632   94626       8   94632   94629       9   94638   94635       8
   94641   94635       8   94641   94638       9   94647   94644       8   94650
   94644       8   94650   94647       9   94656   94653       8   94659   94653
       8   94659   94656       9   94665   94662       8   94668   94662       8
   94668   94665       9   94674   94671       8   94677   94671       8   94677
   94674       9   94683   94680       8   94686   94680       8   94686   94683
       9   94692   94689       8   94695   94689       8   94695   94692       9
   94701   94698       8   94704   94698       8   94704   94701       9   94710
   94707       8   94713   94707       8   94713   94710       9   94719   94716
       8   94722   94716       8   94722   94719       9   94728   94725       8
   94731   94725       8   94731   94728       9   94737   94734       8   94740
   94734       8   94740   94737       9   94746   94743       8   94749   94743
       8   94749   94746       9   94755   94752       8   94758   94752       8
   94758   94755       9   94764   94761       8   94767   94761       8   94767
   94764       9   94773   94770       8   94776   94770       8   94776   94773
       9   94782   94779       8   94785   94779       8   94785   94782       9
   94791   94788       8   94794   94788       8   94794   94791       9   94800
   94797       8   94803   94797       8   94803   94800       9   94809   94806
       8   94812   94806       8   94812   94809       9   94818   94815       8
   94821   94815       8   94821   94818       9   94827   94824       8   94830
   94824       8   94830   94827       9   94836   94833       8   94839   94833
       8   94839   94836       9   94845   94842       8   94848   94842       8
   94848   94845       9   94854   94851       8   94857   94851       8   94857
   94854       9   94863   94860       8   94866   94860       8   94866   94863
       9   94872   94869       8   94875   94869       8   94875   94872       9
   94881   94878       8   94884   94878       8   94884   94881       9   94890
   94887       8   94893   94887       8   94893   94890       9   94899   94896
       8   94902   94896       8   94902   94899       9   94908   94905       8
   94911   94905       8   94911   94908       9   94917   94914       8   94920
   94914       8   94920   94917       9   94926   94923       8   94929   94923
       8   94929   94926       9   94935   94932       8   94938   94932       8
   94938   94935       9   94944   94941       8   94947   94941       8   94947
   94944       9   94953   94950       8   94956   94950       8   94956   94953
       9   94962   94959       8   94965   94959       8   94965   94962       9
   94971   94968       8   94974   94968       8   94974   94971       9   94980
   94977       8   94983   94977       8   94983   94980       9   94989   94986
       8   94992   94986       8   94992   94989       9   94998   94995       8
   95001   94995       8   95001   94998       9   95007   95004       8   95010
   95004       8   95010   95007       9   95016   95013       8   95019   95013
       8   95019   95016       9   95025   95022       8   95028   95022       8
   95028   95025       9   95034   95031       8   95037   95031       8   95037
   95034       9   95043   95040       8   95046   95040       8   95046   95043
       9   95052   95049       8   95055   95049       8   95055   95052       9
   95061   95058       8   95064   95058       8   95064   95061       9   95070
   95067       8   95073   95067       8   95073   95070       9   95079   95076
       8   95082   95076       8   95082   95079       9   95088   95085       8
   95091   95085       8   95091   95088       9   95097   95094       8   95100
   95094       8   95100   95097       9   95106   95103       8   95109   95103
       8   95109   95106       9   95115   95112       8   95118   95112       8
   95118   95115       9   95124   95121       8   95127   95121       8   95127
   95124       9   95133   95130       8   95136   95130       8   95136   95133
       9   95142   95139       8   95145   95139       8   95145   95142       9
   95151   95148       8   95154   95148       8   95154   95151       9   95160
   95157       8   95163   95157       8   95163   95160       9   95169   95166
       8   95172   95166       8   95172   95169       9   95178   95175       8
   95181   95175       8   95181   95178       9   95187   95184       8   95190
   95184       8   95190   95187       9   95196   95193       8   95199   95193
       8   95199   95196       9   95205   95202       8   95208   95202       8
   95208   95205       9   95214   95211       8   95217   95211       8   95217
   95214       9   95223   95220       8   95226   95220       8   95226   95223
       9   95232   95229       8   95235   95229       8   95235   95232       9
   95241   95238       8   95244   95238       8   95244   95241       9   95250
   95247       8   95253   95247       8   95253   95250       9   95259   95256
       8   95262   95256       8   95262   95259       9   95268   95265       8
   95271   95265       8   95271   95268       9   95277   95274       8   95280
   95274       8   95280   95277       9   95286   95283       8   95289   95283
       8   95289   95286       9   95295   95292       8   95298   95292       8
   95298   95295       9   95304   95301       8   95307   95301       8   95307
   95304       9   95313   95310       8   95316   95310       8   95316   95313
       9   95322   95319       8   95325   95319       8   95325   95322       9
   95331   95328       8   95334   95328       8   95334   95331       9   95340
   95337       8   95343   95337       8   95343   95340       9   95349   95346
       8   95352   95346       8   95352   95349       9   95358   95355       8
   95361   95355       8   95361   95358       9   95367   95364       8   95370
   95364       8   95370   95367       9   95376   95373       8   95379   95373
       8   95379   95376       9   95385   95382       8   95388   95382       8
   95388   95385       9   95394   95391       8   95397   95391       8   95397
   95394       9   95403   95400       8   95406   95400       8   95406   95403
       9   95412   95409       8   95415   95409       8   95415   95412       9
   95421   95418       8   95424   95418       8   95424   95421       9   95430
   95427       8   95433   95427       8   95433   95430       9   95439   95436
       8   95442   95436       8   95442   95439       9   95448   95445       8
   95451   95445       8   95451   95448       9   95457   95454       8   95460
   95454       8   95460   95457       9   95466   95463       8   95469   95463
       8   95469   95466       9   95475   95472       8   95478   95472       8
   95478   95475       9   95484   95481       8   95487   95481       8   95487
   95484       9   95493   95490       8   95496   95490       8   95496   95493
       9   95502   95499       8   95505   95499       8   95505   95502       9
   95511   95508       8   95514   95508       8   95514   95511       9   95520
   95517       8   95523   95517       8   95523   95520       9   95529   95526
       8   95532   95526       8   95532   95529       9   95538   95535       8
   95541   95535       8   95541   95538       9   95547   95544       8   95550
   95544       8   95550   95547       9   95556   95553       8   95559   95553
       8   95559   95556       9   95565   95562       8   95568   95562       8
   95568   95565       9   95574   95571       8   95577   95571       8   95577
   95574       9   95583   95580       8   95586   95580       8   95586   95583
       9   95592   95589       8   95595   95589       8   95595   95592       9
   95601   95598       8   95604   95598       8   95604   95601       9   95610
   95607       8   95613   95607       8   95613   95610       9   95619   95616
       8   95622   95616       8   95622   95619       9   95628   95625       8
   95631   95625       8   95631   95628       9   95637   95634       8   95640
   95634       8   95640   95637       9   95646   95643       8   95649   95643
       8   95649   95646       9   95655   95652       8   95658   95652       8
   95658   95655       9   95664   95661       8   95667   95661       8   95667
   95664       9   95673   95670       8   95676   95670       8   95676   95673
       9   95682   95679       8   95685   95679       8   95685   95682       9
   95691   95688       8   95694   95688       8   95694   95691       9   95700
   95697       8   95703   95697       8   95703   95700       9   95709   95706
       8   95712   95706       8   95712   95709       9   95718   95715       8
   95721   95715       8   95721   95718       9   95727   95724       8   95730
   95724       8   95730   95727       9   95736   95733       8   95739   95733
       8   95739   95736       9   95745   95742       8   95748   95742       8
   95748   95745       9   95754   95751       8   95757   95751       8   95757
   95754       9   95763   95760       8   95766   95760       8   95766   95763
       9   95772   95769       8   95775   95769       8   95775   95772       9
   95781   95778       8   95784   95778       8   95784   95781       9   95790
   95787       8   95793   95787       8   95793   95790       9   95799   95796
       8   95802   95796       8   95802   95799       9   95808   95805       8
   95811   95805       8   95811   95808       9   95817   95814       8   95820
   95814       8   95820   95817       9   95826   95823       8   95829   95823
       8   95829   95826       9   95835   95832       8   95838   95832       8
   95838   95835       9   95844   95841       8   95847   95841       8   95847
   95844       9   95853   95850       8   95856   95850       8   95856   95853
       9   95862   95859       8   95865   95859       8   95865   95862       9
   95871   95868       8   95874   95868       8   95874   95871       9   95880
   95877       8   95883   95877       8   95883   95880       9   95889   95886
       8   95892   95886       8   95892   95889       9   95898   95895       8
   95901   95895       8   95901   95898       9   95907   95904       8   95910
   95904       8   95910   95907       9   95916   95913       8   95919   95913
       8   95919   95916       9   95925   95922       8   95928   95922       8
   95928   95925       9   95934   95931       8   95937   95931       8   95937
   95934       9   95943   95940       8   95946   95940       8   95946   95943
       9   95952   95949       8   95955   95949       8   95955   95952       9
   95961   95958       8   95964   95958       8   95964   95961       9   95970
   95967       8   95973   95967       8   95973   95970       9   95979   95976
       8   95982   95976       8   95982   95979       9   95988   95985       8
   95991   95985       8   95991   95988       9   95997   95994       8   96000
   95994       8   96000   95997       9   96006   96003       8   96009   96003
       8   96009   96006       9   96015   96012       8   96018   96012       8
   96018   96015       9   96024   96021       8   96027   96021       8   96027
   96024       9   96033   96030       8   96036   96030       8   96036   96033
       9   96042   96039       8   96045   96039       8   96045   96042       9
   96051   96048       8   96054   96048       8   96054   96051       9   96060
   96057       8   96063   96057       8   96063   96060       9   96069   96066
       8   96072   96066       8   96072   96069       9   96078   96075       8
   96081   96075       8   96081   96078       9   96087   96084       8   96090
   96084       8   96090   96087       9   96096   96093       8   96099   96093
       8   96099   96096       9   96105   96102       8   96108   96102       8
   96108   96105       9   96114   96111       8   96117   96111       8   96117
   96114       9   96123   96120       8   96126   96120       8   96126   96123
       9   96132   96129       8   96135   96129       8   96135   96132       9
   96141   96138       8   96144   96138       8   96144   96141       9   96150
   96147       8   96153   96147       8   96153   96150       9   96159   96156
       8   96162   96156       8   96162   96159       9   96168   96165       8
   96171   96165       8   96171   96168       9   96177   96174       8   96180
   96174       8   96180   96177       9   96186   96183       8   96189   96183
       8   96189   96186       9   96195   96192       8   96198   96192       8
   96198   96195       9   96204   96201       8   96207   96201       8   96207
   96204       9   96213   96210       8   96216   96210       8   96216   96213
       9   96222   96219       8   96225   96219       8   96225   96222       9
   96231   96228       8   96234   96228       8   96234   96231       9   96240
   96237       8   96243   96237       8   96243   96240       9   96249   96246
       8   96252   96246       8   96252   96249       9   96258   96255       8
   96261   96255       8   96261   96258       9   96267   96264       8   96270
   96264       8   96270   96267       9   96276   96273       8   96279   96273
       8   96279   96276       9   96285   96282       8   96288   96282       8
   96288   96285       9   96294   96291       8   96297   96291       8   96297
   96294       9   96303   96300       8   96306   96300       8   96306   96303
       9   96312   96309       8   96315   96309       8   96315   96312       9
   96321   96318       8   96324   96318       8   96324   96321       9   96330
   96327       8   96333   96327       8   96333   96330       9   96339   96336
       8   96342   96336       8   96342   96339       9   96348   96345       8
   96351   96345       8   96351   96348       9   96357   96354       8   96360
   96354       8   96360   96357       9   96366   96363       8   96369   96363
       8   96369   96366       9   96375   96372       8   96378   96372       8
   96378   96375       9   96384   96381       8   96387   96381       8   96387
   96384       9   96393   96390       8   96396   96390       8   96396   96393
       9   96402   96399       8   96405   96399       8   96405   96402       9
   96411   96408       8   96414   96408       8   96414   96411       9   96420
   96417       8   96423   96417       8   96423   96420       9   96429   96426
       8   96432   96426       8   96432   96429       9   96438   96435       8
   96441   96435       8   96441   96438       9   96447   96444       8   96450
   96444       8   96450   96447       9   96456   96453       8   96459   96453
       8   96459   96456       9   96465   96462       8   96468   96462       8
   96468   96465       9   96474   96471       8   96477   96471       8   96477
   96474       9   96483   96480       8   96486   96480       8   96486   96483
       9   96492   96489       8   96495   96489       8   96495   96492       9
   96501   96498       8   96504   96498       8   96504   96501       9   96510
   96507       8   96513   96507       8   96513   96510       9   96519   96516
       8   96522   96516       8   96522   96519       9   96528   96525       8
   96531   96525       8   96531   96528       9   96537   96534       8   96540
   96534       8   96540   96537       9   96546   96543       8   96549   96543
       8   96549   96546       9   96555   96552       8   96558   96552       8
   96558   96555       9   96564   96561       8   96567   96561       8   96567
   96564       9   96573   96570       8   96576   96570       8   96576   96573
       9   96582   96579       8   96585   96579       8   96585   96582       9
   96591   96588       8   96594   96588       8   96594   96591       9   96600
   96597       8   96603   96597       8   96603   96600       9   96609   96606
       8   96612   96606       8   96612   96609       9   96618   96615       8
   96621   96615       8   96621   96618       9   96627   96624       8   96630
   96624       8   96630   96627       9   96636   96633       8   96639   96633
       8   96639   96636       9   96645   96642       8   96648   96642       8
   96648   96645       9   96654   96651       8   96657   96651       8   96657
   96654       9   96663   96660       8   96666   96660       8   96666   96663
       9   96672   96669       8   96675   96669       8   96675   96672       9
   96681   96678       8   96684   96678       8   96684   96681       9   96690
   96687       8   96693   96687       8   96693   96690       9   96699   96696
       8   96702   96696       8   96702   96699       9   96708   96705       8
   96711   96705       8   96711   96708       9   96717   96714       8   96720
   96714       8   96720   96717       9   96726   96723       8   96729   96723
       8   96729   96726       9   96735   96732       8   96738   96732       8
   96738   96735       9   96744   96741       8   96747   96741       8   96747
   96744       9   96753   96750       8   96756   96750       8   96756   96753
       9   96762   96759       8   96765   96759       8   96765   96762       9
   96771   96768       8   96774   96768       8   96774   96771       9   96780
   96777       8   96783   96777       8   96783   96780       9   96789   96786
       8   96792   96786       8   96792   96789       9   96798   96795       8
   96801   96795       8   96801   96798       9   96807   96804       8   96810
   96804       8   96810   96807       9   96816   96813       8   96819   96813
       8   96819   96816       9   96825   96822       8   96828   96822       8
   96828   96825       9   96834   96831       8   96837   96831       8   96837
   96834       9   96843   96840       8   96846   96840       8   96846   96843
       9   96852   96849       8   96855   96849       8   96855   96852       9
   96861   96858       8   96864   96858       8   96864   96861       9   96870
   96867       8   96873   96867       8   96873   96870       9   96879   96876
       8   96882   96876       8   96882   96879       9   96888   96885       8
   96891   96885       8   96891   96888       9   96897   96894       8   96900
   96894       8   96900   96897       9   96906   96903       8   96909   96903
       8   96909   96906       9   96915   96912       8   96918   96912       8
   96918   96915       9   96924   96921       8   96927   96921       8   96927
   96924       9   96933   96930       8   96936   96930       8   96936   96933
       9   96942   96939       8   96945   96939       8   96945   96942       9
   96951   96948       8   96954   96948       8   96954   96951       9   96960
   96957       8   96963   96957       8   96963   96960       9   96969   96966
       8   96972   96966       8   96972   96969       9   96978   96975       8
   96981   96975       8   96981   96978       9   96987   96984       8   96990
   96984       8   96990   96987       9   96996   96993       8   96999   96993
       8   96999   96996       9   97005   97002       8   97008   97002       8
   97008   97005       9   97014   97011       8   97017   97011       8   97017
   97014       9   97023   97020       8   97026   97020       8   97026   97023
       9   97032   97029       8   97035   97029       8   97035   97032       9
   97041   97038       8   97044   97038       8   97044   97041       9   97050
   97047       8   97053   97047       8   97053   97050       9   97059   97056
       8   97062   97056       8   97062   97059       9   97068   97065       8
   97071   97065       8   97071   97068       9   97077   97074       8   97080
   97074       8   97080   97077       9   97086   97083       8   97089   97083
       8   97089   97086       9   97095   97092       8   97098   97092       8
   97098   97095       9   97104   97101       8   97107   97101       8   97107
   97104       9   97113   97110       8   97116   97110       8   97116   97113
       9   97122   97119       8   97125   97119       8   97125   97122       9
   97131   97128       8   97134   97128       8   97134   97131       9   97140
   97137       8   97143   97137       8   97143   97140       9   97149   97146
       8   97152   97146       8   97152   97149       9   97158   97155       8
   97161   97155       8   97161   97158       9   97167   97164       8   97170
   97164       8   97170   97167       9   97176   97173       8   97179   97173
       8   97179   97176       9   97185   97182       8   97188   97182       8
   97188   97185       9   97194   97191       8   97197   97191       8   97197
   97194       9   97203   97200       8   97206   97200       8   97206   97203
       9   97212   97209       8   97215   97209       8   97215   97212       9
   97221   97218       8   97224   97218       8   97224   97221       9   97230
   97227       8   97233   97227       8   97233   97230       9   97239   97236
       8   97242   97236       8   97242   97239       9   97248   97245       8
   97251   97245       8   97251   97248       9   97257   97254       8   97260
   97254       8   97260   97257       9   97266   97263       8   97269   97263
       8   97269   97266       9   97275   97272       8   97278   97272       8
   97278   97275       9   97284   97281       8   97287   97281       8   97287
   97284       9   97293   97290       8   97296   97290       8   97296   97293
       9   97302   97299       8   97305   97299       8   97305   97302       9
   97311   97308       8   97314   97308       8   97314   97311       9   97320
   97317       8   97323   97317       8   97323   97320       9   97329   97326
       8   97332   97326       8   97332   97329       9   97338   97335       8
   97341   97335       8   97341   97338       9   97347   97344       8   97350
   97344       8   97350   97347       9   97356   97353       8   97359   97353
       8   97359   97356       9   97365   97362       8   97368   97362       8
   97368   97365       9   97374   97371       8   97377   97371       8   97377
   97374       9   97383   97380       8   97386   97380       8   97386   97383
       9   97392   97389       8   97395   97389       8   97395   97392       9
   97401   97398       8   97404   97398       8   97404   97401       9   97410
   97407       8   97413   97407       8   97413   97410       9   97419   97416
       8   97422   97416       8   97422   97419       9   97428   97425       8
   97431   97425       8   97431   97428       9   97437   97434       8   97440
   97434       8   97440   97437       9   97446   97443       8   97449   97443
       8   97449   97446       9   97455   97452       8   97458   97452       8
   97458   97455       9   97464   97461       8   97467   97461       8   97467
   97464       9   97473   97470       8   97476   97470       8   97476   97473
       9   97482   97479       8   97485   97479       8   97485   97482       9
   97491   97488       8   97494   97488       8   97494   97491       9   97500
   97497       8   97503   97497       8   97503   97500       9   97509   97506
       8   97512   97506       8   97512   97509       9   97518   97515       8
   97521   97515       8   97521   97518       9   97527   97524       8   97530
   97524       8   97530   97527       9   97536   97533       8   97539   97533
       8   97539   97536       9   97545   97542       8   97548   97542       8
   97548   97545       9   97554   97551       8   97557   97551       8   97557
   97554       9   97563   97560       8   97566   97560       8   97566   97563
       9   97572   97569       8   97575   97569       8   97575   97572       9
   97581   97578       8   97584   97578       8   97584   97581       9   97590
   97587       8   97593   97587       8   97593   97590       9   97599   97596
       8   97602   97596       8   97602   97599       9   97608   97605       8
   97611   97605       8   97611   97608       9   97617   97614       8   97620
   97614       8   97620   97617       9   97626   97623       8   97629   97623
       8   97629   97626       9   97635   97632       8   97638   97632       8
   97638   97635       9   97644   97641       8   97647   97641       8   97647
   97644       9   97653   97650       8   97656   97650       8   97656   97653
       9   97662   97659       8   97665   97659       8   97665   97662       9
   97671   97668       8   97674   97668       8   97674   97671       9   97680
   97677       8   97683   97677       8   97683   97680       9   97689   97686
       8   97692   97686       8   97692   97689       9   97698   97695       8
   97701   97695       8   97701   97698       9   97707   97704       8   97710
   97704       8   97710   97707       9   97716   97713       8   97719   97713
       8   97719   97716       9   97725   97722       8   97728   97722       8
   97728   97725       9   97734   97731       8   97737   97731       8   97737
   97734       9   97743   97740       8   97746   97740       8   97746   97743
       9   97752   97749       8   97755   97749       8   97755   97752       9
   97761   97758       8   97764   97758       8   97764   97761       9   97770
   97767       8   97773   97767       8   97773   97770       9   97779   97776
       8   97782   97776       8   97782   97779       9   97788   97785       8
   97791   97785       8   97791   97788       9   97797   97794       8   97800
   97794       8   97800   97797       9   97806   97803       8   97809   97803
       8   97809   97806       9   97815   97812       8   97818   97812       8
   97818   97815       9   97824   97821       8   97827   97821       8   97827
   97824       9   97833   97830       8   97836   97830       8   97836   97833
       9   97842   97839       8   97845   97839       8   97845   97842       9
   97851   97848       8   97854   97848       8   97854   97851       9   97860
   97857       8   97863   97857       8   97863   97860       9   97869   97866
       8   97872   97866       8   97872   97869       9   97878   97875       8
   97881   97875       8   97881   97878       9   97887   97884       8   97890
   97884       8   97890   97887       9   97896   97893       8   97899   97893
       8   97899   97896       9   97905   97902       8   97908   97902       8
   97908   97905       9   97914   97911       8   97917   97911       8   97917
   97914       9   97923   97920       8   97926   97920       8   97926   97923
       9   97932   97929       8   97935   97929       8   97935   97932       9
   97941   97938       8   97944   97938       8   97944   97941       9   97950
   97947       8   97953   97947       8   97953   97950       9   97959   97956
       8   97962   97956       8   97962   97959       9   97968   97965       8
   97971   97965       8   97971   97968       9   97977   97974       8   97980
   97974       8   97980   97977       9   97986   97983       8   97989   97983
       8   97989   97986       9   97995   97992       8   97998   97992       8
   97998   97995       9   98004   98001       8   98007   98001       8   98007
   98004       9   98013   98010       8   98016   98010       8   98016   98013
       9   98022   98019       8   98025   98019       8   98025   98022       9
   98031   98028       8   98034   98028       8   98034   98031       9   98040
   98037       8   98043   98037       8   98043   98040       9   98049   98046
       8   98052   98046       8   98052   98049       9   98058   98055       8
   98061   98055       8   98061   98058       9   98067   98064       8   98070
   98064       8   98070   98067       9   98076   98073       8   98079   98073
       8   98079   98076       9   98085   98082       8   98088   98082       8
   98088   98085       9   98094   98091       8   98097   98091       8   98097
   98094       9   98103   98100       8   98106   98100       8   98106   98103
       9   98112   98109       8   98115   98109       8   98115   98112       9
   98121   98118       8   98124   98118       8   98124   98121       9   98130
   98127       8   98133   98127       8   98133   98130       9   98139   98136
       8   98142   98136       8   98142   98139       9   98148   98145       8
   98151   98145       8   98151   98148       9   98157   98154       8   98160
   98154       8   98160   98157       9   98166   98163       8   98169   98163
       8   98169   98166       9   98175   98172       8   98178   98172       8
   98178   98175       9   98184   98181       8   98187   98181       8   98187
   98184       9   98193   98190       8   98196   98190       8   98196   98193
       9   98202   98199       8   98205   98199       8   98205   98202       9
   98211   98208       8   98214   98208       8   98214   98211       9   98220
   98217       8   98223   98217       8   98223   98220       9   98229   98226
       8   98232   98226       8   98232   98229       9   98238   98235       8
   98241   98235       8   98241   98238       9   98247   98244       8   98250
   98244       8   98250   98247       9   98256   98253       8   98259   98253
       8   98259   98256       9   98265   98262       8   98268   98262       8
   98268   98265       9   98274   98271       8   98277   98271       8   98277
   98274       9   98283   98280       8   98286   98280       8   98286   98283
       9   98292   98289       8   98295   98289       8   98295   98292       9
   98301   98298       8   98304   98298       8   98304   98301       9   98310
   98307       8   98313   98307       8   98313   98310       9   98319   98316
       8   98322   98316       8   98322   98319       9   98328   98325       8
   98331   98325       8   98331   98328       9   98337   98334       8   98340
   98334       8   98340   98337       9   98346   98343       8   98349   98343
       8   98349   98346       9   98355   98352       8   98358   98352       8
   98358   98355       9   98364   98361       8   98367   98361       8   98367
   98364       9   98373   98370       8   98376   98370       8   98376   98373
       9   98382   98379       8   98385   98379       8   98385   98382       9
   98391   98388       8   98394   98388       8   98394   98391       9   98400
   98397       8   98403   98397       8   98403   98400       9   98409   98406
       8   98412   98406       8   98412   98409       9   98418   98415       8
   98421   98415       8   98421   98418       9   98427   98424       8   98430
   98424       8   98430   98427       9   98436   98433       8   98439   98433
       8   98439   98436       9   98445   98442       8   98448   98442       8
   98448   98445       9   98454   98451       8   98457   98451       8   98457
   98454       9   98463   98460       8   98466   98460       8   98466   98463
       9   98472   98469       8   98475   98469       8   98475   98472       9
   98481   98478       8   98484   98478       8   98484   98481       9   98490
   98487       8   98493   98487       8   98493   98490       9   98499   98496
       8   98502   98496       8   98502   98499       9   98508   98505       8
   98511   98505       8   98511   98508       9   98517   98514       8   98520
   98514       8   98520   98517       9   98526   98523       8   98529   98523
       8   98529   98526       9   98535   98532       8   98538   98532       8
   98538   98535       9   98544   98541       8   98547   98541       8   98547
   98544       9   98553   98550       8   98556   98550       8   98556   98553
       9   98562   98559       8   98565   98559       8   98565   98562       9
   98571   98568       8   98574   98568       8   98574   98571       9   98580
   98577       8   98583   98577       8   98583   98580       9   98589   98586
       8   98592   98586       8   98592   98589       9   98598   98595       8
   98601   98595       8   98601   98598       9   98607   98604       8   98610
   98604       8   98610   98607       9   98616   98613       8   98619   98613
       8   98619   98616       9   98625   98622       8   98628   98622       8
   98628   98625       9   98634   98631       8   98637   98631       8   98637
   98634       9   98643   98640       8   98646   98640       8   98646   98643
       9   98652   98649       8   98655   98649       8   98655   98652       9
   98661   98658       8   98664   98658       8   98664   98661       9   98670
   98667       8   98673   98667       8   98673   98670       9   98679   98676
       8   98682   98676       8   98682   98679       9   98688   98685       8
   98691   98685       8   98691   98688       9   98697   98694       8   98700
   98694       8   98700   98697       9   98706   98703       8   98709   98703
       8   98709   98706       9   98715   98712       8   98718   98712       8
   98718   98715       9   98724   98721       8   98727   98721       8   98727
   98724       9   98733   98730       8   98736   98730       8   98736   98733
       9   98742   98739       8   98745   98739       8   98745   98742       9
   98751   98748       8   98754   98748       8   98754   98751       9   98760
   98757       8   98763   98757       8   98763   98760       9   98769   98766
       8   98772   98766       8   98772   98769       9   98778   98775       8
   98781   98775       8   98781   98778       9   98787   98784       8   98790
   98784       8   98790   98787       9   98796   98793       8   98799   98793
       8   98799   98796       9   98805   98802       8   98808   98802       8
   98808   98805       9   98814   98811       8   98817   98811       8   98817
   98814       9   98823   98820       8   98826   98820       8   98826   98823
       9   98832   98829       8   98835   98829       8   98835   98832       9
   98841   98838       8   98844   98838       8   98844   98841       9   98850
   98847       8   98853   98847       8   98853   98850       9   98859   98856
       8   98862   98856       8   98862   98859       9   98868   98865       8
   98871   98865       8   98871   98868       9   98877   98874       8   98880
   98874       8   98880   98877       9   98886   98883       8   98889   98883
       8   98889   98886       9   98895   98892       8   98898   98892       8
   98898   98895       9   98904   98901       8   98907   98901       8   98907
   98904       9   98913   98910       8   98916   98910       8   98916   98913
       9   98922   98919       8   98925   98919       8   98925   98922       9
   98931   98928       8   98934   98928       8   98934   98931       9   98940
   98937       8   98943   98937       8   98943   98940       9   98949   98946
       8   98952   98946       8   98952   98949       9   98958   98955       8
   98961   98955       8   98961   98958       9   98967   98964       8   98970
   98964       8   98970   98967       9   98976   98973       8   98979   98973
       8   98979   98976       9   98985   98982       8   98988   98982       8
   98988   98985       9   98994   98991       8   98997   98991       8   98997
   98994       9   99003   99000       8   99006   99000       8   99006   99003
       9   99012   99009       8   99015   99009       8   99015   99012       9
   99021   99018       8   99024   99018       8   99024   99021       9   99030
   99027       8   99033   99027       8   99033   99030       9   99039   99036
       8   99042   99036       8   99042   99039       9   99048   99045       8
   99051   99045       8   99051   99048       9   99057   99054       8   99060
   99054       8   99060   99057       9   99066   99063       8   99069   99063
       8   99069   99066       9   99075   99072       8   99078   99072       8
   99078   99075       9   99084   99081       8   99087   99081       8   99087
   99084       9   99093   99090       8   99096   99090       8   99096   99093
       9   99102   99099       8   99105   99099       8   99105   99102       9
   99111   99108       8   99114   99108       8   99114   99111       9   99120
   99117       8   99123   99117       8   99123   99120       9   99129   99126
       8   99132   99126       8   99132   99129       9   99138   99135       8
   99141   99135       8   99141   99138       9   99147   99144       8   99150
   99144       8   99150   99147       9   99156   99153       8   99159   99153
       8   99159   99156       9   99165   99162       8   99168   99162       8
   99168   99165       9   99174   99171       8   99177   99171       8   99177
   99174       9   99183   99180       8   99186   99180       8   99186   99183
       9   99192   99189       8   99195   99189       8   99195   99192       9
   99201   99198       8   99204   99198       8   99204   99201       9   99210
   99207       8   99213   99207       8   99213   99210       9   99219   99216
       8   99222   99216       8   99222   99219       9   99228   99225       8
   99231   99225       8   99231   99228       9   99237   99234       8   99240
   99234       8   99240   99237       9   99246   99243       8   99249   99243
       8   99249   99246       9   99255   99252       8   99258   99252       8
   99258   99255       9   99264   99261       8   99267   99261       8   99267
   99264       9   99273   99270       8   99276   99270       8   99276   99273
       9   99282   99279       8   99285   99279       8   99285   99282       9
   99291   99288       8   99294   99288       8   99294   99291       9   99300
   99297       8   99303   99297       8   99303   99300       9   99309   99306
       8   99312   99306       8   99312   99309       9   99318   99315       8
   99321   99315       8   99321   99318       9   99327   99324       8   99330
   99324       8   99330   99327       9   99336   99333       8   99339   99333
       8   99339   99336       9   99345   99342       8   99348   99342       8
   99348   99345       9   99354   99351       8   99357   99351       8   99357
   99354       9   99363   99360       8   99366   99360       8   99366   99363
       9   99372   99369       8   99375   99369       8   99375   99372       9
   99381   99378       8   99384   99378       8   99384   99381       9   99390
   99387       8   99393   99387       8   99393   99390       9   99399   99396
       8   99402   99396       8   99402   99399       9   99408   99405       8
   99411   99405       8   99411   99408       9   99417   99414       8   99420
   99414       8   99420   99417       9   99426   99423       8   99429   99423
       8   99429   99426       9   99435   99432       8   99438   99432       8
   99438   99435       9   99444   99441       8   99447   99441       8   99447
   99444       9   99453   99450       8   99456   99450       8   99456   99453
       9   99462   99459       8   99465   99459       8   99465   99462       9
   99471   99468       8   99474   99468       8   99474   99471       9   99480
   99477       8   99483   99477       8   99483   99480       9   99489   99486
       8   99492   99486       8   99492   99489       9   99498   99495       8
   99501   99495       8   99501   99498       9   99507   99504       8   99510
   99504       8   99510   99507       9   99516   99513       8   99519   99513
       8   99519   99516       9   99525   99522       8   99528   99522       8
   99528   99525       9   99534   99531       8   99537   99531       8   99537
   99534       9   99543   99540       8   99546   99540       8   99546   99543
       9   99552   99549       8   99555   99549       8   99555   99552       9
   99561   99558       8   99564   99558       8   99564   99561       9   99570
   99567       8   99573   99567       8   99573   99570       9   99579   99576
       8   99582   99576       8   99582   99579       9   99588   99585       8
   99591   99585       8   99591   99588       9   99597   99594       8   99600
   99594       8   99600   99597       9   99606   99603       8   99609   99603
       8   99609   99606       9   99615   99612       8   99618   99612       8
   99618   99615       9   99624   99621       8   99627   99621       8   99627
   99624       9   99633   99630       8   99636   99630       8   99636   99633
       9   99642   99639       8   99645   99639       8   99645   99642       9
   99651   99648       8   99654   99648       8   99654   99651       9   99660
   99657       8   99663   99657       8   99663   99660       9   99669   99666
       8   99672   99666       8   99672   99669       9   99678   99675       8
   99681   99675       8   99681   99678       9   99687   99684       8   99690
   99684       8   99690   99687       9   99696   99693       8   99699   99693
       8   99699   99696       9   99705   99702       8   99708   99702       8
   99708   99705       9   99714   99711       8   99717   99711       8   99717
   99714       9   99723   99720       8   99726   99720       8   99726   99723
       9   99732   99729       8   99735   99729       8   99735   99732       9
   99741   99738       8   99744   99738       8   99744   99741       9   99750
   99747       8   99753   99747       8   99753   99750       9   99759   99756
       8   99762   99756       8   99762   99759       9   99768   99765       8
   99771   99765       8   99771   99768       9   99777   99774       8   99780
   99774       8   99780   99777       9   99786   99783       8   99789   99783
       8   99789   99786       9   99795   99792       8   99798   99792       8
   99798   99795       9   99804   99801       8   99807   99801       8   99807
   99804       9   99813   99810       8   99816   99810       8   99816   99813
       9   99822   99819       8   99825   99819       8   99825   99822       9
   99831   99828       8   99834   99828       8   99834   99831       9   99840
   99837       8   99843   99837       8   99843   99840       9   99849   99846
       8   99852   99846       8   99852   99849       9   99858   99855       8
   99861   99855       8   99861   99858       9   99867   99864       8   99870
   99864       8   99870   99867       9   99876   99873       8   99879   99873
       8   99879   99876       9   99885   99882       8   99888   99882       8
   99888   99885       9   99894   99891       8   99897   99891       8   99897
   99894       9   99903   99900       8   99906   99900       8   99906   99903
       9   99912   99909       8   99915   99909       8   99915   99912       9
   99921   99918       8   99924   99918       8   99924   99921       9   99930
   99927       8   99933   99927       8   99933   99930       9   99939   99936
       8   99942   99936       8   99942   99939       9   99948   99945       8
   99951   99945       8   99951   99948       9   99957   99954       8   99960
   99954       8   99960   99957       9   99966   99963       8   99969   99963
       8   99969   99966       9   99975   99972       8   99978   99972       8
   99978   99975       9   99984   99981       8   99987   99981       8   99987
   99984       9   99993   99990       8   99996   99990       8   99996   99993
       9  100002   99999       8  100005   99999       8  100005  100002       9
  100011  100008       8  100014  100008       8  100014  100011       9  100020
  100017       8  100023  100017       8  100023  100020       9  100029  100026
       8  100032  100026       8  100032  100029       9  100038  100035       8
  100041  100035       8  100041  100038       9  100047  100044       8  100050
  100044       8  100050  100047       9  100056  100053       8  100059  100053
       8  100059  100056       9  100065  100062       8  100068  100062       8
  100068  100065       9  100074  100071       8  100077  100071       8  100077
  100074       9  100083  100080       8  100086  100080       8  100086  100083
       9  100092  100089       8  100095  100089       8  100095  100092       9
  100101  100098       8  100104  100098       8  100104  100101       9  100110
  100107       8  100113  100107       8  100113  100110       9  100119  100116
       8  100122  100116       8  100122  100119       9  100128  100125       8
  100131  100125       8  100131  100128       9  100137  100134       8  100140
  100134       8  100140  100137       9  100146  100143       8  100149  100143
       8  100149  100146       9  100155  100152       8  100158  100152       8
  100158  100155       9  100164  100161       8  100167  100161       8  100167
  100164       9  100173  100170       8  100176  100170       8  100176  100173
       9  100182  100179       8  100185  100179       8  100185  100182       9
  100191  100188       8  100194  100188       8  100194  100191       9  100200
  100197       8  100203  100197       8  100203  100200       9  100209  100206
       8  100212  100206       8  100212  100209       9  100218  100215       8
  100221  100215       8  100221  100218       9  100227  100224       8  100230
  100224       8  100230  100227       9  100236  100233       8  100239  100233
       8  100239  100236       9  100245  100242       8  100248  100242       8
  100248  100245       9  100254  100251       8  100257  100251       8  100257
  100254       9  100263  100260       8  100266  100260       8  100266  100263
       9  100272  100269       8  100275  100269       8  100275  100272       9
  100281  100278       8  100284  100278       8  100284  100281       9  100290
  100287       8  100293  100287       8  100293  100290       9  100299  100296
       8  100302  100296       8  100302  100299       9  100308  100305       8
  100311  100305       8  100311  100308       9  100317  100314       8  100320
  100314       8  100320  100317       9  100326  100323       8  100329  100323
       8  100329  100326       9  100335  100332       8  100338  100332       8
  100338  100335       9  100344  100341       8  100347  100341       8  100347
  100344       9  100353  100350       8  100356  100350       8  100356  100353
       9  100362  100359       8  100365  100359       8  100365  100362       9
  100371  100368       8  100374  100368       8  100374  100371       9  100380
  100377       8  100383  100377       8  100383  100380       9  100389  100386
       8  100392  100386       8  100392  100389       9  100398  100395       8
  100401  100395       8  100401  100398       9  100407  100404       8  100410
  100404       8  100410  100407       9  100416  100413       8  100419  100413
       8  100419  100416       9  100425  100422       8  100428  100422       8
  100428  100425       9  100434  100431       8  100437  100431       8  100437
  100434       9  100443  100440       8  100446  100440       8  100446  100443
       9  100452  100449       8  100455  100449       8  100455  100452       9
  100461  100458       8  100464  100458       8  100464  100461       9  100470
  100467       8  100473  100467       8  100473  100470       9  100479  100476
       8  100482  100476       8  100482  100479       9  100488  100485       8
  100491  100485       8  100491  100488       9  100497  100494       8  100500
  100494       8  100500  100497       9  100506  100503       8  100509  100503
       8  100509  100506       9  100515  100512       8  100518  100512       8
  100518  100515       9  100524  100521       8  100527  100521       8  100527
  100524       9  100533  100530       8  100536  100530       8  100536  100533
       9  100542  100539       8  100545  100539       8  100545  100542       9
  100551  100548       8  100554  100548       8  100554  100551       9  100560
  100557       8  100563  100557       8  100563  100560       9  100569  100566
       8  100572  100566       8  100572  100569       9  100578  100575       8
  100581  100575       8  100581  100578       9  100587  100584       8  100590
  100584       8  100590  100587       9  100596  100593       8  100599  100593
       8  100599  100596       9  100605  100602       8  100608  100602       8
  100608  100605       9  100614  100611       8  100617  100611       8  100617
  100614       9  100623  100620       8  100626  100620       8  100626  100623
       9  100632  100629       8  100635  100629       8  100635  100632       9
  100641  100638       8  100644  100638       8  100644  100641       9  100650
  100647       8  100653  100647       8  100653  100650       9  100659  100656
       8  100662  100656       8  100662  100659       9  100668  100665       8
  100671  100665       8  100671  100668       9  100677  100674       8  100680
  100674       8  100680  100677       9  100686  100683       8  100689  100683
       8  100689  100686       9  100695  100692       8  100698  100692       8
  100698  100695       9  100704  100701       8  100707  100701       8  100707
  100704       9  100713  100710       8  100716  100710       8  100716  100713
       9  100722  100719       8  100725  100719       8  100725  100722       9
  100731  100728       8  100734  100728       8  100734  100731       9  100740
  100737       8  100743  100737       8  100743  100740       9  100749  100746
       8  100752  100746       8  100752  100749       9  100758  100755       8
  100761  100755       8  100761  100758       9  100767  100764       8  100770
  100764       8  100770  100767       9  100776  100773       8  100779  100773
       8  100779  100776       9  100785  100782       8  100788  100782       8
  100788  100785       9  100794  100791       8  100797  100791       8  100797
  100794       9  100803  100800       8  100806  100800       8  100806  100803
       9  100812  100809       8  100815  100809       8  100815  100812       9
  100821  100818       8  100824  100818       8  100824  100821       9  100830
  100827       8  100833  100827       8  100833  100830       9  100839  100836
       8  100842  100836       8  100842  100839       9  100848  100845       8
  100851  100845       8  100851  100848       9  100857  100854       8  100860
  100854       8  100860  100857       9  100866  100863       8  100869  100863
       8  100869  100866       9  100875  100872       8  100878  100872       8
  100878  100875       9  100884  100881       8  100887  100881       8  100887
  100884       9  100893  100890       8  100896  100890       8  100896  100893
       9  100902  100899       8  100905  100899       8  100905  100902       9
  100911  100908       8  100914  100908       8  100914  100911       9  100920
  100917       8  100923  100917       8  100923  100920       9  100929  100926
       8  100932  100926       8  100932  100929       9  100938  100935       8
  100941  100935       8  100941  100938       9  100947  100944       8  100950
  100944       8  100950  100947       9  100956  100953       8  100959  100953
       8  100959  100956       9  100965  100962       8  100968  100962       8
  100968  100965       9  100974  100971       8  100977  100971       8  100977
  100974       9  100983  100980       8  100986  100980       8  100986  100983
       9  100992  100989       8  100995  100989       8  100995  100992       9
  101001  100998       8  101004  100998       8  101004  101001       9  101010
  101007       8  101013  101007       8  101013  101010       9  101019  101016
       8  101022  101016       8  101022  101019       9  101028  101025       8
  101031  101025       8  101031  101028       9  101037  101034       8  101040
  101034       8  101040  101037       9  101046  101043       8  101049  101043
       8  101049  101046       9  101055  101052       8  101058  101052       8
  101058  101055       9  101064  101061       8  101067  101061       8  101067
  101064       9  101073  101070       8  101076  101070       8  101076  101073
       9  101082  101079       8  101085  101079       8  101085  101082       9
  101091  101088       8  101094  101088       8  101094  101091       9  101100
  101097       8  101103  101097       8  101103  101100       9  101109  101106
       8  101112  101106       8  101112  101109       9  101118  101115       8
  101121  101115       8  101121  101118       9  101127  101124       8  101130
  101124       8  101130  101127       9  101136  101133       8  101139  101133
       8  101139  101136       9  101145  101142       8  101148  101142       8
  101148  101145       9  101154  101151       8  101157  101151       8  101157
  101154       9  101163  101160       8  101166  101160       8  101166  101163
       9  101172  101169       8  101175  101169       8  101175  101172       9
  101181  101178       8  101184  101178       8  101184  101181       9  101190
  101187       8  101193  101187       8  101193  101190       9  101199  101196
       8  101202  101196       8  101202  101199       9  101208  101205       8
  101211  101205       8  101211  101208       9  101217  101214       8  101220
  101214       8  101220  101217       9  101226  101223       8  101229  101223
       8  101229  101226       9  101235  101232       8  101238  101232       8
  101238  101235       9  101244  101241       8  101247  101241       8  101247
  101244       9  101253  101250       8  101256  101250       8  101256  101253
       9  101262  101259       8  101265  101259       8  101265  101262       9
  101271  101268       8  101274  101268       8  101274  101271       9  101280
  101277       8  101283  101277       8  101283  101280       9  101289  101286
       8  101292  101286       8  101292  101289       9  101298  101295       8
  101301  101295       8  101301  101298       9  101307  101304       8  101310
  101304       8  101310  101307       9  101316  101313       8  101319  101313
       8  101319  101316       9  101325  101322       8  101328  101322       8
  101328  101325       9  101334  101331       8  101337  101331       8  101337
  101334       9  101343  101340       8  101346  101340       8  101346  101343
       9  101352  101349       8  101355  101349       8  101355  101352       9
  101361  101358       8  101364  101358       8  101364  101361       9  101370
  101367       8  101373  101367       8  101373  101370       9  101379  101376
       8  101382  101376       8  101382  101379       9  101388  101385       8
  101391  101385       8  101391  101388       9  101397  101394       8  101400
  101394       8  101400  101397       9  101406  101403       8  101409  101403
       8  101409  101406       9  101415  101412       8  101418  101412       8
  101418  101415       9  101424  101421       8  101427  101421       8  101427
  101424       9  101433  101430       8  101436  101430       8  101436  101433
       9  101442  101439       8  101445  101439       8  101445  101442       9
  101451  101448       8  101454  101448       8  101454  101451       9  101460
  101457       8  101463  101457       8  101463  101460       9  101469  101466
       8  101472  101466       8  101472  101469       9  101478  101475       8
  101481  101475       8  101481  101478       9  101487  101484       8  101490
  101484       8  101490  101487       9  101496  101493       8  101499  101493
       8  101499  101496       9  101505  101502       8  101508  101502       8
  101508  101505       9  101514  101511       8  101517  101511       8  101517
  101514       9  101523  101520       8  101526  101520       8  101526  101523
       9  101532  101529       8  101535  101529       8  101535  101532       9
  101541  101538       8  101544  101538       8  101544  101541       9  101550
  101547       8  101553  101547       8  101553  101550       9  101559  101556
       8  101562  101556       8  101562  101559       9  101568  101565       8
  101571  101565       8  101571  101568       9  101577  101574       8  101580
  101574       8  101580  101577       9  101586  101583       8  101589  101583
       8  101589  101586       9  101595  101592       8  101598  101592       8
  101598  101595       9  101604  101601       8  101607  101601       8  101607
  101604       9  101613  101610       8  101616  101610       8  101616  101613
       9  101622  101619       8  101625  101619       8  101625  101622       9
  101631  101628       8  101634  101628       8  101634  101631       9  101640
  101637       8  101643  101637       8  101643  101640       9  101649  101646
       8  101652  101646       8  101652  101649       9  101658  101655       8
  101661  101655       8  101661  101658       9  101667  101664       8  101670
  101664       8  101670  101667       9  101676  101673       8  101679  101673
       8  101679  101676       9  101685  101682       8  101688  101682       8
  101688  101685       9  101694  101691       8  101697  101691       8  101697
  101694       9  101703  101700       8  101706  101700       8  101706  101703
       9  101712  101709       8  101715  101709       8  101715  101712       9
  101721  101718       8  101724  101718       8  101724  101721       9  101730
  101727       8  101733  101727       8  101733  101730       9  101739  101736
       8  101742  101736       8  101742  101739       9  101748  101745       8
  101751  101745       8  101751  101748       9  101757  101754       8  101760
  101754       8  101760  101757       9  101766  101763       8  101769  101763
       8  101769  101766       9  101775  101772       8  101778  101772       8
  101778  101775       9  101784  101781       8  101787  101781       8  101787
  101784       9  101793  101790       8  101796  101790       8  101796  101793
       9  101802  101799       8  101805  101799       8  101805  101802       9
  101811  101808       8  101814  101808       8  101814  101811       9  101820
  101817       8  101823  101817       8  101823  101820       9  101829  101826
       8  101832  101826       8  101832  101829       9  101838  101835       8
  101841  101835       8  101841  101838       9  101847  101844       8  101850
  101844       8  101850  101847       9  101856  101853       8  101859  101853
       8  101859  101856       9  101865  101862       8  101868  101862       8
  101868  101865       9  101874  101871       8  101877  101871       8  101877
  101874       9  101883  101880       8  101886  101880       8  101886  101883
       9  101892  101889       8  101895  101889       8  101895  101892       9
  101901  101898       8  101904  101898       8  101904  101901       9  101910
  101907       8  101913  101907       8  101913  101910       9  101919  101916
       8  101922  101916       8  101922  101919       9  101928  101925       8
  101931  101925       8  101931  101928       9  101937  101934       8  101940
  101934       8  101940  101937       9  101946  101943       8  101949  101943
       8  101949  101946       9  101955  101952       8  101958  101952       8
  101958  101955       9  101964  101961       8  101967  101961       8  101967
  101964       9  101973  101970       8  101976  101970       8  101976  101973
       9  101982  101979       8  101985  101979       8  101985  101982       9
  101991  101988       8  101994  101988       8  101994  101991       9  102000
  101997       8  102003  101997       8  102003  102000       9  102009  102006
       8  102012  102006       8  102012  102009       9  102018  102015       8
  102021  102015       8  102021  102018       9  102027  102024       8  102030
  102024       8  102030  102027       9  102036  102033       8  102039  102033
       8  102039  102036       9  102045  102042       8  102048  102042       8
  102048  102045       9  102054  102051       8  102057  102051       8  102057
  102054       9  102063  102060       8  102066  102060       8  102066  102063
       9  102072  102069       8  102075  102069       8  102075  102072       9
  102081  102078       8  102084  102078       8  102084  102081       9  102090
  102087       8  102093  102087       8  102093  102090       9  102099  102096
       8  102102  102096       8  102102  102099       9  102108  102105       8
  102111  102105       8  102111  102108       9  102117  102114       8  102120
  102114       8  102120  102117       9  102126  102123       8  102129  102123
       8  102129  102126       9  102135  102132       8  102138  102132       8
  102138  102135       9  102144  102141       8  102147  102141       8  102147
  102144       9  102153  102150       8  102156  102150       8  102156  102153
       9  102162  102159       8  102165  102159       8  102165  102162       9
  102171  102168       8  102174  102168       8  102174  102171       9  102180
  102177       8  102183  102177       8  102183  102180       9  102189  102186
       8  102192  102186       8  102192  102189       9  102198  102195       8
  102201  102195       8  102201  102198       9  102207  102204       8  102210
  102204       8  102210  102207       9  102216  102213       8  102219  102213
       8  102219  102216       9  102225  102222       8  102228  102222       8
  102228  102225       9  102234  102231       8  102237  102231       8  102237
  102234       9  102243  102240       8  102246  102240       8  102246  102243
       9  102252  102249       8  102255  102249       8  102255  102252       9
  102261  102258       8  102264  102258       8  102264  102261       9  102270
  102267       8  102273  102267       8  102273  102270       9  102279  102276
       8  102282  102276       8  102282  102279       9  102288  102285       8
  102291  102285       8  102291  102288       9  102297  102294       8  102300
  102294       8  102300  102297       9  102306  102303       8  102309  102303
       8  102309  102306       9  102315  102312       8  102318  102312       8
  102318  102315       9  102324  102321       8  102327  102321       8  102327
  102324       9  102333  102330       8  102336  102330       8  102336  102333
       9  102342  102339       8  102345  102339       8  102345  102342       9
  102351  102348       8  102354  102348       8  102354  102351       9  102360
  102357       8  102363  102357       8  102363  102360       9  102369  102366
       8  102372  102366       8  102372  102369       9  102378  102375       8
  102381  102375       8  102381  102378       9  102387  102384       8  102390
  102384       8  102390  102387       9  102396  102393       8  102399  102393
       8  102399  102396       9  102405  102402       8  102408  102402       8
  102408  102405       9  102414  102411       8  102417  102411       8  102417
  102414       9  102423  102420       8  102426  102420       8  102426  102423
       9  102432  102429       8  102435  102429       8  102435  102432       9
  102441  102438       8  102444  102438       8  102444  102441       9  102450
  102447       8  102453  102447       8  102453  102450       9  102459  102456
       8  102462  102456       8  102462  102459       9  102468  102465       8
  102471  102465       8  102471  102468       9  102477  102474       8  102480
  102474       8  102480  102477       9  102486  102483       8  102489  102483
       8  102489  102486       9  102495  102492       8  102498  102492       8
  102498  102495       9  102504  102501       8  102507  102501       8  102507
  102504       9  102513  102510       8  102516  102510       8  102516  102513
       9  102522  102519       8  102525  102519       8  102525  102522       9
  102531  102528       8  102534  102528       8  102534  102531       9  102540
  102537       8  102543  102537       8  102543  102540       9  102549  102546
       8  102552  102546       8  102552  102549       9  102558  102555       8
  102561  102555       8  102561  102558       9  102567  102564       8  102570
  102564       8  102570  102567       9  102576  102573       8  102579  102573
       8  102579  102576       9  102585  102582       8  102588  102582       8
  102588  102585       9  102594  102591       8  102597  102591       8  102597
  102594       9  102603  102600       8  102606  102600       8  102606  102603
       9  102612  102609       8  102615  102609       8  102615  102612       9
  102621  102618       8  102624  102618       8  102624  102621       9  102630
  102627       8  102633  102627       8  102633  102630       9  102639  102636
       8  102642  102636       8  102642  102639       9  102648  102645       8
  102651  102645       8  102651  102648       9  102657  102654       8  102660
  102654       8  102660  102657       9  102666  102663       8  102669  102663
       8  102669  102666       9  102675  102672       8  102678  102672       8
  102678  102675       9  102684  102681       8  102687  102681       8  102687
  102684       9  102693  102690       8  102696  102690       8  102696  102693
       9  102702  102699       8  102705  102699       8  102705  102702       9
  102711  102708       8  102714  102708       8  102714  102711       9  102720
  102717       8  102723  102717       8  102723  102720       9  102729  102726
       8  102732  102726       8  102732  102729       9  102738  102735       8
  102741  102735       8  102741  102738       9  102747  102744       8  102750
  102744       8  102750  102747       9  102756  102753       8  102759  102753
       8  102759  102756       9  102765  102762       8  102768  102762       8
  102768  102765       9  102774  102771       8  102777  102771       8  102777
  102774       9  102783  102780       8  102786  102780       8  102786  102783
       9  102792  102789       8  102795  102789       8  102795  102792       9
  102801  102798       8  102804  102798       8  102804  102801       9  102810
  102807       8  102813  102807       8  102813  102810       9  102819  102816
       8  102822  102816       8  102822  102819       9  102828  102825       8
  102831  102825       8  102831  102828       9  102837  102834       8  102840
  102834       8  102840  102837       9  102846  102843       8  102849  102843
       8  102849  102846       9  102855  102852       8  102858  102852       8
  102858  102855       9  102864  102861       8  102867  102861       8  102867
  102864       9  102873  102870       8  102876  102870       8  102876  102873
       9  102882  102879       8  102885  102879       8  102885  102882       9
  102891  102888       8  102894  102888       8  102894  102891       9  102900
  102897       8  102903  102897       8  102903  102900       9  102909  102906
       8  102912  102906       8  102912  102909       9  102918  102915       8
  102921  102915       8  102921  102918       9  102927  102924       8  102930
  102924       8  102930  102927       9  102936  102933       8  102939  102933
       8  102939  102936       9  102945  102942       8  102948  102942       8
  102948  102945       9  102954  102951       8  102957  102951       8  102957
  102954       9  102963  102960       8  102966  102960       8  102966  102963
       9  102972  102969       8  102975  102969       8  102975  102972       9
  102981  102978       8  102984  102978       8  102984  102981       9  102990
  102987       8  102993  102987       8  102993  102990       9  102999  102996
       8  103002  102996       8  103002  102999       9  103008  103005       8
  103011  103005       8  103011  103008       9  103017  103014       8  103020
  103014       8  103020  103017       9  103026  103023       8  103029  103023
       8  103029  103026       9  103035  103032       8  103038  103032       8
  103038  103035       9  103044  103041       8  103047  103041       8  103047
  103044       9  103053  103050       8  103056  103050       8  103056  103053
       9  103062  103059       8  103065  103059       8  103065  103062       9
  103071  103068       8  103074  103068       8  103074  103071       9  103080
  103077       8  103083  103077       8  103083  103080       9  103089  103086
       8  103092  103086       8  103092  103089       9  103098  103095       8
  103101  103095       8  103101  103098       9  103107  103104       8  103110
  103104       8  103110  103107       9  103116  103113       8  103119  103113
       8  103119  103116       9  103125  103122       8  103128  103122       8
  103128  103125       9  103134  103131       8  103137  103131       8  103137
  103134       9  103143  103140       8  103146  103140       8  103146  103143
       9  103152  103149       8  103155  103149       8  103155  103152       9
  103161  103158       8  103164  103158       8  103164  103161       9  103170
  103167       8  103173  103167       8  103173  103170       9  103179  103176
       8  103182  103176       8  103182  103179       9  103188  103185       8
  103191  103185       8  103191  103188       9  103197  103194       8  103200
  103194       8  103200  103197       9  103206  103203       8  103209  103203
       8  103209  103206       9  103215  103212       8  103218  103212       8
  103218  103215       9  103224  103221       8  103227  103221       8  103227
  103224       9  103233  103230       8  103236  103230       8  103236  103233
       9  103242  103239       8  103245  103239       8  103245  103242       9
  103251  103248       8  103254  103248       8  103254  103251       9  103260
  103257       8  103263  103257       8  103263  103260       9  103269  103266
       8  103272  103266       8  103272  103269       9  103278  103275       8
  103281  103275       8  103281  103278       9  103287  103284       8  103290
  103284       8  103290  103287       9  103296  103293       8  103299  103293
       8  103299  103296       9  103305  103302       8  103308  103302       8
  103308  103305       9  103314  103311       8  103317  103311       8  103317
  103314       9  103323  103320       8  103326  103320       8  103326  103323
       9  103332  103329       8  103335  103329       8  103335  103332       9
  103341  103338       8  103344  103338       8  103344  103341       9  103350
  103347       8  103353  103347       8  103353  103350       9  103359  103356
       8  103362  103356       8  103362  103359       9  103368  103365       8
  103371  103365       8  103371  103368       9  103377  103374       8  103380
  103374       8  103380  103377       9  103386  103383       8  103389  103383
       8  103389  103386       9  103395  103392       8  103398  103392       8
  103398  103395       9  103404  103401       8  103407  103401       8  103407
  103404       9  103413  103410       8  103416  103410       8  103416  103413
       9  103422  103419       8  103425  103419       8  103425  103422       9
  103431  103428       8  103434  103428       8  103434  103431       9  103440
  103437       8  103443  103437       8  103443  103440       9  103449  103446
       8  103452  103446       8  103452  103449       9  103458  103455       8
  103461  103455       8  103461  103458       9  103467  103464       8  103470
  103464       8  103470  103467       9  103476  103473       8  103479  103473
       8  103479  103476       9  103485  103482       8  103488  103482       8
  103488  103485       9  103494  103491       8  103497  103491       8  103497
  103494       9  103503  103500       8  103506  103500       8  103506  103503
       9  103512  103509       8  103515  103509       8  103515  103512       9
  103521  103518       8  103524  103518       8  103524  103521       9  103530
  103527       8  103533  103527       8  103533  103530       9  103539  103536
       8  103542  103536       8  103542  103539       9  103548  103545       8
  103551  103545       8  103551  103548       9  103557  103554       8  103560
  103554       8  103560  103557       9  103566  103563       8  103569  103563
       8  103569  103566       9  103575  103572       8  103578  103572       8
  103578  103575       9  103584  103581       8  103587  103581       8  103587
  103584       9  103593  103590       8  103596  103590       8  103596  103593
       9  103602  103599       8  103605  103599       8  103605  103602       9
  103611  103608       8  103614  103608       8  103614  103611       9  103620
  103617       8  103623  103617       8  103623  103620       9  103629  103626
       8  103632  103626       8  103632  103629       9  103638  103635       8
  103641  103635       8  103641  103638       9  103647  103644       8  103650
  103644       8  103650  103647       9  103656  103653       8  103659  103653
       8  103659  103656       9  103665  103662       8  103668  103662       8
  103668  103665       9  103674  103671       8  103677  103671       8  103677
  103674       9  103683  103680       8  103686  103680       8  103686  103683
       9  103692  103689       8  103695  103689       8  103695  103692       9
  103701  103698       8  103704  103698       8  103704  103701       9  103710
  103707       8  103713  103707       8  103713  103710       9  103719  103716
       8  103722  103716       8  103722  103719       9  103728  103725       8
  103731  103725       8  103731  103728       9  103737  103734       8  103740
  103734       8  103740  103737       9  103746  103743       8  103749  103743
       8  103749  103746       9  103755  103752       8  103758  103752       8
  103758  103755       9  103764  103761       8  103767  103761       8  103767
  103764       9  103773  103770       8  103776  103770       8  103776  103773
       9  103782  103779       8  103785  103779       8  103785  103782       9
  103791  103788       8  103794  103788       8  103794  103791       9  103800
  103797       8  103803  103797       8  103803  103800       9  103809  103806
       8  103812  103806       8  103812  103809       9  103818  103815       8
  103821  103815       8  103821  103818       9  103827  103824       8  103830
  103824       8  103830  103827       9  103836  103833       8  103839  103833
       8  103839  103836       9  103845  103842       8  103848  103842       8
  103848  103845       9  103854  103851       8  103857  103851       8  103857
  103854       9  103863  103860       8  103866  103860       8  103866  103863
       9  103872  103869       8  103875  103869       8  103875  103872       9
  103881  103878       8  103884  103878       8  103884  103881       9  103890
  103887       8  103893  103887       8  103893  103890       9  103899  103896
       8  103902  103896       8  103902  103899       9  103908  103905       8
  103911  103905       8  103911  103908       9  103917  103914       8  103920
  103914       8  103920  103917       9  103926  103923       8  103929  103923
       8  103929  103926       9  103935  103932       8  103938  103932       8
  103938  103935       9  103944  103941       8  103947  103941       8  103947
  103944       9  103953  103950       8  103956  103950       8  103956  103953
       9  103962  103959       8  103965  103959       8  103965  103962       9
  103971  103968       8  103974  103968       8  103974  103971       9  103980
  103977       8  103983  103977       8  103983  103980       9  103989  103986
       8  103992  103986       8  103992  103989       9  103998  103995       8
  104001  103995       8  104001  103998       9  104007  104004       8  104010
  104004       8  104010  104007       9  104016  104013       8  104019  104013
       8  104019  104016       9  104025  104022       8  104028  104022       8
  104028  104025       9  104034  104031       8  104037  104031       8  104037
  104034       9  104043  104040       8  104046  104040       8  104046  104043
       9  104052  104049       8  104055  104049       8  104055  104052       9
  104061  104058       8  104064  104058       8  104064  104061       9  104070
  104067       8  104073  104067       8  104073  104070       9  104079  104076
       8  104082  104076       8  104082  104079       9  104088  104085       8
  104091  104085       8  104091  104088       9  104097  104094       8  104100
  104094       8  104100  104097       9  104106  104103       8  104109  104103
       8  104109  104106       9  104115  104112       8  104118  104112       8
  104118  104115       9  104124  104121       8  104127  104121       8  104127
  104124       9  104133  104130       8  104136  104130       8  104136  104133
       9  104142  104139       8  104145  104139       8  104145  104142       9
  104151  104148       8  104154  104148       8  104154  104151       9  104160
  104157       8  104163  104157       8  104163  104160       9  104169  104166
       8  104172  104166       8  104172  104169       9  104178  104175       8
  104181  104175       8  104181  104178       9  104187  104184       8  104190
  104184       8  104190  104187       9  104196  104193       8  104199  104193
       8  104199  104196       9  104205  104202       8  104208  104202       8
  104208  104205       9  104214  104211       8  104217  104211       8  104217
  104214       9  104223  104220       8  104226  104220       8  104226  104223
       9  104232  104229       8  104235  104229       8  104235  104232       9
  104241  104238       8  104244  104238       8  104244  104241       9  104250
  104247       8  104253  104247       8  104253  104250       9  104259  104256
       8  104262  104256       8  104262  104259       9  104268  104265       8
  104271  104265       8  104271  104268       9  104277  104274       8  104280
  104274       8  104280  104277       9  104286  104283       8  104289  104283
       8  104289  104286       9  104295  104292       8  104298  104292       8
  104298  104295       9  104304  104301       8  104307  104301       8  104307
  104304       9  104313  104310       8  104316  104310       8  104316  104313
       9  104322  104319       8  104325  104319       8  104325  104322       9
  104331  104328       8  104334  104328       8  104334  104331       9  104340
  104337       8  104343  104337       8  104343  104340       9  104349  104346
       8  104352  104346       8  104352  104349       9  104358  104355       8
  104361  104355       8  104361  104358       9  104367  104364       8  104370
  104364       8  104370  104367       9  104376  104373       8  104379  104373
       8  104379  104376       9  104385  104382       8  104388  104382       8
  104388  104385       9  104394  104391       8  104397  104391       8  104397
  104394       9  104403  104400       8  104406  104400       8  104406  104403
       9  104412  104409       8  104415  104409       8  104415  104412       9
  104421  104418       8  104424  104418       8  104424  104421       9  104430
  104427       8  104433  104427       8  104433  104430       9  104439  104436
       8  104442  104436       8  104442  104439       9  104448  104445       8
  104451  104445       8  104451  104448       9  104457  104454       8  104460
  104454       8  104460  104457       9  104466  104463       8  104469  104463
       8  104469  104466       9  104475  104472       8  104478  104472       8
  104478  104475       9  104484  104481       8  104487  104481       8  104487
  104484       9  104493  104490       8  104496  104490       8  104496  104493
       9  104502  104499       8  104505  104499       8  104505  104502       9
  104511  104508       8  104514  104508       8  104514  104511       9  104520
  104517       8  104523  104517       8  104523  104520       9  104529  104526
       8  104532  104526       8  104532  104529       9  104538  104535       8
  104541  104535       8  104541  104538       9  104547  104544       8  104550
  104544       8  104550  104547       9  104556  104553       8  104559  104553
       8  104559  104556       9  104565  104562       8  104568  104562       8
  104568  104565       9  104574  104571       8  104577  104571       8  104577
  104574       9  104583  104580       8  104586  104580       8  104586  104583
       9  104592  104589       8  104595  104589       8  104595  104592       9
  104601  104598       8  104604  104598       8  104604  104601       9  104610
  104607       8  104613  104607       8  104613  104610       9  104619  104616
       8  104622  104616       8  104622  104619       9  104628  104625       8
  104631  104625       8  104631  104628       9  104637  104634       8  104640
  104634       8  104640  104637       9  104646  104643       8  104649  104643
       8  104649  104646       9  104655  104652       8  104658  104652       8
  104658  104655       9  104664  104661       8  104667  104661       8  104667
  104664       9  104673  104670       8  104676  104670       8  104676  104673
       9  104682  104679       8  104685  104679       8  104685  104682       9
  104691  104688       8  104694  104688       8  104694  104691       9  104700
  104697       8  104703  104697       8  104703  104700       9  104709  104706
       8  104712  104706       8  104712  104709       9  104718  104715       8
  104721  104715       8  104721  104718       9  104727  104724       8  104730
  104724       8  104730  104727       9  104736  104733       8  104739  104733
       8  104739  104736       9  104745  104742       8  104748  104742       8
  104748  104745       9  104754  104751       8  104757  104751       8  104757
  104754       9  104763  104760       8  104766  104760       8  104766  104763
       9  104772  104769       8  104775  104769       8  104775  104772       9
  104781  104778       8  104784  104778       8  104784  104781       9  104790
  104787       8  104793  104787       8  104793  104790       9  104799  104796
       8  104802  104796       8  104802  104799       9  104808  104805       8
  104811  104805       8  104811  104808       9  104817  104814       8  104820
  104814       8  104820  104817       9  104826  104823       8  104829  104823
       8  104829  104826       9  104835  104832       8  104838  104832       8
  104838  104835       9  104844  104841       8  104847  104841       8  104847
  104844       9  104853  104850       8  104856  104850       8  104856  104853
       9  104862  104859       8  104865  104859       8  104865  104862       9
  104871  104868       8  104874  104868       8  104874  104871       9  104880
  104877       8  104883  104877       8  104883  104880       9  104889  104886
       8  104892  104886       8  104892  104889       9  104898  104895       8
  104901  104895       8  104901  104898       9  104907  104904       8  104910
  104904       8  104910  104907       9  104916  104913       8  104919  104913
       8  104919  104916       9  104925  104922       8  104928  104922       8
  104928  104925       9  104934  104931       8  104937  104931       8  104937
  104934       9  104943  104940       8  104946  104940       8  104946  104943
       9  104952  104949       8  104955  104949       8  104955  104952       9
  104961  104958       8  104964  104958       8  104964  104961       9  104970
  104967       8  104973  104967       8  104973  104970       9  104979  104976
       8  104982  104976       8  104982  104979       9  104988  104985       8
  104991  104985       8  104991  104988       9  104997  104994       8  105000
  104994       8  105000  104997       9  105006  105003       8  105009  105003
       8  105009  105006       9  105015  105012       8  105018  105012       8
  105018  105015       9  105024  105021       8  105027  105021       8  105027
  105024       9  105033  105030       8  105036  105030       8  105036  105033
       9  105042  105039       8  105045  105039       8  105045  105042       9
  105051  105048       8  105054  105048       8  105054  105051       9  105060
  105057       8  105063  105057       8  105063  105060       9  105069  105066
       8  105072  105066       8  105072  105069       9  105078  105075       8
  105081  105075       8  105081  105078       9  105087  105084       8  105090
  105084       8  105090  105087       9  105096  105093       8  105099  105093
       8  105099  105096       9  105105  105102       8  105108  105102       8
  105108  105105       9  105114  105111       8  105117  105111       8  105117
  105114       9  105123  105120       8  105126  105120       8  105126  105123
       9  105132  105129       8  105135  105129       8  105135  105132       9
  105141  105138       8  105144  105138       8  105144  105141       9  105150
  105147       8  105153  105147       8  105153  105150       9  105159  105156
       8  105162  105156       8  105162  105159       9  105168  105165       8
  105171  105165       8  105171  105168       9  105177  105174       8  105180
  105174       8  105180  105177       9  105186  105183       8  105189  105183
       8  105189  105186       9  105195  105192       8  105198  105192       8
  105198  105195       9  105204  105201       8  105207  105201       8  105207
  105204       9  105213  105210       8  105216  105210       8  105216  105213
       9  105222  105219       8  105225  105219       8  105225  105222       9
  105231  105228       8  105234  105228       8  105234  105231       9  105240
  105237       8  105243  105237       8  105243  105240       9  105249  105246
       8  105252  105246       8  105252  105249       9  105258  105255       8
  105261  105255       8  105261  105258       9  105267  105264       8  105270
  105264       8  105270  105267       9  105276  105273       8  105279  105273
       8  105279  105276       9  105285  105282       8  105288  105282       8
  105288  105285       9  105294  105291       8  105297  105291       8  105297
  105294       9  105303  105300       8  105306  105300       8  105306  105303
       9  105312  105309       8  105315  105309       8  105315  105312       9
  105321  105318       8  105324  105318       8  105324  105321       9  105330
  105327       8  105333  105327       8  105333  105330       9  105339  105336
       8  105342  105336       8  105342  105339       9  105348  105345       8
  105351  105345       8  105351  105348       9  105357  105354       8  105360
  105354       8  105360  105357       9  105366  105363       8  105369  105363
       8  105369  105366       9  105375  105372       8  105378  105372       8
  105378  105375       9  105384  105381       8  105387  105381       8  105387
  105384       9  105393  105390       8  105396  105390       8  105396  105393
       9  105402  105399       8  105405  105399       8  105405  105402       9
  105411  105408       8  105414  105408       8  105414  105411       9  105420
  105417       8  105423  105417       8  105423  105420       9  105429  105426
       8  105432  105426       8  105432  105429       9  105438  105435       8
  105441  105435       8  105441  105438       9  105447  105444       8  105450
  105444       8  105450  105447       9  105456  105453       8  105459  105453
       8  105459  105456       9  105465  105462       8  105468  105462       8
  105468  105465       9  105474  105471       8  105477  105471       8  105477
  105474       9  105483  105480       8  105486  105480       8  105486  105483
       9  105492  105489       8  105495  105489       8  105495  105492       9
  105501  105498       8  105504  105498       8  105504  105501       9  105510
  105507       8  105513  105507       8  105513  105510       9  105519  105516
       8  105522  105516       8  105522  105519       9  105528  105525       8
  105531  105525       8  105531  105528       9  105537  105534       8  105540
  105534       8  105540  105537       9  105546  105543       8  105549  105543
       8  105549  105546       9  105555  105552       8  105558  105552       8
  105558  105555       9  105564  105561       8  105567  105561       8  105567
  105564       9  105573  105570       8  105576  105570       8  105576  105573
       9  105582  105579       8  105585  105579       8  105585  105582       9
  105591  105588       8  105594  105588       8  105594  105591       9  105600
  105597       8  105603  105597       8  105603  105600       9  105609  105606
       8  105612  105606       8  105612  105609       9  105618  105615       8
  105621  105615       8  105621  105618       9  105627  105624       8  105630
  105624       8  105630  105627       9  105636  105633       8  105639  105633
       8  105639  105636       9  105645  105642       8  105648  105642       8
  105648  105645       9  105654  105651       8  105657  105651       8  105657
  105654       9  105663  105660       8  105666  105660       8  105666  105663
       9  105672  105669       8  105675  105669       8  105675  105672       9
  105681  105678       8  105684  105678       8  105684  105681       9  105690
  105687       8  105693  105687       8  105693  105690       9  105699  105696
       8  105702  105696       8  105702  105699       9  105708  105705       8
  105711  105705       8  105711  105708       9  105717  105714       8  105720
  105714       8  105720  105717       9  105726  105723       8  105729  105723
       8  105729  105726       9  105735  105732       8  105738  105732       8
  105738  105735       9  105744  105741       8  105747  105741       8  105747
  105744       9  105753  105750       8  105756  105750       8  105756  105753
       9  105762  105759       8  105765  105759       8  105765  105762       9
  105771  105768       8  105774  105768       8  105774  105771       9  105780
  105777       8  105783  105777       8  105783  105780       9  105789  105786
       8  105792  105786       8  105792  105789       9  105798  105795       8
  105801  105795       8  105801  105798       9  105807  105804       8  105810
  105804       8  105810  105807       9  105816  105813       8  105819  105813
       8  105819  105816       9  105825  105822       8  105828  105822       8
  105828  105825       9  105834  105831       8  105837  105831       8  105837
  105834       9  105843  105840       8  105846  105840       8  105846  105843
       9  105852  105849       8  105855  105849       8  105855  105852       9
  105861  105858       8  105864  105858       8  105864  105861       9  105870
  105867       8  105873  105867       8  105873  105870       9  105879  105876
       8  105882  105876       8  105882  105879       9  105888  105885       8
  105891  105885       8  105891  105888       9  105897  105894       8  105900
  105894       8  105900  105897       9  105906  105903       8  105909  105903
       8  105909  105906       9  105915  105912       8  105918  105912       8
  105918  105915       9  105924  105921       8  105927  105921       8  105927
  105924       9  105933  105930       8  105936  105930       8  105936  105933
       9  105942  105939       8  105945  105939       8  105945  105942       9
  105951  105948       8  105954  105948       8  105954  105951       9  105960
  105957       8  105963  105957       8  105963  105960       9  105969  105966
       8  105972  105966       8  105972  105969       9  105978  105975       8
  105981  105975       8  105981  105978       9  105987  105984       8  105990
  105984       8  105990  105987       9  105996  105993       8  105999  105993
       8  105999  105996       9  106005  106002       8  106008  106002       8
  106008  106005       9  106014  106011       8  106017  106011       8  106017
  106014       9  106023  106020       8  106026  106020       8  106026  106023
       9  106032  106029       8  106035  106029       8  106035  106032       9
  106041  106038       8  106044  106038       8  106044  106041       9  106050
  106047       8  106053  106047       8  106053  106050       9  106059  106056
       8  106062  106056       8  106062  106059       9  106068  106065       8
  106071  106065       8  106071  106068       9  106077  106074       8  106080
  106074       8  106080  106077       9  106086  106083       8  106089  106083
       8  106089  106086       9  106095  106092       8  106098  106092       8
  106098  106095       9  106104  106101       8  106107  106101       8  106107
  106104       9  106113  106110       8  106116  106110       8  106116  106113
       9  106122  106119       8  106125  106119       8  106125  106122       9
  106131  106128       8  106134  106128       8  106134  106131       9  106140
  106137       8  106143  106137       8  106143  106140       9  106149  106146
       8  106152  106146       8  106152  106149       9  106158  106155       8
  106161  106155       8  106161  106158       9  106167  106164       8  106170
  106164       8  106170  106167       9  106176  106173       8  106179  106173
       8  106179  106176       9  106185  106182       8  106188  106182       8
  106188  106185       9  106194  106191       8  106197  106191       8  106197
  106194       9  106203  106200       8  106206  106200       8  106206  106203
       9  106212  106209       8  106215  106209       8  106215  106212       9
  106221  106218       8  106224  106218       8  106224  106221       9  106230
  106227       8  106233  106227       8  106233  106230       9  106239  106236
       8  106242  106236       8  106242  106239       9  106248  106245       8
  106251  106245       8  106251  106248       9  106257  106254       8  106260
  106254       8  106260  106257       9  106266  106263       8  106269  106263
       8  106269  106266       9  106275  106272       8  106278  106272       8
  106278  106275       9  106284  106281       8  106287  106281       8  106287
  106284       9  106293  106290       8  106296  106290       8  106296  106293
       9  106302  106299       8  106305  106299       8  106305  106302       9
  106311  106308       8  106314  106308       8  106314  106311       9  106320
  106317       8  106323  106317       8  106323  106320       9  106329  106326
       8  106332  106326       8  106332  106329       9  106338  106335       8
  106341  106335       8  106341  106338       9  106347  106344       8  106350
  106344       8  106350  106347       9  106356  106353       8  106359  106353
       8  106359  106356       9  106365  106362       8  106368  106362       8
  106368  106365       9  106374  106371       8  106377  106371       8  106377
  106374       9  106383  106380       8  106386  106380       8  106386  106383
       9  106392  106389       8  106395  106389       8  106395  106392       9
  106401  106398       8  106404  106398       8  106404  106401       9  106410
  106407       8  106413  106407       8  106413  106410       9  106419  106416
       8  106422  106416       8  106422  106419       9  106428  106425       8
  106431  106425       8  106431  106428       9  106437  106434       8  106440
  106434       8  106440  106437       9  106446  106443       8  106449  106443
       8  106449  106446       9  106455  106452       8  106458  106452       8
  106458  106455       9  106464  106461       8  106467  106461       8  106467
  106464       9  106473  106470       8  106476  106470       8  106476  106473
       9  106482  106479       8  106485  106479       8  106485  106482       9
  106491  106488       8  106494  106488       8  106494  106491       9  106500
  106497       8  106503  106497       8  106503  106500       9  106509  106506
       8  106512  106506       8  106512  106509       9  106518  106515       8
  106521  106515       8  106521  106518       9  106527  106524       8  106530
  106524       8  106530  106527       9  106536  106533       8  106539  106533
       8  106539  106536       9  106545  106542       8  106548  106542       8
  106548  106545       9  106554  106551       8  106557  106551       8  106557
  106554       9  106563  106560       8  106566  106560       8  106566  106563
       9  106572  106569       8  106575  106569       8  106575  106572       9
  106581  106578       8  106584  106578       8  106584  106581       9  106590
  106587       8  106593  106587       8  106593  106590       9  106599  106596
       8  106602  106596       8  106602  106599       9  106608  106605       8
  106611  106605       8  106611  106608       9  106617  106614       8  106620
  106614       8  106620  106617       9  106626  106623       8  106629  106623
       8  106629  106626       9  106635  106632       8  106638  106632       8
  106638  106635       9  106644  106641       8  106647  106641       8  106647
  106644       9  106653  106650       8  106656  106650       8  106656  106653
       9  106662  106659       8  106665  106659       8  106665  106662       9
  106671  106668       8  106674  106668       8  106674  106671       9  106680
  106677       8  106683  106677       8  106683  106680       9  106689  106686
       8  106692  106686       8  106692  106689       9  106698  106695       8
  106701  106695       8  106701  106698       9  106707  106704       8  106710
  106704       8  106710  106707       9  106716  106713       8  106719  106713
       8  106719  106716       9  106725  106722       8  106728  106722       8
  106728  106725       9  106734  106731       8  106737  106731       8  106737
  106734       9  106743  106740       8  106746  106740       8  106746  106743
       9  106752  106749       8  106755  106749       8  106755  106752       9
  106761  106758       8  106764  106758       8  106764  106761       9  106770
  106767       8  106773  106767       8  106773  106770       9  106779  106776
       8  106782  106776       8  106782  106779       9  106788  106785       8
  106791  106785       8  106791  106788       9  106797  106794       8  106800
  106794       8  106800  106797       9  106806  106803       8  106809  106803
       8  106809  106806       9  106815  106812       8  106818  106812       8
  106818  106815       9  106824  106821       8  106827  106821       8  106827
  106824       9  106833  106830       8  106836  106830       8  106836  106833
       9  106842  106839       8  106845  106839       8  106845  106842       9
  106851  106848       8  106854  106848       8  106854  106851       9  106860
  106857       8  106863  106857       8  106863  106860       9  106869  106866
       8  106872  106866       8  106872  106869       9  106878  106875       8
  106881  106875       8  106881  106878       9  106887  106884       8  106890
  106884       8  106890  106887       9  106896  106893       8  106899  106893
       8  106899  106896       9  106905  106902       8  106908  106902       8
  106908  106905       9  106914  106911       8  106917  106911       8  106917
  106914       9  106923  106920       8  106926  106920       8  106926  106923
       9  106932  106929       8  106935  106929       8  106935  106932       9
  106941  106938       8  106944  106938       8  106944  106941       9  106950
  106947       8  106953  106947       8  106953  106950       9  106959  106956
       8  106962  106956       8  106962  106959       9  106968  106965       8
  106971  106965       8  106971  106968       9  106977  106974       8  106980
  106974       8  106980  106977       9  106986  106983       8  106989  106983
       8  106989  106986       9  106995  106992       8  106998  106992       8
  106998  106995       9  107004  107001       8  107007  107001       8  107007
  107004       9  107013  107010       8  107016  107010       8  107016  107013
       9  107022  107019       8  107025  107019       8  107025  107022       9
  107031  107028       8  107034  107028       8  107034  107031       9  107040
  107037       8  107043  107037       8  107043  107040       9  107049  107046
       8  107052  107046       8  107052  107049       9  107058  107055       8
  107061  107055       8  107061  107058       9  107067  107064       8  107070
  107064       8  107070  107067       9  107076  107073       8  107079  107073
       8  107079  107076       9  107085  107082       8  107088  107082       8
  107088  107085       9  107094  107091       8  107097  107091       8  107097
  107094       9  107103  107100       8  107106  107100       8  107106  107103
       9  107112  107109       8  107115  107109       8  107115  107112       9
  107121  107118       8  107124  107118       8  107124  107121       9  107130
  107127       8  107133  107127       8  107133  107130       9  107139  107136
       8  107142  107136       8  107142  107139       9  107148  107145       8
  107151  107145       8  107151  107148       9  107157  107154       8  107160
  107154       8  107160  107157       9  107166  107163       8  107169  107163
       8  107169  107166       9  107175  107172       8  107178  107172       8
  107178  107175       9  107184  107181       8  107187  107181       8  107187
  107184       9  107193  107190       8  107196  107190       8  107196  107193
       9  107202  107199       8  107205  107199       8  107205  107202       9
  107211  107208       8  107214  107208       8  107214  107211       9  107220
  107217       8  107223  107217       8  107223  107220       9  107229  107226
       8  107232  107226       8  107232  107229       9  107238  107235       8
  107241  107235       8  107241  107238       9  107247  107244       8  107250
  107244       8  107250  107247       9  107256  107253       8  107259  107253
       8  107259  107256       9  107265  107262       8  107268  107262       8
  107268  107265       9  107274  107271       8  107277  107271       8  107277
  107274       9  107283  107280       8  107286  107280       8  107286  107283
       9  107292  107289       8  107295  107289       8  107295  107292       9
  107301  107298       8  107304  107298       8  107304  107301       9  107310
  107307       8  107313  107307       8  107313  107310       9  107319  107316
       8  107322  107316       8  107322  107319       9  107328  107325       8
  107331  107325       8  107331  107328       9  107337  107334       8  107340
  107334       8  107340  107337       9  107346  107343       8  107349  107343
       8  107349  107346       9  107355  107352       8  107358  107352       8
  107358  107355       9  107364  107361       8  107367  107361       8  107367
  107364       9  107373  107370       8  107376  107370       8  107376  107373
       9  107382  107379       8  107385  107379       8  107385  107382       9
  107391  107388       8  107394  107388       8  107394  107391       9  107400
  107397       8  107403  107397       8  107403  107400       9  107409  107406
       8  107412  107406       8  107412  107409       9  107418  107415       8
  107421  107415       8  107421  107418       9  107427  107424       8  107430
  107424       8  107430  107427       9  107436  107433       8  107439  107433
       8  107439  107436       9  107445  107442       8  107448  107442       8
  107448  107445       9  107454  107451       8  107457  107451       8  107457
  107454       9  107463  107460       8  107466  107460       8  107466  107463
       9  107472  107469       8  107475  107469       8  107475  107472       9
  107481  107478       8  107484  107478       8  107484  107481       9  107490
  107487       8  107493  107487       8  107493  107490       9  107499  107496
       8  107502  107496       8  107502  107499       9  107508  107505       8
  107511  107505       8  107511  107508       9  107517  107514       8  107520
  107514       8  107520  107517       9  107526  107523       8  107529  107523
       8  107529  107526       9  107535  107532       8  107538  107532       8
  107538  107535       9  107544  107541       8  107547  107541       8  107547
  107544       9  107553  107550       8  107556  107550       8  107556  107553
       9  107562  107559       8  107565  107559       8  107565  107562       9
  107571  107568       8  107574  107568       8  107574  107571       9  107580
  107577       8  107583  107577       8  107583  107580       9  107589  107586
       8  107592  107586       8  107592  107589       9  107598  107595       8
  107601  107595       8  107601  107598       9  107607  107604       8  107610
  107604       8  107610  107607       9  107616  107613       8  107619  107613
       8  107619  107616       9  107625  107622       8  107628  107622       8
  107628  107625       9  107634  107631       8  107637  107631       8  107637
  107634       9  107643  107640       8  107646  107640       8  107646  107643
       9  107652  107649       8  107655  107649       8  107655  107652       9
  107661  107658       8  107664  107658       8  107664  107661       9  107670
  107667       8  107673  107667       8  107673  107670       9  107679  107676
       8  107682  107676       8  107682  107679       9  107688  107685       8
  107691  107685       8  107691  107688       9  107697  107694       8  107700
  107694       8  107700  107697       9  107706  107703       8  107709  107703
       8  107709  107706       9  107715  107712       8  107718  107712       8
  107718  107715       9  107724  107721       8  107727  107721       8  107727
  107724       9  107733  107730       8  107736  107730       8  107736  107733
       9  107742  107739       8  107745  107739       8  107745  107742       9
  107751  107748       8  107754  107748       8  107754  107751       9  107760
  107757       8  107763  107757       8  107763  107760       9  107769  107766
       8  107772  107766       8  107772  107769       9  107778  107775       8
  107781  107775       8  107781  107778       9  107787  107784       8  107790
  107784       8  107790  107787       9  107796  107793       8  107799  107793
       8  107799  107796       9  107805  107802       8  107808  107802       8
  107808  107805       9  107814  107811       8  107817  107811       8  107817
  107814       9  107823  107820       8  107826  107820       8  107826  107823
       9  107832  107829       8  107835  107829       8  107835  107832       9
  107841  107838       8  107844  107838       8  107844  107841       9  107850
  107847       8  107853  107847       8  107853  107850       9  107859  107856
       8  107862  107856       8  107862  107859       9  107868  107865       8
  107871  107865       8  107871  107868       9  107877  107874       8  107880
  107874       8  107880  107877       9  107886  107883       8  107889  107883
       8  107889  107886       9  107895  107892       8  107898  107892       8
  107898  107895       9  107904  107901       8  107907  107901       8  107907
  107904       9  107913  107910       8  107916  107910       8  107916  107913
       9  107922  107919       8  107925  107919       8  107925  107922       9
  107931  107928       8  107934  107928       8  107934  107931       9  107940
  107937       8  107943  107937       8  107943  107940       9  107949  107946
       8  107952  107946       8  107952  107949       9  107958  107955       8
  107961  107955       8  107961  107958       9  107967  107964       8  107970
  107964       8  107970  107967       9  107976  107973       8  107979  107973
       8  107979  107976       9  107985  107982       8  107988  107982       8
  107988  107985       9  107994  107991       8  107997  107991       8  107997
  107994       9  108003  108000       8  108006  108000       8  108006  108003
       9  108012  108009       8  108015  108009       8  108015  108012       9
  108021  108018       8  108024  108018       8  108024  108021       9  108030
  108027       8  108033  108027       8  108033  108030       9  108039  108036
       8  108042  108036       8  108042  108039       9  108048  108045       8
  108051  108045       8  108051  108048       9  108057  108054       8  108060
  108054       8  108060  108057       9  108066  108063       8  108069  108063
       8  108069  108066       9  108075  108072       8  108078  108072       8
  108078  108075       9  108084  108081       8  108087  108081       8  108087
  108084       9  108093  108090       8  108096  108090       8  108096  108093
       9  108102  108099       8  108105  108099       8  108105  108102       9
  108111  108108       8  108114  108108       8  108114  108111       9  108120
  108117       8  108123  108117       8  108123  108120       9  108129  108126
       8  108132  108126       8  108132  108129       9  108138  108135       8
  108141  108135       8  108141  108138       9  108147  108144       8  108150
  108144       8  108150  108147       9  108156  108153       8  108159  108153
       8  108159  108156       9  108165  108162       8  108168  108162       8
  108168  108165       9  108174  108171       8  108177  108171       8  108177
  108174       9  108183  108180       8  108186  108180       8  108186  108183
       9  108192  108189       8  108195  108189       8  108195  108192       9
  108201  108198       8  108204  108198       8  108204  108201       9  108210
  108207       8  108213  108207       8  108213  108210       9  108219  108216
       8  108222  108216       8  108222  108219       9  108228  108225       8
  108231  108225       8  108231  108228       9  108237  108234       8  108240
  108234       8  108240  108237       9  108246  108243       8  108249  108243
       8  108249  108246       9  108255  108252       8  108258  108252       8
  108258  108255       9  108264  108261       8  108267  108261       8  108267
  108264       9  108273  108270       8  108276  108270       8  108276  108273
       9  108282  108279       8  108285  108279       8  108285  108282       9
  108291  108288       8  108294  108288       8  108294  108291       9  108300
  108297       8  108303  108297       8  108303  108300       9  108309  108306
       8  108312  108306       8  108312  108309       9  108318  108315       8
  108321  108315       8  108321  108318       9  108327  108324       8  108330
  108324       8  108330  108327       9  108336  108333       8  108339  108333
       8  108339  108336       9  108345  108342       8  108348  108342       8
  108348  108345       9  108354  108351       8  108357  108351       8  108357
  108354       9  108363  108360       8  108366  108360       8  108366  108363
       9  108372  108369       8  108375  108369       8  108375  108372       9
  108381  108378       8  108384  108378       8  108384  108381       9  108390
  108387       8  108393  108387       8  108393  108390       9  108399  108396
       8  108402  108396       8  108402  108399       9  108408  108405       8
  108411  108405       8  108411  108408       9  108417  108414       8  108420
  108414       8  108420  108417       9  108426  108423       8  108429  108423
       8  108429  108426       9  108435  108432       8  108438  108432       8
  108438  108435       9  108444  108441       8  108447  108441       8  108447
  108444       9  108453  108450       8  108456  108450       8  108456  108453
       9  108462  108459       8  108465  108459       8  108465  108462       9
  108471  108468       8  108474  108468       8  108474  108471       9  108480
  108477       8  108483  108477       8  108483  108480       9  108489  108486
       8  108492  108486       8  108492  108489       9  108498  108495       8
  108501  108495       8  108501  108498       9  108507  108504       8  108510
  108504       8  108510  108507       9  108516  108513       8  108519  108513
       8  108519  108516       9  108525  108522       8  108528  108522       8
  108528  108525       9  108534  108531       8  108537  108531       8  108537
  108534       9  108543  108540       8  108546  108540       8  108546  108543
       9  108552  108549       8  108555  108549       8  108555  108552       9
  108561  108558       8  108564  108558       8  108564  108561       9  108570
  108567       8  108573  108567       8  108573  108570       9  108579  108576
       8  108582  108576       8  108582  108579       9  108588  108585       8
  108591  108585       8  108591  108588       9  108597  108594       8  108600
  108594       8  108600  108597       9  108606  108603       8  108609  108603
       8  108609  108606       9  108615  108612       8  108618  108612       8
  108618  108615       9  108624  108621       8  108627  108621       8  108627
  108624       9  108633  108630       8  108636  108630       8  108636  108633
       9  108642  108639       8  108645  108639       8  108645  108642       9
  108651  108648       8  108654  108648       8  108654  108651       9  108660
  108657       8  108663  108657       8  108663  108660       9  108669  108666
       8  108672  108666       8  108672  108669       9  108678  108675       8
  108681  108675       8  108681  108678       9  108687  108684       8  108690
  108684       8  108690  108687       9  108696  108693       8  108699  108693
       8  108699  108696       9  108705  108702       8  108708  108702       8
  108708  108705       9  108714  108711       8  108717  108711       8  108717
  108714       9  108723  108720       8  108726  108720       8  108726  108723
       9  108732  108729       8  108735  108729       8  108735  108732       9
  108741  108738       8  108744  108738       8  108744  108741       9  108750
  108747       8  108753  108747       8  108753  108750       9  108759  108756
       8  108762  108756       8  108762  108759       9  108768  108765       8
  108771  108765       8  108771  108768       9  108777  108774       8  108780
  108774       8  108780  108777       9  108786  108783       8  108789  108783
       8  108789  108786       9  108795  108792       8  108798  108792       8
  108798  108795       9  108804  108801       8  108807  108801       8  108807
  108804       9  108813  108810       8  108816  108810       8  108816  108813
       9  108822  108819       8  108825  108819       8  108825  108822       9
  108831  108828       8  108834  108828       8  108834  108831       9  108840
  108837       8  108843  108837       8  108843  108840       9  108849  108846
       8  108852  108846       8  108852  108849       9  108858  108855       8
  108861  108855       8  108861  108858       9  108867  108864       8  108870
  108864       8  108870  108867       9  108876  108873       8  108879  108873
       8  108879  108876       9  108885  108882       8  108888  108882       8
  108888  108885       9  108894  108891       8  108897  108891       8  108897
  108894       9  108903  108900       8  108906  108900       8  108906  108903
       9  108912  108909       8  108915  108909       8  108915  108912       9
  108921  108918       8  108924  108918       8  108924  108921       9  108930
  108927       8  108933  108927       8  108933  108930       9  108939  108936
       8  108942  108936       8  108942  108939       9  108948  108945       8
  108951  108945       8  108951  108948       9  108957  108954       8  108960
  108954       8  108960  108957       9  108966  108963       8  108969  108963
       8  108969  108966       9  108975  108972       8  108978  108972       8
  108978  108975       9  108984  108981       8  108987  108981       8  108987
  108984       9  108993  108990       8  108996  108990       8  108996  108993
       9  109002  108999       8  109005  108999       8  109005  109002       9
  109011  109008       8  109014  109008       8  109014  109011       9  109020
  109017       8  109023  109017       8  109023  109020       9  109029  109026
       8  109032  109026       8  109032  109029       9  109038  109035       8
  109041  109035       8  109041  109038       9  109047  109044       8  109050
  109044       8  109050  109047       9  109056  109053       8  109059  109053
       8  109059  109056       9  109065  109062       8  109068  109062       8
  109068  109065       9  109074  109071       8  109077  109071       8  109077
  109074       9  109083  109080       8  109086  109080       8  109086  109083
       9  109092  109089       8  109095  109089       8  109095  109092       9
  109101  109098       8  109104  109098       8  109104  109101       9  109110
  109107       8  109113  109107       8  109113  109110       9  109119  109116
       8  109122  109116       8  109122  109119       9  109128  109125       8
  109131  109125       8  109131  109128       9  109137  109134       8  109140
  109134       8  109140  109137       9  109146  109143       8  109149  109143
       8  109149  109146       9  109155  109152       8  109158  109152       8
  109158  109155       9  109164  109161       8  109167  109161       8  109167
  109164       9  109173  109170       8  109176  109170       8  109176  109173
       9  109182  109179       8  109185  109179       8  109185  109182       9
  109191  109188       8  109194  109188       8  109194  109191       9  109200
  109197       8  109203  109197       8  109203  109200       9  109209  109206
       8  109212  109206       8  109212  109209       9  109218  109215       8
  109221  109215       8  109221  109218       9  109227  109224       8  109230
  109224       8  109230  109227       9  109236  109233       8  109239  109233
       8  109239  109236       9  109245  109242       8  109248  109242       8
  109248  109245       9  109254  109251       8  109257  109251       8  109257
  109254       9  109263  109260       8  109266  109260       8  109266  109263
       9  109272  109269       8  109275  109269       8  109275  109272       9
  109281  109278       8  109284  109278       8  109284  109281       9  109290
  109287       8  109293  109287       8  109293  109290       9  109299  109296
       8  109302  109296       8  109302  109299       9  109308  109305       8
  109311  109305       8  109311  109308       9  109317  109314       8  109320
  109314       8  109320  109317       9  109326  109323       8  109329  109323
       8  109329  109326       9  109335  109332       8  109338  109332       8
  109338  109335       9  109344  109341       8  109347  109341       8  109347
  109344       9  109353  109350       8  109356  109350       8  109356  109353
       9  109362  109359       8  109365  109359       8  109365  109362       9
  109371  109368       8  109374  109368       8  109374  109371       9  109380
  109377       8  109383  109377       8  109383  109380       9  109389  109386
       8  109392  109386       8  109392  109389       9  109398  109395       8
  109401  109395       8  109401  109398       9  109407  109404       8  109410
  109404       8  109410  109407       9  109416  109413       8  109419  109413
       8  109419  109416       9  109425  109422       8  109428  109422       8
  109428  109425       9  109434  109431       8  109437  109431       8  109437
  109434       9  109443  109440       8  109446  109440       8  109446  109443
       9  109452  109449       8  109455  109449       8  109455  109452       9
  109461  109458       8  109464  109458       8  109464  109461       9  109470
  109467       8  109473  109467       8  109473  109470       9  109479  109476
       8  109482  109476       8  109482  109479       9  109488  109485       8
  109491  109485       8  109491  109488       9  109497  109494       8  109500
  109494       8  109500  109497       9  109506  109503       8  109509  109503
       8  109509  109506       9  109515  109512       8  109518  109512       8
  109518  109515       9  109524  109521       8  109527  109521       8  109527
  109524       9  109533  109530       8  109536  109530       8  109536  109533
       9  109542  109539       8  109545  109539       8  109545  109542       9
  109551  109548       8  109554  109548       8  109554  109551       9  109560
  109557       8  109563  109557       8  109563  109560       9  109569  109566
       8  109572  109566       8  109572  109569       9  109578  109575       8
  109581  109575       8  109581  109578       9  109587  109584       8  109590
  109584       8  109590  109587       9  109596  109593       8  109599  109593
       8  109599  109596       9  109605  109602       8  109608  109602       8
  109608  109605       9  109614  109611       8  109617  109611       8  109617
  109614       9  109623  109620       8  109626  109620       8  109626  109623
       9  109632  109629       8  109635  109629       8  109635  109632       9
  109641  109638       8  109644  109638       8  109644  109641       9  109650
  109647       8  109653  109647       8  109653  109650       9  109659  109656
       8  109662  109656       8  109662  109659       9  109668  109665       8
  109671  109665       8  109671  109668       9  109677  109674       8  109680
  109674       8  109680  109677       9  109686  109683       8  109689  109683
       8  109689  109686       9  109695  109692       8  109698  109692       8
  109698  109695       9  109704  109701       8  109707  109701       8  109707
  109704       9  109713  109710       8  109716  109710       8  109716  109713
       9  109722  109719       8  109725  109719       8  109725  109722       9
  109731  109728       8  109734  109728       8  109734  109731       9  109740
  109737       8  109743  109737       8  109743  109740       9  109749  109746
       8  109752  109746       8  109752  109749       9  109758  109755       8
  109761  109755       8  109761  109758       9  109767  109764       8  109770
  109764       8  109770  109767       9  109776  109773       8  109779  109773
       8  109779  109776       9  109785  109782       8  109788  109782       8
  109788  109785       9  109794  109791       8  109797  109791       8  109797
  109794       9  109803  109800       8  109806  109800       8  109806  109803
       9  109812  109809       8  109815  109809       8  109815  109812       9
  109821  109818       8  109824  109818       8  109824  109821       9  109830
  109827       8  109833  109827       8  109833  109830       9  109839  109836
       8  109842  109836       8  109842  109839       9  109848  109845       8
  109851  109845       8  109851  109848       9  109857  109854       8  109860
  109854       8  109860  109857       9  109866  109863       8  109869  109863
       8  109869  109866       9  109875  109872       8  109878  109872       8
  109878  109875       9  109884  109881       8  109887  109881       8  109887
  109884       9  109893  109890       8  109896  109890       8  109896  109893
       9  109902  109899       8  109905  109899       8  109905  109902       9
  109911  109908       8  109914  109908       8  109914  109911       9  109920
  109917       8  109923  109917       8  109923  109920       9  109929  109926
       8  109932  109926       8  109932  109929       9  109938  109935       8
  109941  109935       8  109941  109938       9  109947  109944       8  109950
  109944       8  109950  109947       9  109956  109953       8  109959  109953
       8  109959  109956       9  109965  109962       8  109968  109962       8
  109968  109965       9  109974  109971       8  109977  109971       8  109977
  109974       9  109983  109980       8  109986  109980       8  109986  109983
       9  109992  109989       8  109995  109989       8  109995  109992       9
  110001  109998       8  110004  109998       8  110004  110001       9  110010
  110007       8  110013  110007       8  110013  110010       9  110019  110016
       8  110022  110016       8  110022  110019       9  110028  110025       8
  110031  110025       8  110031  110028       9  110037  110034       8  110040
  110034       8  110040  110037       9  110046  110043       8  110049  110043
       8  110049  110046       9  110055  110052       8  110058  110052       8
  110058  110055       9  110064  110061       8  110067  110061       8  110067
  110064       9  110073  110070       8  110076  110070       8  110076  110073
       9  110082  110079       8  110085  110079       8  110085  110082       9
  110091  110088       8  110094  110088       8  110094  110091       9  110100
  110097       8  110103  110097       8  110103  110100       9  110109  110106
       8  110112  110106       8  110112  110109       9  110118  110115       8
  110121  110115       8  110121  110118       9  110127  110124       8  110130
  110124       8  110130  110127       9  110136  110133       8  110139  110133
       8  110139  110136       9  110145  110142       8  110148  110142       8
  110148  110145       9  110154  110151       8  110157  110151       8  110157
  110154       9  110163  110160       8  110166  110160       8  110166  110163
       9  110172  110169       8  110175  110169       8  110175  110172       9
  110181  110178       8  110184  110178       8  110184  110181       9  110190
  110187       8  110193  110187       8  110193  110190       9  110199  110196
       8  110202  110196       8  110202  110199       9  110208  110205       8
  110211  110205       8  110211  110208       9  110217  110214       8  110220
  110214       8  110220  110217       9  110226  110223       8  110229  110223
       8  110229  110226       9  110235  110232       8  110238  110232       8
  110238  110235       9  110244  110241       8  110247  110241       8  110247
  110244       9  110253  110250       8  110256  110250       8  110256  110253
       9  110262  110259       8  110265  110259       8  110265  110262       9
  110271  110268       8  110274  110268       8  110274  110271       9  110280
  110277       8  110283  110277       8  110283  110280       9  110289  110286
       8  110292  110286       8  110292  110289       9  110298  110295       8
  110301  110295       8  110301  110298       9  110307  110304       8  110310
  110304       8  110310  110307       9  110316  110313       8  110319  110313
       8  110319  110316       9  110325  110322       8  110328  110322       8
  110328  110325       9  110334  110331       8  110337  110331       8  110337
  110334       9  110343  110340       8  110346  110340       8  110346  110343
       9  110352  110349       8  110355  110349       8  110355  110352       9
  110361  110358       8  110364  110358       8  110364  110361       9  110370
  110367       8  110373  110367       8  110373  110370       9  110379  110376
       8  110382  110376       8  110382  110379       9  110388  110385       8
  110391  110385       8  110391  110388       9  110397  110394       8  110400
  110394       8  110400  110397       9  110406  110403       8  110409  110403
       8  110409  110406       9  110415  110412       8  110418  110412       8
  110418  110415       9  110424  110421       8  110427  110421       8  110427
  110424       9  110433  110430       8  110436  110430       8  110436  110433
       9  110442  110439       8  110445  110439       8  110445  110442       9
  110451  110448       8  110454  110448       8  110454  110451       9  110460
  110457       8  110463  110457       8  110463  110460       9  110469  110466
       8  110472  110466       8  110472  110469       9  110478  110475       8
  110481  110475       8  110481  110478       9  110487  110484       8  110490
  110484       8  110490  110487       9  110496  110493       8  110499  110493
       8  110499  110496       9  110505  110502       8  110508  110502       8
  110508  110505       9  110514  110511       8  110517  110511       8  110517
  110514       9  110523  110520       8  110526  110520       8  110526  110523
       9  110532  110529       8  110535  110529       8  110535  110532       9
  110541  110538       8  110544  110538       8  110544  110541       9  110550
  110547       8  110553  110547       8  110553  110550       9  110559  110556
       8  110562  110556       8  110562  110559       9  110568  110565       8
  110571  110565       8  110571  110568       9  110577  110574       8  110580
  110574       8  110580  110577       9  110586  110583       8  110589  110583
       8  110589  110586       9  110595  110592       8  110598  110592       8
  110598  110595       9  110604  110601       8  110607  110601       8  110607
  110604       9  110613  110610       8  110616  110610       8  110616  110613
       9  110622  110619       8  110625  110619       8  110625  110622       9
  110631  110628       8  110634  110628       8  110634  110631       9  110640
  110637       8  110643  110637       8  110643  110640       9  110649  110646
       8  110652  110646       8  110652  110649       9  110658  110655       8
  110661  110655       8  110661  110658       9  110667  110664       8  110670
  110664       8  110670  110667       9  110676  110673       8  110679  110673
       8  110679  110676       9  110685  110682       8  110688  110682       8
  110688  110685       9  110694  110691       8  110697  110691       8  110697
  110694       9  110703  110700       8  110706  110700       8  110706  110703
       9  110712  110709       8  110715  110709       8  110715  110712       9
  110721  110718       8  110724  110718       8  110724  110721       9  110730
  110727       8  110733  110727       8  110733  110730       9  110739  110736
       8  110742  110736       8  110742  110739       9  110748  110745       8
  110751  110745       8  110751  110748       9  110757  110754       8  110760
  110754       8  110760  110757       9  110766  110763       8  110769  110763
       8  110769  110766       9  110775  110772       8  110778  110772       8
  110778  110775       9  110784  110781       8  110787  110781       8  110787
  110784       9  110793  110790       8  110796  110790       8  110796  110793
       9  110802  110799       8  110805  110799       8  110805  110802       9
  110811  110808       8  110814  110808       8  110814  110811       9  110820
  110817       8  110823  110817       8  110823  110820       9  110829  110826
       8  110832  110826       8  110832  110829       9  110838  110835       8
  110841  110835       8  110841  110838       9  110847  110844       8  110850
  110844       8  110850  110847       9  110856  110853       8  110859  110853
       8  110859  110856       9  110865  110862       8  110868  110862       8
  110868  110865       9  110874  110871       8  110877  110871       8  110877
  110874       9  110883  110880       8  110886  110880       8  110886  110883
       9  110892  110889       8  110895  110889       8  110895  110892       9
  110901  110898       8  110904  110898       8  110904  110901       9  110910
  110907       8  110913  110907       8  110913  110910       9  110919  110916
       8  110922  110916       8  110922  110919       9  110928  110925       8
  110931  110925       8  110931  110928       9  110937  110934       8  110940
  110934       8  110940  110937       9  110946  110943       8  110949  110943
       8  110949  110946       9  110955  110952       8  110958  110952       8
  110958  110955       9  110964  110961       8  110967  110961       8  110967
  110964       9  110973  110970       8  110976  110970       8  110976  110973
       9  110982  110979       8  110985  110979       8  110985  110982       9
  110991  110988       8  110994  110988       8  110994  110991       9  111000
  110997       8  111003  110997       8  111003  111000       9  111009  111006
       8  111012  111006       8  111012  111009       9  111018  111015       8
  111021  111015       8  111021  111018       9  111027  111024       8  111030
  111024       8  111030  111027       9  111036  111033       8  111039  111033
       8  111039  111036       9  111045  111042       8  111048  111042       8
  111048  111045       9  111054  111051       8  111057  111051       8  111057
  111054       9  111063  111060       8  111066  111060       8  111066  111063
       9  111072  111069       8  111075  111069       8  111075  111072       9
  111081  111078       8  111084  111078       8  111084  111081       9  111090
  111087       8  111093  111087       8  111093  111090       9  111099  111096
       8  111102  111096       8  111102  111099       9  111108  111105       8
  111111  111105       8  111111  111108       9  111117  111114       8  111120
  111114       8  111120  111117       9  111126  111123       8  111129  111123
       8  111129  111126       9  111135  111132       8  111138  111132       8
  111138  111135       9  111144  111141       8  111147  111141       8  111147
  111144       9  111153  111150       8  111156  111150       8  111156  111153
       9  111162  111159       8  111165  111159       8  111165  111162       9
  111171  111168       8  111174  111168       8  111174  111171       9  111180
  111177       8  111183  111177       8  111183  111180       9  111189  111186
       8  111192  111186       8  111192  111189       9  111198  111195       8
  111201  111195       8  111201  111198       9  111207  111204       8  111210
  111204       8  111210  111207       9  111216  111213       8  111219  111213
       8  111219  111216       9  111225  111222       8  111228  111222       8
  111228  111225       9  111234  111231       8  111237  111231       8  111237
  111234       9  111243  111240       8  111246  111240       8  111246  111243
       9  111252  111249       8  111255  111249       8  111255  111252       9
  111261  111258       8  111264  111258       8  111264  111261       9  111270
  111267       8  111273  111267       8  111273  111270       9  111279  111276
       8  111282  111276       8  111282  111279       9  111288  111285       8
  111291  111285       8  111291  111288       9  111297  111294       8  111300
  111294       8  111300  111297       9  111306  111303       8  111309  111303
       8  111309  111306       9  111315  111312       8  111318  111312       8
  111318  111315       9  111324  111321       8  111327  111321       8  111327
  111324       9  111333  111330       8  111336  111330       8  111336  111333
       9  111342  111339       8  111345  111339       8  111345  111342       9
  111351  111348       8  111354  111348       8  111354  111351       9  111360
  111357       8  111363  111357       8  111363  111360       9  111369  111366
       8  111372  111366       8  111372  111369       9  111378  111375       8
  111381  111375       8  111381  111378       9  111387  111384       8  111390
  111384       8  111390  111387       9  111396  111393       8  111399  111393
       8  111399  111396       9  111405  111402       8  111408  111402       8
  111408  111405       9  111414  111411       8  111417  111411       8  111417
  111414       9  111423  111420       8  111426  111420       8  111426  111423
       9  111432  111429       8  111435  111429       8  111435  111432       9
  111441  111438       8  111444  111438       8  111444  111441       9  111450
  111447       8  111453  111447       8  111453  111450       9  111459  111456
       8  111462  111456       8  111462  111459       9  111468  111465       8
  111471  111465       8  111471  111468       9  111477  111474       8  111480
  111474       8  111480  111477       9  111486  111483       8  111489  111483
       8  111489  111486       9  111495  111492       8  111498  111492       8
  111498  111495       9  111504  111501       8  111507  111501       8  111507
  111504       9  111513  111510       8  111516  111510       8  111516  111513
       9  111522  111519       8  111525  111519       8  111525  111522       9
  111531  111528       8  111534  111528       8  111534  111531       9  111540
  111537       8  111543  111537       8  111543  111540       9  111549  111546
       8  111552  111546       8  111552  111549       9  111558  111555       8
  111561  111555       8  111561  111558       9  111567  111564       8  111570
  111564       8  111570  111567       9  111576  111573       8  111579  111573
       8  111579  111576       9  111585  111582       8  111588  111582       8
  111588  111585       9  111594  111591       8  111597  111591       8  111597
  111594       9  111603  111600       8  111606  111600       8  111606  111603
       9  111612  111609       8  111615  111609       8  111615  111612       9
  111621  111618       8  111624  111618       8  111624  111621       9  111630
  111627       8  111633  111627       8  111633  111630       9  111639  111636
       8  111642  111636       8  111642  111639       9  111648  111645       8
  111651  111645       8  111651  111648       9  111657  111654       8  111660
  111654       8  111660  111657       9  111666  111663       8  111669  111663
       8  111669  111666       9  111675  111672       8  111678  111672       8
  111678  111675       9  111684  111681       8  111687  111681       8  111687
  111684       9  111693  111690       8  111696  111690       8  111696  111693
       9  111702  111699       8  111705  111699       8  111705  111702       9
  111711  111708       8  111714  111708       8  111714  111711       9  111720
  111717       8  111723  111717       8  111723  111720       9  111729  111726
       8  111732  111726       8  111732  111729       9  111738  111735       8
  111741  111735       8  111741  111738       9  111747  111744       8  111750
  111744       8  111750  111747       9  111756  111753       8  111759  111753
       8  111759  111756       9  111765  111762       8  111768  111762       8
  111768  111765       9  111774  111771       8  111777  111771       8  111777
  111774       9  111783  111780       8  111786  111780       8  111786  111783
       9  111792  111789       8  111795  111789       8  111795  111792       9
  111801  111798       8  111804  111798       8  111804  111801       9  111810
  111807       8  111813  111807       8  111813  111810       9  111819  111816
       8  111822  111816       8  111822  111819       9  111828  111825       8
  111831  111825       8  111831  111828       9  111837  111834       8  111840
  111834       8  111840  111837       9  111846  111843       8  111849  111843
       8  111849  111846       9  111855  111852       8  111858  111852       8
  111858  111855       9  111864  111861       8  111867  111861       8  111867
  111864       9  111873  111870       8  111876  111870       8  111876  111873
       9  111882  111879       8  111885  111879       8  111885  111882       9
  111891  111888       8  111894  111888       8  111894  111891       9  111900
  111897       8  111903  111897       8  111903  111900       9  111909  111906
       8  111912  111906       8  111912  111909       9  111918  111915       8
  111921  111915       8  111921  111918       9  111927  111924       8  111930
  111924       8  111930  111927       9  111936  111933       8  111939  111933
       8  111939  111936       9  111945  111942       8  111948  111942       8
  111948  111945       9  111954  111951       8  111957  111951       8  111957
  111954       9  111963  111960       8  111966  111960       8  111966  111963
       9  111972  111969       8  111975  111969       8  111975  111972       9
  111981  111978       8  111984  111978       8  111984  111981       9  111990
  111987       8  111993  111987       8  111993  111990       9  111999  111996
       8  112002  111996       8  112002  111999       9  112008  112005       8
  112011  112005       8  112011  112008       9  112017  112014       8  112020
  112014       8  112020  112017       9  112026  112023       8  112029  112023
       8  112029  112026       9  112035  112032       8  112038  112032       8
  112038  112035       9  112044  112041       8  112047  112041       8  112047
  112044       9  112053  112050       8  112056  112050       8  112056  112053
       9  112062  112059       8  112065  112059       8  112065  112062       9
  112071  112068       8  112074  112068       8  112074  112071       9  112080
  112077       8  112083  112077       8  112083  112080       9  112089  112086
       8  112092  112086       8  112092  112089       9  112098  112095       8
  112101  112095       8  112101  112098       9  112107  112104       8  112110
  112104       8  112110  112107       9  112116  112113       8  112119  112113
       8  112119  112116       9  112125  112122       8  112128  112122       8
  112128  112125       9  112134  112131       8  112137  112131       8  112137
  112134       9  112143  112140       8  112146  112140       8  112146  112143
       9  112152  112149       8  112155  112149       8  112155  112152       9
  112161  112158       8  112164  112158       8  112164  112161       9  112170
  112167       8  112173  112167       8  112173  112170       9  112179  112176
       8  112182  112176       8  112182  112179       9  112188  112185       8
  112191  112185       8  112191  112188       9  112197  112194       8  112200
  112194       8  112200  112197       9  112206  112203       8  112209  112203
       8  112209  112206       9  112215  112212       8  112218  112212       8
  112218  112215       9  112224  112221       8  112227  112221       8  112227
  112224       9  112233  112230       8  112236  112230       8  112236  112233
       9  112242  112239       8  112245  112239       8  112245  112242       9
  112251  112248       8  112254  112248       8  112254  112251       9  112260
  112257       8  112263  112257       8  112263  112260       9  112269  112266
       8  112272  112266       8  112272  112269       9  112278  112275       8
  112281  112275       8  112281  112278       9  112287  112284       8  112290
  112284       8  112290  112287       9  112296  112293       8  112299  112293
       8  112299  112296       9  112305  112302       8  112308  112302       8
  112308  112305       9  112314  112311       8  112317  112311       8  112317
  112314       9  112323  112320       8  112326  112320       8  112326  112323
       9  112332  112329       8  112335  112329       8  112335  112332       9
  112341  112338       8  112344  112338       8  112344  112341       9  112350
  112347       8  112353  112347       8  112353  112350       9  112359  112356
       8  112362  112356       8  112362  112359       9  112368  112365       8
  112371  112365       8  112371  112368       9  112377  112374       8  112380
  112374       8  112380  112377       9  112386  112383       8  112389  112383
       8  112389  112386       9  112395  112392       8  112398  112392       8
  112398  112395       9  112404  112401       8  112407  112401       8  112407
  112404       9  112413  112410       8  112416  112410       8  112416  112413
       9  112422  112419       8  112425  112419       8  112425  112422       9
  112431  112428       8  112434  112428       8  112434  112431       9  112440
  112437       8  112443  112437       8  112443  112440       9  112449  112446
       8  112452  112446       8  112452  112449       9  112458  112455       8
  112461  112455       8  112461  112458       9  112467  112464       8  112470
  112464       8  112470  112467       9  112476  112473       8  112479  112473
       8  112479  112476       9  112485  112482       8  112488  112482       8
  112488  112485       9  112494  112491       8  112497  112491       8  112497
  112494       9  112503  112500       8  112506  112500       8  112506  112503
       9  112512  112509       8  112515  112509       8  112515  112512       9
  112521  112518       8  112524  112518       8  112524  112521       9  112530
  112527       8  112533  112527       8  112533  112530       9  112539  112536
       8  112542  112536       8  112542  112539       9  112548  112545       8
  112551  112545       8  112551  112548       9  112557  112554       8  112560
  112554       8  112560  112557       9  112566  112563       8  112569  112563
       8  112569  112566       9  112575  112572       8  112578  112572       8
  112578  112575       9  112584  112581       8  112587  112581       8  112587
  112584       9  112593  112590       8  112596  112590       8  112596  112593
       9  112602  112599       8  112605  112599       8  112605  112602       9
  112611  112608       8  112614  112608       8  112614  112611       9  112620
  112617       8  112623  112617       8  112623  112620       9  112629  112626
       8  112632  112626       8  112632  112629       9  112638  112635       8
  112641  112635       8  112641  112638       9  112647  112644       8  112650
  112644       8  112650  112647       9  112656  112653       8  112659  112653
       8  112659  112656       9  112665  112662       8  112668  112662       8
  112668  112665       9  112674  112671       8  112677  112671       8  112677
  112674       9  112683  112680       8  112686  112680       8  112686  112683
       9  112692  112689       8  112695  112689       8  112695  112692       9
  112701  112698       8  112704  112698       8  112704  112701       9  112710
  112707       8  112713  112707       8  112713  112710       9  112719  112716
       8  112722  112716       8  112722  112719       9  112728  112725       8
  112731  112725       8  112731  112728       9  112737  112734       8  112740
  112734       8  112740  112737       9  112746  112743       8  112749  112743
       8  112749  112746       9  112755  112752       8  112758  112752       8
  112758  112755       9  112764  112761       8  112767  112761       8  112767
  112764       9  112773  112770       8  112776  112770       8  112776  112773
       9  112782  112779       8  112785  112779       8  112785  112782       9
  112791  112788       8  112794  112788       8  112794  112791       9  112800
  112797       8  112803  112797       8  112803  112800       9  112809  112806
       8  112812  112806       8  112812  112809       9  112818  112815       8
  112821  112815       8  112821  112818       9  112827  112824       8  112830
  112824       8  112830  112827       9  112836  112833       8  112839  112833
       8  112839  112836       9  112845  112842       8  112848  112842       8
  112848  112845       9  112854  112851       8  112857  112851       8  112857
  112854       9  112863  112860       8  112866  112860       8  112866  112863
       9  112872  112869       8  112875  112869       8  112875  112872       9
  112881  112878       8  112884  112878       8  112884  112881       9  112890
  112887       8  112893  112887       8  112893  112890       9  112899  112896
       8  112902  112896       8  112902  112899       9  112908  112905       8
  112911  112905       8  112911  112908       9  112917  112914       8  112920
  112914       8  112920  112917       9  112926  112923       8  112929  112923
       8  112929  112926       9  112935  112932       8  112938  112932       8
  112938  112935       9  112944  112941       8  112947  112941       8  112947
  112944       9  112953  112950       8  112956  112950       8  112956  112953
       9  112962  112959       8  112965  112959       8  112965  112962       9
  112971  112968       8  112974  112968       8  112974  112971       9  112980
  112977       8  112983  112977       8  112983  112980       9  112989  112986
       8  112992  112986       8  112992  112989       9  112998  112995       8
  113001  112995       8  113001  112998       9  113007  113004       8  113010
  113004       8  113010  113007       9  113016  113013       8  113019  113013
       8  113019  113016       9  113025  113022       8  113028  113022       8
  113028  113025       9  113034  113031       8  113037  113031       8  113037
  113034       9  113043  113040       8  113046  113040       8  113046  113043
       9  113052  113049       8  113055  113049       8  113055  113052       9
  113061  113058       8  113064  113058       8  113064  113061       9  113070
  113067       8  113073  113067       8  113073  113070       9  113079  113076
       8  113082  113076       8  113082  113079       9  113088  113085       8
  113091  113085       8  113091  113088       9  113097  113094       8  113100
  113094       8  113100  113097       9  113106  113103       8  113109  113103
       8  113109  113106       9  113115  113112       8  113118  113112       8
  113118  113115       9  113124  113121       8  113127  113121       8  113127
  113124       9  113133  113130       8  113136  113130       8  113136  113133
       9  113142  113139       8  113145  113139       8  113145  113142       9
  113151  113148       8  113154  113148       8  113154  113151       9  113160
  113157       8  113163  113157       8  113163  113160       9  113169  113166
       8  113172  113166       8  113172  113169       9  113178  113175       8
  113181  113175       8  113181  113178       9  113187  113184       8  113190
  113184       8  113190  113187       9  113196  113193       8  113199  113193
       8  113199  113196       9  113205  113202       8  113208  113202       8
  113208  113205       9  113214  113211       8  113217  113211       8  113217
  113214       9  113223  113220       8  113226  113220       8  113226  113223
       9  113232  113229       8  113235  113229       8  113235  113232       9
  113241  113238       8  113244  113238       8  113244  113241       9  113250
  113247       8  113253  113247       8  113253  113250       9  113259  113256
       8  113262  113256       8  113262  113259       9  113268  113265       8
  113271  113265       8  113271  113268       9  113277  113274       8  113280
  113274       8  113280  113277       9  113286  113283       8  113289  113283
       8  113289  113286       9  113295  113292       8  113298  113292       8
  113298  113295       9  113304  113301       8  113307  113301       8  113307
  113304       9  113313  113310       8  113316  113310       8  113316  113313
       9  113322  113319       8  113325  113319       8  113325  113322       9
  113331  113328       8  113334  113328       8  113334  113331       9  113340
  113337       8  113343  113337       8  113343  113340       9  113349  113346
       8  113352  113346       8  113352  113349       9  113358  113355       8
  113361  113355       8  113361  113358       9  113367  113364       8  113370
  113364       8  113370  113367       9  113376  113373       8  113379  113373
       8  113379  113376       9  113385  113382       8  113388  113382       8
  113388  113385       9  113394  113391       8  113397  113391       8  113397
  113394       9  113403  113400       8  113406  113400       8  113406  113403
       9  113412  113409       8  113415  113409       8  113415  113412       9
  113421  113418       8  113424  113418       8  113424  113421       9  113430
  113427       8  113433  113427       8  113433  113430       9  113439  113436
       8  113442  113436       8  113442  113439       9  113448  113445       8
  113451  113445       8  113451  113448       9  113457  113454       8  113460
  113454       8  113460  113457       9  113466  113463       8  113469  113463
       8  113469  113466       9  113475  113472       8  113478  113472       8
  113478  113475       9  113484  113481       8  113487  113481       8  113487
  113484       9  113493  113490       8  113496  113490       8  113496  113493
       9  113502  113499       8  113505  113499       8  113505  113502       9
  113511  113508       8  113514  113508       8  113514  113511       9  113520
  113517       8  113523  113517       8  113523  113520       9  113529  113526
       8  113532  113526       8  113532  113529       9  113538  113535       8
  113541  113535       8  113541  113538       9  113547  113544       8  113550
  113544       8  113550  113547       9  113556  113553       8  113559  113553
       8  113559  113556       9  113565  113562       8  113568  113562       8
  113568  113565       9  113574  113571       8  113577  113571       8  113577
  113574       9  113583  113580       8  113586  113580       8  113586  113583
       9  113592  113589       8  113595  113589       8  113595  113592       9
  113601  113598       8  113604  113598       8  113604  113601       9  113610
  113607       8  113613  113607       8  113613  113610       9  113619  113616
       8  113622  113616       8  113622  113619       9  113628  113625       8
  113631  113625       8  113631  113628       9  113637  113634       8  113640
  113634       8  113640  113637       9  113646  113643       8  113649  113643
       8  113649  113646       9  113655  113652       8  113658  113652       8
  113658  113655       9  113664  113661       8  113667  113661       8  113667
  113664       9  113673  113670       8  113676  113670       8  113676  113673
       9  113682  113679       8  113685  113679       8  113685  113682       9
  113691  113688       8  113694  113688       8  113694  113691       9  113700
  113697       8  113703  113697       8  113703  113700       9  113709  113706
       8  113712  113706       8  113712  113709       9  113718  113715       8
  113721  113715       8  113721  113718       9  113727  113724       8  113730
  113724       8  113730  113727       9  113736  113733       8  113739  113733
       8  113739  113736       9  113745  113742       8  113748  113742       8
  113748  113745       9  113754  113751       8  113757  113751       8  113757
  113754       9  113763  113760       8  113766  113760       8  113766  113763
       9  113772  113769       8  113775  113769       8  113775  113772       9
  113781  113778       8  113784  113778       8  113784  113781       9  113790
  113787       8  113793  113787       8  113793  113790       9  113799  113796
       8  113802  113796       8  113802  113799       9  113808  113805       8
  113811  113805       8  113811  113808       9  113817  113814       8  113820
  113814       8  113820  113817       9  113826  113823       8  113829  113823
       8  113829  113826       9  113835  113832       8  113838  113832       8
  113838  113835       9  113844  113841       8  113847  113841       8  113847
  113844       9  113853  113850       8  113856  113850       8  113856  113853
       9  113862  113859       8  113865  113859       8  113865  113862       9
  113871  113868       8  113874  113868       8  113874  113871       9  113880
  113877       8  113883  113877       8  113883  113880       9  113889  113886
       8  113892  113886       8  113892  113889       9  113898  113895       8
  113901  113895       8  113901  113898       9  113907  113904       8  113910
  113904       8  113910  113907       9  113916  113913       8  113919  113913
       8  113919  113916       9  113925  113922       8  113928  113922       8
  113928  113925       9  113934  113931       8  113937  113931       8  113937
  113934       9  113943  113940       8  113946  113940       8  113946  113943
       9  113952  113949       8  113955  113949       8  113955  113952       9
  113961  113958       8  113964  113958       8  113964  113961       9  113970
  113967       8  113973  113967       8  113973  113970       9  113979  113976
       8  113982  113976       8  113982  113979       9  113988  113985       8
  113991  113985       8  113991  113988       9  113997  113994       8  114000
  113994       8  114000  113997       9  114006  114003       8  114009  114003
       8  114009  114006       9  114015  114012       8  114018  114012       8
  114018  114015       9  114024  114021       8  114027  114021       8  114027
  114024       9  114033  114030       8  114036  114030       8  114036  114033
       9  114042  114039       8  114045  114039       8  114045  114042       9
  114051  114048       8  114054  114048       8  114054  114051       9  114060
  114057       8  114063  114057       8  114063  114060       9  114069  114066
       8  114072  114066       8  114072  114069       9  114078  114075       8
  114081  114075       8  114081  114078       9  114087  114084       8  114090
  114084       8  114090  114087       9  114096  114093       8  114099  114093
       8  114099  114096       9  114105  114102       8  114108  114102       8
  114108  114105       9  114114  114111       8  114117  114111       8  114117
  114114       9  114123  114120       8  114126  114120       8  114126  114123
       9  114132  114129       8  114135  114129       8  114135  114132       9
  114141  114138       8  114144  114138       8  114144  114141       9  114150
  114147       8  114153  114147       8  114153  114150       9  114159  114156
       8  114162  114156       8  114162  114159       9  114168  114165       8
  114171  114165       8  114171  114168       9  114177  114174       8  114180
  114174       8  114180  114177       9  114186  114183       8  114189  114183
       8  114189  114186       9  114195  114192       8  114198  114192       8
  114198  114195       9  114204  114201       8  114207  114201       8  114207
  114204       9  114213  114210       8  114216  114210       8  114216  114213
       9  114222  114219       8  114225  114219       8  114225  114222       9
  114231  114228       8  114234  114228       8  114234  114231       9  114240
  114237       8  114243  114237       8  114243  114240       9  114249  114246
       8  114252  114246       8  114252  114249       9  114258  114255       8
  114261  114255       8  114261  114258       9  114267  114264       8  114270
  114264       8  114270  114267       9  114276  114273       8  114279  114273
       8  114279  114276       9  114285  114282       8  114288  114282       8
  114288  114285       9  114294  114291       8  114297  114291       8  114297
  114294       9  114303  114300       8  114306  114300       8  114306  114303
       9  114312  114309       8  114315  114309       8  114315  114312       9
  114321  114318       8  114324  114318       8  114324  114321       9  114330
  114327       8  114333  114327       8  114333  114330       9  114339  114336
       8  114342  114336       8  114342  114339       9  114348  114345       8
  114351  114345       8  114351  114348       9  114357  114354       8  114360
  114354       8  114360  114357       9  114366  114363       8  114369  114363
       8  114369  114366       9  114375  114372       8  114378  114372       8
  114378  114375       9  114384  114381       8  114387  114381       8  114387
  114384       9  114393  114390       8  114396  114390       8  114396  114393
       9  114402  114399       8  114405  114399       8  114405  114402       9
  114411  114408       8  114414  114408       8  114414  114411       9  114420
  114417       8  114423  114417       8  114423  114420       9  114429  114426
       8  114432  114426       8  114432  114429       9  114438  114435       8
  114441  114435       8  114441  114438       9  114447  114444       8  114450
  114444       8  114450  114447       9  114456  114453       8  114459  114453
       8  114459  114456       9  114465  114462       8  114468  114462       8
  114468  114465       9  114474  114471       8  114477  114471       8  114477
  114474       9  114483  114480       8  114486  114480       8  114486  114483
       9  114492  114489       8  114495  114489       8  114495  114492       9
  114501  114498       8  114504  114498       8  114504  114501       9  114510
  114507       8  114513  114507       8  114513  114510       9  114519  114516
       8  114522  114516       8  114522  114519       9  114528  114525       8
  114531  114525       8  114531  114528       9  114537  114534       8  114540
  114534       8  114540  114537       9  114546  114543       8  114549  114543
       8  114549  114546       9  114555  114552       8  114558  114552       8
  114558  114555       9  114564  114561       8  114567  114561       8  114567
  114564       9  114573  114570       8  114576  114570       8  114576  114573
       9  114582  114579       8  114585  114579       8  114585  114582       9
  114591  114588       8  114594  114588       8  114594  114591       9  114600
  114597       8  114603  114597       8  114603  114600       9  114609  114606
       8  114612  114606       8  114612  114609       9  114618  114615       8
  114621  114615       8  114621  114618       9  114627  114624       8  114630
  114624       8  114630  114627       9  114636  114633       8  114639  114633
       8  114639  114636       9  114645  114642       8  114648  114642       8
  114648  114645       9  114654  114651       8  114657  114651       8  114657
  114654       9  114663  114660       8  114666  114660       8  114666  114663
       9  114672  114669       8  114675  114669       8  114675  114672       9
  114681  114678       8  114684  114678       8  114684  114681       9  114690
  114687       8  114693  114687       8  114693  114690       9  114699  114696
       8  114702  114696       8  114702  114699       9  114708  114705       8
  114711  114705       8  114711  114708       9  114717  114714       8  114720
  114714       8  114720  114717       9  114726  114723       8  114729  114723
       8  114729  114726       9  114735  114732       8  114738  114732       8
  114738  114735       9  114744  114741       8  114747  114741       8  114747
  114744       9  114753  114750       8  114756  114750       8  114756  114753
       9  114762  114759       8  114765  114759       8  114765  114762       9
  114771  114768       8  114774  114768       8  114774  114771       9  114780
  114777       8  114783  114777       8  114783  114780       9  114789  114786
       8  114792  114786       8  114792  114789       9  114798  114795       8
  114801  114795       8  114801  114798       9  114807  114804       8  114810
  114804       8  114810  114807       9  114816  114813       8  114819  114813
       8  114819  114816       9  114825  114822       8  114828  114822       8
  114828  114825       9  114834  114831       8  114837  114831       8  114837
  114834       9  114843  114840       8  114846  114840       8  114846  114843
       9  114852  114849       8  114855  114849       8  114855  114852       9
  114861  114858       8  114864  114858       8  114864  114861       9  114870
  114867       8  114873  114867       8  114873  114870       9  114879  114876
       8  114882  114876       8  114882  114879       9  114888  114885       8
  114891  114885       8  114891  114888       9  114897  114894       8  114900
  114894       8  114900  114897       9  114906  114903       8  114909  114903
       8  114909  114906       9  114915  114912       8  114918  114912       8
  114918  114915       9  114924  114921       8  114927  114921       8  114927
  114924       9  114933  114930       8  114936  114930       8  114936  114933
       9  114942  114939       8  114945  114939       8  114945  114942       9
  114951  114948       8  114954  114948       8  114954  114951       9  114960
  114957       8  114963  114957       8  114963  114960       9  114969  114966
       8  114972  114966       8  114972  114969       9  114978  114975       8
  114981  114975       8  114981  114978       9  114987  114984       8  114990
  114984       8  114990  114987       9  114996  114993       8  114999  114993
       8  114999  114996       9  115005  115002       8  115008  115002       8
  115008  115005       9  115014  115011       8  115017  115011       8  115017
  115014       9  115023  115020       8  115026  115020       8  115026  115023
       9  115032  115029       8  115035  115029       8  115035  115032       9
  115041  115038       8  115044  115038       8  115044  115041       9  115050
  115047       8  115053  115047       8  115053  115050       9  115059  115056
       8  115062  115056       8  115062  115059       9  115068  115065       8
  115071  115065       8  115071  115068       9  115077  115074       8  115080
  115074       8  115080  115077       9  115086  115083       8  115089  115083
       8  115089  115086       9  115095  115092       8  115098  115092       8
  115098  115095       9  115104  115101       8  115107  115101       8  115107
  115104       9  115113  115110       8  115116  115110       8  115116  115113
       9  115122  115119       8  115125  115119       8  115125  115122       9
  115131  115128       8  115134  115128       8  115134  115131       9  115140
  115137       8  115143  115137       8  115143  115140       9  115149  115146
       8  115152  115146       8  115152  115149       9  115158  115155       8
  115161  115155       8  115161  115158       9  115167  115164       8  115170
  115164       8  115170  115167       9  115176  115173       8  115179  115173
       8  115179  115176       9  115185  115182       8  115188  115182       8
  115188  115185       9  115194  115191       8  115197  115191       8  115197
  115194       9  115203  115200       8  115206  115200       8  115206  115203
       9  115212  115209       8  115215  115209       8  115215  115212       9
  115221  115218       8  115224  115218       8  115224  115221       9  115230
  115227       8  115233  115227       8  115233  115230       9  115239  115236
       8  115242  115236       8  115242  115239       9  115248  115245       8
  115251  115245       8  115251  115248       9  115257  115254       8  115260
  115254       8  115260  115257       9  115266  115263       8  115269  115263
       8  115269  115266       9  115275  115272       8  115278  115272       8
  115278  115275       9  115284  115281       8  115287  115281       8  115287
  115284       9  115293  115290       8  115296  115290       8  115296  115293
       9  115302  115299       8  115305  115299       8  115305  115302       9
  115311  115308       8  115314  115308       8  115314  115311       9  115320
  115317       8  115323  115317       8  115323  115320       9  115329  115326
       8  115332  115326       8  115332  115329       9  115338  115335       8
  115341  115335       8  115341  115338       9  115347  115344       8  115350
  115344       8  115350  115347       9  115356  115353       8  115359  115353
       8  115359  115356       9  115365  115362       8  115368  115362       8
  115368  115365       9  115374  115371       8  115377  115371       8  115377
  115374       9  115383  115380       8  115386  115380       8  115386  115383
       9  115392  115389       8  115395  115389       8  115395  115392       9
  115401  115398       8  115404  115398       8  115404  115401       9  115410
  115407       8  115413  115407       8  115413  115410       9  115419  115416
       8  115422  115416       8  115422  115419       9  115428  115425       8
  115431  115425       8  115431  115428       9  115437  115434       8  115440
  115434       8  115440  115437       9  115446  115443       8  115449  115443
       8  115449  115446       9  115455  115452       8  115458  115452       8
  115458  115455       9  115464  115461       8  115467  115461       8  115467
  115464       9  115473  115470       8  115476  115470       8  115476  115473
       9  115482  115479       8  115485  115479       8  115485  115482       9
  115491  115488       8  115494  115488       8  115494  115491       9  115500
  115497       8  115503  115497       8  115503  115500       9  115509  115506
       8  115512  115506       8  115512  115509       9  115518  115515       8
  115521  115515       8  115521  115518       9  115527  115524       8  115530
  115524       8  115530  115527       9  115536  115533       8  115539  115533
       8  115539  115536       9  115545  115542       8  115548  115542       8
  115548  115545       9  115554  115551       8  115557  115551       8  115557
  115554       9  115563  115560       8  115566  115560       8  115566  115563
       9  115572  115569       8  115575  115569       8  115575  115572       9
  115581  115578       8  115584  115578       8  115584  115581       9  115590
  115587       8  115593  115587       8  115593  115590       9  115599  115596
       8  115602  115596       8  115602  115599       9  115608  115605       8
  115611  115605       8  115611  115608       9  115617  115614       8  115620
  115614       8  115620  115617       9  115626  115623       8  115629  115623
       8  115629  115626       9  115635  115632       8  115638  115632       8
  115638  115635       9  115644  115641       8  115647  115641       8  115647
  115644       9  115653  115650       8  115656  115650       8  115656  115653
       9  115662  115659       8  115665  115659       8  115665  115662       9
  115671  115668       8  115674  115668       8  115674  115671       9  115680
  115677       8  115683  115677       8  115683  115680       9  115689  115686
       8  115692  115686       8  115692  115689       9  115698  115695       8
  115701  115695       8  115701  115698       9  115707  115704       8  115710
  115704       8  115710  115707       9  115716  115713       8  115719  115713
       8  115719  115716       9  115725  115722       8  115728  115722       8
  115728  115725       9  115734  115731       8  115737  115731       8  115737
  115734       9  115743  115740       8  115746  115740       8  115746  115743
       9  115752  115749       8  115755  115749       8  115755  115752       9
  115761  115758       8  115764  115758       8  115764  115761       9  115770
  115767       8  115773  115767       8  115773  115770       9  115779  115776
       8  115782  115776       8  115782  115779       9  115788  115785       8
  115791  115785       8  115791  115788       9  115797  115794       8  115800
  115794       8  115800  115797       9  115806  115803       8  115809  115803
       8  115809  115806       9  115815  115812       8  115818  115812       8
  115818  115815       9  115824  115821       8  115827  115821       8  115827
  115824       9  115833  115830       8  115836  115830       8  115836  115833
       9  115842  115839       8  115845  115839       8  115845  115842       9
  115851  115848       8  115854  115848       8  115854  115851       9  115860
  115857       8  115863  115857       8  115863  115860       9  115869  115866
       8  115872  115866       8  115872  115869       9  115878  115875       8
  115881  115875       8  115881  115878       9  115887  115884       8  115890
  115884       8  115890  115887       9  115896  115893       8  115899  115893
       8  115899  115896       9  115905  115902       8  115908  115902       8
  115908  115905       9  115914  115911       8  115917  115911       8  115917
  115914       9  115923  115920       8  115926  115920       8  115926  115923
       9  115932  115929       8  115935  115929       8  115935  115932       9
  115941  115938       8  115944  115938       8  115944  115941       9  115950
  115947       8  115953  115947       8  115953  115950       9  115959  115956
       8  115962  115956       8  115962  115959       9  115968  115965       8
  115971  115965       8  115971  115968       9  115977  115974       8  115980
  115974       8  115980  115977       9  115986  115983       8  115989  115983
       8  115989  115986       9  115995  115992       8  115998  115992       8
  115998  115995       9  116004  116001       8  116007  116001       8  116007
  116004       9  116013  116010       8  116016  116010       8  116016  116013
       9  116022  116019       8  116025  116019       8  116025  116022       9
  116031  116028       8  116034  116028       8  116034  116031       9  116040
  116037       8  116043  116037       8  116043  116040       9  116049  116046
       8  116052  116046       8  116052  116049       9  116058  116055       8
  116061  116055       8  116061  116058       9  116067  116064       8  116070
  116064       8  116070  116067       9  116076  116073       8  116079  116073
       8  116079  116076       9  116085  116082       8  116088  116082       8
  116088  116085       9  116094  116091       8  116097  116091       8  116097
  116094       9  116103  116100       8  116106  116100       8  116106  116103
       9  116112  116109       8  116115  116109       8  116115  116112       9
  116121  116118       8  116124  116118       8  116124  116121       9  116130
  116127       8  116133  116127       8  116133  116130       9  116139  116136
       8  116142  116136       8  116142  116139       9  116148  116145       8
  116151  116145       8  116151  116148       9  116157  116154       8  116160
  116154       8  116160  116157       9  116166  116163       8  116169  116163
       8  116169  116166       9  116175  116172       8  116178  116172       8
  116178  116175       9  116184  116181       8  116187  116181       8  116187
  116184       9  116193  116190       8  116196  116190       8  116196  116193
       9  116202  116199       8  116205  116199       8  116205  116202       9
  116211  116208       8  116214  116208       8  116214  116211       9  116220
  116217       8  116223  116217       8  116223  116220       9  116229  116226
       8  116232  116226       8  116232  116229       9  116238  116235       8
  116241  116235       8  116241  116238       9  116247  116244       8  116250
  116244       8  116250  116247       9  116256  116253       8  116259  116253
       8  116259  116256       9  116265  116262       8  116268  116262       8
  116268  116265       9  116274  116271       8  116277  116271       8  116277
  116274       9  116283  116280       8  116286  116280       8  116286  116283
       9  116292  116289       8  116295  116289       8  116295  116292       9
  116301  116298       8  116304  116298       8  116304  116301       9  116310
  116307       8  116313  116307       8  116313  116310       9  116319  116316
       8  116322  116316       8  116322  116319       9  116328  116325       8
  116331  116325       8  116331  116328       9  116337  116334       8  116340
  116334       8  116340  116337       9  116346  116343       8  116349  116343
       8  116349  116346       9  116355  116352       8  116358  116352       8
  116358  116355       9  116364  116361       8  116367  116361       8  116367
  116364       9  116373  116370       8  116376  116370       8  116376  116373
       9  116382  116379       8  116385  116379       8  116385  116382       9
  116391  116388       8  116394  116388       8  116394  116391       9  116400
  116397       8  116403  116397       8  116403  116400       9  116409  116406
       8  116412  116406       8  116412  116409       9  116418  116415       8
  116421  116415       8  116421  116418       9  116427  116424       8  116430
  116424       8  116430  116427       9  116436  116433       8  116439  116433
       8  116439  116436       9  116445  116442       8  116448  116442       8
  116448  116445       9  116454  116451       8  116457  116451       8  116457
  116454       9  116463  116460       8  116466  116460       8  116466  116463
       9  116472  116469       8  116475  116469       8  116475  116472       9
  116481  116478       8  116484  116478       8  116484  116481       9  116490
  116487       8  116493  116487       8  116493  116490       9  116499  116496
       8  116502  116496       8  116502  116499       9  116508  116505       8
  116511  116505       8  116511  116508       9  116517  116514       8  116520
  116514       8  116520  116517       9  116526  116523       8  116529  116523
       8  116529  116526       9  116535  116532       8  116538  116532       8
  116538  116535       9  116544  116541       8  116547  116541       8  116547
  116544       9  116553  116550       8  116556  116550       8  116556  116553
       9  116562  116559       8  116565  116559       8  116565  116562       9
  116571  116568       8  116574  116568       8  116574  116571       9  116580
  116577       8  116583  116577       8  116583  116580       9  116589  116586
       8  116592  116586       8  116592  116589       9  116598  116595       8
  116601  116595       8  116601  116598       9  116607  116604       8  116610
  116604       8  116610  116607       9  116616  116613       8  116619  116613
       8  116619  116616       9  116625  116622       8  116628  116622       8
  116628  116625       9  116634  116631       8  116637  116631       8  116637
  116634       9  116643  116640       8  116646  116640       8  116646  116643
       9  116652  116649       8  116655  116649       8  116655  116652       9
  116661  116658       8  116664  116658       8  116664  116661       9  116670
  116667       8  116673  116667       8  116673  116670       9  116679  116676
       8  116682  116676       8  116682  116679       9  116688  116685       8
  116691  116685       8  116691  116688       9  116697  116694       8  116700
  116694       8  116700  116697       9  116706  116703       8  116709  116703
       8  116709  116706       9  116715  116712       8  116718  116712       8
  116718  116715       9  116724  116721       8  116727  116721       8  116727
  116724       9  116733  116730       8  116736  116730       8  116736  116733
       9  116742  116739       8  116745  116739       8  116745  116742       9
  116751  116748       8  116754  116748       8  116754  116751       9  116760
  116757       8  116763  116757       8  116763  116760       9  116769  116766
       8  116772  116766       8  116772  116769       9  116778  116775       8
  116781  116775       8  116781  116778       9  116787  116784       8  116790
  116784       8  116790  116787       9  116796  116793       8  116799  116793
       8  116799  116796       9  116805  116802       8  116808  116802       8
  116808  116805       9  116814  116811       8  116817  116811       8  116817
  116814       9  116823  116820       8  116826  116820       8  116826  116823
       9  116832  116829       8  116835  116829       8  116835  116832       9
  116841  116838       8  116844  116838       8  116844  116841       9  116850
  116847       8  116853  116847       8  116853  116850       9  116859  116856
       8  116862  116856       8  116862  116859       9  116868  116865       8
  116871  116865       8  116871  116868       9  116877  116874       8  116880
  116874       8  116880  116877       9  116886  116883       8  116889  116883
       8  116889  116886       9  116895  116892       8  116898  116892       8
  116898  116895       9  116904  116901       8  116907  116901       8  116907
  116904       9  116913  116910       8  116916  116910       8  116916  116913
       9  116922  116919       8  116925  116919       8  116925  116922       9
  116931  116928       8  116934  116928       8  116934  116931       9  116940
  116937       8  116943  116937       8  116943  116940       9  116949  116946
       8  116952  116946       8  116952  116949       9  116958  116955       8
  116961  116955       8  116961  116958       9  116967  116964       8  116970
  116964       8  116970  116967       9  116976  116973       8  116979  116973
       8  116979  116976       9  116985  116982       8  116988  116982       8
  116988  116985       9  116994  116991       8  116997  116991       8  116997
  116994       9  117003  117000       8  117006  117000       8  117006  117003
       9  117012  117009       8  117015  117009       8  117015  117012       9
  117021  117018       8  117024  117018       8  117024  117021       9  117030
  117027       8  117033  117027       8  117033  117030       9  117039  117036
       8  117042  117036       8  117042  117039       9  117048  117045       8
  117051  117045       8  117051  117048       9  117057  117054       8  117060
  117054       8  117060  117057       9  117066  117063       8  117069  117063
       8  117069  117066       9  117075  117072       8  117078  117072       8
  117078  117075       9  117084  117081       8  117087  117081       8  117087
  117084       9  117093  117090       8  117096  117090       8  117096  117093
       9  117102  117099       8  117105  117099       8  117105  117102       9
  117111  117108       8  117114  117108       8  117114  117111       9  117120
  117117       8  117123  117117       8  117123  117120       9  117129  117126
       8  117132  117126       8  117132  117129       9  117138  117135       8
  117141  117135       8  117141  117138       9  117147  117144       8  117150
  117144       8  117150  117147       9  117156  117153       8  117159  117153
       8  117159  117156       9  117165  117162       8  117168  117162       8
  117168  117165       9  117174  117171       8  117177  117171       8  117177
  117174       9  117183  117180       8  117186  117180       8  117186  117183
       9  117192  117189       8  117195  117189       8  117195  117192       9
  117201  117198       8  117204  117198       8  117204  117201       9  117210
  117207       8  117213  117207       8  117213  117210       9  117219  117216
       8  117222  117216       8  117222  117219       9  117228  117225       8
  117231  117225       8  117231  117228       9  117237  117234       8  117240
  117234       8  117240  117237       9  117246  117243       8  117249  117243
       8  117249  117246       9  117255  117252       8  117258  117252       8
  117258  117255       9  117264  117261       8  117267  117261       8  117267
  117264       9  117273  117270       8  117276  117270       8  117276  117273
       9  117282  117279       8  117285  117279       8  117285  117282       9
  117291  117288       8  117294  117288       8  117294  117291       9  117300
  117297       8  117303  117297       8  117303  117300       9  117309  117306
       8  117312  117306       8  117312  117309       9  117318  117315       8
  117321  117315       8  117321  117318       9  117327  117324       8  117330
  117324       8  117330  117327       9  117336  117333       8  117339  117333
       8  117339  117336       9  117345  117342       8  117348  117342       8
  117348  117345       9  117354  117351       8  117357  117351       8  117357
  117354       9  117363  117360       8  117366  117360       8  117366  117363
       9  117372  117369       8  117375  117369       8  117375  117372       9
  117381  117378       8  117384  117378       8  117384  117381       9  117390
  117387       8  117393  117387       8  117393  117390       9  117399  117396
       8  117402  117396       8  117402  117399       9  117408  117405       8
  117411  117405       8  117411  117408       9  117417  117414       8  117420
  117414       8  117420  117417       9  117426  117423       8  117429  117423
       8  117429  117426       9  117435  117432       8  117438  117432       8
  117438  117435       9  117444  117441       8  117447  117441       8  117447
  117444       9  117453  117450       8  117456  117450       8  117456  117453
       9  117462  117459       8  117465  117459       8  117465  117462       9
  117471  117468       8  117474  117468       8  117474  117471       9  117480
  117477       8  117483  117477       8  117483  117480       9  117489  117486
       8  117492  117486       8  117492  117489       9  117498  117495       8
  117501  117495       8  117501  117498       9  117507  117504       8  117510
  117504       8  117510  117507       9  117516  117513       8  117519  117513
       8  117519  117516       9  117525  117522       8  117528  117522       8
  117528  117525       9  117534  117531       8  117537  117531       8  117537
  117534       9  117543  117540       8  117546  117540       8  117546  117543
       9  117552  117549       8  117555  117549       8  117555  117552       9
  117561  117558       8  117564  117558       8  117564  117561       9  117570
  117567       8  117573  117567       8  117573  117570       9  117579  117576
       8  117582  117576       8  117582  117579       9  117588  117585       8
  117591  117585       8  117591  117588       9  117597  117594       8  117600
  117594       8  117600  117597       9  117606  117603       8  117609  117603
       8  117609  117606       9  117615  117612       8  117618  117612       8
  117618  117615       9  117624  117621       8  117627  117621       8  117627
  117624       9  117633  117630       8  117636  117630       8  117636  117633
       9  117642  117639       8  117645  117639       8  117645  117642       9
  117651  117648       8  117654  117648       8  117654  117651       9  117660
  117657       8  117663  117657       8  117663  117660       9  117669  117666
       8  117672  117666       8  117672  117669       9  117678  117675       8
  117681  117675       8  117681  117678       9  117687  117684       8  117690
  117684       8  117690  117687       9  117696  117693       8  117699  117693
       8  117699  117696       9  117705  117702       8  117708  117702       8
  117708  117705       9  117714  117711       8  117717  117711       8  117717
  117714       9  117723  117720       8  117726  117720       8  117726  117723
       9  117732  117729       8  117735  117729       8  117735  117732       9
  117741  117738       8  117744  117738       8  117744  117741       9  117750
  117747       8  117753  117747       8  117753  117750       9  117759  117756
       8  117762  117756       8  117762  117759       9  117768  117765       8
  117771  117765       8  117771  117768       9  117777  117774       8  117780
  117774       8  117780  117777       9  117786  117783       8  117789  117783
       8  117789  117786       9  117795  117792       8  117798  117792       8
  117798  117795       9  117804  117801       8  117807  117801       8  117807
  117804       9  117813  117810       8  117816  117810       8  117816  117813
       9  117822  117819       8  117825  117819       8  117825  117822       9
  117831  117828       8  117834  117828       8  117834  117831       9  117840
  117837       8  117843  117837       8  117843  117840       9  117849  117846
       8  117852  117846       8  117852  117849       9  117858  117855       8
  117861  117855       8  117861  117858       9  117867  117864       8  117870
  117864       8  117870  117867       9  117876  117873       8  117879  117873
       8  117879  117876       9  117885  117882       8  117888  117882       8
  117888  117885       9  117894  117891       8  117897  117891       8  117897
  117894       9  117903  117900       8  117906  117900       8  117906  117903
       9  117912  117909       8  117915  117909       8  117915  117912       9
  117921  117918       8  117924  117918       8  117924  117921       9  117930
  117927       8  117933  117927       8  117933  117930       9  117939  117936
       8  117942  117936       8  117942  117939       9  117948  117945       8
  117951  117945       8  117951  117948       9  117957  117954       8  117960
  117954       8  117960  117957       9  117966  117963       8  117969  117963
       8  117969  117966       9  117975  117972       8  117978  117972       8
  117978  117975       9  117984  117981       8  117987  117981       8  117987
  117984       9  117993  117990       8  117996  117990       8  117996  117993
       9  118002  117999       8  118005  117999       8  118005  118002       9
  118011  118008       8  118014  118008       8  118014  118011       9  118020
  118017       8  118023  118017       8  118023  118020       9  118029  118026
       8  118032  118026       8  118032  118029       9  118038  118035       8
  118041  118035       8  118041  118038       9  118047  118044       8  118050
  118044       8  118050  118047       9  118056  118053       8  118059  118053
       8  118059  118056       9  118065  118062       8  118068  118062       8
  118068  118065       9  118074  118071       8  118077  118071       8  118077
  118074       9  118083  118080       8  118086  118080       8  118086  118083
       9  118092  118089       8  118095  118089       8  118095  118092       9
  118101  118098       8  118104  118098       8  118104  118101       9  118110
  118107       8  118113  118107       8  118113  118110       9  118119  118116
       8  118122  118116       8  118122  118119       9  118128  118125       8
  118131  118125       8  118131  118128       9  118137  118134       8  118140
  118134       8  118140  118137       9  118146  118143       8  118149  118143
       8  118149  118146       9  118155  118152       8  118158  118152       8
  118158  118155       9  118164  118161       8  118167  118161       8  118167
  118164       9  118173  118170       8  118176  118170       8  118176  118173
       9  118182  118179       8  118185  118179       8  118185  118182       9
  118191  118188       8  118194  118188       8  118194  118191       9  118200
  118197       8  118203  118197       8  118203  118200       9  118209  118206
       8  118212  118206       8  118212  118209       9  118218  118215       8
  118221  118215       8  118221  118218       9  118227  118224       8  118230
  118224       8  118230  118227       9  118236  118233       8  118239  118233
       8  118239  118236       9  118245  118242       8  118248  118242       8
  118248  118245       9  118254  118251       8  118257  118251       8  118257
  118254       9  118263  118260       8  118266  118260       8  118266  118263
       9  118272  118269       8  118275  118269       8  118275  118272       9
  118281  118278       8  118284  118278       8  118284  118281       9  118290
  118287       8  118293  118287       8  118293  118290       9  118299  118296
       8  118302  118296       8  118302  118299       9  118308  118305       8
  118311  118305       8  118311  118308       9  118317  118314       8  118320
  118314       8  118320  118317       9  118326  118323       8  118329  118323
       8  118329  118326       9  118335  118332       8  118338  118332       8
  118338  118335       9  118344  118341       8  118347  118341       8  118347
  118344       9  118353  118350       8  118356  118350       8  118356  118353
       9  118362  118359       8  118365  118359       8  118365  118362       9
  118371  118368       8  118374  118368       8  118374  118371       9  118380
  118377       8  118383  118377       8  118383  118380       9  118389  118386
       8  118392  118386       8  118392  118389       9  118398  118395       8
  118401  118395       8  118401  118398       9  118407  118404       8  118410
  118404       8  118410  118407       9  118416  118413       8  118419  118413
       8  118419  118416       9  118425  118422       8  118428  118422       8
  118428  118425       9  118434  118431       8  118437  118431       8  118437
  118434       9  118443  118440       8  118446  118440       8  118446  118443
       9  118452  118449       8  118455  118449       8  118455  118452       9
  118461  118458       8  118464  118458       8  118464  118461       9  118470
  118467       8  118473  118467       8  118473  118470       9  118479  118476
       8  118482  118476       8  118482  118479       9  118488  118485       8
  118491  118485       8  118491  118488       9  118497  118494       8  118500
  118494       8  118500  118497       9  118506  118503       8  118509  118503
       8  118509  118506       9  118515  118512       8  118518  118512       8
  118518  118515       9  118524  118521       8  118527  118521       8  118527
  118524       9  118533  118530       8  118536  118530       8  118536  118533
       9  118542  118539       8  118545  118539       8  118545  118542       9
  118551  118548       8  118554  118548       8  118554  118551       9  118560
  118557       8  118563  118557       8  118563  118560       9  118569  118566
       8  118572  118566       8  118572  118569       9  118578  118575       8
  118581  118575       8  118581  118578       9  118587  118584       8  118590
  118584       8  118590  118587       9  118596  118593       8  118599  118593
       8  118599  118596       9  118605  118602       8  118608  118602       8
  118608  118605       9  118614  118611       8  118617  118611       8  118617
  118614       9  118623  118620       8  118626  118620       8  118626  118623
       9  118632  118629       8  118635  118629       8  118635  118632       9
  118641  118638       8  118644  118638       8  118644  118641       9  118650
  118647       8  118653  118647       8  118653  118650       9  118659  118656
       8  118662  118656       8  118662  118659       9  118668  118665       8
  118671  118665       8  118671  118668       9  118677  118674       8  118680
  118674       8  118680  118677       9  118686  118683       8  118689  118683
       8  118689  118686       9  118695  118692       8  118698  118692       8
  118698  118695       9  118704  118701       8  118707  118701       8  118707
  118704       9  118713  118710       8  118716  118710       8  118716  118713
       9  118722  118719       8  118725  118719       8  118725  118722       9
  118731  118728       8  118734  118728       8  118734  118731       9  118740
  118737       8  118743  118737       8  118743  118740       9  118749  118746
       8  118752  118746       8  118752  118749       9  118758  118755       8
  118761  118755       8  118761  118758       9  118767  118764       8  118770
  118764       8  118770  118767       9  118776  118773       8  118779  118773
       8  118779  118776       9  118785  118782       8  118788  118782       8
  118788  118785       9  118794  118791       8  118797  118791       8  118797
  118794       9  118803  118800       8  118806  118800       8  118806  118803
       9  118812  118809       8  118815  118809       8  118815  118812       9
  118821  118818       8  118824  118818       8  118824  118821       9  118830
  118827       8  118833  118827       8  118833  118830       9  118839  118836
       8  118842  118836       8  118842  118839       9  118848  118845       8
  118851  118845       8  118851  118848       9  118857  118854       8  118860
  118854       8  118860  118857       9  118866  118863       8  118869  118863
       8  118869  118866       9  118875  118872       8  118878  118872       8
  118878  118875       9  118884  118881       8  118887  118881       8  118887
  118884       9  118893  118890       8  118896  118890       8  118896  118893
       9  118902  118899       8  118905  118899       8  118905  118902       9
  118911  118908       8  118914  118908       8  118914  118911       9  118920
  118917       8  118923  118917       8  118923  118920       9  118929  118926
       8  118932  118926       8  118932  118929       9  118938  118935       8
  118941  118935       8  118941  118938       9  118947  118944       8  118950
  118944       8  118950  118947       9  118956  118953       8  118959  118953
       8  118959  118956       9  118965  118962       8  118968  118962       8
  118968  118965       9  118974  118971       8  118977  118971       8  118977
  118974       9  118983  118980       8  118986  118980       8  118986  118983
       9  118992  118989       8  118995  118989       8  118995  118992       9
  119001  118998       8  119004  118998       8  119004  119001       9  119010
  119007       8  119013  119007       8  119013  119010       9  119019  119016
       8  119022  119016       8  119022  119019       9  119028  119025       8
  119031  119025       8  119031  119028       9  119037  119034       8  119040
  119034       8  119040  119037       9  119046  119043       8  119049  119043
       8  119049  119046       9  119055  119052       8  119058  119052       8
  119058  119055       9  119064  119061       8  119067  119061       8  119067
  119064       9  119073  119070       8  119076  119070       8  119076  119073
       9  119082  119079       8  119085  119079       8  119085  119082       9
  119091  119088       8  119094  119088       8  119094  119091       9  119100
  119097       8  119103  119097       8  119103  119100       9  119109  119106
       8  119112  119106       8  119112  119109       9  119118  119115       8
  119121  119115       8  119121  119118       9  119127  119124       8  119130
  119124       8  119130  119127       9  119136  119133       8  119139  119133
       8  119139  119136       9  119145  119142       8  119148  119142       8
  119148  119145       9  119154  119151       8  119157  119151       8  119157
  119154       9  119163  119160       8  119166  119160       8  119166  119163
       9  119172  119169       8  119175  119169       8  119175  119172       9
  119181  119178       8  119184  119178       8  119184  119181       9  119190
  119187       8  119193  119187       8  119193  119190       9  119199  119196
       8  119202  119196       8  119202  119199       9  119208  119205       8
  119211  119205       8  119211  119208       9  119217  119214       8  119220
  119214       8  119220  119217       9  119226  119223       8  119229  119223
       8  119229  119226       9  119235  119232       8  119238  119232       8
  119238  119235       9  119244  119241       8  119247  119241       8  119247
  119244       9  119253  119250       8  119256  119250       8  119256  119253
       9  119262  119259       8  119265  119259       8  119265  119262       9
  119271  119268       8  119274  119268       8  119274  119271       9  119280
  119277       8  119283  119277       8  119283  119280       9  119289  119286
       8  119292  119286       8  119292  119289       9  119298  119295       8
  119301  119295       8  119301  119298       9  119307  119304       8  119310
  119304       8  119310  119307       9  119316  119313       8  119319  119313
       8  119319  119316       9  119325  119322       8  119328  119322       8
  119328  119325       9  119334  119331       8  119337  119331       8  119337
  119334       9  119343  119340       8  119346  119340       8  119346  119343
       9  119352  119349       8  119355  119349       8  119355  119352       9
  119361  119358       8  119364  119358       8  119364  119361       9  119370
  119367       8  119373  119367       8  119373  119370       9  119379  119376
       8  119382  119376       8  119382  119379       9  119388  119385       8
  119391  119385       8  119391  119388       9  119397  119394       8  119400
  119394       8  119400  119397       9  119406  119403       8  119409  119403
       8  119409  119406       9  119415  119412       8  119418  119412       8
  119418  119415       9  119424  119421       8  119427  119421       8  119427
  119424       9  119433  119430       8  119436  119430       8  119436  119433
       9  119442  119439       8  119445  119439       8  119445  119442       9
  119451  119448       8  119454  119448       8  119454  119451       9  119460
  119457       8  119463  119457       8  119463  119460       9  119469  119466
       8  119472  119466       8  119472  119469       9  119478  119475       8
  119481  119475       8  119481  119478       9  119487  119484       8  119490
  119484       8  119490  119487       9  119496  119493       8  119499  119493
       8  119499  119496       9  119505  119502       8  119508  119502       8
  119508  119505       9  119514  119511       8  119517  119511       8  119517
  119514       9  119523  119520       8  119526  119520       8  119526  119523
       9  119532  119529       8  119535  119529       8  119535  119532       9
  119541  119538       8  119544  119538       8  119544  119541       9  119550
  119547       8  119553  119547       8  119553  119550       9  119559  119556
       8  119562  119556       8  119562  119559       9  119568  119565       8
  119571  119565       8  119571  119568       9  119577  119574       8  119580
  119574       8  119580  119577       9  119586  119583       8  119589  119583
       8  119589  119586       9  119595  119592       8  119598  119592       8
  119598  119595       9  119604  119601       8  119607  119601       8  119607
  119604       9  119613  119610       8  119616  119610       8  119616  119613
       9  119622  119619       8  119625  119619       8  119625  119622       9
  119631  119628       8  119634  119628       8  119634  119631       9  119640
  119637       8  119643  119637       8  119643  119640       9  119649  119646
       8  119652  119646       8  119652  119649       9  119658  119655       8
  119661  119655       8  119661  119658       9  119667  119664       8  119670
  119664       8  119670  119667       9  119676  119673       8  119679  119673
       8  119679  119676       9  119685  119682       8  119688  119682       8
  119688  119685       9  119694  119691       8  119697  119691       8  119697
  119694       9  119703  119700       8  119706  119700       8  119706  119703
       9  119712  119709       8  119715  119709       8  119715  119712       9
  119721  119718       8  119724  119718       8  119724  119721       9  119730
  119727       8  119733  119727       8  119733  119730       9  119739  119736
       8  119742  119736       8  119742  119739       9  119748  119745       8
  119751  119745       8  119751  119748       9  119757  119754       8  119760
  119754       8  119760  119757       9  119766  119763       8  119769  119763
       8  119769  119766       9  119775  119772       8  119778  119772       8
  119778  119775       9  119784  119781       8  119787  119781       8  119787
  119784       9  119793  119790       8  119796  119790       8  119796  119793
       9  119802  119799       8  119805  119799       8  119805  119802       9
  119811  119808       8  119814  119808       8  119814  119811       9  119820
  119817       8  119823  119817       8  119823  119820       9  119829  119826
       8  119832  119826       8  119832  119829       9  119838  119835       8
  119841  119835       8  119841  119838       9  119847  119844       8  119850
  119844       8  119850  119847       9  119856  119853       8  119859  119853
       8  119859  119856       9  119865  119862       8  119868  119862       8
  119868  119865       9  119874  119871       8  119877  119871       8  119877
  119874       9  119883  119880       8  119886  119880       8  119886  119883
       9  119892  119889       8  119895  119889       8  119895  119892       9
  119901  119898       8  119904  119898       8  119904  119901       9  119910
  119907       8  119913  119907       8  119913  119910       9  119919  119916
       8  119922  119916       8  119922  119919       9  119928  119925       8
  119931  119925       8  119931  119928       9  119937  119934       8  119940
  119934       8  119940  119937       9  119946  119943       8  119949  119943
       8  119949  119946       9  119955  119952       8  119958  119952       8
  119958  119955       9  119964  119961       8  119967  119961       8  119967
  119964       9  119973  119970       8  119976  119970       8  119976  119973
       9  119982  119979       8  119985  119979       8  119985  119982       9
  119991  119988       8  119994  119988       8  119994  119991       9  120000
  119997       8  120003  119997       8  120003  120000       9  120009  120006
       8  120012  120006       8  120012  120009       9  120018  120015       8
  120021  120015       8  120021  120018       9  120027  120024       8  120030
  120024       8  120030  120027       9  120036  120033       8  120039  120033
       8  120039  120036       9  120045  120042       8  120048  120042       8
  120048  120045       9  120054  120051       8  120057  120051       8  120057
  120054       9  120063  120060       8  120066  120060       8  120066  120063
       9  120072  120069       8  120075  120069       8  120075  120072       9
  120081  120078       8  120084  120078       8  120084  120081       9  120090
  120087       8  120093  120087       8  120093  120090       9  120099  120096
       8  120102  120096       8  120102  120099       9  120108  120105       8
  120111  120105       8  120111  120108       9  120117  120114       8  120120
  120114       8  120120  120117       9  120126  120123       8  120129  120123
       8  120129  120126       9  120135  120132       8  120138  120132       8
  120138  120135       9  120144  120141       8  120147  120141       8  120147
  120144       9  120153  120150       8  120156  120150       8  120156  120153
       9  120162  120159       8  120165  120159       8  120165  120162       9
  120171  120168       8  120174  120168       8  120174  120171       9  120180
  120177       8  120183  120177       8  120183  120180       9  120189  120186
       8  120192  120186       8  120192  120189       9  120198  120195       8
  120201  120195       8  120201  120198       9  120207  120204       8  120210
  120204       8  120210  120207       9  120216  120213       8  120219  120213
       8  120219  120216       9  120225  120222       8  120228  120222       8
  120228  120225       9  120234  120231       8  120237  120231       8  120237
  120234       9  120243  120240       8  120246  120240       8  120246  120243
       9  120252  120249       8  120255  120249       8  120255  120252       9
  120261  120258       8  120264  120258       8  120264  120261       9  120270
  120267       8  120273  120267       8  120273  120270       9  120279  120276
       8  120282  120276       8  120282  120279       9  120288  120285       8
  120291  120285       8  120291  120288       9  120297  120294       8  120300
  120294       8  120300  120297       9  120306  120303       8  120309  120303
       8  120309  120306       9  120315  120312       8  120318  120312       8
  120318  120315       9  120324  120321       8  120327  120321       8  120327
  120324       9  120333  120330       8  120336  120330       8  120336  120333
       9  120342  120339       8  120345  120339       8  120345  120342       9
  120351  120348       8  120354  120348       8  120354  120351       9  120360
  120357       8  120363  120357       8  120363  120360       9  120369  120366
       8  120372  120366       8  120372  120369       9  120378  120375       8
  120381  120375       8  120381  120378       9  120387  120384       8  120390
  120384       8  120390  120387       9  120396  120393       8  120399  120393
       8  120399  120396       9  120405  120402       8  120408  120402       8
  120408  120405       9  120414  120411       8  120417  120411       8  120417
  120414       9  120423  120420       8  120426  120420       8  120426  120423
       9  120432  120429       8  120435  120429       8  120435  120432       9
  120441  120438       8  120444  120438       8  120444  120441       9  120450
  120447       8  120453  120447       8  120453  120450       9  120459  120456
       8  120462  120456       8  120462  120459       9  120468  120465       8
  120471  120465       8  120471  120468       9  120477  120474       8  120480
  120474       8  120480  120477       9  120486  120483       8  120489  120483
       8  120489  120486       9  120495  120492       8  120498  120492       8
  120498  120495       9  120504  120501       8  120507  120501       8  120507
  120504       9  120513  120510       8  120516  120510       8  120516  120513
       9  120522  120519       8  120525  120519       8  120525  120522       9
  120531  120528       8  120534  120528       8  120534  120531       9  120540
  120537       8  120543  120537       8  120543  120540       9  120549  120546
       8  120552  120546       8  120552  120549       9  120558  120555       8
  120561  120555       8  120561  120558       9  120567  120564       8  120570
  120564       8  120570  120567       9  120576  120573       8  120579  120573
       8  120579  120576       9  120585  120582       8  120588  120582       8
  120588  120585       9  120594  120591       8  120597  120591       8  120597
  120594       9  120603  120600       8  120606  120600       8  120606  120603
       9  120612  120609       8  120615  120609       8  120615  120612       9
  120621  120618       8  120624  120618       8  120624  120621       9  120630
  120627       8  120633  120627       8  120633  120630       9  120639  120636
       8  120642  120636       8  120642  120639       9  120648  120645       8
  120651  120645       8  120651  120648       9  120657  120654       8  120660
  120654       8  120660  120657       9  120666  120663       8  120669  120663
       8  120669  120666       9  120675  120672       8  120678  120672       8
  120678  120675       9  120684  120681       8  120687  120681       8  120687
  120684       9  120693  120690       8  120696  120690       8  120696  120693
       9  120702  120699       8  120705  120699       8  120705  120702       9
  120711  120708       8  120714  120708       8  120714  120711       9  120720
  120717       8  120723  120717       8  120723  120720       9  120729  120726
       8  120732  120726       8  120732  120729       9  120738  120735       8
  120741  120735       8  120741  120738       9  120747  120744       8  120750
  120744       8  120750  120747       9  120756  120753       8  120759  120753
       8  120759  120756       9  120765  120762       8  120768  120762       8
  120768  120765       9  120774  120771       8  120777  120771       8  120777
  120774       9  120783  120780       8  120786  120780       8  120786  120783
       9  120792  120789       8  120795  120789       8  120795  120792       9
  120801  120798       8  120804  120798       8  120804  120801       9  120810
  120807       8  120813  120807       8  120813  120810       9  120819  120816
       8  120822  120816       8  120822  120819       9  120828  120825       8
  120831  120825       8  120831  120828       9  120837  120834       8  120840
  120834       8  120840  120837       9  120846  120843       8  120849  120843
       8  120849  120846       9  120855  120852       8  120858  120852       8
  120858  120855       9  120864  120861       8  120867  120861       8  120867
  120864       9  120873  120870       8  120876  120870       8  120876  120873
       9  120882  120879       8  120885  120879       8  120885  120882       9
  120891  120888       8  120894  120888       8  120894  120891       9  120900
  120897       8  120903  120897       8  120903  120900       9  120909  120906
       8  120912  120906       8  120912  120909       9  120918  120915       8
  120921  120915       8  120921  120918       9  120927  120924       8  120930
  120924       8  120930  120927       9  120936  120933       8  120939  120933
       8  120939  120936       9  120945  120942       8  120948  120942       8
  120948  120945       9  120954  120951       8  120957  120951       8  120957
  120954       9  120963  120960       8  120966  120960       8  120966  120963
       9  120972  120969       8  120975  120969       8  120975  120972       9
  120981  120978       8  120984  120978       8  120984  120981       9  120990
  120987       8  120993  120987       8  120993  120990       9  120999  120996
       8  121002  120996       8  121002  120999       9  121008  121005       8
  121011  121005       8  121011  121008       9  121017  121014       8  121020
  121014       8  121020  121017       9  121026  121023       8  121029  121023
       8  121029  121026       9  121035  121032       8  121038  121032       8
  121038  121035       9  121044  121041       8  121047  121041       8  121047
  121044       9  121053  121050       8  121056  121050       8  121056  121053
       9  121062  121059       8  121065  121059       8  121065  121062       9
  121071  121068       8  121074  121068       8  121074  121071       9  121080
  121077       8  121083  121077       8  121083  121080       9  121089  121086
       8  121092  121086       8  121092  121089       9  121098  121095       8
  121101  121095       8  121101  121098       9  121107  121104       8  121110
  121104       8  121110  121107       9  121116  121113       8  121119  121113
       8  121119  121116       9  121125  121122       8  121128  121122       8
  121128  121125       9  121134  121131       8  121137  121131       8  121137
  121134       9  121143  121140       8  121146  121140       8  121146  121143
       9  121152  121149       8  121155  121149       8  121155  121152       9
  121161  121158       8  121164  121158       8  121164  121161       9  121170
  121167       8  121173  121167       8  121173  121170       9  121179  121176
       8  121182  121176       8  121182  121179       9  121188  121185       8
  121191  121185       8  121191  121188       9  121197  121194       8  121200
  121194       8  121200  121197       9  121206  121203       8  121209  121203
       8  121209  121206       9  121215  121212       8  121218  121212       8
  121218  121215       9  121224  121221       8  121227  121221       8  121227
  121224       9  121233  121230       8  121236  121230       8  121236  121233
       9  121242  121239       8  121245  121239       8  121245  121242       9
  121251  121248       8  121254  121248       8  121254  121251       9  121260
  121257       8  121263  121257       8  121263  121260       9  121269  121266
       8  121272  121266       8  121272  121269       9  121278  121275       8
  121281  121275       8  121281  121278       9  121287  121284       8  121290
  121284       8  121290  121287       9  121296  121293       8  121299  121293
       8  121299  121296       9  121305  121302       8  121308  121302       8
  121308  121305       9  121314  121311       8  121317  121311       8  121317
  121314       9  121323  121320       8  121326  121320       8  121326  121323
       9  121332  121329       8  121335  121329       8  121335  121332       9
  121341  121338       8  121344  121338       8  121344  121341       9  121350
  121347       8  121353  121347       8  121353  121350       9  121359  121356
       8  121362  121356       8  121362  121359       9  121368  121365       8
  121371  121365       8  121371  121368       9  121377  121374       8  121380
  121374       8  121380  121377       9  121386  121383       8  121389  121383
       8  121389  121386       9  121395  121392       8  121398  121392       8
  121398  121395       9  121404  121401       8  121407  121401       8  121407
  121404       9  121413  121410       8  121416  121410       8  121416  121413
       9  121422  121419       8  121425  121419       8  121425  121422       9
  121431  121428       8  121434  121428       8  121434  121431       9  121440
  121437       8  121443  121437       8  121443  121440       9  121449  121446
       8  121452  121446       8  121452  121449       9  121458  121455       8
  121461  121455       8  121461  121458       9  121467  121464       8  121470
  121464       8  121470  121467       9  121476  121473       8  121479  121473
       8  121479  121476       9  121485  121482       8  121488  121482       8
  121488  121485       9  121494  121491       8  121497  121491       8  121497
  121494       9  121503  121500       8  121506  121500       8  121506  121503
       9  121512  121509       8  121515  121509       8  121515  121512       9
  121521  121518       8  121524  121518       8  121524  121521       9  121530
  121527       8  121533  121527       8  121533  121530       9  121539  121536
       8  121542  121536       8  121542  121539       9  121548  121545       8
  121551  121545       8  121551  121548       9  121557  121554       8  121560
  121554       8  121560  121557       9  121566  121563       8  121569  121563
       8  121569  121566       9  121575  121572       8  121578  121572       8
  121578  121575       9  121584  121581       8  121587  121581       8  121587
  121584       9  121593  121590       8  121596  121590       8  121596  121593
       9  121602  121599       8  121605  121599       8  121605  121602       9
  121611  121608       8  121614  121608       8  121614  121611       9  121620
  121617       8  121623  121617       8  121623  121620       9  121629  121626
       8  121632  121626       8  121632  121629       9  121638  121635       8
  121641  121635       8  121641  121638       9  121647  121644       8  121650
  121644       8  121650  121647       9  121656  121653       8  121659  121653
       8  121659  121656       9  121665  121662       8  121668  121662       8
  121668  121665       9  121674  121671       8  121677  121671       8  121677
  121674       9  121683  121680       8  121686  121680       8  121686  121683
       9  121692  121689       8  121695  121689       8  121695  121692       9
  121701  121698       8  121704  121698       8  121704  121701       9  121710
  121707       8  121713  121707       8  121713  121710       9  121719  121716
       8  121722  121716       8  121722  121719       9  121728  121725       8
  121731  121725       8  121731  121728       9  121737  121734       8  121740
  121734       8  121740  121737       9  121746  121743       8  121749  121743
       8  121749  121746       9  121755  121752       8  121758  121752       8
  121758  121755       9  121764  121761       8  121767  121761       8  121767
  121764       9  121773  121770       8  121776  121770       8  121776  121773
       9  121782  121779       8  121785  121779       8  121785  121782       9
  121791  121788       8  121794  121788       8  121794  121791       9  121800
  121797       8  121803  121797       8  121803  121800       9  121809  121806
       8  121812  121806       8  121812  121809       9  121818  121815       8
  121821  121815       8  121821  121818       9  121827  121824       8  121830
  121824       8  121830  121827       9  121836  121833       8  121839  121833
       8  121839  121836       9  121845  121842       8  121848  121842       8
  121848  121845       9  121854  121851       8  121857  121851       8  121857
  121854       9  121863  121860       8  121866  121860       8  121866  121863
       9  121872  121869       8  121875  121869       8  121875  121872       9
  121881  121878       8  121884  121878       8  121884  121881       9  121890
  121887       8  121893  121887       8  121893  121890       9  121899  121896
       8  121902  121896       8  121902  121899       9  121908  121905       8
  121911  121905       8  121911  121908       9  121917  121914       8  121920
  121914       8  121920  121917       9  121926  121923       8  121929  121923
       8  121929  121926       9  121935  121932       8  121938  121932       8
  121938  121935       9  121944  121941       8  121947  121941       8  121947
  121944       9  121953  121950       8  121956  121950       8  121956  121953
       9  121962  121959       8  121965  121959       8  121965  121962       9
  121971  121968       8  121974  121968       8  121974  121971       9  121980
  121977       8  121983  121977       8  121983  121980       9  121989  121986
       8  121992  121986       8  121992  121989       9  121998  121995       8
  122001  121995       8  122001  121998       9  122007  122004       8  122010
  122004       8  122010  122007       9  122016  122013       8  122019  122013
       8  122019  122016       9  122025  122022       8  122028  122022       8
  122028  122025       9  122034  122031       8  122037  122031       8  122037
  122034       9  122043  122040       8  122046  122040       8  122046  122043
       9  122052  122049       8  122055  122049       8  122055  122052       9
  122061  122058       8  122064  122058       8  122064  122061       9  122070
  122067       8  122073  122067       8  122073  122070       9  122079  122076
       8  122082  122076       8  122082  122079       9  122088  122085       8
  122091  122085       8  122091  122088       9  122097  122094       8  122100
  122094       8  122100  122097       9  122106  122103       8  122109  122103
       8  122109  122106       9  122115  122112       8  122118  122112       8
  122118  122115       9  122124  122121       8  122127  122121       8  122127
  122124       9  122133  122130       8  122136  122130       8  122136  122133
       9  122142  122139       8  122145  122139       8  122145  122142       9
  122151  122148       8  122154  122148       8  122154  122151       9  122160
  122157       8  122163  122157       8  122163  122160       9  122169  122166
       8  122172  122166       8  122172  122169       9  122178  122175       8
  122181  122175       8  122181  122178       9  122187  122184       8  122190
  122184       8  122190  122187       9  122196  122193       8  122199  122193
       8  122199  122196       9  122205  122202       8  122208  122202       8
  122208  122205       9  122214  122211       8  122217  122211       8  122217
  122214       9  122223  122220       8  122226  122220       8  122226  122223
       9  122232  122229       8  122235  122229       8  122235  122232       9
  122241  122238       8  122244  122238       8  122244  122241       9  122250
  122247       8  122253  122247       8  122253  122250       9  122259  122256
       8  122262  122256       8  122262  122259       9  122268  122265       8
  122271  122265       8  122271  122268       9  122277  122274       8  122280
  122274       8  122280  122277       9  122286  122283       8  122289  122283
       8  122289  122286       9  122295  122292       8  122298  122292       8
  122298  122295       9  122304  122301       8  122307  122301       8  122307
  122304       9  122313  122310       8  122316  122310       8  122316  122313
       9  122322  122319       8  122325  122319       8  122325  122322       9
  122331  122328       8  122334  122328       8  122334  122331       9  122340
  122337       8  122343  122337       8  122343  122340       9  122349  122346
       8  122352  122346       8  122352  122349       9  122358  122355       8
  122361  122355       8  122361  122358       9  122367  122364       8  122370
  122364       8  122370  122367       9  122376  122373       8  122379  122373
       8  122379  122376       9  122385  122382       8  122388  122382       8
  122388  122385       9  122394  122391       8  122397  122391       8  122397
  122394       9  122403  122400       8  122406  122400       8  122406  122403
       9  122412  122409       8  122415  122409       8  122415  122412       9
  122421  122418       8  122424  122418       8  122424  122421       9  122430
  122427       8  122433  122427       8  122433  122430       9  122439  122436
       8  122442  122436       8  122442  122439       9  122448  122445       8
  122451  122445       8  122451  122448       9  122457  122454       8  122460
  122454       8  122460  122457       9  122466  122463       8  122469  122463
       8  122469  122466       9  122475  122472       8  122478  122472       8
  122478  122475       9  122484  122481       8  122487  122481       8  122487
  122484       9  122493  122490       8  122496  122490       8  122496  122493
       9  122502  122499       8  122505  122499       8  122505  122502       9
  122511  122508       8  122514  122508       8  122514  122511       9  122520
  122517       8  122523  122517       8  122523  122520       9  122529  122526
       8  122532  122526       8  122532  122529       9  122538  122535       8
  122541  122535       8  122541  122538       9  122547  122544       8  122550
  122544       8  122550  122547       9  122556  122553       8  122559  122553
       8  122559  122556       9  122565  122562       8  122568  122562       8
  122568  122565       9  122574  122571       8  122577  122571       8  122577
  122574       9  122583  122580       8  122586  122580       8  122586  122583
       9  122592  122589       8  122595  122589       8  122595  122592       9
  122601  122598       8  122604  122598       8  122604  122601       9  122610
  122607       8  122613  122607       8  122613  122610       9  122619  122616
       8  122622  122616       8  122622  122619       9  122628  122625       8
  122631  122625       8  122631  122628       9  122637  122634       8  122640
  122634       8  122640  122637       9  122646  122643       8  122649  122643
       8  122649  122646       9  122655  122652       8  122658  122652       8
  122658  122655       9  122664  122661       8  122667  122661       8  122667
  122664       9  122673  122670       8  122676  122670       8  122676  122673
       9  122682  122679       8  122685  122679       8  122685  122682       9
  122691  122688       8  122694  122688       8  122694  122691       9  122700
  122697       8  122703  122697       8  122703  122700       9  122709  122706
       8  122712  122706       8  122712  122709       9  122718  122715       8
  122721  122715       8  122721  122718       9  122727  122724       8  122730
  122724       8  122730  122727       9  122736  122733       8  122739  122733
       8  122739  122736       9  122745  122742       8  122748  122742       8
  122748  122745       9  122754  122751       8  122757  122751       8  122757
  122754       9  122763  122760       8  122766  122760       8  122766  122763
       9  122772  122769       8  122775  122769       8  122775  122772       9
  122781  122778       8  122784  122778       8  122784  122781       9  122790
  122787       8  122793  122787       8  122793  122790       9  122799  122796
       8  122802  122796       8  122802  122799       9  122808  122805       8
  122811  122805       8  122811  122808       9  122817  122814       8  122820
  122814       8  122820  122817       9  122826  122823       8  122829  122823
       8  122829  122826       9  122835  122832       8  122838  122832       8
  122838  122835       9  122844  122841       8  122847  122841       8  122847
  122844       9  122853  122850       8  122856  122850       8  122856  122853
       9  122862  122859       8  122865  122859       8  122865  122862       9
  122871  122868       8  122874  122868       8  122874  122871       9  122880
  122877       8  122883  122877       8  122883  122880       9  122889  122886
       8  122892  122886       8  122892  122889       9  122898  122895       8
  122901  122895       8  122901  122898       9  122907  122904       8  122910
  122904       8  122910  122907       9  122916  122913       8  122919  122913
       8  122919  122916       9  122925  122922       8  122928  122922       8
  122928  122925       9  122934  122931       8  122937  122931       8  122937
  122934       9  122943  122940       8  122946  122940       8  122946  122943
       9  122952  122949       8  122955  122949       8  122955  122952       9
  122961  122958       8  122964  122958       8  122964  122961       9  122970
  122967       8  122973  122967       8  122973  122970       9  122979  122976
       8  122982  122976       8  122982  122979       9  122988  122985       8
  122991  122985       8  122991  122988       9  122997  122994       8  123000
  122994       8  123000  122997       9  123006  123003       8  123009  123003
       8  123009  123006       9  123015  123012       8  123018  123012       8
  123018  123015       9  123024  123021       8  123027  123021       8  123027
  123024       9  123033  123030       8  123036  123030       8  123036  123033
       9  123042  123039       8  123045  123039       8  123045  123042       9
  123051  123048       8  123054  123048       8  123054  123051       9  123060
  123057       8  123063  123057       8  123063  123060       9  123069  123066
       8  123072  123066       8  123072  123069       9  123078  123075       8
  123081  123075       8  123081  123078       9  123087  123084       8  123090
  123084       8  123090  123087       9  123096  123093       8  123099  123093
       8  123099  123096       9  123105  123102       8  123108  123102       8
  123108  123105       9  123114  123111       8  123117  123111       8  123117
  123114       9  123123  123120       8  123126  123120       8  123126  123123
       9  123132  123129       8  123135  123129       8  123135  123132       9
  123141  123138       8  123144  123138       8  123144  123141       9  123150
  123147       8  123153  123147       8  123153  123150       9  123159  123156
       8  123162  123156       8  123162  123159       9  123168  123165       8
  123171  123165       8  123171  123168       9  123177  123174       8  123180
  123174       8  123180  123177       9  123186  123183       8  123189  123183
       8  123189  123186       9  123195  123192       8  123198  123192       8
  123198  123195       9  123204  123201       8  123207  123201       8  123207
  123204       9  123213  123210       8  123216  123210       8  123216  123213
       9  123222  123219       8  123225  123219       8  123225  123222       9
  123231  123228       8  123234  123228       8  123234  123231       9  123240
  123237       8  123243  123237       8  123243  123240       9  123249  123246
       8  123252  123246       8  123252  123249       9  123258  123255       8
  123261  123255       8  123261  123258       9  123267  123264       8  123270
  123264       8  123270  123267       9  123276  123273       8  123279  123273
       8  123279  123276       9  123285  123282       8  123288  123282       8
  123288  123285       9  123294  123291       8  123297  123291       8  123297
  123294       9  123303  123300       8  123306  123300       8  123306  123303
       9  123312  123309       8  123315  123309       8  123315  123312       9
  123321  123318       8  123324  123318       8  123324  123321       9  123330
  123327       8  123333  123327       8  123333  123330       9  123339  123336
       8  123342  123336       8  123342  123339       9  123348  123345       8
  123351  123345       8  123351  123348       9  123357  123354       8  123360
  123354       8  123360  123357       9  123366  123363       8  123369  123363
       8  123369  123366       9  123375  123372       8  123378  123372       8
  123378  123375       9  123384  123381       8  123387  123381       8  123387
  123384       9  123393  123390       8  123396  123390       8  123396  123393
       9  123402  123399       8  123405  123399       8  123405  123402       9
  123411  123408       8  123414  123408       8  123414  123411       9  123420
  123417       8  123423  123417       8  123423  123420       9  123429  123426
       8  123432  123426       8  123432  123429       9  123438  123435       8
  123441  123435       8  123441  123438       9  123447  123444       8  123450
  123444       8  123450  123447       9  123456  123453       8  123459  123453
       8  123459  123456       9  123465  123462       8  123468  123462       8
  123468  123465       9  123474  123471       8  123477  123471       8  123477
  123474       9  123483  123480       8  123486  123480       8  123486  123483
       9  123492  123489       8  123495  123489       8  123495  123492       9
  123501  123498       8  123504  123498       8  123504  123501       9  123510
  123507       8  123513  123507       8  123513  123510       9  123519  123516
       8  123522  123516       8  123522  123519       9  123528  123525       8
  123531  123525       8  123531  123528       9  123537  123534       8  123540
  123534       8  123540  123537       9  123546  123543       8  123549  123543
       8  123549  123546       9  123555  123552       8  123558  123552       8
  123558  123555       9  123564  123561       8  123567  123561       8  123567
  123564       9  123573  123570       8  123576  123570       8  123576  123573
       9  123582  123579       8  123585  123579       8  123585  123582       9
  123591  123588       8  123594  123588       8  123594  123591       9  123600
  123597       8  123603  123597       8  123603  123600       9  123609  123606
       8  123612  123606       8  123612  123609       9  123618  123615       8
  123621  123615       8  123621  123618       9  123627  123624       8  123630
  123624       8  123630  123627       9  123636  123633       8  123639  123633
       8  123639  123636       9  123645  123642       8  123648  123642       8
  123648  123645       9  123654  123651       8  123657  123651       8  123657
  123654       9  123663  123660       8  123666  123660       8  123666  123663
       9  123672  123669       8  123675  123669       8  123675  123672       9
  123681  123678       8  123684  123678       8  123684  123681       9  123690
  123687       8  123693  123687       8  123693  123690       9  123699  123696
       8  123702  123696       8  123702  123699       9  123708  123705       8
  123711  123705       8  123711  123708       9  123717  123714       8  123720
  123714       8  123720  123717       9  123726  123723       8  123729  123723
       8  123729  123726       9  123735  123732       8  123738  123732       8
  123738  123735       9  123744  123741       8  123747  123741       8  123747
  123744       9  123753  123750       8  123756  123750       8  123756  123753
       9  123762  123759       8  123765  123759       8  123765  123762       9
  123771  123768       8  123774  123768       8  123774  123771       9  123780
  123777       8  123783  123777       8  123783  123780       9  123789  123786
       8  123792  123786       8  123792  123789       9  123798  123795       8
  123801  123795       8  123801  123798       9  123807  123804       8  123810
  123804       8  123810  123807       9  123816  123813       8  123819  123813
       8  123819  123816       9  123825  123822       8  123828  123822       8
  123828  123825       9  123834  123831       8  123837  123831       8  123837
  123834       9  123843  123840       8  123846  123840       8  123846  123843
       9  123852  123849       8  123855  123849       8  123855  123852       9
  123861  123858       8  123864  123858       8  123864  123861       9  123870
  123867       8  123873  123867       8  123873  123870       9  123879  123876
       8  123882  123876       8  123882  123879       9  123888  123885       8
  123891  123885       8  123891  123888       9  123897  123894       8  123900
  123894       8  123900  123897       9  123906  123903       8  123909  123903
       8  123909  123906       9  123915  123912       8  123918  123912       8
  123918  123915       9  123924  123921       8  123927  123921       8  123927
  123924       9  123933  123930       8  123936  123930       8  123936  123933
       9  123942  123939       8  123945  123939       8  123945  123942       9
  123951  123948       8  123954  123948       8  123954  123951       9  123960
  123957       8  123963  123957       8  123963  123960       9  123969  123966
       8  123972  123966       8  123972  123969       9  123978  123975       8
  123981  123975       8  123981  123978       9  123987  123984       8  123990
  123984       8  123990  123987       9  123996  123993       8  123999  123993
       8  123999  123996       9  124005  124002       8  124008  124002       8
  124008  124005       9  124014  124011       8  124017  124011       8  124017
  124014       9  124023  124020       8  124026  124020       8  124026  124023
       9  124032  124029       8  124035  124029       8  124035  124032       9
  124041  124038       8  124044  124038       8  124044  124041       9  124050
  124047       8  124053  124047       8  124053  124050       9  124059  124056
       8  124062  124056       8  124062  124059       9  124068  124065       8
  124071  124065       8  124071  124068       9  124077  124074       8  124080
  124074       8  124080  124077       9  124086  124083       8  124089  124083
       8  124089  124086       9  124095  124092       8  124098  124092       8
  124098  124095       9  124104  124101       8  124107  124101       8  124107
  124104       9  124113  124110       8  124116  124110       8  124116  124113
       9  124122  124119       8  124125  124119       8  124125  124122       9
  124131  124128       8  124134  124128       8  124134  124131       9  124140
  124137       8  124143  124137       8  124143  124140       9  124149  124146
       8  124152  124146       8  124152  124149       9  124158  124155       8
  124161  124155       8  124161  124158       9  124167  124164       8  124170
  124164       8  124170  124167       9  124176  124173       8  124179  124173
       8  124179  124176       9  124185  124182       8  124188  124182       8
  124188  124185       9  124194  124191       8  124197  124191       8  124197
  124194       9  124203  124200       8  124206  124200       8  124206  124203
       9  124212  124209       8  124215  124209       8  124215  124212       9
  124221  124218       8  124224  124218       8  124224  124221       9  124230
  124227       8  124233  124227       8  124233  124230       9  124239  124236
       8  124242  124236       8  124242  124239       9  124248  124245       8
  124251  124245       8  124251  124248       9  124257  124254       8  124260
  124254       8  124260  124257       9  124266  124263       8  124269  124263
       8  124269  124266       9  124275  124272       8  124278  124272       8
  124278  124275       9  124284  124281       8  124287  124281       8  124287
  124284       9  124293  124290       8  124296  124290       8  124296  124293
       9  124302  124299       8  124305  124299       8  124305  124302       9
  124311  124308       8  124314  124308       8  124314  124311       9  124320
  124317       8  124323  124317       8  124323  124320       9  124329  124326
       8  124332  124326       8  124332  124329       9  124338  124335       8
  124341  124335       8  124341  124338       9  124347  124344       8  124350
  124344       8  124350  124347       9  124356  124353       8  124359  124353
       8  124359  124356       9  124365  124362       8  124368  124362       8
  124368  124365       9  124374  124371       8  124377  124371       8  124377
  124374       9  124383  124380       8  124386  124380       8  124386  124383
       9  124392  124389       8  124395  124389       8  124395  124392       9
  124401  124398       8  124404  124398       8  124404  124401       9  124410
  124407       8  124413  124407       8  124413  124410       9  124419  124416
       8  124422  124416       8  124422  124419       9  124428  124425       8
  124431  124425       8  124431  124428       9  124437  124434       8  124440
  124434       8  124440  124437       9  124446  124443       8  124449  124443
       8  124449  124446       9  124455  124452       8  124458  124452       8
  124458  124455       9  124464  124461       8  124467  124461       8  124467
  124464       9  124473  124470       8  124476  124470       8  124476  124473
       9  124482  124479       8  124485  124479       8  124485  124482       9
  124491  124488       8  124494  124488       8  124494  124491       9  124500
  124497       8  124503  124497       8  124503  124500       9  124509  124506
       8  124512  124506       8  124512  124509       9  124518  124515       8
  124521  124515       8  124521  124518       9  124527  124524       8  124530
  124524       8  124530  124527       9  124536  124533       8  124539  124533
       8  124539  124536       9  124545  124542       8  124548  124542       8
  124548  124545       9  124554  124551       8  124557  124551       8  124557
  124554       9  124563  124560       8  124566  124560       8  124566  124563
       9  124572  124569       8  124575  124569       8  124575  124572       9
  124581  124578       8  124584  124578       8  124584  124581       9  124590
  124587       8  124593  124587       8  124593  124590       9  124599  124596
       8  124602  124596       8  124602  124599       9  124608  124605       8
  124611  124605       8  124611  124608       9  124617  124614       8  124620
  124614       8  124620  124617       9  124626  124623       8  124629  124623
       8  124629  124626       9  124635  124632       8  124638  124632       8
  124638  124635       9  124644  124641       8  124647  124641       8  124647
  124644       9  124653  124650       8  124656  124650       8  124656  124653
       9  124662  124659       8  124665  124659       8  124665  124662       9
  124671  124668       8  124674  124668       8  124674  124671       9  124680
  124677       8  124683  124677       8  124683  124680       9  124689  124686
       8  124692  124686       8  124692  124689       9  124698  124695       8
  124701  124695       8  124701  124698       9  124707  124704       8  124710
  124704       8  124710  124707       9  124716  124713       8  124719  124713
       8  124719  124716       9  124725  124722       8  124728  124722       8
  124728  124725       9  124734  124731       8  124737  124731       8  124737
  124734       9  124743  124740       8  124746  124740       8  124746  124743
       9  124752  124749       8  124755  124749       8  124755  124752       9
  124761  124758       8  124764  124758       8  124764  124761       9  124770
  124767       8  124773  124767       8  124773  124770       9  124779  124776
       8  124782  124776       8  124782  124779       9  124788  124785       8
  124791  124785       8  124791  124788       9  124797  124794       8  124800
  124794       8  124800  124797       9  124806  124803       8  124809  124803
       8  124809  124806       9  124815  124812       8  124818  124812       8
  124818  124815       9  124824  124821       8  124827  124821       8  124827
  124824       9  124833  124830       8  124836  124830       8  124836  124833
       9  124842  124839       8  124845  124839       8  124845  124842       9
  124851  124848       8  124854  124848       8  124854  124851       9  124860
  124857       8  124863  124857       8  124863  124860       9  124869  124866
       8  124872  124866       8  124872  124869       9  124878  124875       8
  124881  124875       8  124881  124878       9  124887  124884       8  124890
  124884       8  124890  124887       9  124896  124893       8  124899  124893
       8  124899  124896       9  124905  124902       8  124908  124902       8
  124908  124905       9  124914  124911       8  124917  124911       8  124917
  124914       9  124923  124920       8  124926  124920       8  124926  124923
       9  124932  124929       8  124935  124929       8  124935  124932       9
  124941  124938       8  124944  124938       8  124944  124941       9  124950
  124947       8  124953  124947       8  124953  124950       9  124959  124956
       8  124962  124956       8  124962  124959       9  124968  124965       8
  124971  124965       8  124971  124968       9  124977  124974       8  124980
  124974       8  124980  124977       9  124986  124983       8  124989  124983
       8  124989  124986       9  124995  124992       8  124998  124992       8
  124998  124995       9  125004  125001       8  125007  125001       8  125007
  125004       9  125013  125010       8  125016  125010       8  125016  125013
       9  125022  125019       8  125025  125019       8  125025  125022       9
  125031  125028       8  125034  125028       8  125034  125031       9  125040
  125037       8  125043  125037       8  125043  125040       9  125049  125046
       8  125052  125046       8  125052  125049       9  125058  125055       8
  125061  125055       8  125061  125058       9  125067  125064       8  125070
  125064       8  125070  125067       9  125076  125073       8  125079  125073
       8  125079  125076       9  125085  125082       8  125088  125082       8
  125088  125085       9  125094  125091       8  125097  125091       8  125097
  125094       9  125103  125100       8  125106  125100       8  125106  125103
       9  125112  125109       8  125115  125109       8  125115  125112       9
  125121  125118       8  125124  125118       8  125124  125121       9  125130
  125127       8  125133  125127       8  125133  125130       9  125139  125136
       8  125142  125136       8  125142  125139       9  125148  125145       8
  125151  125145       8  125151  125148       9  125157  125154       8  125160
  125154       8  125160  125157       9  125166  125163       8  125169  125163
       8  125169  125166       9  125175  125172       8  125178  125172       8
  125178  125175       9  125184  125181       8  125187  125181       8  125187
  125184       9  125193  125190       8  125196  125190       8  125196  125193
       9  125202  125199       8  125205  125199       8  125205  125202       9
  125211  125208       8  125214  125208       8  125214  125211       9  125220
  125217       8  125223  125217       8  125223  125220       9  125229  125226
       8  125232  125226       8  125232  125229       9  125238  125235       8
  125241  125235       8  125241  125238       9  125247  125244       8  125250
  125244       8  125250  125247       9  125256  125253       8  125259  125253
       8  125259  125256       9  125265  125262       8  125268  125262       8
  125268  125265       9  125274  125271       8  125277  125271       8  125277
  125274       9  125283  125280       8  125286  125280       8  125286  125283
       9  125292  125289       8  125295  125289       8  125295  125292       9
  125301  125298       8  125304  125298       8  125304  125301       9  125310
  125307       8  125313  125307       8  125313  125310       9  125319  125316
       8  125322  125316       8  125322  125319       9  125328  125325       8
  125331  125325       8  125331  125328       9  125337  125334       8  125340
  125334       8  125340  125337       9  125346  125343       8  125349  125343
       8  125349  125346       9  125355  125352       8  125358  125352       8
  125358  125355       9  125364  125361       8  125367  125361       8  125367
  125364       9  125373  125370       8  125376  125370       8  125376  125373
       9  125382  125379       8  125385  125379       8  125385  125382       9
  125391  125388       8  125394  125388       8  125394  125391       9  125400
  125397       8  125403  125397       8  125403  125400       9  125409  125406
       8  125412  125406       8  125412  125409       9  125418  125415       8
  125421  125415       8  125421  125418       9  125427  125424       8  125430
  125424       8  125430  125427       9  125436  125433       8  125439  125433
       8  125439  125436       9  125445  125442       8  125448  125442       8
  125448  125445       9  125454  125451       8  125457  125451       8  125457
  125454       9  125463  125460       8  125466  125460       8  125466  125463
       9  125472  125469       8  125475  125469       8  125475  125472       9
  125481  125478       8  125484  125478       8  125484  125481       9  125490
  125487       8  125493  125487       8  125493  125490       9  125499  125496
       8  125502  125496       8  125502  125499       9  125508  125505       8
  125511  125505       8  125511  125508       9  125517  125514       8  125520
  125514       8  125520  125517       9  125526  125523       8  125529  125523
       8  125529  125526       9  125535  125532       8  125538  125532       8
  125538  125535       9  125544  125541       8  125547  125541       8  125547
  125544       9  125553  125550       8  125556  125550       8  125556  125553
       9  125562  125559       8  125565  125559       8  125565  125562       9
  125571  125568       8  125574  125568       8  125574  125571       9  125580
  125577       8  125583  125577       8  125583  125580       9  125589  125586
       8  125592  125586       8  125592  125589       9  125598  125595       8
  125601  125595       8  125601  125598       9  125607  125604       8  125610
  125604       8  125610  125607       9  125616  125613       8  125619  125613
       8  125619  125616       9  125625  125622       8  125628  125622       8
  125628  125625       9  125634  125631       8  125637  125631       8  125637
  125634       9  125643  125640       8  125646  125640       8  125646  125643
       9  125652  125649       8  125655  125649       8  125655  125652       9
  125661  125658       8  125664  125658       8  125664  125661       9  125670
  125667       8  125673  125667       8  125673  125670       9  125679  125676
       8  125682  125676       8  125682  125679       9  125688  125685       8
  125691  125685       8  125691  125688       9  125697  125694       8  125700
  125694       8  125700  125697       9  125706  125703       8  125709  125703
       8  125709  125706       9  125715  125712       8  125718  125712       8
  125718  125715       9  125724  125721       8  125727  125721       8  125727
  125724       9  125733  125730       8  125736  125730       8  125736  125733
       9  125742  125739       8  125745  125739       8  125745  125742       9
  125751  125748       8  125754  125748       8  125754  125751       9  125760
  125757       8  125763  125757       8  125763  125760       9  125769  125766
       8  125772  125766       8  125772  125769       9  125778  125775       8
  125781  125775       8  125781  125778       9  125787  125784       8  125790
  125784       8  125790  125787       9  125796  125793       8  125799  125793
       8  125799  125796       9  125805  125802       8  125808  125802       8
  125808  125805       9  125814  125811       8  125817  125811       8  125817
  125814       9  125823  125820       8  125826  125820       8  125826  125823
       9  125832  125829       8  125835  125829       8  125835  125832       9
  125841  125838       8  125844  125838       8  125844  125841       9  125850
  125847       8  125853  125847       8  125853  125850       9  125859  125856
       8  125862  125856       8  125862  125859       9  125868  125865       8
  125871  125865       8  125871  125868       9  125877  125874       8  125880
  125874       8  125880  125877       9  125886  125883       8  125889  125883
       8  125889  125886       9  125895  125892       8  125898  125892       8
  125898  125895       9  125904  125901       8  125907  125901       8  125907
  125904       9  125913  125910       8  125916  125910       8  125916  125913
       9  125922  125919       8  125925  125919       8  125925  125922       9
  125931  125928       8  125934  125928       8  125934  125931       9  125940
  125937       8  125943  125937       8  125943  125940       9  125949  125946
       8  125952  125946       8  125952  125949       9  125958  125955       8
  125961  125955       8  125961  125958       9  125967  125964       8  125970
  125964       8  125970  125967       9  125976  125973       8  125979  125973
       8  125979  125976       9  125985  125982       8  125988  125982       8
  125988  125985       9  125994  125991       8  125997  125991       8  125997
  125994       9  126003  126000       8  126006  126000       8  126006  126003
       9  126012  126009       8  126015  126009       8  126015  126012       9
  126021  126018       8  126024  126018       8  126024  126021       9  126030
  126027       8  126033  126027       8  126033  126030       9  126039  126036
       8  126042  126036       8  126042  126039       9  126048  126045       8
  126051  126045       8  126051  126048       9  126057  126054       8  126060
  126054       8  126060  126057       9  126066  126063       8  126069  126063
       8  126069  126066       9  126075  126072       8  126078  126072       8
  126078  126075       9  126084  126081       8  126087  126081       8  126087
  126084       9  126093  126090       8  126096  126090       8  126096  126093
       9  126102  126099       8  126105  126099       8  126105  126102       9
  126111  126108       8  126114  126108       8  126114  126111       9  126120
  126117       8  126123  126117       8  126123  126120       9  126129  126126
       8  126132  126126       8  126132  126129       9  126138  126135       8
  126141  126135       8  126141  126138       9  126147  126144       8  126150
  126144       8  126150  126147       9  126156  126153       8  126159  126153
       8  126159  126156       9  126165  126162       8  126168  126162       8
  126168  126165       9  126174  126171       8  126177  126171       8  126177
  126174       9  126183  126180       8  126186  126180       8  126186  126183
       9  126192  126189       8  126195  126189       8  126195  126192       9
  126201  126198       8  126204  126198       8  126204  126201       9  126210
  126207       8  126213  126207       8  126213  126210       9  126219  126216
       8  126222  126216       8  126222  126219       9  126228  126225       8
  126231  126225       8  126231  126228       9  126237  126234       8  126240
  126234       8  126240  126237       9  126246  126243       8  126249  126243
       8  126249  126246       9  126255  126252       8  126258  126252       8
  126258  126255       9  126264  126261       8  126267  126261       8  126267
  126264       9  126273  126270       8  126276  126270       8  126276  126273
       9  126282  126279       8  126285  126279       8  126285  126282       9
  126291  126288       8  126294  126288       8  126294  126291       9  126300
  126297       8  126303  126297       8  126303  126300       9  126309  126306
       8  126312  126306       8  126312  126309       9  126318  126315       8
  126321  126315       8  126321  126318       9  126327  126324       8  126330
  126324       8  126330  126327       9  126336  126333       8  126339  126333
       8  126339  126336       9  126345  126342       8  126348  126342       8
  126348  126345       9  126354  126351       8  126357  126351       8  126357
  126354       9  126363  126360       8  126366  126360       8  126366  126363
       9  126372  126369       8  126375  126369       8  126375  126372       9
  126381  126378       8  126384  126378       8  126384  126381       9  126390
  126387       8  126393  126387       8  126393  126390       9  126399  126396
       8  126402  126396       8  126402  126399       9  126408  126405       8
  126411  126405       8  126411  126408       9  126417  126414       8  126420
  126414       8  126420  126417       9  126426  126423       8  126429  126423
       8  126429  126426       9  126435  126432       8  126438  126432       8
  126438  126435       9  126444  126441       8  126447  126441       8  126447
  126444       9  126453  126450       8  126456  126450       8  126456  126453
       9  126462  126459       8  126465  126459       8  126465  126462       9
  126471  126468       8  126474  126468       8  126474  126471       9  126480
  126477       8  126483  126477       8  126483  126480       9  126489  126486
       8  126492  126486       8  126492  126489       9  126498  126495       8
  126501  126495       8  126501  126498       9  126507  126504       8  126510
  126504       8  126510  126507       9  126516  126513       8  126519  126513
       8  126519  126516       9  126525  126522       8  126528  126522       8
  126528  126525       9  126534  126531       8  126537  126531       8  126537
  126534       9  126543  126540       8  126546  126540       8  126546  126543
       9  126552  126549       8  126555  126549       8  126555  126552       9
  126561  126558       8  126564  126558       8  126564  126561       9  126570
  126567       8  126573  126567       8  126573  126570       9  126579  126576
       8  126582  126576       8  126582  126579       9  126588  126585       8
  126591  126585       8  126591  126588       9  126597  126594       8  126600
  126594       8  126600  126597       9  126606  126603       8  126609  126603
       8  126609  126606       9  126615  126612       8  126618  126612       8
  126618  126615       9  126624  126621       8  126627  126621       8  126627
  126624       9  126633  126630       8  126636  126630       8  126636  126633
       9  126642  126639       8  126645  126639       8  126645  126642       9
  126651  126648       8  126654  126648       8  126654  126651       9  126660
  126657       8  126663  126657       8  126663  126660       9  126669  126666
       8  126672  126666       8  126672  126669       9  126678  126675       8
  126681  126675       8  126681  126678       9  126687  126684       8  126690
  126684       8  126690  126687       9  126696  126693       8  126699  126693
       8  126699  126696       9  126705  126702       8  126708  126702       8
  126708  126705       9  126714  126711       8  126717  126711       8  126717
  126714       9  126723  126720       8  126726  126720       8  126726  126723
       9  126732  126729       8  126735  126729       8  126735  126732       9
  126741  126738       8  126744  126738       8  126744  126741       9  126750
  126747       8  126753  126747       8  126753  126750       9  126759  126756
       8  126762  126756       8  126762  126759       9  126768  126765       8
  126771  126765       8  126771  126768       9  126777  126774       8  126780
  126774       8  126780  126777       9  126786  126783       8  126789  126783
       8  126789  126786       9  126795  126792       8  126798  126792       8
  126798  126795       9  126804  126801       8  126807  126801       8  126807
  126804       9  126813  126810       8  126816  126810       8  126816  126813
       9  126822  126819       8  126825  126819       8  126825  126822       9
  126831  126828       8  126834  126828       8  126834  126831       9  126840
  126837       8  126843  126837       8  126843  126840       9  126849  126846
       8  126852  126846       8  126852  126849       9  126858  126855       8
  126861  126855       8  126861  126858       9  126867  126864       8  126870
  126864       8  126870  126867       9  126876  126873       8  126879  126873
       8  126879  126876       9  126885  126882       8  126888  126882       8
  126888  126885       9  126894  126891       8  126897  126891       8  126897
  126894       9  126903  126900       8  126906  126900       8  126906  126903
       9  126912  126909       8  126915  126909       8  126915  126912       9
  126921  126918       8  126924  126918       8  126924  126921       9  126930
  126927       8  126933  126927       8  126933  126930       9  126939  126936
       8  126942  126936       8  126942  126939       9  126948  126945       8
  126951  126945       8  126951  126948       9  126957  126954       8  126960
  126954       8  126960  126957       9  126966  126963       8  126969  126963
       8  126969  126966       9  126975  126972       8  126978  126972       8
  126978  126975       9  126984  126981       8  126987  126981       8  126987
  126984       9  126993  126990       8  126996  126990       8  126996  126993
       9  127002  126999       8  127005  126999       8  127005  127002       9
  127011  127008       8  127014  127008       8  127014  127011       9  127020
  127017       8  127023  127017       8  127023  127020       9  127029  127026
       8  127032  127026       8  127032  127029       9  127038  127035       8
  127041  127035       8  127041  127038       9  127047  127044       8  127050
  127044       8  127050  127047       9  127056  127053       8  127059  127053
       8  127059  127056       9  127065  127062       8  127068  127062       8
  127068  127065       9  127074  127071       8  127077  127071       8  127077
  127074       9  127083  127080       8  127086  127080       8  127086  127083
       9  127092  127089       8  127095  127089       8  127095  127092       9
  127101  127098       8  127104  127098       8  127104  127101       9  127110
  127107       8  127113  127107       8  127113  127110       9  127119  127116
       8  127122  127116       8  127122  127119       9  127128  127125       8
  127131  127125       8  127131  127128       9  127137  127134       8  127140
  127134       8  127140  127137       9  127146  127143       8  127149  127143
       8  127149  127146       9  127155  127152       8  127158  127152       8
  127158  127155       9  127164  127161       8  127167  127161       8  127167
  127164       9  127173  127170       8  127176  127170       8  127176  127173
       9  127182  127179       8  127185  127179       8  127185  127182       9
  127191  127188       8  127194  127188       8  127194  127191       9  127200
  127197       8  127203  127197       8  127203  127200       9  127209  127206
       8  127212  127206       8  127212  127209       9  127218  127215       8
  127221  127215       8  127221  127218       9  127227  127224       8  127230
  127224       8  127230  127227       9  127236  127233       8  127239  127233
       8  127239  127236       9  127245  127242       8  127248  127242       8
  127248  127245       9  127254  127251       8  127257  127251       8  127257
  127254       9  127263  127260       8  127266  127260       8  127266  127263
       9  127272  127269       8  127275  127269       8  127275  127272       9
  127281  127278       8  127284  127278       8  127284  127281       9  127290
  127287       8  127293  127287       8  127293  127290       9  127299  127296
       8  127302  127296       8  127302  127299       9  127308  127305       8
  127311  127305       8  127311  127308       9  127317  127314       8  127320
  127314       8  127320  127317       9  127326  127323       8  127329  127323
       8  127329  127326       9  127335  127332       8  127338  127332       8
  127338  127335       9  127344  127341       8  127347  127341       8  127347
  127344       9  127353  127350       8  127356  127350       8  127356  127353
       9  127362  127359       8  127365  127359       8  127365  127362       9
  127371  127368       8  127374  127368       8  127374  127371       9  127380
  127377       8  127383  127377       8  127383  127380       9  127389  127386
       8  127392  127386       8  127392  127389       9  127398  127395       8
  127401  127395       8  127401  127398       9  127407  127404       8  127410
  127404       8  127410  127407       9  127416  127413       8  127419  127413
       8  127419  127416       9  127425  127422       8  127428  127422       8
  127428  127425       9  127434  127431       8  127437  127431       8  127437
  127434       9  127443  127440       8  127446  127440       8  127446  127443
       9  127452  127449       8  127455  127449       8  127455  127452       9
  127461  127458       8  127464  127458       8  127464  127461       9  127470
  127467       8  127473  127467       8  127473  127470       9  127479  127476
       8  127482  127476       8  127482  127479       9  127488  127485       8
  127491  127485       8  127491  127488       9  127497  127494       8  127500
  127494       8  127500  127497       9  127506  127503       8  127509  127503
       8  127509  127506       9  127515  127512       8  127518  127512       8
  127518  127515       9  127524  127521       8  127527  127521       8  127527
  127524       9  127533  127530       8  127536  127530       8  127536  127533
       9  127542  127539       8  127545  127539       8  127545  127542       9
  127551  127548       8  127554  127548       8  127554  127551       9  127560
  127557       8  127563  127557       8  127563  127560       9  127569  127566
       8  127572  127566       8  127572  127569       9  127578  127575       8
  127581  127575       8  127581  127578       9  127587  127584       8  127590
  127584       8  127590  127587       9  127596  127593       8  127599  127593
       8  127599  127596       9  127605  127602       8  127608  127602       8
  127608  127605       9  127614  127611       8  127617  127611       8  127617
  127614       9  127623  127620       8  127626  127620       8  127626  127623
       9  127632  127629       8  127635  127629       8  127635  127632       9
  127641  127638       8  127644  127638       8  127644  127641       9  127650
  127647       8  127653  127647       8  127653  127650       9  127659  127656
       8  127662  127656       8  127662  127659       9  127668  127665       8
  127671  127665       8  127671  127668       9  127677  127674       8  127680
  127674       8  127680  127677       9  127686  127683       8  127689  127683
       8  127689  127686       9  127695  127692       8  127698  127692       8
  127698  127695       9  127704  127701       8  127707  127701       8  127707
  127704       9  127713  127710       8  127716  127710       8  127716  127713
       9  127722  127719       8  127725  127719       8  127725  127722       9
  127731  127728       8  127734  127728       8  127734  127731       9  127740
  127737       8  127743  127737       8  127743  127740       9  127749  127746
       8  127752  127746       8  127752  127749       9  127758  127755       8
  127761  127755       8  127761  127758       9  127767  127764       8  127770
  127764       8  127770  127767       9  127776  127773       8  127779  127773
       8  127779  127776       9  127785  127782       8  127788  127782       8
  127788  127785       9  127794  127791       8  127797  127791       8  127797
  127794       9  127803  127800       8  127806  127800       8  127806  127803
       9  127812  127809       8  127815  127809       8  127815  127812       9
  127821  127818       8  127824  127818       8  127824  127821       9  127830
  127827       8  127833  127827       8  127833  127830       9  127839  127836
       8  127842  127836       8  127842  127839       9  127848  127845       8
  127851  127845       8  127851  127848       9  127857  127854       8  127860
  127854       8  127860  127857       9  127866  127863       8  127869  127863
       8  127869  127866       9  127875  127872       8  127878  127872       8
  127878  127875       9  127884  127881       8  127887  127881       8  127887
  127884       9  127893  127890       8  127896  127890       8  127896  127893
       9  127902  127899       8  127905  127899       8  127905  127902       9
  127911  127908       8  127914  127908       8  127914  127911       9  127920
  127917       8  127923  127917       8  127923  127920       9  127929  127926
       8  127932  127926       8  127932  127929       9  127938  127935       8
  127941  127935       8  127941  127938       9  127947  127944       8  127950
  127944       8  127950  127947       9  127956  127953       8  127959  127953
       8  127959  127956       9  127965  127962       8  127968  127962       8
  127968  127965       9  127974  127971       8  127977  127971       8  127977
  127974       9  127983  127980       8  127986  127980       8  127986  127983
       9  127992  127989       8  127995  127989       8  127995  127992       9
  128001  127998       8  128004  127998       8  128004  128001       9  128010
  128007       8  128013  128007       8  128013  128010       9  128019  128016
       8  128022  128016       8  128022  128019       9  128028  128025       8
  128031  128025       8  128031  128028       9  128037  128034       8  128040
  128034       8  128040  128037       9  128046  128043       8  128049  128043
       8  128049  128046       9  128055  128052       8  128058  128052       8
  128058  128055       9  128064  128061       8  128067  128061       8  128067
  128064       9  128073  128070       8  128076  128070       8  128076  128073
       9  128082  128079       8  128085  128079       8  128085  128082       9
  128091  128088       8  128094  128088       8  128094  128091       9  128100
  128097       8  128103  128097       8  128103  128100       9  128109  128106
       8  128112  128106       8  128112  128109       9  128118  128115       8
  128121  128115       8  128121  128118       9  128127  128124       8  128130
  128124       8  128130  128127       9  128136  128133       8  128139  128133
       8  128139  128136       9  128145  128142       8  128148  128142       8
  128148  128145       9  128154  128151       8  128157  128151       8  128157
  128154       9  128163  128160       8  128166  128160       8  128166  128163
       9  128172  128169       8  128175  128169       8  128175  128172       9
  128181  128178       8  128184  128178       8  128184  128181       9  128190
  128187       8  128193  128187       8  128193  128190       9  128199  128196
       8  128202  128196       8  128202  128199       9  128208  128205       8
  128211  128205       8  128211  128208       9  128217  128214       8  128220
  128214       8  128220  128217       9  128226  128223       8  128229  128223
       8  128229  128226       9  128235  128232       8  128238  128232       8
  128238  128235       9  128244  128241       8  128247  128241       8  128247
  128244       9  128253  128250       8  128256  128250       8  128256  128253
       9  128262  128259       8  128265  128259       8  128265  128262       9
  128271  128268       8  128274  128268       8  128274  128271       9  128280
  128277       8  128283  128277       8  128283  128280       9  128289  128286
       8  128292  128286       8  128292  128289       9  128298  128295       8
  128301  128295       8  128301  128298       9  128307  128304       8  128310
  128304       8  128310  128307       9  128316  128313       8  128319  128313
       8  128319  128316       9  128325  128322       8  128328  128322       8
  128328  128325       9  128334  128331       8  128337  128331       8  128337
  128334       9  128343  128340       8  128346  128340       8  128346  128343
       9  128352  128349       8  128355  128349       8  128355  128352       9
  128361  128358       8  128364  128358       8  128364  128361       9  128370
  128367       8  128373  128367       8  128373  128370       9  128379  128376
       8  128382  128376       8  128382  128379       9  128388  128385       8
  128391  128385       8  128391  128388       9  128397  128394       8  128400
  128394       8  128400  128397       9  128406  128403       8  128409  128403
       8  128409  128406       9  128415  128412       8  128418  128412       8
  128418  128415       9  128424  128421       8  128427  128421       8  128427
  128424       9  128433  128430       8  128436  128430       8  128436  128433
       9  128442  128439       8  128445  128439       8  128445  128442       9
  128451  128448       8  128454  128448       8  128454  128451       9  128460
  128457       8  128463  128457       8  128463  128460       9  128469  128466
       8  128472  128466       8  128472  128469       9  128478  128475       8
  128481  128475       8  128481  128478       9  128487  128484       8  128490
  128484       8  128490  128487       9  128496  128493       8  128499  128493
       8  128499  128496       9  128505  128502       8  128508  128502       8
  128508  128505       9  128514  128511       8  128517  128511       8  128517
  128514       9  128523  128520       8  128526  128520       8  128526  128523
       9  128532  128529       8  128535  128529       8  128535  128532       9
  128541  128538       8  128544  128538       8  128544  128541       9  128550
  128547       8  128553  128547       8  128553  128550       9  128559  128556
       8  128562  128556       8  128562  128559       9  128568  128565       8
  128571  128565       8  128571  128568       9  128577  128574       8  128580
  128574       8  128580  128577       9  128586  128583       8  128589  128583
       8  128589  128586       9  128595  128592       8  128598  128592       8
  128598  128595       9  128604  128601       8  128607  128601       8  128607
  128604       9  128613  128610       8  128616  128610       8  128616  128613
       9  128622  128619       8  128625  128619       8  128625  128622       9
  128631  128628       8  128634  128628       8  128634  128631       9  128640
  128637       8  128643  128637       8  128643  128640       9  128649  128646
       8  128652  128646       8  128652  128649       9  128658  128655       8
  128661  128655       8  128661  128658       9  128667  128664       8  128670
  128664       8  128670  128667       9  128676  128673       8  128679  128673
       8  128679  128676       9  128685  128682       8  128688  128682       8
  128688  128685       9  128694  128691       8  128697  128691       8  128697
  128694       9  128703  128700       8  128706  128700       8  128706  128703
       9  128712  128709       8  128715  128709       8  128715  128712       9
  128721  128718       8  128724  128718       8  128724  128721       9  128730
  128727       8  128733  128727       8  128733  128730       9  128739  128736
       8  128742  128736       8  128742  128739       9  128748  128745       8
  128751  128745       8  128751  128748       9  128757  128754       8  128760
  128754       8  128760  128757       9  128766  128763       8  128769  128763
       8  128769  128766       9  128775  128772       8  128778  128772       8
  128778  128775       9  128784  128781       8  128787  128781       8  128787
  128784       9  128793  128790       8  128796  128790       8  128796  128793
       9  128802  128799       8  128805  128799       8  128805  128802       9
  128811  128808       8  128814  128808       8  128814  128811       9  128820
  128817       8  128823  128817       8  128823  128820       9  128829  128826
       8  128832  128826       8  128832  128829       9  128838  128835       8
  128841  128835       8  128841  128838       9  128847  128844       8  128850
  128844       8  128850  128847       9  128856  128853       8  128859  128853
       8  128859  128856       9  128865  128862       8  128868  128862       8
  128868  128865       9  128874  128871       8  128877  128871       8  128877
  128874       9  128883  128880       8  128886  128880       8  128886  128883
       9  128892  128889       8  128895  128889       8  128895  128892       9
  128901  128898       8  128904  128898       8  128904  128901       9  128910
  128907       8  128913  128907       8  128913  128910       9  128919  128916
       8  128922  128916       8  128922  128919       9  128928  128925       8
  128931  128925       8  128931  128928       9  128937  128934       8  128940
  128934       8  128940  128937       9  128946  128943       8  128949  128943
       8  128949  128946       9  128955  128952       8  128958  128952       8
  128958  128955       9  128964  128961       8  128967  128961       8  128967
  128964       9  128973  128970       8  128976  128970       8  128976  128973
       9  128982  128979       8  128985  128979       8  128985  128982       9
  128991  128988       8  128994  128988       8  128994  128991       9  129000
  128997       8  129003  128997       8  129003  129000       9  129009  129006
       8  129012  129006       8  129012  129009       9  129018  129015       8
  129021  129015       8  129021  129018       9  129027  129024       8  129030
  129024       8  129030  129027       9  129036  129033       8  129039  129033
       8  129039  129036       9  129045  129042       8  129048  129042       8
  129048  129045       9  129054  129051       8  129057  129051       8  129057
  129054       9  129063  129060       8  129066  129060       8  129066  129063
       9  129072  129069       8  129075  129069       8  129075  129072       9
  129081  129078       8  129084  129078       8  129084  129081       9  129090
  129087       8  129093  129087       8  129093  129090       9  129099  129096
       8  129102  129096       8  129102  129099       9  129108  129105       8
  129111  129105       8  129111  129108       9  129117  129114       8  129120
  129114       8  129120  129117       9  129126  129123       8  129129  129123
       8  129129  129126       9  129135  129132       8  129138  129132       8
  129138  129135       9  129144  129141       8  129147  129141       8  129147
  129144       9  129153  129150       8  129156  129150       8  129156  129153
       9  129162  129159       8  129165  129159       8  129165  129162       9
  129171  129168       8  129174  129168       8  129174  129171       9  129180
  129177       8  129183  129177       8  129183  129180       9  129189  129186
       8  129192  129186       8  129192  129189       9  129198  129195       8
  129201  129195       8  129201  129198       9  129207  129204       8  129210
  129204       8  129210  129207       9  129216  129213       8  129219  129213
       8  129219  129216       9  129225  129222       8  129228  129222       8
  129228  129225       9  129234  129231       8  129237  129231       8  129237
  129234       9  129243  129240       8  129246  129240       8  129246  129243
       9  129252  129249       8  129255  129249       8  129255  129252       9
  129261  129258       8  129264  129258       8  129264  129261       9  129270
  129267       8  129273  129267       8  129273  129270       9  129279  129276
       8  129282  129276       8  129282  129279       9  129288  129285       8
  129291  129285       8  129291  129288       9  129297  129294       8  129300
  129294       8  129300  129297       9  129306  129303       8  129309  129303
       8  129309  129306       9  129315  129312       8  129318  129312       8
  129318  129315       9  129324  129321       8  129327  129321       8  129327
  129324       9  129333  129330       8  129336  129330       8  129336  129333
       9  129342  129339       8  129345  129339       8  129345  129342       9
  129351  129348       8  129354  129348       8  129354  129351       9  129360
  129357       8  129363  129357       8  129363  129360       9  129369  129366
       8  129372  129366       8  129372  129369       9  129378  129375       8
  129381  129375       8  129381  129378       9  129387  129384       8  129390
  129384       8  129390  129387       9  129396  129393       8  129399  129393
       8  129399  129396       9  129405  129402       8  129408  129402       8
  129408  129405       9  129414  129411       8  129417  129411       8  129417
  129414       9  129423  129420       8  129426  129420       8  129426  129423
       9  129432  129429       8  129435  129429       8  129435  129432       9
  129441  129438       8  129444  129438       8  129444  129441       9  129450
  129447       8  129453  129447       8  129453  129450       9  129459  129456
       8  129462  129456       8  129462  129459       9  129468  129465       8
  129471  129465       8  129471  129468       9  129477  129474       8  129480
  129474       8  129480  129477       9  129486  129483       8  129489  129483
       8  129489  129486       9  129495  129492       8  129498  129492       8
  129498  129495       9  129504  129501       8  129507  129501       8  129507
  129504       9  129513  129510       8  129516  129510       8  129516  129513
       9  129522  129519       8  129525  129519       8  129525  129522       9
  129531  129528       8  129534  129528       8  129534  129531       9  129540
  129537       8  129543  129537       8  129543  129540       9  129549  129546
       8  129552  129546       8  129552  129549       9  129558  129555       8
  129561  129555       8  129561  129558       9  129567  129564       8  129570
  129564       8  129570  129567       9  129576  129573       8  129579  129573
       8  129579  129576       9  129585  129582       8  129588  129582       8
  129588  129585       9  129594  129591       8  129597  129591       8  129597
  129594       9  129603  129600       8  129606  129600       8  129606  129603
       9  129612  129609       8  129615  129609       8  129615  129612       9
  129621  129618       8  129624  129618       8  129624  129621       9  129630
  129627       8  129633  129627       8  129633  129630       9  129639  129636
       8  129642  129636       8  129642  129639       9  129648  129645       8
  129651  129645       8  129651  129648       9  129657  129654       8  129660
  129654       8  129660  129657       9  129666  129663       8  129669  129663
       8  129669  129666       9  129675  129672       8  129678  129672       8
  129678  129675       9  129684  129681       8  129687  129681       8  129687
  129684       9  129693  129690       8  129696  129690       8  129696  129693
       9  129702  129699       8  129705  129699       8  129705  129702       9
  129711  129708       8  129714  129708       8  129714  129711       9  129720
  129717       8  129723  129717       8  129723  129720       9  129729  129726
       8  129732  129726       8  129732  129729       9  129738  129735       8
  129741  129735       8  129741  129738       9  129747  129744       8  129750
  129744       8  129750  129747       9  129756  129753       8  129759  129753
       8  129759  129756       9  129765  129762       8  129768  129762       8
  129768  129765       9  129774  129771       8  129777  129771       8  129777
  129774       9  129783  129780       8  129786  129780       8  129786  129783
       9  129792  129789       8  129795  129789       8  129795  129792       9
  129801  129798       8  129804  129798       8  129804  129801       9  129810
  129807       8  129813  129807       8  129813  129810       9  129819  129816
       8  129822  129816       8  129822  129819       9  129828  129825       8
  129831  129825       8  129831  129828       9  129837  129834       8  129840
  129834       8  129840  129837       9  129846  129843       8  129849  129843
       8  129849  129846       9  129855  129852       8  129858  129852       8
  129858  129855       9  129864  129861       8  129867  129861       8  129867
  129864       9  129873  129870       8  129876  129870       8  129876  129873
       9  129882  129879       8  129885  129879       8  129885  129882       9
  129891  129888       8  129894  129888       8  129894  129891       9  129900
  129897       8  129903  129897       8  129903  129900       9  129909  129906
       8  129912  129906       8  129912  129909       9  129918  129915       8
  129921  129915       8  129921  129918       9  129927  129924       8  129930
  129924       8  129930  129927       9  129936  129933       8  129939  129933
       8  129939  129936       9  129945  129942       8  129948  129942       8
  129948  129945       9  129954  129951       8  129957  129951       8  129957
  129954       9  129963  129960       8  129966  129960       8  129966  129963
       9  129972  129969       8  129975  129969       8  129975  129972       9
  129981  129978       8  129984  129978       8  129984  129981       9  129990
  129987       8  129993  129987       8  129993  129990       9  129999  129996
       8  130002  129996       8  130002  129999       9  130008  130005       8
  130011  130005       8  130011  130008       9  130017  130014       8  130020
  130014       8  130020  130017       9  130026  130023       8  130029  130023
       8  130029  130026       9  130035  130032       8  130038  130032       8
  130038  130035       9  130044  130041       8  130047  130041       8  130047
  130044       9  130053  130050       8  130056  130050       8  130056  130053
       9  130062  130059       8  130065  130059       8  130065  130062       9
  130071  130068       8  130074  130068       8  130074  130071       9  130080
  130077       8  130083  130077       8  130083  130080       9  130089  130086
       8  130092  130086       8  130092  130089       9  130098  130095       8
  130101  130095       8  130101  130098       9  130107  130104       8  130110
  130104       8  130110  130107       9  130116  130113       8  130119  130113
       8  130119  130116       9  130125  130122       8  130128  130122       8
  130128  130125       9  130134  130131       8  130137  130131       8  130137
  130134       9  130143  130140       8  130146  130140       8  130146  130143
       9  130152  130149       8  130155  130149       8  130155  130152       9
  130161  130158       8  130164  130158       8  130164  130161       9  130170
  130167       8  130173  130167       8  130173  130170       9  130179  130176
       8  130182  130176       8  130182  130179       9  130188  130185       8
  130191  130185       8  130191  130188       9  130197  130194       8  130200
  130194       8  130200  130197       9  130206  130203       8  130209  130203
       8  130209  130206       9  130215  130212       8  130218  130212       8
  130218  130215       9  130224  130221       8  130227  130221       8  130227
  130224       9  130233  130230       8  130236  130230       8  130236  130233
       9  130242  130239       8  130245  130239       8  130245  130242       9
  130251  130248       8  130254  130248       8  130254  130251       9  130260
  130257       8  130263  130257       8  130263  130260       9  130269  130266
       8  130272  130266       8  130272  130269       9  130278  130275       8
  130281  130275       8  130281  130278       9  130287  130284       8  130290
  130284       8  130290  130287       9  130296  130293       8  130299  130293
       8  130299  130296       9  130305  130302       8  130308  130302       8
  130308  130305       9  130314  130311       8  130317  130311       8  130317
  130314       9  130323  130320       8  130326  130320       8  130326  130323
       9  130332  130329       8  130335  130329       8  130335  130332       9
  130341  130338       8  130344  130338       8  130344  130341       9  130350
  130347       8  130353  130347       8  130353  130350       9  130359  130356
       8  130362  130356       8  130362  130359       9  130368  130365       8
  130371  130365       8  130371  130368       9  130377  130374       8  130380
  130374       8  130380  130377       9  130386  130383       8  130389  130383
       8  130389  130386       9  130395  130392       8  130398  130392       8
  130398  130395       9  130404  130401       8  130407  130401       8  130407
  130404       9  130413  130410       8  130416  130410       8  130416  130413
       9  130422  130419       8  130425  130419       8  130425  130422       9
  130431  130428       8  130434  130428       8  130434  130431       9  130440
  130437       8  130443  130437       8  130443  130440       9  130449  130446
       8  130452  130446       8  130452  130449       9  130458  130455       8
  130461  130455       8  130461  130458       9  130467  130464       8  130470
  130464       8  130470  130467       9  130476  130473       8  130479  130473
       8  130479  130476       9  130485  130482       8  130488  130482       8
  130488  130485       9  130494  130491       8  130497  130491       8  130497
  130494       9  130503  130500       8  130506  130500       8  130506  130503
       9  130512  130509       8  130515  130509       8  130515  130512       9
  130521  130518       8  130524  130518       8  130524  130521       9  130530
  130527       8  130533  130527       8  130533  130530       9  130539  130536
       8  130542  130536       8  130542  130539       9  130548  130545       8
  130551  130545       8  130551  130548       9  130557  130554       8  130560
  130554       8  130560  130557       9  130566  130563       8  130569  130563
       8  130569  130566       9  130575  130572       8  130578  130572       8
  130578  130575       9  130584  130581       8  130587  130581       8  130587
  130584       9  130593  130590       8  130596  130590       8  130596  130593
       9  130602  130599       8  130605  130599       8  130605  130602       9
  130611  130608       8  130614  130608       8  130614  130611       9  130620
  130617       8  130623  130617       8  130623  130620       9  130629  130626
       8  130632  130626       8  130632  130629       9  130638  130635       8
  130641  130635       8  130641  130638       9  130647  130644       8  130650
  130644       8  130650  130647       9  130656  130653       8  130659  130653
       8  130659  130656       9  130665  130662       8  130668  130662       8
  130668  130665       9  130674  130671       8  130677  130671       8  130677
  130674       9  130683  130680       8  130686  130680       8  130686  130683
       9  130692  130689       8  130695  130689       8  130695  130692       9
  130701  130698       8  130704  130698       8  130704  130701       9  130710
  130707       8  130713  130707       8  130713  130710       9  130719  130716
       8  130722  130716       8  130722  130719       9  130728  130725       8
  130731  130725       8  130731  130728       9  130737  130734       8  130740
  130734       8  130740  130737       9  130746  130743       8  130749  130743
       8  130749  130746       9  130755  130752       8  130758  130752       8
  130758  130755       9  130764  130761       8  130767  130761       8  130767
  130764       9  130773  130770       8  130776  130770       8  130776  130773
       9  130782  130779       8  130785  130779       8  130785  130782       9
  130791  130788       8  130794  130788       8  130794  130791       9  130800
  130797       8  130803  130797       8  130803  130800       9  130809  130806
       8  130812  130806       8  130812  130809       9  130818  130815       8
  130821  130815       8  130821  130818       9  130827  130824       8  130830
  130824       8  130830  130827       9  130836  130833       8  130839  130833
       8  130839  130836       9  130845  130842       8  130848  130842       8
  130848  130845       9  130854  130851       8  130857  130851       8  130857
  130854       9  130863  130860       8  130866  130860       8  130866  130863
       9  130872  130869       8  130875  130869       8  130875  130872       9
  130881  130878       8  130884  130878       8  130884  130881       9  130890
  130887       8  130893  130887       8  130893  130890       9  130899  130896
       8  130902  130896       8  130902  130899       9  130908  130905       8
  130911  130905       8  130911  130908       9  130917  130914       8  130920
  130914       8  130920  130917       9  130926  130923       8  130929  130923
       8  130929  130926       9  130935  130932       8  130938  130932       8
  130938  130935       9  130944  130941       8  130947  130941       8  130947
  130944       9  130953  130950       8  130956  130950       8  130956  130953
       9  130962  130959       8  130965  130959       8  130965  130962       9
  130971  130968       8  130974  130968       8  130974  130971       9  130980
  130977       8  130983  130977       8  130983  130980       9  130989  130986
       8  130992  130986       8  130992  130989       9  130998  130995       8
  131001  130995       8  131001  130998       9  131007  131004       8  131010
  131004       8  131010  131007       9  131016  131013       8  131019  131013
       8  131019  131016       9  131025  131022       8  131028  131022       8
  131028  131025       9  131034  131031       8  131037  131031       8  131037
  131034       9  131043  131040       8  131046  131040       8  131046  131043
       9  131052  131049       8  131055  131049       8  131055  131052       9
  131061  131058       8  131064  131058       8  131064  131061       9  131070
  131067       8  131073  131067       8  131073  131070       9  131079  131076
       8  131082  131076       8  131082  131079       9  131088  131085       8
  131091  131085       8  131091  131088       9  131097  131094       8  131100
  131094       8  131100  131097       9  131106  131103       8  131109  131103
       8  131109  131106       9  131115  131112       8  131118  131112       8
  131118  131115       9  131124  131121       8  131127  131121       8  131127
  131124       9  131133  131130       8  131136  131130       8  131136  131133
       9  131142  131139       8  131145  131139       8  131145  131142       9
  131151  131148       8  131154  131148       8  131154  131151       9  131160
  131157       8  131163  131157       8  131163  131160       9  131169  131166
       8  131172  131166       8  131172  131169       9  131178  131175       8
  131181  131175       8  131181  131178       9  131187  131184       8  131190
  131184       8  131190  131187       9  131196  131193       8  131199  131193
       8  131199  131196       9  131205  131202       8  131208  131202       8
  131208  131205       9  131214  131211       8  131217  131211       8  131217
  131214       9  131223  131220       8  131226  131220       8  131226  131223
       9  131232  131229       8  131235  131229       8  131235  131232       9
  131241  131238       8  131244  131238       8  131244  131241       9  131250
  131247       8  131253  131247       8  131253  131250       9  131259  131256
       8  131262  131256       8  131262  131259       9  131268  131265       8
  131271  131265       8  131271  131268       9  131277  131274       8  131280
  131274       8  131280  131277       9  131286  131283       8  131289  131283
       8  131289  131286       9  131295  131292       8  131298  131292       8
  131298  131295       9  131304  131301       8  131307  131301       8  131307
  131304       9  131313  131310       8  131316  131310       8  131316  131313
       9  131322  131319       8  131325  131319       8  131325  131322       9
  131331  131328       8  131334  131328       8  131334  131331       9  131340
  131337       8  131343  131337       8  131343  131340       9  131349  131346
       8  131352  131346       8  131352  131349       9  131358  131355       8
  131361  131355       8  131361  131358       9  131367  131364       8  131370
  131364       8  131370  131367       9  131376  131373       8  131379  131373
       8  131379  131376       9  131385  131382       8  131388  131382       8
  131388  131385       9  131394  131391       8  131397  131391       8  131397
  131394       9  131403  131400       8  131406  131400       8  131406  131403
       9  131412  131409       8  131415  131409       8  131415  131412       9
  131421  131418       8  131424  131418       8  131424  131421       9  131430
  131427       8  131433  131427       8  131433  131430       9  131439  131436
       8  131442  131436       8  131442  131439       9  131448  131445       8
  131451  131445       8  131451  131448       9  131457  131454       8  131460
  131454       8  131460  131457       9  131466  131463       8  131469  131463
       8  131469  131466       9  131475  131472       8  131478  131472       8
  131478  131475       9  131484  131481       8  131487  131481       8  131487
  131484       9  131493  131490       8  131496  131490       8  131496  131493
       9  131502  131499       8  131505  131499       8  131505  131502       9
  131511  131508       8  131514  131508       8  131514  131511       9  131520
  131517       8  131523  131517       8  131523  131520       9  131529  131526
       8  131532  131526       8  131532  131529       9  131538  131535       8
  131541  131535       8  131541  131538       9  131547  131544       8  131550
  131544       8  131550  131547       9  131556  131553       8  131559  131553
       8  131559  131556       9  131565  131562       8  131568  131562       8
  131568  131565       9  131574  131571       8  131577  131571       8  131577
  131574       9  131583  131580       8  131586  131580       8  131586  131583
       9  131592  131589       8  131595  131589       8  131595  131592       9
  131601  131598       8  131604  131598       8  131604  131601       9  131610
  131607       8  131613  131607       8  131613  131610       9  131619  131616
       8  131622  131616       8  131622  131619       9  131628  131625       8
  131631  131625       8  131631  131628       9  131637  131634       8  131640
  131634       8  131640  131637       9  131646  131643       8  131649  131643
       8  131649  131646       9  131655  131652       8  131658  131652       8
  131658  131655       9  131664  131661       8  131667  131661       8  131667
  131664       9  131673  131670       8  131676  131670       8  131676  131673
       9  131682  131679       8  131685  131679       8  131685  131682       9
  131691  131688       8  131694  131688       8  131694  131691       9  131700
  131697       8  131703  131697       8  131703  131700       9  131709  131706
       8  131712  131706       8  131712  131709       9  131718  131715       8
  131721  131715       8  131721  131718       9  131727  131724       8  131730
  131724       8  131730  131727       9  131736  131733       8  131739  131733
       8  131739  131736       9  131745  131742       8  131748  131742       8
  131748  131745       9  131754  131751       8  131757  131751       8  131757
  131754       9  131763  131760       8  131766  131760       8  131766  131763
       9  131772  131769       8  131775  131769       8  131775  131772       9
  131781  131778       8  131784  131778       8  131784  131781       9  131790
  131787       8  131793  131787       8  131793  131790       9  131799  131796
       8  131802  131796       8  131802  131799       9  131808  131805       8
  131811  131805       8  131811  131808       9  131817  131814       8  131820
  131814       8  131820  131817       9  131826  131823       8  131829  131823
       8  131829  131826       9  131835  131832       8  131838  131832       8
  131838  131835       9  131844  131841       8  131847  131841       8  131847
  131844       9  131853  131850       8  131856  131850       8  131856  131853
       9  131862  131859       8  131865  131859       8  131865  131862       9
  131871  131868       8  131874  131868       8  131874  131871       9  131880
  131877       8  131883  131877       8  131883  131880       9  131889  131886
       8  131892  131886       8  131892  131889       9  131898  131895       8
  131901  131895       8  131901  131898       9  131907  131904       8  131910
  131904       8  131910  131907       9  131916  131913       8  131919  131913
       8  131919  131916       9  131925  131922       8  131928  131922       8
  131928  131925       9  131934  131931       8  131937  131931       8  131937
  131934       9  131943  131940       8  131946  131940       8  131946  131943
       9  131952  131949       8  131955  131949       8  131955  131952       9
  131961  131958       8  131964  131958       8  131964  131961       9  131970
  131967       8  131973  131967       8  131973  131970       9  131979  131976
       8  131982  131976       8  131982  131979       9  131988  131985       8
  131991  131985       8  131991  131988       9  131997  131994       8  132000
  131994       8  132000  131997       9  132006  132003       8  132009  132003
       8  132009  132006       9  132015  132012       8  132018  132012       8
  132018  132015       9  132024  132021       8  132027  132021       8  132027
  132024       9  132033  132030       8  132036  132030       8  132036  132033
       9  132042  132039       8  132045  132039       8  132045  132042       9
  132051  132048       8  132054  132048       8  132054  132051       9  132060
  132057       8  132063  132057       8  132063  132060       9  132069  132066
       8  132072  132066       8  132072  132069       9  132078  132075       8
  132081  132075       8  132081  132078       9  132087  132084       8  132090
  132084       8  132090  132087       9  132096  132093       8  132099  132093
       8  132099  132096       9  132105  132102       8  132108  132102       8
  132108  132105       9  132114  132111       8  132117  132111       8  132117
  132114       9  132123  132120       8  132126  132120       8  132126  132123
       9  132132  132129       8  132135  132129       8  132135  132132       9
  132141  132138       8  132144  132138       8  132144  132141       9  132150
  132147       8  132153  132147       8  132153  132150       9  132159  132156
       8  132162  132156       8  132162  132159       9  132168  132165       8
  132171  132165       8  132171  132168       9  132177  132174       8  132180
  132174       8  132180  132177       9  132186  132183       8  132189  132183
       8  132189  132186       9  132195  132192       8  132198  132192       8
  132198  132195       9  132204  132201       8  132207  132201       8  132207
  132204       9  132213  132210       8  132216  132210       8  132216  132213
       9  132222  132219       8  132225  132219       8  132225  132222       9
  132231  132228       8  132234  132228       8  132234  132231       9  132240
  132237       8  132243  132237       8  132243  132240       9  132249  132246
       8  132252  132246       8  132252  132249       9  132258  132255       8
  132261  132255       8  132261  132258       9  132267  132264       8  132270
  132264       8  132270  132267       9  132276  132273       8  132279  132273
       8  132279  132276       9  132285  132282       8  132288  132282       8
  132288  132285       9  132294  132291       8  132297  132291       8  132297
  132294       9  132303  132300       8  132306  132300       8  132306  132303
       9  132312  132309       8  132315  132309       8  132315  132312       9
  132321  132318       8  132324  132318       8  132324  132321       9  132330
  132327       8  132333  132327       8  132333  132330       9  132339  132336
       8  132342  132336       8  132342  132339       9  132348  132345       8
  132351  132345       8  132351  132348       9  132357  132354       8  132360
  132354       8  132360  132357       9  132366  132363       8  132369  132363
       8  132369  132366       9  132375  132372       8  132378  132372       8
  132378  132375       9  132384  132381       8  132387  132381       8  132387
  132384       9  132393  132390       8  132396  132390       8  132396  132393
       9  132402  132399       8  132405  132399       8  132405  132402       9
  132411  132408       8  132414  132408       8  132414  132411       9  132420
  132417       8  132423  132417       8  132423  132420       9  132429  132426
       8  132432  132426       8  132432  132429       9  132438  132435       8
  132441  132435       8  132441  132438       9  132447  132444       8  132450
  132444       8  132450  132447       9  132456  132453       8  132459  132453
       8  132459  132456       9  132465  132462       8  132468  132462       8
  132468  132465       9  132474  132471       8  132477  132471       8  132477
  132474       9  132483  132480       8  132486  132480       8  132486  132483
       9  132492  132489       8  132495  132489       8  132495  132492       9
  132501  132498       8  132504  132498       8  132504  132501       9  132510
  132507       8  132513  132507       8  132513  132510       9  132519  132516
       8  132522  132516       8  132522  132519       9  132528  132525       8
  132531  132525       8  132531  132528       9  132537  132534       8  132540
  132534       8  132540  132537       9  132546  132543       8  132549  132543
       8  132549  132546       9  132555  132552       8  132558  132552       8
  132558  132555       9  132564  132561       8  132567  132561       8  132567
  132564       9  132573  132570       8  132576  132570       8  132576  132573
       9  132582  132579       8  132585  132579       8  132585  132582       9
  132591  132588       8  132594  132588       8  132594  132591       9  132600
  132597       8  132603  132597       8  132603  132600       9  132609  132606
       8  132612  132606       8  132612  132609       9  132618  132615       8
  132621  132615       8  132621  132618       9  132627  132624       8  132630
  132624       8  132630  132627       9  132636  132633       8  132639  132633
       8  132639  132636       9  132645  132642       8  132648  132642       8
  132648  132645       9  132654  132651       8  132657  132651       8  132657
  132654       9  132663  132660       8  132666  132660       8  132666  132663
       9  132672  132669       8  132675  132669       8  132675  132672       9
  132681  132678       8  132684  132678       8  132684  132681       9  132690
  132687       8  132693  132687       8  132693  132690       9  132699  132696
       8  132702  132696       8  132702  132699       9  132708  132705       8
  132711  132705       8  132711  132708       9  132717  132714       8  132720
  132714       8  132720  132717       9  132726  132723       8  132729  132723
       8  132729  132726       9  132735  132732       8  132738  132732       8
  132738  132735       9  132744  132741       8  132747  132741       8  132747
  132744       9  132753  132750       8  132756  132750       8  132756  132753
       9  132762  132759       8  132765  132759       8  132765  132762       9
  132771  132768       8  132774  132768       8  132774  132771       9  132780
  132777       8  132783  132777       8  132783  132780       9  132789  132786
       8  132792  132786       8  132792  132789       9  132798  132795       8
  132801  132795       8  132801  132798       9  132807  132804       8  132810
  132804       8  132810  132807       9  132816  132813       8  132819  132813
       8  132819  132816       9  132825  132822       8  132828  132822       8
  132828  132825       9  132834  132831       8  132837  132831       8  132837
  132834       9  132843  132840       8  132846  132840       8  132846  132843
       9  132852  132849       8  132855  132849       8  132855  132852       9
  132861  132858       8  132864  132858       8  132864  132861       9  132870
  132867       8  132873  132867       8  132873  132870       9  132879  132876
       8  132882  132876       8  132882  132879       9  132888  132885       8
  132891  132885       8  132891  132888       9  132897  132894       8  132900
  132894       8  132900  132897       9  132906  132903       8  132909  132903
       8  132909  132906       9  132915  132912       8  132918  132912       8
  132918  132915       9  132924  132921       8  132927  132921       8  132927
  132924       9  132933  132930       8  132936  132930       8  132936  132933
       9  132942  132939       8  132945  132939       8  132945  132942       9
  132951  132948       8  132954  132948       8  132954  132951       9  132960
  132957       8  132963  132957       8  132963  132960       9  132969  132966
       8  132972  132966       8  132972  132969       9  132978  132975       8
  132981  132975       8  132981  132978       9  132987  132984       8  132990
  132984       8  132990  132987       9  132996  132993       8  132999  132993
       8  132999  132996       9  133005  133002       8  133008  133002       8
  133008  133005       9  133014  133011       8  133017  133011       8  133017
  133014       9  133023  133020       8  133026  133020       8  133026  133023
       9  133032  133029       8  133035  133029       8  133035  133032       9
  133041  133038       8  133044  133038       8  133044  133041       9  133050
  133047       8  133053  133047       8  133053  133050       9  133059  133056
       8  133062  133056       8  133062  133059       9  133068  133065       8
  133071  133065       8  133071  133068       9  133077  133074       8  133080
  133074       8  133080  133077       9  133086  133083       8  133089  133083
       8  133089  133086       9  133095  133092       8  133098  133092       8
  133098  133095       9  133104  133101       8  133107  133101       8  133107
  133104       9  133113  133110       8  133116  133110       8  133116  133113
       9  133122  133119       8  133125  133119       8  133125  133122       9
  133131  133128       8  133134  133128       8  133134  133131       9  133140
  133137       8  133143  133137       8  133143  133140       9  133149  133146
       8  133152  133146       8  133152  133149       9  133158  133155       8
  133161  133155       8  133161  133158       9  133167  133164       8  133170
  133164       8  133170  133167       9  133176  133173       8  133179  133173
       8  133179  133176       9  133185  133182       8  133188  133182       8
  133188  133185       9  133194  133191       8  133197  133191       8  133197
  133194       9  133203  133200       8  133206  133200       8  133206  133203
       9  133212  133209       8  133215  133209       8  133215  133212       9
  133221  133218       8  133224  133218       8  133224  133221       9  133230
  133227       8  133233  133227       8  133233  133230       9  133239  133236
       8  133242  133236       8  133242  133239       9  133248  133245       8
  133251  133245       8  133251  133248       9  133257  133254       8  133260
  133254       8  133260  133257       9  133266  133263       8  133269  133263
       8  133269  133266       9  133275  133272       8  133278  133272       8
  133278  133275       9  133284  133281       8  133287  133281       8  133287
  133284       9  133293  133290       8  133296  133290       8  133296  133293
       9  133302  133299       8  133305  133299       8  133305  133302       9
  133311  133308       8  133314  133308       8  133314  133311       9  133320
  133317       8  133323  133317       8  133323  133320       9  133329  133326
       8  133332  133326       8  133332  133329       9  133338  133335       8
  133341  133335       8  133341  133338       9  133347  133344       8  133350
  133344       8  133350  133347       9  133356  133353       8  133359  133353
       8  133359  133356       9  133365  133362       8  133368  133362       8
  133368  133365       9  133374  133371       8  133377  133371       8  133377
  133374       9  133383  133380       8  133386  133380       8  133386  133383
       9  133392  133389       8  133395  133389       8  133395  133392       9
  133401  133398       8  133404  133398       8  133404  133401       9  133410
  133407       8  133413  133407       8  133413  133410       9  133419  133416
       8  133422  133416       8  133422  133419       9  133428  133425       8
  133431  133425       8  133431  133428       9  133437  133434       8  133440
  133434       8  133440  133437       9  133446  133443       8  133449  133443
       8  133449  133446       9  133455  133452       8  133458  133452       8
  133458  133455       9  133464  133461       8  133467  133461       8  133467
  133464       9  133473  133470       8  133476  133470       8  133476  133473
       9  133482  133479       8  133485  133479       8  133485  133482       9
  133491  133488       8  133494  133488       8  133494  133491       9  133500
  133497       8  133503  133497       8  133503  133500       9  133509  133506
       8  133512  133506       8  133512  133509       9  133518  133515       8
  133521  133515       8  133521  133518       9  133527  133524       8  133530
  133524       8  133530  133527       9  133536  133533       8  133539  133533
       8  133539  133536       9  133545  133542       8  133548  133542       8
  133548  133545       9  133554  133551       8  133557  133551       8  133557
  133554       9  133563  133560       8  133566  133560       8  133566  133563
       9  133572  133569       8  133575  133569       8  133575  133572       9
  133581  133578       8  133584  133578       8  133584  133581       9  133590
  133587       8  133593  133587       8  133593  133590       9  133599  133596
       8  133602  133596       8  133602  133599       9  133608  133605       8
  133611  133605       8  133611  133608       9  133617  133614       8  133620
  133614       8  133620  133617       9  133626  133623       8  133629  133623
       8  133629  133626       9  133635  133632       8  133638  133632       8
  133638  133635       9  133644  133641       8  133647  133641       8  133647
  133644       9  133653  133650       8  133656  133650       8  133656  133653
       9  133662  133659       8  133665  133659       8  133665  133662       9
  133671  133668       8  133674  133668       8  133674  133671       9  133680
  133677       8  133683  133677       8  133683  133680       9  133689  133686
       8  133692  133686       8  133692  133689       9  133698  133695       8
  133701  133695       8  133701  133698       9  133707  133704       8  133710
  133704       8  133710  133707       9  133716  133713       8  133719  133713
       8  133719  133716       9  133725  133722       8  133728  133722       8
  133728  133725       9  133734  133731       8  133737  133731       8  133737
  133734       9  133743  133740       8  133746  133740       8  133746  133743
       9  133752  133749       8  133755  133749       8  133755  133752       9
  133761  133758       8  133764  133758       8  133764  133761       9  133770
  133767       8  133773  133767       8  133773  133770       9  133779  133776
       8  133782  133776       8  133782  133779       9  133788  133785       8
  133791  133785       8  133791  133788       9  133797  133794       8  133800
  133794       8  133800  133797       9  133806  133803       8  133809  133803
       8  133809  133806       9  133815  133812       8  133818  133812       8
  133818  133815       9  133824  133821       8  133827  133821       8  133827
  133824       9  133833  133830       8  133836  133830       8  133836  133833
       9  133842  133839       8  133845  133839       8  133845  133842       9
  133851  133848       8  133854  133848       8  133854  133851       9  133860
  133857       8  133863  133857       8  133863  133860       9  133869  133866
       8  133872  133866       8  133872  133869       9  133878  133875       8
  133881  133875       8  133881  133878       9  133887  133884       8  133890
  133884       8  133890  133887       9  133896  133893       8  133899  133893
       8  133899  133896       9  133905  133902       8  133908  133902       8
  133908  133905       9  133914  133911       8  133917  133911       8  133917
  133914       9  133923  133920       8  133926  133920       8  133926  133923
       9  133932  133929       8  133935  133929       8  133935  133932       9
  133941  133938       8  133944  133938       8  133944  133941       9  133950
  133947       8  133953  133947       8  133953  133950       9  133959  133956
       8  133962  133956       8  133962  133959       9  133968  133965       8
  133971  133965       8  133971  133968       9  133977  133974       8  133980
  133974       8  133980  133977       9  133986  133983       8  133989  133983
       8  133989  133986       9  133995  133992       8  133998  133992       8
  133998  133995       9  134004  134001       8  134007  134001       8  134007
  134004       9  134013  134010       8  134016  134010       8  134016  134013
       9  134022  134019       8  134025  134019       8  134025  134022       9
  134031  134028       8  134034  134028       8  134034  134031       9  134040
  134037       8  134043  134037       8  134043  134040       9  134049  134046
       8  134052  134046       8  134052  134049       9  134058  134055       8
  134061  134055       8  134061  134058       9  134067  134064       8  134070
  134064       8  134070  134067       9  134076  134073       8  134079  134073
       8  134079  134076       9  134085  134082       8  134088  134082       8
  134088  134085       9  134094  134091       8  134097  134091       8  134097
  134094       9  134103  134100       8  134106  134100       8  134106  134103
       9  134112  134109       8  134115  134109       8  134115  134112       9
  134121  134118       8  134124  134118       8  134124  134121       9  134130
  134127       8  134133  134127       8  134133  134130       9  134139  134136
       8  134142  134136       8  134142  134139       9  134148  134145       8
  134151  134145       8  134151  134148       9  134157  134154       8  134160
  134154       8  134160  134157       9  134166  134163       8  134169  134163
       8  134169  134166       9  134175  134172       8  134178  134172       8
  134178  134175       9  134184  134181       8  134187  134181       8  134187
  134184       9  134193  134190       8  134196  134190       8  134196  134193
       9  134202  134199       8  134205  134199       8  134205  134202       9
  134211  134208       8  134214  134208       8  134214  134211       9  134220
  134217       8  134223  134217       8  134223  134220       9  134229  134226
       8  134232  134226       8  134232  134229       9  134238  134235       8
  134241  134235       8  134241  134238       9  134247  134244       8  134250
  134244       8  134250  134247       9  134256  134253       8  134259  134253
       8  134259  134256       9  134265  134262       8  134268  134262       8
  134268  134265       9  134274  134271       8  134277  134271       8  134277
  134274       9  134283  134280       8  134286  134280       8  134286  134283
       9  134292  134289       8  134295  134289       8  134295  134292       9
  134301  134298       8  134304  134298       8  134304  134301       9  134310
  134307       8  134313  134307       8  134313  134310       9  134319  134316
       8  134322  134316       8  134322  134319       9  134328  134325       8
  134331  134325       8  134331  134328       9  134337  134334       8  134340
  134334       8  134340  134337       9  134346  134343       8  134349  134343
       8  134349  134346       9  134355  134352       8  134358  134352       8
  134358  134355       9  134364  134361       8  134367  134361       8  134367
  134364       9  134373  134370       8  134376  134370       8  134376  134373
       9  134382  134379       8  134385  134379       8  134385  134382       9
  134391  134388       8  134394  134388       8  134394  134391       9  134400
  134397       8  134403  134397       8  134403  134400       9  134409  134406
       8  134412  134406       8  134412  134409       9  134418  134415       8
  134421  134415       8  134421  134418       9  134427  134424       8  134430
  134424       8  134430  134427       9  134436  134433       8  134439  134433
       8  134439  134436       9  134445  134442       8  134448  134442       8
  134448  134445       9  134454  134451       8  134457  134451       8  134457
  134454       9  134463  134460       8  134466  134460       8  134466  134463
       9  134472  134469       8  134475  134469       8  134475  134472       9
  134481  134478       8  134484  134478       8  134484  134481       9  134490
  134487       8  134493  134487       8  134493  134490       9  134499  134496
       8  134502  134496       8  134502  134499       9  134508  134505       8
  134511  134505       8  134511  134508       9  134517  134514       8  134520
  134514       8  134520  134517       9  134526  134523       8  134529  134523
       8  134529  134526       9  134535  134532       8  134538  134532       8
  134538  134535       9  134544  134541       8  134547  134541       8  134547
  134544       9  134553  134550       8  134556  134550       8  134556  134553
       9  134562  134559       8  134565  134559       8  134565  134562       9
  134571  134568       8  134574  134568       8  134574  134571       9  134580
  134577       8  134583  134577       8  134583  134580       9  134589  134586
       8  134592  134586       8  134592  134589       9  134598  134595       8
  134601  134595       8  134601  134598       9  134607  134604       8  134610
  134604       8  134610  134607       9  134616  134613       8  134619  134613
       8  134619  134616       9  134625  134622       8  134628  134622       8
  134628  134625       9  134634  134631       8  134637  134631       8  134637
  134634       9  134643  134640       8  134646  134640       8  134646  134643
       9  134652  134649       8  134655  134649       8  134655  134652       9
  134661  134658       8  134664  134658       8  134664  134661       9  134670
  134667       8  134673  134667       8  134673  134670       9  134679  134676
       8  134682  134676       8  134682  134679       9  134688  134685       8
  134691  134685       8  134691  134688       9  134697  134694       8  134700
  134694       8  134700  134697       9  134706  134703       8  134709  134703
       8  134709  134706       9  134715  134712       8  134718  134712       8
  134718  134715       9  134724  134721       8  134727  134721       8  134727
  134724       9  134733  134730       8  134736  134730       8  134736  134733
       9  134742  134739       8  134745  134739       8  134745  134742       9
  134751  134748       8  134754  134748       8  134754  134751       9  134760
  134757       8  134763  134757       8  134763  134760       9  134769  134766
       8  134772  134766       8  134772  134769       9  134778  134775       8
  134781  134775       8  134781  134778       9  134787  134784       8  134790
  134784       8  134790  134787       9  134796  134793       8  134799  134793
       8  134799  134796       9  134805  134802       8  134808  134802       8
  134808  134805       9  134814  134811       8  134817  134811       8  134817
  134814       9  134823  134820       8  134826  134820       8  134826  134823
       9  134832  134829       8  134835  134829       8  134835  134832       9
  134841  134838       8  134844  134838       8  134844  134841       9  134850
  134847       8  134853  134847       8  134853  134850       9  134859  134856
       8  134862  134856       8  134862  134859       9  134868  134865       8
  134871  134865       8  134871  134868       9  134877  134874       8  134880
  134874       8  134880  134877       9  134886  134883       8  134889  134883
       8  134889  134886       9  134895  134892       8  134898  134892       8
  134898  134895       9  134904  134901       8  134907  134901       8  134907
  134904       9  134913  134910       8  134916  134910       8  134916  134913
       9  134922  134919       8  134925  134919       8  134925  134922       9
  134931  134928       8  134934  134928       8  134934  134931       9  134940
  134937       8  134943  134937       8  134943  134940       9  134949  134946
       8  134952  134946       8  134952  134949       9  134958  134955       8
  134961  134955       8  134961  134958       9  134967  134964       8  134970
  134964       8  134970  134967       9  134976  134973       8  134979  134973
       8  134979  134976       9  134985  134982       8  134988  134982       8
  134988  134985       9  134994  134991       8  134997  134991       8  134997
  134994       9  135003  135000       8  135006  135000       8  135006  135003
       9  135012  135009       8  135015  135009       8  135015  135012       9
  135021  135018       8  135024  135018       8  135024  135021       9  135030
  135027       8  135033  135027       8  135033  135030       9  135039  135036
       8  135042  135036       8  135042  135039       9  135048  135045       8
  135051  135045       8  135051  135048       9  135057  135054       8  135060
  135054       8  135060  135057       9  135066  135063       8  135069  135063
       8  135069  135066       9  135075  135072       8  135078  135072       8
  135078  135075       9  135084  135081       8  135087  135081       8  135087
  135084       9  135093  135090       8  135096  135090       8  135096  135093
       9  135102  135099       8  135105  135099       8  135105  135102       9
  135111  135108       8  135114  135108       8  135114  135111       9  135120
  135117       8  135123  135117       8  135123  135120       9  135129  135126
       8  135132  135126       8  135132  135129       9  135138  135135       8
  135141  135135       8  135141  135138       9  135147  135144       8  135150
  135144       8  135150  135147       9  135156  135153       8  135159  135153
       8  135159  135156       9  135165  135162       8  135168  135162       8
  135168  135165       9  135174  135171       8  135177  135171       8  135177
  135174       9  135183  135180       8  135186  135180       8  135186  135183
       9  135192  135189       8  135195  135189       8  135195  135192       9
  135201  135198       8  135204  135198       8  135204  135201       9  135210
  135207       8  135213  135207       8  135213  135210       9  135219  135216
       8  135222  135216       8  135222  135219       9  135228  135225       8
  135231  135225       8  135231  135228       9  135237  135234       8  135240
  135234       8  135240  135237       9  135246  135243       8  135249  135243
       8  135249  135246       9  135255  135252       8  135258  135252       8
  135258  135255       9  135264  135261       8  135267  135261       8  135267
  135264       9  135273  135270       8  135276  135270       8  135276  135273
       9  135282  135279       8  135285  135279       8  135285  135282       9
  135291  135288       8  135294  135288       8  135294  135291       9  135300
  135297       8  135303  135297       8  135303  135300       9  135309  135306
       8  135312  135306       8  135312  135309       9  135318  135315       8
  135321  135315       8  135321  135318       9  135327  135324       8  135330
  135324       8  135330  135327       9  135336  135333       8  135339  135333
       8  135339  135336       9  135345  135342       8  135348  135342       8
  135348  135345       9  135354  135351       8  135357  135351       8  135357
  135354       9  135363  135360       8  135366  135360       8  135366  135363
       9  135372  135369       8  135375  135369       8  135375  135372       9
  135381  135378       8  135384  135378       8  135384  135381       9  135390
  135387       8  135393  135387       8  135393  135390       9  135399  135396
       8  135402  135396       8  135402  135399       9  135408  135405       8
  135411  135405       8  135411  135408       9  135417  135414       8  135420
  135414       8  135420  135417       9  135426  135423       8  135429  135423
       8  135429  135426       9  135435  135432       8  135438  135432       8
  135438  135435       9  135444  135441       8  135447  135441       8  135447
  135444       9  135453  135450       8  135456  135450       8  135456  135453
       9  135462  135459       8  135465  135459       8  135465  135462       9
  135471  135468       8  135474  135468       8  135474  135471       9  135480
  135477       8  135483  135477       8  135483  135480       9  135489  135486
       8  135492  135486       8  135492  135489       9  135498  135495       8
  135501  135495       8  135501  135498       9  135507  135504       8  135510
  135504       8  135510  135507       9  135516  135513       8  135519  135513
       8  135519  135516       9  135525  135522       8  135528  135522       8
  135528  135525       9  135534  135531       8  135537  135531       8  135537
  135534       9  135543  135540       8  135546  135540       8  135546  135543
       9  135552  135549       8  135555  135549       8  135555  135552       9
  135561  135558       8  135564  135558       8  135564  135561       9  135570
  135567       8  135573  135567       8  135573  135570       9  135579  135576
       8  135582  135576       8  135582  135579       9  135588  135585       8
  135591  135585       8  135591  135588       9  135597  135594       8  135600
  135594       8  135600  135597       9  135606  135603       8  135609  135603
       8  135609  135606       9  135615  135612       8  135618  135612       8
  135618  135615       9  135624  135621       8  135627  135621       8  135627
  135624       9  135633  135630       8  135636  135630       8  135636  135633
       9  135642  135639       8  135645  135639       8  135645  135642       9
  135651  135648       8  135654  135648       8  135654  135651       9  135660
  135657       8  135663  135657       8  135663  135660       9  135669  135666
       8  135672  135666       8  135672  135669       9  135678  135675       8
  135681  135675       8  135681  135678       9  135687  135684       8  135690
  135684       8  135690  135687       9  135696  135693       8  135699  135693
       8  135699  135696       9  135705  135702       8  135708  135702       8
  135708  135705       9  135714  135711       8  135717  135711       8  135717
  135714       9  135723  135720       8  135726  135720       8  135726  135723
       9  135732  135729       8  135735  135729       8  135735  135732       9
  135741  135738       8  135744  135738       8  135744  135741       9  135750
  135747       8  135753  135747       8  135753  135750       9  135759  135756
       8  135762  135756       8  135762  135759       9  135768  135765       8
  135771  135765       8  135771  135768       9  135777  135774       8  135780
  135774       8  135780  135777       9  135786  135783       8  135789  135783
       8  135789  135786       9  135795  135792       8  135798  135792       8
  135798  135795       9  135804  135801       8  135807  135801       8  135807
  135804       9  135813  135810       8  135816  135810       8  135816  135813
       9  135822  135819       8  135825  135819       8  135825  135822       9
  135831  135828       8  135834  135828       8  135834  135831       9  135840
  135837       8  135843  135837       8  135843  135840       9  135849  135846
       8  135852  135846       8  135852  135849       9  135858  135855       8
  135861  135855       8  135861  135858       9  135867  135864       8  135870
  135864       8  135870  135867       9  135876  135873       8  135879  135873
       8  135879  135876       9  135885  135882       8  135888  135882       8
  135888  135885       9  135894  135891       8  135897  135891       8  135897
  135894       9  135903  135900       8  135906  135900       8  135906  135903
       9  135912  135909       8  135915  135909       8  135915  135912       9
  135921  135918       8  135924  135918       8  135924  135921       9  135930
  135927       8  135933  135927       8  135933  135930       9  135939  135936
       8  135942  135936       8  135942  135939       9  135948  135945       8
  135951  135945       8  135951  135948       9  135957  135954       8  135960
  135954       8  135960  135957       9  135966  135963       8  135969  135963
       8  135969  135966       9  135975  135972       8  135978  135972       8
  135978  135975       9  135984  135981       8  135987  135981       8  135987
  135984       9  135993  135990       8  135996  135990       8  135996  135993
       9  136002  135999       8  136005  135999       8  136005  136002       9
  136011  136008       8  136014  136008       8  136014  136011       9  136020
  136017       8  136023  136017       8  136023  136020       9  136029  136026
       8  136032  136026       8  136032  136029       9  136038  136035       8
  136041  136035       8  136041  136038       9  136047  136044       8  136050
  136044       8  136050  136047       9  136056  136053       8  136059  136053
       8  136059  136056       9  136065  136062       8  136068  136062       8
  136068  136065       9  136074  136071       8  136077  136071       8  136077
  136074       9  136083  136080       8  136086  136080       8  136086  136083
       9  136092  136089       8  136095  136089       8  136095  136092       9
  136101  136098       8  136104  136098       8  136104  136101       9  136110
  136107       8  136113  136107       8  136113  136110       9  136119  136116
       8  136122  136116       8  136122  136119       9  136128  136125       8
  136131  136125       8  136131  136128       9  136137  136134       8  136140
  136134       8  136140  136137       9  136146  136143       8  136149  136143
       8  136149  136146       9  136155  136152       8  136158  136152       8
  136158  136155       9  136164  136161       8  136167  136161       8  136167
  136164       9  136173  136170       8  136176  136170       8  136176  136173
       9  136182  136179       8  136185  136179       8  136185  136182       9
  136191  136188       8  136194  136188       8  136194  136191       9  136200
  136197       8  136203  136197       8  136203  136200       9  136209  136206
       8  136212  136206       8  136212  136209       9  136218  136215       8
  136221  136215       8  136221  136218       9  136227  136224       8  136230
  136224       8  136230  136227       9  136236  136233       8  136239  136233
       8  136239  136236       9  136245  136242       8  136248  136242       8
  136248  136245       9  136254  136251       8  136257  136251       8  136257
  136254       9  136263  136260       8  136266  136260       8  136266  136263
       9  136272  136269       8  136275  136269       8  136275  136272       9
  136281  136278       8  136284  136278       8  136284  136281       9  136290
  136287       8  136293  136287       8  136293  136290       9  136299  136296
       8  136302  136296       8  136302  136299       9  136308  136305       8
  136311  136305       8  136311  136308       9  136317  136314       8  136320
  136314       8  136320  136317       9  136326  136323       8  136329  136323
       8  136329  136326       9  136335  136332       8  136338  136332       8
  136338  136335       9  136344  136341       8  136347  136341       8  136347
  136344       9  136353  136350       8  136356  136350       8  136356  136353
       9  136362  136359       8  136365  136359       8  136365  136362       9
  136371  136368       8  136374  136368       8  136374  136371       9  136380
  136377       8  136383  136377       8  136383  136380       9  136389  136386
       8  136392  136386       8  136392  136389       9  136398  136395       8
  136401  136395       8  136401  136398       9  136407  136404       8  136410
  136404       8  136410  136407       9  136416  136413       8  136419  136413
       8  136419  136416       9  136425  136422       8  136428  136422       8
  136428  136425       9  136434  136431       8  136437  136431       8  136437
  136434       9  136443  136440       8  136446  136440       8  136446  136443
       9  136452  136449       8  136455  136449       8  136455  136452       9
  136461  136458       8  136464  136458       8  136464  136461       9  136470
  136467       8  136473  136467       8  136473  136470       9  136479  136476
       8  136482  136476       8  136482  136479       9  136488  136485       8
  136491  136485       8  136491  136488       9  136497  136494       8  136500
  136494       8  136500  136497       9  136506  136503       8  136509  136503
       8  136509  136506       9  136515  136512       8  136518  136512       8
  136518  136515       9  136524  136521       8  136527  136521       8  136527
  136524       9  136533  136530       8  136536  136530       8  136536  136533
       9  136542  136539       8  136545  136539       8  136545  136542       9
  136551  136548       8  136554  136548       8  136554  136551       9  136560
  136557       8  136563  136557       8  136563  136560       9  136569  136566
       8  136572  136566       8  136572  136569       9  136578  136575       8
  136581  136575       8  136581  136578       9  136587  136584       8  136590
  136584       8  136590  136587       9  136596  136593       8  136599  136593
       8  136599  136596       9  136605  136602       8  136608  136602       8
  136608  136605       9  136614  136611       8  136617  136611       8  136617
  136614       9  136623  136620       8  136626  136620       8  136626  136623
       9  136632  136629       8  136635  136629       8  136635  136632       9
  136641  136638       8  136644  136638       8  136644  136641       9  136650
  136647       8  136653  136647       8  136653  136650       9  136659  136656
       8  136662  136656       8  136662  136659       9  136668  136665       8
  136671  136665       8  136671  136668       9  136677  136674       8  136680
  136674       8  136680  136677       9  136686  136683       8  136689  136683
       8  136689  136686       9  136695  136692       8  136698  136692       8
  136698  136695       9  136704  136701       8  136707  136701       8  136707
  136704       9  136713  136710       8  136716  136710       8  136716  136713
       9  136722  136719       8  136725  136719       8  136725  136722       9
  136731  136728       8  136734  136728       8  136734  136731       9  136740
  136737       8  136743  136737       8  136743  136740       9  136749  136746
       8  136752  136746       8  136752  136749       9  136758  136755       8
  136761  136755       8  136761  136758       9  136767  136764       8  136770
  136764       8  136770  136767       9  136776  136773       8  136779  136773
       8  136779  136776       9  136785  136782       8  136788  136782       8
  136788  136785       9  136794  136791       8  136797  136791       8  136797
  136794       9  136803  136800       8  136806  136800       8  136806  136803
       9  136812  136809       8  136815  136809       8  136815  136812       9
  136821  136818       8  136824  136818       8  136824  136821       9  136830
  136827       8  136833  136827       8  136833  136830       9  136839  136836
       8  136842  136836       8  136842  136839       9  136848  136845       8
  136851  136845       8  136851  136848       9  136857  136854       8  136860
  136854       8  136860  136857       9  136866  136863       8  136869  136863
       8  136869  136866       9  136875  136872       8  136878  136872       8
  136878  136875       9  136884  136881       8  136887  136881       8  136887
  136884       9  136893  136890       8  136896  136890       8  136896  136893
       9  136902  136899       8  136905  136899       8  136905  136902       9
  136911  136908       8  136914  136908       8  136914  136911       9  136920
  136917       8  136923  136917       8  136923  136920       9  136929  136926
       8  136932  136926       8  136932  136929       9  136938  136935       8
  136941  136935       8  136941  136938       9  136947  136944       8  136950
  136944       8  136950  136947       9  136956  136953       8  136959  136953
       8  136959  136956       9  136965  136962       8  136968  136962       8
  136968  136965       9  136974  136971       8  136977  136971       8  136977
  136974       9  136983  136980       8  136986  136980       8  136986  136983
       9  136992  136989       8  136995  136989       8  136995  136992       9
  137001  136998       8  137004  136998       8  137004  137001       9  137010
  137007       8  137013  137007       8  137013  137010       9  137019  137016
       8  137022  137016       8  137022  137019       9  137028  137025       8
  137031  137025       8  137031  137028       9  137037  137034       8  137040
  137034       8  137040  137037       9  137046  137043       8  137049  137043
       8  137049  137046       9  137055  137052       8  137058  137052       8
  137058  137055       9  137064  137061       8  137067  137061       8  137067
  137064       9  137073  137070       8  137076  137070       8  137076  137073
       9  137082  137079       8  137085  137079       8  137085  137082       9
  137091  137088       8  137094  137088       8  137094  137091       9  137100
  137097       8  137103  137097       8  137103  137100       9  137109  137106
       8  137112  137106       8  137112  137109       9  137118  137115       8
  137121  137115       8  137121  137118       9  137127  137124       8  137130
  137124       8  137130  137127       9  137136  137133       8  137139  137133
       8  137139  137136       9  137145  137142       8  137148  137142       8
  137148  137145       9  137154  137151       8  137157  137151       8  137157
  137154       9  137163  137160       8  137166  137160       8  137166  137163
       9  137172  137169       8  137175  137169       8  137175  137172       9
  137181  137178       8  137184  137178       8  137184  137181       9  137190
  137187       8  137193  137187       8  137193  137190       9  137199  137196
       8  137202  137196       8  137202  137199       9  137208  137205       8
  137211  137205       8  137211  137208       9  137217  137214       8  137220
  137214       8  137220  137217       9  137226  137223       8  137229  137223
       8  137229  137226       9  137235  137232       8  137238  137232       8
  137238  137235       9  137244  137241       8  137247  137241       8  137247
  137244       9  137253  137250       8  137256  137250       8  137256  137253
       9  137262  137259       8  137265  137259       8  137265  137262       9
  137271  137268       8  137274  137268       8  137274  137271       9  137280
  137277       8  137283  137277       8  137283  137280       9  137289  137286
       8  137292  137286       8  137292  137289       9  137298  137295       8
  137301  137295       8  137301  137298       9  137307  137304       8  137310
  137304       8  137310  137307       9  137316  137313       8  137319  137313
       8  137319  137316       9  137325  137322       8  137328  137322       8
  137328  137325       9  137334  137331       8  137337  137331       8  137337
  137334       9  137343  137340       8  137346  137340       8  137346  137343
       9  137352  137349       8  137355  137349       8  137355  137352       9
  137361  137358       8  137364  137358       8  137364  137361       9  137370
  137367       8  137373  137367       8  137373  137370       9  137379  137376
       8  137382  137376       8  137382  137379       9  137388  137385       8
  137391  137385       8  137391  137388       9  137397  137394       8  137400
  137394       8  137400  137397       9  137406  137403       8  137409  137403
       8  137409  137406       9  137415  137412       8  137418  137412       8
  137418  137415       9  137424  137421       8  137427  137421       8  137427
  137424       9  137433  137430       8  137436  137430       8  137436  137433
       9  137442  137439       8  137445  137439       8  137445  137442       9
  137451  137448       8  137454  137448       8  137454  137451       9  137460
  137457       8  137463  137457       8  137463  137460       9  137469  137466
       8  137472  137466       8  137472  137469       9  137478  137475       8
  137481  137475       8  137481  137478       9  137487  137484       8  137490
  137484       8  137490  137487       9  137496  137493       8  137499  137493
       8  137499  137496       9  137505  137502       8  137508  137502       8
  137508  137505       9  137514  137511       8  137517  137511       8  137517
  137514       9  137523  137520       8  137526  137520       8  137526  137523
       9  137532  137529       8  137535  137529       8  137535  137532       9
  137541  137538       8  137544  137538       8  137544  137541       9  137550
  137547       8  137553  137547       8  137553  137550       9  137559  137556
       8  137562  137556       8  137562  137559       9  137568  137565       8
  137571  137565       8  137571  137568       9  137577  137574       8  137580
  137574       8  137580  137577       9  137586  137583       8  137589  137583
       8  137589  137586       9  137595  137592       8  137598  137592       8
  137598  137595       9  137604  137601       8  137607  137601       8  137607
  137604       9  137613  137610       8  137616  137610       8  137616  137613
       9  137622  137619       8  137625  137619       8  137625  137622       9
  137631  137628       8  137634  137628       8  137634  137631       9  137640
  137637       8  137643  137637       8  137643  137640       9  137649  137646
       8  137652  137646       8  137652  137649       9  137658  137655       8
  137661  137655       8  137661  137658       9  137667  137664       8  137670
  137664       8  137670  137667       9  137676  137673       8  137679  137673
       8  137679  137676       9  137685  137682       8  137688  137682       8
  137688  137685       9  137694  137691       8  137697  137691       8  137697
  137694       9  137703  137700       8  137706  137700       8  137706  137703
       9  137712  137709       8  137715  137709       8  137715  137712       9
  137721  137718       8  137724  137718       8  137724  137721       9  137730
  137727       8  137733  137727       8  137733  137730       9  137739  137736
       8  137742  137736       8  137742  137739       9  137748  137745       8
  137751  137745       8  137751  137748       9  137757  137754       8  137760
  137754       8  137760  137757       9  137766  137763       8  137769  137763
       8  137769  137766       9  137775  137772       8  137778  137772       8
  137778  137775       9  137784  137781       8  137787  137781       8  137787
  137784       9  137793  137790       8  137796  137790       8  137796  137793
       9  137802  137799       8  137805  137799       8  137805  137802       9
  137811  137808       8  137814  137808       8  137814  137811       9  137820
  137817       8  137823  137817       8  137823  137820       9  137829  137826
       8  137832  137826       8  137832  137829       9  137838  137835       8
  137841  137835       8  137841  137838       9  137847  137844       8  137850
  137844       8  137850  137847       9  137856  137853       8  137859  137853
       8  137859  137856       9  137865  137862       8  137868  137862       8
  137868  137865       9  137874  137871       8  137877  137871       8  137877
  137874       9  137883  137880       8  137886  137880       8  137886  137883
       9  137892  137889       8  137895  137889       8  137895  137892       9
  137901  137898       8  137904  137898       8  137904  137901       9  137910
  137907       8  137913  137907       8  137913  137910       9  137919  137916
       8  137922  137916       8  137922  137919       9  137928  137925       8
  137931  137925       8  137931  137928       9  137937  137934       8  137940
  137934       8  137940  137937       9  137946  137943       8  137949  137943
       8  137949  137946       9  137955  137952       8  137958  137952       8
  137958  137955       9  137964  137961       8  137967  137961       8  137967
  137964       9  137973  137970       8  137976  137970       8  137976  137973
       9  137982  137979       8  137985  137979       8  137985  137982       9
  137991  137988       8  137994  137988       8  137994  137991       9  138000
  137997       8  138003  137997       8  138003  138000       9  138009  138006
       8  138012  138006       8  138012  138009       9  138018  138015       8
  138021  138015       8  138021  138018       9  138027  138024       8  138030
  138024       8  138030  138027       9  138036  138033       8  138039  138033
       8  138039  138036       9  138045  138042       8  138048  138042       8
  138048  138045       9  138054  138051       8  138057  138051       8  138057
  138054       9  138063  138060       8  138066  138060       8  138066  138063
       9  138072  138069       8  138075  138069       8  138075  138072       9
  138081  138078       8  138084  138078       8  138084  138081       9  138090
  138087       8  138093  138087       8  138093  138090       9  138099  138096
       8  138102  138096       8  138102  138099       9  138108  138105       8
  138111  138105       8  138111  138108       9  138117  138114       8  138120
  138114       8  138120  138117       9  138126  138123       8  138129  138123
       8  138129  138126       9  138135  138132       8  138138  138132       8
  138138  138135       9  138144  138141       8  138147  138141       8  138147
  138144       9  138153  138150       8  138156  138150       8  138156  138153
       9  138162  138159       8  138165  138159       8  138165  138162       9
  138171  138168       8  138174  138168       8  138174  138171       9  138180
  138177       8  138183  138177       8  138183  138180       9  138189  138186
       8  138192  138186       8  138192  138189       9  138198  138195       8
  138201  138195       8  138201  138198       9  138207  138204       8  138210
  138204       8  138210  138207       9  138216  138213       8  138219  138213
       8  138219  138216       9  138225  138222       8  138228  138222       8
  138228  138225       9  138234  138231       8  138237  138231       8  138237
  138234       9  138243  138240       8  138246  138240       8  138246  138243
       9  138252  138249       8  138255  138249       8  138255  138252       9
  138261  138258       8  138264  138258       8  138264  138261       9  138270
  138267       8  138273  138267       8  138273  138270       9  138279  138276
       8  138282  138276       8  138282  138279       9  138288  138285       8
  138291  138285       8  138291  138288       9  138297  138294       8  138300
  138294       8  138300  138297       9  138306  138303       8  138309  138303
       8  138309  138306       9  138315  138312       8  138318  138312       8
  138318  138315       9  138324  138321       8  138327  138321       8  138327
  138324       9  138333  138330       8  138336  138330       8  138336  138333
       9  138342  138339       8  138345  138339       8  138345  138342       9
  138351  138348       8  138354  138348       8  138354  138351       9  138360
  138357       8  138363  138357       8  138363  138360       9  138369  138366
       8  138372  138366       8  138372  138369       9  138378  138375       8
  138381  138375       8  138381  138378       9  138387  138384       8  138390
  138384       8  138390  138387       9  138396  138393       8  138399  138393
       8  138399  138396       9  138405  138402       8  138408  138402       8
  138408  138405       9  138414  138411       8  138417  138411       8  138417
  138414       9  138423  138420       8  138426  138420       8  138426  138423
       9  138432  138429       8  138435  138429       8  138435  138432       9
  138441  138438       8  138444  138438       8  138444  138441       9  138450
  138447       8  138453  138447       8  138453  138450       9  138459  138456
       8  138462  138456       8  138462  138459       9  138468  138465       8
  138471  138465       8  138471  138468       9  138477  138474       8  138480
  138474       8  138480  138477       9  138486  138483       8  138489  138483
       8  138489  138486       9  138495  138492       8  138498  138492       8
  138498  138495       9  138504  138501       8  138507  138501       8  138507
  138504       9  138513  138510       8  138516  138510       8  138516  138513
       9  138522  138519       8  138525  138519       8  138525  138522       9
  138531  138528       8  138534  138528       8  138534  138531       9  138540
  138537       8  138543  138537       8  138543  138540       9  138549  138546
       8  138552  138546       8  138552  138549       9  138558  138555       8
  138561  138555       8  138561  138558       9  138567  138564       8  138570
  138564       8  138570  138567       9  138576  138573       8  138579  138573
       8  138579  138576       9  138585  138582       8  138588  138582       8
  138588  138585       9  138594  138591       8  138597  138591       8  138597
  138594       9  138603  138600       8  138606  138600       8  138606  138603
       9  138612  138609       8  138615  138609       8  138615  138612       9
  138621  138618       8  138624  138618       8  138624  138621       9  138630
  138627       8  138633  138627       8  138633  138630       9  138639  138636
       8  138642  138636       8  138642  138639       9  138648  138645       8
  138651  138645       8  138651  138648       9  138657  138654       8  138660
  138654       8  138660  138657       9  138666  138663       8  138669  138663
       8  138669  138666       9  138675  138672       8  138678  138672       8
  138678  138675       9  138684  138681       8  138687  138681       8  138687
  138684       9  138693  138690       8  138696  138690       8  138696  138693
       9  138702  138699       8  138705  138699       8  138705  138702       9
  138711  138708       8  138714  138708       8  138714  138711       9  138720
  138717       8  138723  138717       8  138723  138720       9  138729  138726
       8  138732  138726       8  138732  138729       9  138738  138735       8
  138741  138735       8  138741  138738       9  138747  138744       8  138750
  138744       8  138750  138747       9  138756  138753       8  138759  138753
       8  138759  138756       9  138765  138762       8  138768  138762       8
  138768  138765       9  138774  138771       8  138777  138771       8  138777
  138774       9  138783  138780       8  138786  138780       8  138786  138783
       9  138792  138789       8  138795  138789       8  138795  138792       9
  138801  138798       8  138804  138798       8  138804  138801       9  138810
  138807       8  138813  138807       8  138813  138810       9  138819  138816
       8  138822  138816       8  138822  138819       9  138828  138825       8
  138831  138825       8  138831  138828       9  138837  138834       8  138840
  138834       8  138840  138837       9  138846  138843       8  138849  138843
       8  138849  138846       9  138855  138852       8  138858  138852       8
  138858  138855       9  138864  138861       8  138867  138861       8  138867
  138864       9  138873  138870       8  138876  138870       8  138876  138873
       9  138882  138879       8  138885  138879       8  138885  138882       9
  138891  138888       8  138894  138888       8  138894  138891       9  138900
  138897       8  138903  138897       8  138903  138900       9  138909  138906
       8  138912  138906       8  138912  138909       9  138918  138915       8
  138921  138915       8  138921  138918       9  138927  138924       8  138930
  138924       8  138930  138927       9  138936  138933       8  138939  138933
       8  138939  138936       9  138945  138942       8  138948  138942       8
  138948  138945       9  138954  138951       8  138957  138951       8  138957
  138954       9  138963  138960       8  138966  138960       8  138966  138963
       9  138972  138969       8  138975  138969       8  138975  138972       9
  138981  138978       8  138984  138978       8  138984  138981       9  138990
  138987       8  138993  138987       8  138993  138990       9  138999  138996
       8  139002  138996       8  139002  138999       9  139008  139005       8
  139011  139005       8  139011  139008       9  139017  139014       8  139020
  139014       8  139020  139017       9  139026  139023       8  139029  139023
       8  139029  139026       9  139035  139032       8  139038  139032       8
  139038  139035       9  139044  139041       8  139047  139041       8  139047
  139044       9  139053  139050       8  139056  139050       8  139056  139053
       9  139062  139059       8  139065  139059       8  139065  139062       9
  139071  139068       8  139074  139068       8  139074  139071       9  139080
  139077       8  139083  139077       8  139083  139080       9  139089  139086
       8  139092  139086       8  139092  139089       9  139098  139095       8
  139101  139095       8  139101  139098       9  139107  139104       8  139110
  139104       8  139110  139107       9  139116  139113       8  139119  139113
       8  139119  139116       9  139125  139122       8  139128  139122       8
  139128  139125       9  139134  139131       8  139137  139131       8  139137
  139134       9  139143  139140       8  139146  139140       8  139146  139143
       9  139152  139149       8  139155  139149       8  139155  139152       9
  139161  139158       8  139164  139158       8  139164  139161       9  139170
  139167       8  139173  139167       8  139173  139170       9  139179  139176
       8  139182  139176       8  139182  139179       9  139188  139185       8
  139191  139185       8  139191  139188       9  139197  139194       8  139200
  139194       8  139200  139197       9  139206  139203       8  139209  139203
       8  139209  139206       9  139215  139212       8  139218  139212       8
  139218  139215       9  139224  139221       8  139227  139221       8  139227
  139224       9  139233  139230       8  139236  139230       8  139236  139233
       9  139242  139239       8  139245  139239       8  139245  139242       9
  139251  139248       8  139254  139248       8  139254  139251       9  139260
  139257       8  139263  139257       8  139263  139260       9  139269  139266
       8  139272  139266       8  139272  139269       9  139278  139275       8
  139281  139275       8  139281  139278       9  139287  139284       8  139290
  139284       8  139290  139287       9  139296  139293       8  139299  139293
       8  139299  139296       9  139305  139302       8  139308  139302       8
  139308  139305       9  139314  139311       8  139317  139311       8  139317
  139314       9  139323  139320       8  139326  139320       8  139326  139323
       9  139332  139329       8  139335  139329       8  139335  139332       9
  139341  139338       8  139344  139338       8  139344  139341       9  139350
  139347       8  139353  139347       8  139353  139350       9  139359  139356
       8  139362  139356       8  139362  139359       9  139368  139365       8
  139371  139365       8  139371  139368       9  139377  139374       8  139380
  139374       8  139380  139377       9  139386  139383       8  139389  139383
       8  139389  139386       9  139395  139392       8  139398  139392       8
  139398  139395       9  139404  139401       8  139407  139401       8  139407
  139404       9  139413  139410       8  139416  139410       8  139416  139413
       9  139422  139419       8  139425  139419       8  139425  139422       9
  139431  139428       8  139434  139428       8  139434  139431       9  139440
  139437       8  139443  139437       8  139443  139440       9  139449  139446
       8  139452  139446       8  139452  139449       9  139458  139455       8
  139461  139455       8  139461  139458       9  139467  139464       8  139470
  139464       8  139470  139467       9  139476  139473       8  139479  139473
       8  139479  139476       9  139485  139482       8  139488  139482       8
  139488  139485       9  139494  139491       8  139497  139491       8  139497
  139494       9  139503  139500       8  139506  139500       8  139506  139503
       9  139512  139509       8  139515  139509       8  139515  139512       9
  139521  139518       8  139524  139518       8  139524  139521       9  139530
  139527       8  139533  139527       8  139533  139530       9  139539  139536
       8  139542  139536       8  139542  139539       9  139548  139545       8
  139551  139545       8  139551  139548       9  139557  139554       8  139560
  139554       8  139560  139557       9  139566  139563       8  139569  139563
       8  139569  139566       9  139575  139572       8  139578  139572       8
  139578  139575       9  139584  139581       8  139587  139581       8  139587
  139584       9  139593  139590       8  139596  139590       8  139596  139593
       9  139602  139599       8  139605  139599       8  139605  139602       9
  139611  139608       8  139614  139608       8  139614  139611       9  139620
  139617       8  139623  139617       8  139623  139620       9  139629  139626
       8  139632  139626       8  139632  139629       9  139638  139635       8
  139641  139635       8  139641  139638       9  139647  139644       8  139650
  139644       8  139650  139647       9  139656  139653       8  139659  139653
       8  139659  139656       9  139665  139662       8  139668  139662       8
  139668  139665       9  139674  139671       8  139677  139671       8  139677
  139674       9  139683  139680       8  139686  139680       8  139686  139683
       9  139692  139689       8  139695  139689       8  139695  139692       9
  139701  139698       8  139704  139698       8  139704  139701       9  139710
  139707       8  139713  139707       8  139713  139710       9  139719  139716
       8  139722  139716       8  139722  139719       9  139728  139725       8
  139731  139725       8  139731  139728       9  139737  139734       8  139740
  139734       8  139740  139737       9  139746  139743       8  139749  139743
       8  139749  139746       9  139755  139752       8  139758  139752       8
  139758  139755       9  139764  139761       8  139767  139761       8  139767
  139764       9  139773  139770       8  139776  139770       8  139776  139773
       9  139782  139779       8  139785  139779       8  139785  139782       9
  139791  139788       8  139794  139788       8  139794  139791       9  139800
  139797       8  139803  139797       8  139803  139800       9  139809  139806
       8  139812  139806       8  139812  139809       9  139818  139815       8
  139821  139815       8  139821  139818       9  139827  139824       8  139830
  139824       8  139830  139827       9  139836  139833       8  139839  139833
       8  139839  139836       9  139845  139842       8  139848  139842       8
  139848  139845       9  139854  139851       8  139857  139851       8  139857
  139854       9  139863  139860       8  139866  139860       8  139866  139863
       9  139872  139869       8  139875  139869       8  139875  139872       9
  139881  139878       8  139884  139878       8  139884  139881       9  139890
  139887       8  139893  139887       8  139893  139890       9  139899  139896
       8  139902  139896       8  139902  139899       9  139908  139905       8
  139911  139905       8  139911  139908       9  139917  139914       8  139920
  139914       8  139920  139917       9  139926  139923       8  139929  139923
       8  139929  139926       9  139935  139932       8  139938  139932       8
  139938  139935       9  139944  139941       8  139947  139941       8  139947
  139944       9  139953  139950       8  139956  139950       8  139956  139953
       9  139962  139959       8  139965  139959       8  139965  139962       9
  139971  139968       8  139974  139968       8  139974  139971       9  139980
  139977       8  139983  139977       8  139983  139980       9  139989  139986
       8  139992  139986       8  139992  139989       9  139998  139995       8
  140001  139995       8  140001  139998       9  140007  140004       8  140010
  140004       8  140010  140007       9  140016  140013       8  140019  140013
       8  140019  140016       9  140025  140022       8  140028  140022       8
  140028  140025       9  140034  140031       8  140037  140031       8  140037
  140034       9  140043  140040       8  140046  140040       8  140046  140043
       9  140052  140049       8  140055  140049       8  140055  140052       9
  140061  140058       8  140064  140058       8  140064  140061       9  140070
  140067       8  140073  140067       8  140073  140070       9  140079  140076
       8  140082  140076       8  140082  140079       9  140088  140085       8
  140091  140085       8  140091  140088       9  140097  140094       8  140100
  140094       8  140100  140097       9  140106  140103       8  140109  140103
       8  140109  140106       9  140115  140112       8  140118  140112       8
  140118  140115       9  140124  140121       8  140127  140121       8  140127
  140124       9  140133  140130       8  140136  140130       8  140136  140133
       9  140142  140139       8  140145  140139       8  140145  140142       9
  140151  140148       8  140154  140148       8  140154  140151       9  140160
  140157       8  140163  140157       8  140163  140160       9  140169  140166
       8  140172  140166       8  140172  140169       9  140178  140175       8
  140181  140175       8  140181  140178       9  140187  140184       8  140190
  140184       8  140190  140187       9  140196  140193       8  140199  140193
       8  140199  140196       9  140205  140202       8  140208  140202       8
  140208  140205       9  140214  140211       8  140217  140211       8  140217
  140214       9  140223  140220       8  140226  140220       8  140226  140223
       9  140232  140229       8  140235  140229       8  140235  140232       9
  140241  140238       8  140244  140238       8  140244  140241       9  140250
  140247       8  140253  140247       8  140253  140250       9  140259  140256
       8  140262  140256       8  140262  140259       9  140268  140265       8
  140271  140265       8  140271  140268       9  140277  140274       8  140280
  140274       8  140280  140277       9  140286  140283       8  140289  140283
       8  140289  140286       9  140295  140292       8  140298  140292       8
  140298  140295       9  140304  140301       8  140307  140301       8  140307
  140304       9  140313  140310       8  140316  140310       8  140316  140313
       9  140322  140319       8  140325  140319       8  140325  140322       9
  140331  140328       8  140334  140328       8  140334  140331       9  140340
  140337       8  140343  140337       8  140343  140340       9  140349  140346
       8  140352  140346       8  140352  140349       9  140358  140355       8
  140361  140355       8  140361  140358       9  140367  140364       8  140370
  140364       8  140370  140367       9  140376  140373       8  140379  140373
       8  140379  140376       9  140385  140382       8  140388  140382       8
  140388  140385       9  140394  140391       8  140397  140391       8  140397
  140394       9  140403  140400       8  140406  140400       8  140406  140403
       9  140412  140409       8  140415  140409       8  140415  140412       9
  140421  140418       8  140424  140418       8  140424  140421       9  140430
  140427       8  140433  140427       8  140433  140430       9  140439  140436
       8  140442  140436       8  140442  140439       9  140448  140445       8
  140451  140445       8  140451  140448       9  140457  140454       8  140460
  140454       8  140460  140457       9  140466  140463       8  140469  140463
       8  140469  140466       9  140475  140472       8  140478  140472       8
  140478  140475       9  140484  140481       8  140487  140481       8  140487
  140484       9  140493  140490       8  140496  140490       8  140496  140493
       9  140502  140499       8  140505  140499       8  140505  140502       9
  140511  140508       8  140514  140508       8  140514  140511       9  140520
  140517       8  140523  140517       8  140523  140520       9  140529  140526
       8  140532  140526       8  140532  140529       9  140538  140535       8
  140541  140535       8  140541  140538       9  140547  140544       8  140550
  140544       8  140550  140547       9  140556  140553       8  140559  140553
       8  140559  140556       9  140565  140562       8  140568  140562       8
  140568  140565       9  140574  140571       8  140577  140571       8  140577
  140574       9  140583  140580       8  140586  140580       8  140586  140583
       9  140592  140589       8  140595  140589       8  140595  140592       9
  140601  140598       8  140604  140598       8  140604  140601       9  140610
  140607       8  140613  140607       8  140613  140610       9  140619  140616
       8  140622  140616       8  140622  140619       9  140628  140625       8
  140631  140625       8  140631  140628       9  140637  140634       8  140640
  140634       8  140640  140637       9  140646  140643       8  140649  140643
       8  140649  140646       9  140655  140652       8  140658  140652       8
  140658  140655       9  140664  140661       8  140667  140661       8  140667
  140664       9  140673  140670       8  140676  140670       8  140676  140673
       9  140682  140679       8  140685  140679       8  140685  140682       9
  140691  140688       8  140694  140688       8  140694  140691       9  140700
  140697       8  140703  140697       8  140703  140700       9  140709  140706
       8  140712  140706       8  140712  140709       9  140718  140715       8
  140721  140715       8  140721  140718       9  140727  140724       8  140730
  140724       8  140730  140727       9  140736  140733       8  140739  140733
       8  140739  140736       9  140745  140742       8  140748  140742       8
  140748  140745       9  140754  140751       8  140757  140751       8  140757
  140754       9  140763  140760       8  140766  140760       8  140766  140763
       9  140772  140769       8  140775  140769       8  140775  140772       9
  140781  140778       8  140784  140778       8  140784  140781       9  140790
  140787       8  140793  140787       8  140793  140790       9  140799  140796
       8  140802  140796       8  140802  140799       9  140808  140805       8
  140811  140805       8  140811  140808       9  140817  140814       8  140820
  140814       8  140820  140817       9  140826  140823       8  140829  140823
       8  140829  140826       9  140835  140832       8  140838  140832       8
  140838  140835       9  140844  140841       8  140847  140841       8  140847
  140844       9  140853  140850       8  140856  140850       8  140856  140853
       9  140862  140859       8  140865  140859       8  140865  140862       9
  140871  140868       8  140874  140868       8  140874  140871       9  140880
  140877       8  140883  140877       8  140883  140880       9  140889  140886
       8  140892  140886       8  140892  140889       9  140898  140895       8
  140901  140895       8  140901  140898       9  140907  140904       8  140910
  140904       8  140910  140907       9  140916  140913       8  140919  140913
       8  140919  140916       9  140925  140922       8  140928  140922       8
  140928  140925       9  140934  140931       8  140937  140931       8  140937
  140934       9  140943  140940       8  140946  140940       8  140946  140943
       9  140952  140949       8  140955  140949       8  140955  140952       9
  140961  140958       8  140964  140958       8  140964  140961       9  140970
  140967       8  140973  140967       8  140973  140970       9  140979  140976
       8  140982  140976       8  140982  140979       9  140988  140985       8
  140991  140985       8  140991  140988       9  140997  140994       8  141000
  140994       8  141000  140997       9  141006  141003       8  141009  141003
       8  141009  141006       9  141015  141012       8  141018  141012       8
  141018  141015       9  141024  141021       8  141027  141021       8  141027
  141024       9  141033  141030       8  141036  141030       8  141036  141033
       9  141042  141039       8  141045  141039       8  141045  141042       9
  141051  141048       8  141054  141048       8  141054  141051       9  141060
  141057       8  141063  141057       8  141063  141060       9  141069  141066
       8  141072  141066       8  141072  141069       9  141078  141075       8
  141081  141075       8  141081  141078       9  141087  141084       8  141090
  141084       8  141090  141087       9  141096  141093       8  141099  141093
       8  141099  141096       9  141105  141102       8  141108  141102       8
  141108  141105       9  141114  141111       8  141117  141111       8  141117
  141114       9  141123  141120       8  141126  141120       8  141126  141123
       9  141132  141129       8  141135  141129       8  141135  141132       9
  141141  141138       8  141144  141138       8  141144  141141       9  141150
  141147       8  141153  141147       8  141153  141150       9  141159  141156
       8  141162  141156       8  141162  141159       9  141168  141165       8
  141171  141165       8  141171  141168       9  141177  141174       8  141180
  141174       8  141180  141177       9  141186  141183       8  141189  141183
       8  141189  141186       9  141195  141192       8  141198  141192       8
  141198  141195       9  141204  141201       8  141207  141201       8  141207
  141204       9  141213  141210       8  141216  141210       8  141216  141213
       9  141222  141219       8  141225  141219       8  141225  141222       9
  141231  141228       8  141234  141228       8  141234  141231       9  141240
  141237       8  141243  141237       8  141243  141240       9  141249  141246
       8  141252  141246       8  141252  141249       9  141258  141255       8
  141261  141255       8  141261  141258       9  141267  141264       8  141270
  141264       8  141270  141267       9  141276  141273       8  141279  141273
       8  141279  141276       9  141285  141282       8  141288  141282       8
  141288  141285       9  141294  141291       8  141297  141291       8  141297
  141294       9  141303  141300       8  141306  141300       8  141306  141303
       9  141312  141309       8  141315  141309       8  141315  141312       9
  141321  141318       8  141324  141318       8  141324  141321       9  141330
  141327       8  141333  141327       8  141333  141330       9  141339  141336
       8  141342  141336       8  141342  141339       9  141348  141345       8
  141351  141345       8  141351  141348       9  141357  141354       8  141360
  141354       8  141360  141357       9  141366  141363       8  141369  141363
       8  141369  141366       9  141375  141372       8  141378  141372       8
  141378  141375       9  141384  141381       8  141387  141381       8  141387
  141384       9  141393  141390       8  141396  141390       8  141396  141393
       9  141402  141399       8  141405  141399       8  141405  141402       9
  141411  141408       8  141414  141408       8  141414  141411       9  141420
  141417       8  141423  141417       8  141423  141420       9  141429  141426
       8  141432  141426       8  141432  141429       9  141438  141435       8
  141441  141435       8  141441  141438       9  141447  141444       8  141450
  141444       8  141450  141447       9  141456  141453       8  141459  141453
       8  141459  141456       9  141465  141462       8  141468  141462       8
  141468  141465       9  141474  141471       8  141477  141471       8  141477
  141474       9  141483  141480       8  141486  141480       8  141486  141483
       9  141492  141489       8  141495  141489       8  141495  141492       9
  141501  141498       8  141504  141498       8  141504  141501       9  141510
  141507       8  141513  141507       8  141513  141510       9  141519  141516
       8  141522  141516       8  141522  141519       9  141528  141525       8
  141531  141525       8  141531  141528       9  141537  141534       8  141540
  141534       8  141540  141537       9  141546  141543       8  141549  141543
       8  141549  141546       9  141555  141552       8  141558  141552       8
  141558  141555       9  141564  141561       8  141567  141561       8  141567
  141564       9  141573  141570       8  141576  141570       8  141576  141573
       9  141582  141579       8  141585  141579       8  141585  141582       9
  141591  141588       8  141594  141588       8  141594  141591       9  141600
  141597       8  141603  141597       8  141603  141600       9  141609  141606
       8  141612  141606       8  141612  141609       9  141618  141615       8
  141621  141615       8  141621  141618       9  141627  141624       8  141630
  141624       8  141630  141627       9  141636  141633       8  141639  141633
       8  141639  141636       9  141645  141642       8  141648  141642       8
  141648  141645       9  141654  141651       8  141657  141651       8  141657
  141654       9  141663  141660       8  141666  141660       8  141666  141663
       9  141672  141669       8  141675  141669       8  141675  141672       9
  141681  141678       8  141684  141678       8  141684  141681       9  141690
  141687       8  141693  141687       8  141693  141690       9  141699  141696
       8  141702  141696       8  141702  141699       9  141708  141705       8
  141711  141705       8  141711  141708       9  141717  141714       8  141720
  141714       8  141720  141717       9  141726  141723       8  141729  141723
       8  141729  141726       9  141735  141732       8  141738  141732       8
  141738  141735       9  141744  141741       8  141747  141741       8  141747
  141744       9  141753  141750       8  141756  141750       8  141756  141753
       9  141762  141759       8  141765  141759       8  141765  141762       9
  141771  141768       8  141774  141768       8  141774  141771       9  141780
  141777       8  141783  141777       8  141783  141780       9  141789  141786
       8  141792  141786       8  141792  141789       9  141798  141795       8
  141801  141795       8  141801  141798       9  141807  141804       8  141810
  141804       8  141810  141807       9  141816  141813       8  141819  141813
       8  141819  141816       9  141825  141822       8  141828  141822       8
  141828  141825       9  141834  141831       8  141837  141831       8  141837
  141834       9  141843  141840       8  141846  141840       8  141846  141843
       9  141852  141849       8  141855  141849       8  141855  141852       9
  141861  141858       8  141864  141858       8  141864  141861       9  141870
  141867       8  141873  141867       8  141873  141870       9  141879  141876
       8  141882  141876       8  141882  141879       9  141888  141885       8
  141891  141885       8  141891  141888       9  141897  141894       8  141900
  141894       8  141900  141897       9  141906  141903       8  141909  141903
       8  141909  141906       9  141915  141912       8  141918  141912       8
  141918  141915       9  141924  141921       8  141927  141921       8  141927
  141924       9  141933  141930       8  141936  141930       8  141936  141933
       9  141942  141939       8  141945  141939       8  141945  141942       9
  141951  141948       8  141954  141948       8  141954  141951       9  141960
  141957       8  141963  141957       8  141963  141960       9  141969  141966
       8  141972  141966       8  141972  141969       9  141978  141975       8
  141981  141975       8  141981  141978       9  141987  141984       8  141990
  141984       8  141990  141987       9  141996  141993       8  141999  141993
       8  141999  141996       9  142005  142002       8  142008  142002       8
  142008  142005       9  142014  142011       8  142017  142011       8  142017
  142014       9  142023  142020       8  142026  142020       8  142026  142023
       9  142032  142029       8  142035  142029       8  142035  142032       9
  142041  142038       8  142044  142038       8  142044  142041       9  142050
  142047       8  142053  142047       8  142053  142050       9  142059  142056
       8  142062  142056       8  142062  142059       9  142068  142065       8
  142071  142065       8  142071  142068       9  142077  142074       8  142080
  142074       8  142080  142077       9  142086  142083       8  142089  142083
       8  142089  142086       9  142095  142092       8  142098  142092       8
  142098  142095       9  142104  142101       8  142107  142101       8  142107
  142104       9  142113  142110       8  142116  142110       8  142116  142113
       9  142122  142119       8  142125  142119       8  142125  142122       9
  142131  142128       8  142134  142128       8  142134  142131       9  142140
  142137       8  142143  142137       8  142143  142140       9  142149  142146
       8  142152  142146       8  142152  142149       9  142158  142155       8
  142161  142155       8  142161  142158       9  142167  142164       8  142170
  142164       8  142170  142167       9  142176  142173       8  142179  142173
       8  142179  142176       9  142185  142182       8  142188  142182       8
  142188  142185       9  142194  142191       8  142197  142191       8  142197
  142194       9  142203  142200       8  142206  142200       8  142206  142203
       9  142212  142209       8  142215  142209       8  142215  142212       9
  142221  142218       8  142224  142218       8  142224  142221       9  142230
  142227       8  142233  142227       8  142233  142230       9  142239  142236
       8  142242  142236       8  142242  142239       9  142248  142245       8
  142251  142245       8  142251  142248       9  142257  142254       8  142260
  142254       8  142260  142257       9  142266  142263       8  142269  142263
       8  142269  142266       9  142275  142272       8  142278  142272       8
  142278  142275       9  142284  142281       8  142287  142281       8  142287
  142284       9  142293  142290       8  142296  142290       8  142296  142293
       9  142302  142299       8  142305  142299       8  142305  142302       9
  142311  142308       8  142314  142308       8  142314  142311       9  142320
  142317       8  142323  142317       8  142323  142320       9  142329  142326
       8  142332  142326       8  142332  142329       9  142338  142335       8
  142341  142335       8  142341  142338       9  142347  142344       8  142350
  142344       8  142350  142347       9  142356  142353       8  142359  142353
       8  142359  142356       9  142365  142362       8  142368  142362       8
  142368  142365       9  142374  142371       8  142377  142371       8  142377
  142374       9  142383  142380       8  142386  142380       8  142386  142383
       9  142392  142389       8  142395  142389       8  142395  142392       9
  142401  142398       8  142404  142398       8  142404  142401       9  142410
  142407       8  142413  142407       8  142413  142410       9  142419  142416
       8  142422  142416       8  142422  142419       9  142428  142425       8
  142431  142425       8  142431  142428       9  142437  142434       8  142440
  142434       8  142440  142437       9  142446  142443       8  142449  142443
       8  142449  142446       9  142455  142452       8  142458  142452       8
  142458  142455       9  142464  142461       8  142467  142461       8  142467
  142464       9  142473  142470       8  142476  142470       8  142476  142473
       9  142482  142479       8  142485  142479       8  142485  142482       9
  142491  142488       8  142494  142488       8  142494  142491       9  142500
  142497       8  142503  142497       8  142503  142500       9  142509  142506
       8  142512  142506       8  142512  142509       9  142518  142515       8
  142521  142515       8  142521  142518       9  142527  142524       8  142530
  142524       8  142530  142527       9  142536  142533       8  142539  142533
       8  142539  142536       9  142545  142542       8  142548  142542       8
  142548  142545       9  142554  142551       8  142557  142551       8  142557
  142554       9  142563  142560       8  142566  142560       8  142566  142563
       9  142572  142569       8  142575  142569       8  142575  142572       9
  142581  142578       8  142584  142578       8  142584  142581       9  142590
  142587       8  142593  142587       8  142593  142590       9  142599  142596
       8  142602  142596       8  142602  142599       9  142608  142605       8
  142611  142605       8  142611  142608       9  142617  142614       8  142620
  142614       8  142620  142617       9  142626  142623       8  142629  142623
       8  142629  142626       9  142635  142632       8  142638  142632       8
  142638  142635       9  142644  142641       8  142647  142641       8  142647
  142644       9  142653  142650       8  142656  142650       8  142656  142653
       9  142662  142659       8  142665  142659       8  142665  142662       9
  142671  142668       8  142674  142668       8  142674  142671       9  142680
  142677       8  142683  142677       8  142683  142680       9  142689  142686
       8  142692  142686       8  142692  142689       9  142698  142695       8
  142701  142695       8  142701  142698       9  142707  142704       8  142710
  142704       8  142710  142707       9  142716  142713       8  142719  142713
       8  142719  142716       9  142725  142722       8  142728  142722       8
  142728  142725       9  142734  142731       8  142737  142731       8  142737
  142734       9  142743  142740       8  142746  142740       8  142746  142743
       9  142752  142749       8  142755  142749       8  142755  142752       9
  142761  142758       8  142764  142758       8  142764  142761       9  142770
  142767       8  142773  142767       8  142773  142770       9  142779  142776
       8  142782  142776       8  142782  142779       9  142788  142785       8
  142791  142785       8  142791  142788       9  142797  142794       8  142800
  142794       8  142800  142797       9  142806  142803       8  142809  142803
       8  142809  142806       9  142815  142812       8  142818  142812       8
  142818  142815       9  142824  142821       8  142827  142821       8  142827
  142824       9  142833  142830       8  142836  142830       8  142836  142833
       9  142842  142839       8  142845  142839       8  142845  142842       9
  142851  142848       8  142854  142848       8  142854  142851       9  142860
  142857       8  142863  142857       8  142863  142860       9  142869  142866
       8  142872  142866       8  142872  142869       9  142878  142875       8
  142881  142875       8  142881  142878       9  142887  142884       8  142890
  142884       8  142890  142887       9  142896  142893       8  142899  142893
       8  142899  142896       9  142905  142902       8  142908  142902       8
  142908  142905       9  142914  142911       8  142917  142911       8  142917
  142914       9  142923  142920       8  142926  142920       8  142926  142923
       9  142932  142929       8  142935  142929       8  142935  142932       9
  142941  142938       8  142944  142938       8  142944  142941       9  142950
  142947       8  142953  142947       8  142953  142950       9  142959  142956
       8  142962  142956       8  142962  142959       9  142968  142965       8
  142971  142965       8  142971  142968       9  142977  142974       8  142980
  142974       8  142980  142977       9  142986  142983       8  142989  142983
       8  142989  142986       9  142995  142992       8  142998  142992       8
  142998  142995       9  143004  143001       8  143007  143001       8  143007
  143004       9  143013  143010       8  143016  143010       8  143016  143013
       9  143022  143019       8  143025  143019       8  143025  143022       9
  143031  143028       8  143034  143028       8  143034  143031       9  143040
  143037       8  143043  143037       8  143043  143040       9  143049  143046
       8  143052  143046       8  143052  143049       9  143058  143055       8
  143061  143055       8  143061  143058       9  143067  143064       8  143070
  143064       8  143070  143067       9  143076  143073       8  143079  143073
       8  143079  143076       9  143085  143082       8  143088  143082       8
  143088  143085       9  143094  143091       8  143097  143091       8  143097
  143094       9  143103  143100       8  143106  143100       8  143106  143103
       9  143112  143109       8  143115  143109       8  143115  143112       9
  143121  143118       8  143124  143118       8  143124  143121       9  143130
  143127       8  143133  143127       8  143133  143130       9  143139  143136
       8  143142  143136       8  143142  143139       9  143148  143145       8
  143151  143145       8  143151  143148       9  143157  143154       8  143160
  143154       8  143160  143157       9  143166  143163       8  143169  143163
       8  143169  143166       9  143175  143172       8  143178  143172       8
  143178  143175       9  143184  143181       8  143187  143181       8  143187
  143184       9  143193  143190       8  143196  143190       8  143196  143193
       9  143202  143199       8  143205  143199       8  143205  143202       9
  143211  143208       8  143214  143208       8  143214  143211       9  143220
  143217       8  143223  143217       8  143223  143220       9  143229  143226
       8  143232  143226       8  143232  143229       9  143238  143235       8
  143241  143235       8  143241  143238       9  143247  143244       8  143250
  143244       8  143250  143247       9  143256  143253       8  143259  143253
       8  143259  143256       9  143265  143262       8  143268  143262       8
  143268  143265       9  143274  143271       8  143277  143271       8  143277
  143274       9  143283  143280       8  143286  143280       8  143286  143283
       9  143292  143289       8  143295  143289       8  143295  143292       9
  143301  143298       8  143304  143298       8  143304  143301       9  143310
  143307       8  143313  143307       8  143313  143310       9  143319  143316
       8  143322  143316       8  143322  143319       9  143328  143325       8
  143331  143325       8  143331  143328       9  143337  143334       8  143340
  143334       8  143340  143337       9  143346  143343       8  143349  143343
       8  143349  143346       9  143355  143352       8  143358  143352       8
  143358  143355       9  143364  143361       8  143367  143361       8  143367
  143364       9  143373  143370       8  143376  143370       8  143376  143373
       9  143382  143379       8  143385  143379       8  143385  143382       9
  143391  143388       8  143394  143388       8  143394  143391       9  143400
  143397       8  143403  143397       8  143403  143400       9  143409  143406
       8  143412  143406       8  143412  143409       9  143418  143415       8
  143421  143415       8  143421  143418       9  143427  143424       8  143430
  143424       8  143430  143427       9  143436  143433       8  143439  143433
       8  143439  143436       9  143445  143442       8  143448  143442       8
  143448  143445       9  143454  143451       8  143457  143451       8  143457
  143454       9  143463  143460       8  143466  143460       8  143466  143463
       9  143472  143469       8  143475  143469       8  143475  143472       9
  143481  143478       8  143484  143478       8  143484  143481       9  143490
  143487       8  143493  143487       8  143493  143490       9  143499  143496
       8  143502  143496       8  143502  143499       9  143508  143505       8
  143511  143505       8  143511  143508       9  143517  143514       8  143520
  143514       8  143520  143517       9  143526  143523       8  143529  143523
       8  143529  143526       9  143535  143532       8  143538  143532       8
  143538  143535       9  143544  143541       8  143547  143541       8  143547
  143544       9  143553  143550       8  143556  143550       8  143556  143553
       9  143562  143559       8  143565  143559       8  143565  143562       9
  143571  143568       8  143574  143568       8  143574  143571       9  143580
  143577       8  143583  143577       8  143583  143580       9  143589  143586
       8  143592  143586       8  143592  143589       9  143598  143595       8
  143601  143595       8  143601  143598       9  143607  143604       8  143610
  143604       8  143610  143607       9  143616  143613       8  143619  143613
       8  143619  143616       9  143625  143622       8  143628  143622       8
  143628  143625       9  143634  143631       8  143637  143631       8  143637
  143634       9  143643  143640       8  143646  143640       8  143646  143643
       9  143652  143649       8  143655  143649       8  143655  143652       9
  143661  143658       8  143664  143658       8  143664  143661       9  143670
  143667       8  143673  143667       8  143673  143670       9  143679  143676
       8  143682  143676       8  143682  143679       9  143688  143685       8
  143691  143685       8  143691  143688       9  143697  143694       8  143700
  143694       8  143700  143697       9  143706  143703       8  143709  143703
       8  143709  143706       9  143715  143712       8  143718  143712       8
  143718  143715       9  143724  143721       8  143727  143721       8  143727
  143724       9  143733  143730       8  143736  143730       8  143736  143733
       9  143742  143739       8  143745  143739       8  143745  143742       9
  143751  143748       8  143754  143748       8  143754  143751       9  143760
  143757       8  143763  143757       8  143763  143760       9  143769  143766
       8  143772  143766       8  143772  143769       9  143778  143775       8
  143781  143775       8  143781  143778       9  143787  143784       8  143790
  143784       8  143790  143787       9  143796  143793       8  143799  143793
       8  143799  143796       9  143805  143802       8  143808  143802       8
  143808  143805       9  143814  143811       8  143817  143811       8  143817
  143814       9  143823  143820       8  143826  143820       8  143826  143823
       9  143832  143829       8  143835  143829       8  143835  143832       9
  143841  143838       8  143844  143838       8  143844  143841       9  143850
  143847       8  143853  143847       8  143853  143850       9  143859  143856
       8  143862  143856       8  143862  143859       9  143868  143865       8
  143871  143865       8  143871  143868       9  143877  143874       8  143880
  143874       8  143880  143877       9  143886  143883       8  143889  143883
       8  143889  143886       9  143895  143892       8  143898  143892       8
  143898  143895       9  143904  143901       8  143907  143901       8  143907
  143904       9  143913  143910       8  143916  143910       8  143916  143913
       9  143922  143919       8  143925  143919       8  143925  143922       9
  143931  143928       8  143934  143928       8  143934  143931       9  143940
  143937       8  143943  143937       8  143943  143940       9  143949  143946
       8  143952  143946       8  143952  143949       9  143958  143955       8
  143961  143955       8  143961  143958       9  143967  143964       8  143970
  143964       8  143970  143967       9  143976  143973       8  143979  143973
       8  143979  143976       9  143985  143982       8  143988  143982       8
  143988  143985       9  143994  143991       8  143997  143991       8  143997
  143994       9  144003  144000       8  144006  144000       8  144006  144003
       9  144012  144009       8  144015  144009       8  144015  144012       9
  144021  144018       8  144024  144018       8  144024  144021       9  144030
  144027       8  144033  144027       8  144033  144030       9  144039  144036
       8  144042  144036       8  144042  144039       9  144048  144045       8
  144051  144045       8  144051  144048       9  144057  144054       8  144060
  144054       8  144060  144057       9  144066  144063       8  144069  144063
       8  144069  144066       9  144075  144072       8  144078  144072       8
  144078  144075       9  144084  144081       8  144087  144081       8  144087
  144084       9  144093  144090       8  144096  144090       8  144096  144093
       9  144102  144099       8  144105  144099       8  144105  144102       9
  144111  144108       8  144114  144108       8  144114  144111       9  144120
  144117       8  144123  144117       8  144123  144120       9  144129  144126
       8  144132  144126       8  144132  144129       9  144138  144135       8
  144141  144135       8  144141  144138       9  144147  144144       8  144150
  144144       8  144150  144147       9  144156  144153       8  144159  144153
       8  144159  144156       9  144165  144162       8  144168  144162       8
  144168  144165       9  144174  144171       8  144177  144171       8  144177
  144174       9  144183  144180       8  144186  144180       8  144186  144183
       9  144192  144189       8  144195  144189       8  144195  144192       9
  144201  144198       8  144204  144198       8  144204  144201       9  144210
  144207       8  144213  144207       8  144213  144210       9  144219  144216
       8  144222  144216       8  144222  144219       9  144228  144225       8
  144231  144225       8  144231  144228       9  144237  144234       8  144240
  144234       8  144240  144237       9  144246  144243       8  144249  144243
       8  144249  144246       9  144255  144252       8  144258  144252       8
  144258  144255       9  144264  144261       8  144267  144261       8  144267
  144264       9  144273  144270       8  144276  144270       8  144276  144273
       9  144282  144279       8  144285  144279       8  144285  144282       9
  144291  144288       8  144294  144288       8  144294  144291       9  144300
  144297       8  144303  144297       8  144303  144300       9  144309  144306
       8  144312  144306       8  144312  144309       9  144318  144315       8
  144321  144315       8  144321  144318       9  144327  144324       8  144330
  144324       8  144330  144327       9  144336  144333       8  144339  144333
       8  144339  144336       9  144345  144342       8  144348  144342       8
  144348  144345       9  144354  144351       8  144357  144351       8  144357
  144354       9  144363  144360       8  144366  144360       8  144366  144363
       9  144372  144369       8  144375  144369       8  144375  144372       9
  144381  144378       8  144384  144378       8  144384  144381       9  144390
  144387       8  144393  144387       8  144393  144390       9  144399  144396
       8  144402  144396       8  144402  144399       9  144408  144405       8
  144411  144405       8  144411  144408       9  144417  144414       8  144420
  144414       8  144420  144417       9  144426  144423       8  144429  144423
       8  144429  144426       9  144435  144432       8  144438  144432       8
  144438  144435       9  144444  144441       8  144447  144441       8  144447
  144444       9  144453  144450       8  144456  144450       8  144456  144453
       9  144462  144459       8  144465  144459       8  144465  144462       9
  144471  144468       8  144474  144468       8  144474  144471       9  144480
  144477       8  144483  144477       8  144483  144480       9  144489  144486
       8  144492  144486       8  144492  144489       9  144498  144495       8
  144501  144495       8  144501  144498       9  144507  144504       8  144510
  144504       8  144510  144507       9  144516  144513       8  144519  144513
       8  144519  144516       9  144525  144522       8  144528  144522       8
  144528  144525       9  144534  144531       8  144537  144531       8  144537
  144534       9  144543  144540       8  144546  144540       8  144546  144543
       9  144552  144549       8  144555  144549       8  144555  144552       9
  144561  144558       8  144564  144558       8  144564  144561       9  144570
  144567       8  144573  144567       8  144573  144570       9  144579  144576
       8  144582  144576       8  144582  144579       9  144588  144585       8
  144591  144585       8  144591  144588       9  144597  144594       8  144600
  144594       8  144600  144597       9  144606  144603       8  144609  144603
       8  144609  144606       9  144615  144612       8  144618  144612       8
  144618  144615       9  144624  144621       8  144627  144621       8  144627
  144624       9  144633  144630       8  144636  144630       8  144636  144633
       9  144642  144639       8  144645  144639       8  144645  144642       9
  144651  144648       8  144654  144648       8  144654  144651       9  144660
  144657       8  144663  144657       8  144663  144660       9  144669  144666
       8  144672  144666       8  144672  144669       9  144678  144675       8
  144681  144675       8  144681  144678       9  144687  144684       8  144690
  144684       8  144690  144687       9  144696  144693       8  144699  144693
       8  144699  144696       9  144705  144702       8  144708  144702       8
  144708  144705       9  144714  144711       8  144717  144711       8  144717
  144714       9  144723  144720       8  144726  144720       8  144726  144723
       9  144732  144729       8  144735  144729       8  144735  144732       9
  144741  144738       8  144744  144738       8  144744  144741       9  144750
  144747       8  144753  144747       8  144753  144750       9  144759  144756
       8  144762  144756       8  144762  144759       9  144768  144765       8
  144771  144765       8  144771  144768       9  144777  144774       8  144780
  144774       8  144780  144777       9  144786  144783       8  144789  144783
       8  144789  144786       9  144795  144792       8  144798  144792       8
  144798  144795       9  144804  144801       8  144807  144801       8  144807
  144804       9  144813  144810       8  144816  144810       8  144816  144813
       9  144822  144819       8  144825  144819       8  144825  144822       9
  144831  144828       8  144834  144828       8  144834  144831       9  144840
  144837       8  144843  144837       8  144843  144840       9  144849  144846
       8  144852  144846       8  144852  144849       9  144858  144855       8
  144861  144855       8  144861  144858       9  144867  144864       8  144870
  144864       8  144870  144867       9  144876  144873       8  144879  144873
       8  144879  144876       9  144885  144882       8  144888  144882       8
  144888  144885       9  144894  144891       8  144897  144891       8  144897
  144894       9  144903  144900       8  144906  144900       8  144906  144903
       9  144912  144909       8  144915  144909       8  144915  144912       9
  144921  144918       8  144924  144918       8  144924  144921       9  144930
  144927       8  144933  144927       8  144933  144930       9  144939  144936
       8  144942  144936       8  144942  144939       9  144948  144945       8
  144951  144945       8  144951  144948       9  144957  144954       8  144960
  144954       8  144960  144957       9  144966  144963       8  144969  144963
       8  144969  144966       9  144975  144972       8  144978  144972       8
  144978  144975       9  144984  144981       8  144987  144981       8  144987
  144984       9  144993  144990       8  144996  144990       8  144996  144993
       9  145002  144999       8  145005  144999       8  145005  145002       9
  145011  145008       8  145014  145008       8  145014  145011       9  145020
  145017       8  145023  145017       8  145023  145020       9  145029  145026
       8  145032  145026       8  145032  145029       9  145038  145035       8
  145041  145035       8  145041  145038       9  145047  145044       8  145050
  145044       8  145050  145047       9  145056  145053       8  145059  145053
       8  145059  145056       9  145065  145062       8  145068  145062       8
  145068  145065       9  145074  145071       8  145077  145071       8  145077
  145074       9  145083  145080       8  145086  145080       8  145086  145083
       9  145092  145089       8  145095  145089       8  145095  145092       9
  145101  145098       8  145104  145098       8  145104  145101       9  145110
  145107       8  145113  145107       8  145113  145110       9  145119  145116
       8  145122  145116       8  145122  145119       9  145128  145125       8
  145131  145125       8  145131  145128       9  145137  145134       8  145140
  145134       8  145140  145137       9  145146  145143       8  145149  145143
       8  145149  145146       9  145155  145152       8  145158  145152       8
  145158  145155       9  145164  145161       8  145167  145161       8  145167
  145164       9  145173  145170       8  145176  145170       8  145176  145173
       9  145182  145179       8  145185  145179       8  145185  145182       9
  145191  145188       8  145194  145188       8  145194  145191       9  145200
  145197       8  145203  145197       8  145203  145200       9  145209  145206
       8  145212  145206       8  145212  145209       9  145218  145215       8
  145221  145215       8  145221  145218       9  145227  145224       8  145230
  145224       8  145230  145227       9  145236  145233       8  145239  145233
       8  145239  145236       9  145245  145242       8  145248  145242       8
  145248  145245       9  145254  145251       8  145257  145251       8  145257
  145254       9  145263  145260       8  145266  145260       8  145266  145263
       9  145272  145269       8  145275  145269       8  145275  145272       9
  145281  145278       8  145284  145278       8  145284  145281       9  145290
  145287       8  145293  145287       8  145293  145290       9  145299  145296
       8  145302  145296       8  145302  145299       9  145308  145305       8
  145311  145305       8  145311  145308       9  145317  145314       8  145320
  145314       8  145320  145317       9  145326  145323       8  145329  145323
       8  145329  145326       9  145335  145332       8  145338  145332       8
  145338  145335       9  145344  145341       8  145347  145341       8  145347
  145344       9  145353  145350       8  145356  145350       8  145356  145353
       9  145362  145359       8  145365  145359       8  145365  145362       9
  145371  145368       8  145374  145368       8  145374  145371       9  145380
  145377       8  145383  145377       8  145383  145380       9  145389  145386
       8  145392  145386       8  145392  145389       9  145398  145395       8
  145401  145395       8  145401  145398       9  145407  145404       8  145410
  145404       8  145410  145407       9  145416  145413       8  145419  145413
       8  145419  145416       9  145425  145422       8  145428  145422       8
  145428  145425       9  145434  145431       8  145437  145431       8  145437
  145434       9  145443  145440       8  145446  145440       8  145446  145443
       9  145452  145449       8  145455  145449       8  145455  145452       9
  145461  145458       8  145464  145458       8  145464  145461       9  145470
  145467       8  145473  145467       8  145473  145470       9  145479  145476
       8  145482  145476       8  145482  145479       9  145488  145485       8
  145491  145485       8  145491  145488       9  145497  145494       8  145500
  145494       8  145500  145497       9  145506  145503       8  145509  145503
       8  145509  145506       9  145515  145512       8  145518  145512       8
  145518  145515       9  145524  145521       8  145527  145521       8  145527
  145524       9  145533  145530       8  145536  145530       8  145536  145533
       9  145542  145539       8  145545  145539       8  145545  145542       9
  145551  145548       8  145554  145548       8  145554  145551       9  145560
  145557       8  145563  145557       8  145563  145560       9  145569  145566
       8  145572  145566       8  145572  145569       9  145578  145575       8
  145581  145575       8  145581  145578       9  145587  145584       8  145590
  145584       8  145590  145587       9  145596  145593       8  145599  145593
       8  145599  145596       9  145605  145602       8  145608  145602       8
  145608  145605       9  145614  145611       8  145617  145611       8  145617
  145614       9  145623  145620       8  145626  145620       8  145626  145623
       9  145632  145629       8  145635  145629       8  145635  145632       9
  145641  145638       8  145644  145638       8  145644  145641       9  145650
  145647       8  145653  145647       8  145653  145650       9  145659  145656
       8  145662  145656       8  145662  145659       9  145668  145665       8
  145671  145665       8  145671  145668       9  145677  145674       8  145680
  145674       8  145680  145677       9  145686  145683       8  145689  145683
       8  145689  145686       9  145695  145692       8  145698  145692       8
  145698  145695       9  145704  145701       8  145707  145701       8  145707
  145704       9  145713  145710       8  145716  145710       8  145716  145713
       9  145722  145719       8  145725  145719       8  145725  145722       9
  145731  145728       8  145734  145728       8  145734  145731       9  145740
  145737       8  145743  145737       8  145743  145740       9  145749  145746
       8  145752  145746       8  145752  145749       9  145758  145755       8
  145761  145755       8  145761  145758       9  145767  145764       8  145770
  145764       8  145770  145767       9  145776  145773       8  145779  145773
       8  145779  145776       9  145785  145782       8  145788  145782       8
  145788  145785       9  145794  145791       8  145797  145791       8  145797
  145794       9  145803  145800       8  145806  145800       8  145806  145803
       9  145812  145809       8  145815  145809       8  145815  145812       9
  145821  145818       8  145824  145818       8  145824  145821       9  145830
  145827       8  145833  145827       8  145833  145830       9  145839  145836
       8  145842  145836       8  145842  145839       9  145848  145845       8
  145851  145845       8  145851  145848       9  145857  145854       8  145860
  145854       8  145860  145857       9  145866  145863       8  145869  145863
       8  145869  145866       9  145875  145872       8  145878  145872       8
  145878  145875       9  145884  145881       8  145887  145881       8  145887
  145884       9  145893  145890       8  145896  145890       8  145896  145893
       9  145902  145899       8  145905  145899       8  145905  145902       9
  145911  145908       8  145914  145908       8  145914  145911       9  145920
  145917       8  145923  145917       8  145923  145920       9  145929  145926
       8  145932  145926       8  145932  145929       9  145938  145935       8
  145941  145935       8  145941  145938       9  145947  145944       8  145950
  145944       8  145950  145947       9  145956  145953       8  145959  145953
       8  145959  145956       9  145965  145962       8  145968  145962       8
  145968  145965       9  145974  145971       8  145977  145971       8  145977
  145974       9  145983  145980       8  145986  145980       8  145986  145983
       9  145992  145989       8  145995  145989       8  145995  145992       9
  146001  145998       8  146004  145998       8  146004  146001       9  146010
  146007       8  146013  146007       8  146013  146010       9  146019  146016
       8  146022  146016       8  146022  146019       9  146028  146025       8
  146031  146025       8  146031  146028       9  146037  146034       8  146040
  146034       8  146040  146037       9  146046  146043       8  146049  146043
       8  146049  146046       9  146055  146052       8  146058  146052       8
  146058  146055       9  146064  146061       8  146067  146061       8  146067
  146064       9  146073  146070       8  146076  146070       8  146076  146073
       9  146082  146079       8  146085  146079       8  146085  146082       9
  146091  146088       8  146094  146088       8  146094  146091       9  146100
  146097       8  146103  146097       8  146103  146100       9  146109  146106
       8  146112  146106       8  146112  146109       9  146118  146115       8
  146121  146115       8  146121  146118       9  146127  146124       8  146130
  146124       8  146130  146127       9  146136  146133       8  146139  146133
       8  146139  146136       9  146145  146142       8  146148  146142       8
  146148  146145       9  146154  146151       8  146157  146151       8  146157
  146154       9  146163  146160       8  146166  146160       8  146166  146163
       9  146172  146169       8  146175  146169       8  146175  146172       9
  146181  146178       8  146184  146178       8  146184  146181       9  146190
  146187       8  146193  146187       8  146193  146190       9  146199  146196
       8  146202  146196       8  146202  146199       9  146208  146205       8
  146211  146205       8  146211  146208       9  146217  146214       8  146220
  146214       8  146220  146217       9  146226  146223       8  146229  146223
       8  146229  146226       9  146235  146232       8  146238  146232       8
  146238  146235       9  146244  146241       8  146247  146241       8  146247
  146244       9  146253  146250       8  146256  146250       8  146256  146253
       9  146262  146259       8  146265  146259       8  146265  146262       9
  146271  146268       8  146274  146268       8  146274  146271       9  146280
  146277       8  146283  146277       8  146283  146280       9  146289  146286
       8  146292  146286       8  146292  146289       9  146298  146295       8
  146301  146295       8  146301  146298       9  146307  146304       8  146310
  146304       8  146310  146307       9  146316  146313       8  146319  146313
       8  146319  146316       9  146325  146322       8  146328  146322       8
  146328  146325       9  146334  146331       8  146337  146331       8  146337
  146334       9  146343  146340       8  146346  146340       8  146346  146343
       9  146352  146349       8  146355  146349       8  146355  146352       9
  146361  146358       8  146364  146358       8  146364  146361       9  146370
  146367       8  146373  146367       8  146373  146370       9  146379  146376
       8  146382  146376       8  146382  146379       9  146388  146385       8
  146391  146385       8  146391  146388       9  146397  146394       8  146400
  146394       8  146400  146397       9  146406  146403       8  146409  146403
       8  146409  146406       9  146415  146412       8  146418  146412       8
  146418  146415       9  146424  146421       8  146427  146421       8  146427
  146424       9  146433  146430       8  146436  146430       8  146436  146433
       9  146442  146439       8  146445  146439       8  146445  146442       9
  146451  146448       8  146454  146448       8  146454  146451       9  146460
  146457       8  146463  146457       8  146463  146460       9  146469  146466
       8  146472  146466       8  146472  146469       9  146478  146475       8
  146481  146475       8  146481  146478       9  146487  146484       8  146490
  146484       8  146490  146487       9  146496  146493       8  146499  146493
       8  146499  146496       9  146505  146502       8  146508  146502       8
  146508  146505       9  146514  146511       8  146517  146511       8  146517
  146514       9  146523  146520       8  146526  146520       8  146526  146523
       9  146532  146529       8  146535  146529       8  146535  146532       9
  146541  146538       8  146544  146538       8  146544  146541       9  146550
  146547       8  146553  146547       8  146553  146550       9  146559  146556
       8  146562  146556       8  146562  146559       9  146568  146565       8
  146571  146565       8  146571  146568       9  146577  146574       8  146580
  146574       8  146580  146577       9  146586  146583       8  146589  146583
       8  146589  146586       9  146595  146592       8  146598  146592       8
  146598  146595       9  146604  146601       8  146607  146601       8  146607
  146604       9  146613  146610       8  146616  146610       8  146616  146613
       9  146622  146619       8  146625  146619       8  146625  146622       9
  146631  146628       8  146634  146628       8  146634  146631       9  146640
  146637       8  146643  146637       8  146643  146640       9  146649  146646
       8  146652  146646       8  146652  146649       9  146658  146655       8
  146661  146655       8  146661  146658       9  146667  146664       8  146670
  146664       8  146670  146667       9  146676  146673       8  146679  146673
       8  146679  146676       9  146685  146682       8  146688  146682       8
  146688  146685       9  146694  146691       8  146697  146691       8  146697
  146694       9  146703  146700       8  146706  146700       8  146706  146703
       9  146712  146709       8  146715  146709       8  146715  146712       9
  146721  146718       8  146724  146718       8  146724  146721       9  146730
  146727       8  146733  146727       8  146733  146730       9  146739  146736
       8  146742  146736       8  146742  146739       9  146748  146745       8
  146751  146745       8  146751  146748       9  146757  146754       8  146760
  146754       8  146760  146757       9  146766  146763       8  146769  146763
       8  146769  146766       9  146775  146772       8  146778  146772       8
  146778  146775       9  146784  146781       8  146787  146781       8  146787
  146784       9  146793  146790       8  146796  146790       8  146796  146793
       9  146802  146799       8  146805  146799       8  146805  146802       9
  146811  146808       8  146814  146808       8  146814  146811       9  146820
  146817       8  146823  146817       8  146823  146820       9  146829  146826
       8  146832  146826       8  146832  146829       9  146838  146835       8
  146841  146835       8  146841  146838       9  146847  146844       8  146850
  146844       8  146850  146847       9  146856  146853       8  146859  146853
       8  146859  146856       9  146865  146862       8  146868  146862       8
  146868  146865       9  146874  146871       8  146877  146871       8  146877
  146874       9  146883  146880       8  146886  146880       8  146886  146883
       9  146892  146889       8  146895  146889       8  146895  146892       9
  146901  146898       8  146904  146898       8  146904  146901       9  146910
  146907       8  146913  146907       8  146913  146910       9  146919  146916
       8  146922  146916       8  146922  146919       9  146928  146925       8
  146931  146925       8  146931  146928       9  146937  146934       8  146940
  146934       8  146940  146937       9  146946  146943       8  146949  146943
       8  146949  146946       9  146955  146952       8  146958  146952       8
  146958  146955       9  146964  146961       8  146967  146961       8  146967
  146964       9  146973  146970       8  146976  146970       8  146976  146973
       9  146982  146979       8  146985  146979       8  146985  146982       9
  146991  146988       8  146994  146988       8  146994  146991       9  147000
  146997       8  147003  146997       8  147003  147000       9  147009  147006
       8  147012  147006       8  147012  147009       9  147018  147015       8
  147021  147015       8  147021  147018       9  147027  147024       8  147030
  147024       8  147030  147027       9  147036  147033       8  147039  147033
       8  147039  147036       9  147045  147042       8  147048  147042       8
  147048  147045       9  147054  147051       8  147057  147051       8  147057
  147054       9  147063  147060       8  147066  147060       8  147066  147063
       9  147072  147069       8  147075  147069       8  147075  147072       9
  147081  147078       8  147084  147078       8  147084  147081       9  147090
  147087       8  147093  147087       8  147093  147090       9  147099  147096
       8  147102  147096       8  147102  147099       9  147108  147105       8
  147111  147105       8  147111  147108       9  147117  147114       8  147120
  147114       8  147120  147117       9  147126  147123       8  147129  147123
       8  147129  147126       9  147135  147132       8  147138  147132       8
  147138  147135       9  147144  147141       8  147147  147141       8  147147
  147144       9  147153  147150       8  147156  147150       8  147156  147153
       9  147162  147159       8  147165  147159       8  147165  147162       9
  147171  147168       8  147174  147168       8  147174  147171       9  147180
  147177       8  147183  147177       8  147183  147180       9  147189  147186
       8  147192  147186       8  147192  147189       9  147198  147195       8
  147201  147195       8  147201  147198       9  147207  147204       8  147210
  147204       8  147210  147207       9  147216  147213       8  147219  147213
       8  147219  147216       9  147225  147222       8  147228  147222       8
  147228  147225       9  147234  147231       8  147237  147231       8  147237
  147234       9  147243  147240       8  147246  147240       8  147246  147243
       9  147252  147249       8  147255  147249       8  147255  147252       9
  147261  147258       8  147264  147258       8  147264  147261       9  147270
  147267       8  147273  147267       8  147273  147270       9  147279  147276
       8  147282  147276       8  147282  147279       9  147288  147285       8
  147291  147285       8  147291  147288       9  147297  147294       8  147300
  147294       8  147300  147297       9  147306  147303       8  147309  147303
       8  147309  147306       9  147315  147312       8  147318  147312       8
  147318  147315       9  147324  147321       8  147327  147321       8  147327
  147324       9  147333  147330       8  147336  147330       8  147336  147333
       9  147342  147339       8  147345  147339       8  147345  147342       9
  147351  147348       8  147354  147348       8  147354  147351       9  147360
  147357       8  147363  147357       8  147363  147360       9  147369  147366
       8  147372  147366       8  147372  147369       9  147378  147375       8
  147381  147375       8  147381  147378       9  147387  147384       8  147390
  147384       8  147390  147387       9  147396  147393       8  147399  147393
       8  147399  147396       9  147405  147402       8  147408  147402       8
  147408  147405       9  147414  147411       8  147417  147411       8  147417
  147414       9  147423  147420       8  147426  147420       8  147426  147423
       9  147432  147429       8  147435  147429       8  147435  147432       9
  147441  147438       8  147444  147438       8  147444  147441       9  147450
  147447       8  147453  147447       8  147453  147450       9  147459  147456
       8  147462  147456       8  147462  147459       9  147468  147465       8
  147471  147465       8  147471  147468       9  147477  147474       8  147480
  147474       8  147480  147477       9  147486  147483       8  147489  147483
       8  147489  147486       9  147495  147492       8  147498  147492       8
  147498  147495       9  147504  147501       8  147507  147501       8  147507
  147504       9  147513  147510       8  147516  147510       8  147516  147513
       9  147522  147519       8  147525  147519       8  147525  147522       9
  147531  147528       8  147534  147528       8  147534  147531       9  147540
  147537       8  147543  147537       8  147543  147540       9  147549  147546
       8  147552  147546       8  147552  147549       9  147558  147555       8
  147561  147555       8  147561  147558       9  147567  147564       8  147570
  147564       8  147570  147567       9  147576  147573       8  147579  147573
       8  147579  147576       9  147585  147582       8  147588  147582       8
  147588  147585       9  147594  147591       8  147597  147591       8  147597
  147594       9  147603  147600       8  147606  147600       8  147606  147603
       9  147612  147609       8  147615  147609       8  147615  147612       9
  147621  147618       8  147624  147618       8  147624  147621       9  147630
  147627       8  147633  147627       8  147633  147630       9  147639  147636
       8  147642  147636       8  147642  147639       9  147648  147645       8
  147651  147645       8  147651  147648       9  147657  147654       8  147660
  147654       8  147660  147657       9  147666  147663       8  147669  147663
       8  147669  147666       9  147675  147672       8  147678  147672       8
  147678  147675       9  147684  147681       8  147687  147681       8  147687
  147684       9  147693  147690       8  147696  147690       8  147696  147693
       9  147702  147699       8  147705  147699       8  147705  147702       9
  147711  147708       8  147714  147708       8  147714  147711       9  147720
  147717       8  147723  147717       8  147723  147720       9  147729  147726
       8  147732  147726       8  147732  147729       9  147738  147735       8
  147741  147735       8  147741  147738       9  147747  147744       8  147750
  147744       8  147750  147747       9  147756  147753       8  147759  147753
       8  147759  147756       9  147765  147762       8  147768  147762       8
  147768  147765       9  147774  147771       8  147777  147771       8  147777
  147774       9  147783  147780       8  147786  147780       8  147786  147783
       9  147792  147789       8  147795  147789       8  147795  147792       9
  147801  147798       8  147804  147798       8  147804  147801       9  147810
  147807       8  147813  147807       8  147813  147810       9  147819  147816
       8  147822  147816       8  147822  147819       9  147828  147825       8
  147831  147825       8  147831  147828       9  147837  147834       8  147840
  147834       8  147840  147837       9  147846  147843       8  147849  147843
       8  147849  147846       9  147855  147852       8  147858  147852       8
  147858  147855       9  147864  147861       8  147867  147861       8  147867
  147864       9  147873  147870       8  147876  147870       8  147876  147873
       9  147882  147879       8  147885  147879       8  147885  147882       9
  147891  147888       8  147894  147888       8  147894  147891       9  147900
  147897       8  147903  147897       8  147903  147900       9  147909  147906
       8  147912  147906       8  147912  147909       9  147918  147915       8
  147921  147915       8  147921  147918       9  147927  147924       8  147930
  147924       8  147930  147927       9  147936  147933       8  147939  147933
       8  147939  147936       9  147945  147942       8  147948  147942       8
  147948  147945       9  147954  147951       8  147957  147951       8  147957
  147954       9  147963  147960       8  147966  147960       8  147966  147963
       9  147972  147969       8  147975  147969       8  147975  147972       9
  147981  147978       8  147984  147978       8  147984  147981       9  147990
  147987       8  147993  147987       8  147993  147990       9  147999  147996
       8  148002  147996       8  148002  147999       9  148008  148005       8
  148011  148005       8  148011  148008       9  148017  148014       8  148020
  148014       8  148020  148017       9  148026  148023       8  148029  148023
       8  148029  148026       9  148035  148032       8  148038  148032       8
  148038  148035       9  148044  148041       8  148047  148041       8  148047
  148044       9  148053  148050       8  148056  148050       8  148056  148053
       9  148062  148059       8  148065  148059       8  148065  148062       9
  148071  148068       8  148074  148068       8  148074  148071       9  148080
  148077       8  148083  148077       8  148083  148080       9  148089  148086
       8  148092  148086       8  148092  148089       9  148098  148095       8
  148101  148095       8  148101  148098       9  148107  148104       8  148110
  148104       8  148110  148107       9  148116  148113       8  148119  148113
       8  148119  148116       9  148125  148122       8  148128  148122       8
  148128  148125       9  148134  148131       8  148137  148131       8  148137
  148134       9  148143  148140       8  148146  148140       8  148146  148143
       9  148152  148149       8  148155  148149       8  148155  148152       9
  148161  148158       8  148164  148158       8  148164  148161       9  148170
  148167       8  148173  148167       8  148173  148170       9  148179  148176
       8  148182  148176       8  148182  148179       9  148188  148185       8
  148191  148185       8  148191  148188       9  148197  148194       8  148200
  148194       8  148200  148197       9  148206  148203       8  148209  148203
       8  148209  148206       9  148215  148212       8  148218  148212       8
  148218  148215       9  148224  148221       8  148227  148221       8  148227
  148224       9  148233  148230       8  148236  148230       8  148236  148233
       9  148242  148239       8  148245  148239       8  148245  148242       9
  148251  148248       8  148254  148248       8  148254  148251       9  148260
  148257       8  148263  148257       8  148263  148260       9  148269  148266
       8  148272  148266       8  148272  148269       9  148278  148275       8
  148281  148275       8  148281  148278       9  148287  148284       8  148290
  148284       8  148290  148287       9  148296  148293       8  148299  148293
       8  148299  148296       9  148305  148302       8  148308  148302       8
  148308  148305       9  148314  148311       8  148317  148311       8  148317
  148314       9  148323  148320       8  148326  148320       8  148326  148323
       9  148332  148329       8  148335  148329       8  148335  148332       9
  148341  148338       8  148344  148338       8  148344  148341       9  148350
  148347       8  148353  148347       8  148353  148350       9  148359  148356
       8  148362  148356       8  148362  148359       9  148368  148365       8
  148371  148365       8  148371  148368       9  148377  148374       8  148380
  148374       8  148380  148377       9  148386  148383       8  148389  148383
       8  148389  148386       9  148395  148392       8  148398  148392       8
  148398  148395       9  148404  148401       8  148407  148401       8  148407
  148404       9  148413  148410       8  148416  148410       8  148416  148413
       9  148422  148419       8  148425  148419       8  148425  148422       9
  148431  148428       8  148434  148428       8  148434  148431       9  148440
  148437       8  148443  148437       8  148443  148440       9  148449  148446
       8  148452  148446       8  148452  148449       9  148458  148455       8
  148461  148455       8  148461  148458       9  148467  148464       8  148470
  148464       8  148470  148467       9  148476  148473       8  148479  148473
       8  148479  148476       9  148485  148482       8  148488  148482       8
  148488  148485       9  148494  148491       8  148497  148491       8  148497
  148494       9  148503  148500       8  148506  148500       8  148506  148503
       9  148512  148509       8  148515  148509       8  148515  148512       9
  148521  148518       8  148524  148518       8  148524  148521       9  148530
  148527       8  148533  148527       8  148533  148530       9  148539  148536
       8  148542  148536       8  148542  148539       9  148548  148545       8
  148551  148545       8  148551  148548       9  148557  148554       8  148560
  148554       8  148560  148557       9  148566  148563       8  148569  148563
       8  148569  148566       9  148575  148572       8  148578  148572       8
  148578  148575       9  148584  148581       8  148587  148581       8  148587
  148584       9  148593  148590       8  148596  148590       8  148596  148593
       9  148602  148599       8  148605  148599       8  148605  148602       9
  148611  148608       8  148614  148608       8  148614  148611       9  148620
  148617       8  148623  148617       8  148623  148620       9  148629  148626
       8  148632  148626       8  148632  148629       9  148638  148635       8
  148641  148635       8  148641  148638       9  148647  148644       8  148650
  148644       8  148650  148647       9  148656  148653       8  148659  148653
       8  148659  148656       9  148665  148662       8  148668  148662       8
  148668  148665       9  148674  148671       8  148677  148671       8  148677
  148674       9  148683  148680       8  148686  148680       8  148686  148683
       9  148692  148689       8  148695  148689       8  148695  148692       9
  148701  148698       8  148704  148698       8  148704  148701       9  148710
  148707       8  148713  148707       8  148713  148710       9  148719  148716
       8  148722  148716       8  148722  148719       9  148728  148725       8
  148731  148725       8  148731  148728       9  148737  148734       8  148740
  148734       8  148740  148737       9  148746  148743       8  148749  148743
       8  148749  148746       9  148755  148752       8  148758  148752       8
  148758  148755       9  148764  148761       8  148767  148761       8  148767
  148764       9  148773  148770       8  148776  148770       8  148776  148773
       9  148782  148779       8  148785  148779       8  148785  148782       9
  148791  148788       8  148794  148788       8  148794  148791       9  148800
  148797       8  148803  148797       8  148803  148800       9  148809  148806
       8  148812  148806       8  148812  148809       9  148818  148815       8
  148821  148815       8  148821  148818       9  148827  148824       8  148830
  148824       8  148830  148827       9  148836  148833       8  148839  148833
       8  148839  148836       9  148845  148842       8  148848  148842       8
  148848  148845       9  148854  148851       8  148857  148851       8  148857
  148854       9  148863  148860       8  148866  148860       8  148866  148863
       9  148872  148869       8  148875  148869       8  148875  148872       9
  148881  148878       8  148884  148878       8  148884  148881       9  148890
  148887       8  148893  148887       8  148893  148890       9  148899  148896
       8  148902  148896       8  148902  148899       9  148908  148905       8
  148911  148905       8  148911  148908       9  148917  148914       8  148920
  148914       8  148920  148917       9  148926  148923       8  148929  148923
       8  148929  148926       9  148935  148932       8  148938  148932       8
  148938  148935       9  148944  148941       8  148947  148941       8  148947
  148944       9  148953  148950       8  148956  148950       8  148956  148953
       9  148962  148959       8  148965  148959       8  148965  148962       9
  148971  148968       8  148974  148968       8  148974  148971       9  148980
  148977       8  148983  148977       8  148983  148980       9  148989  148986
       8  148992  148986       8  148992  148989       9  148998  148995       8
  149001  148995       8  149001  148998       9  149007  149004       8  149010
  149004       8  149010  149007       9  149016  149013       8  149019  149013
       8  149019  149016       9  149025  149022       8  149028  149022       8
  149028  149025       9  149034  149031       8  149037  149031       8  149037
  149034       9  149043  149040       8  149046  149040       8  149046  149043
       9  149052  149049       8  149055  149049       8  149055  149052       9
  149061  149058       8  149064  149058       8  149064  149061       9  149070
  149067       8  149073  149067       8  149073  149070       9  149079  149076
       8  149082  149076       8  149082  149079       9  149088  149085       8
  149091  149085       8  149091  149088       9  149097  149094       8  149100
  149094       8  149100  149097       9  149106  149103       8  149109  149103
       8  149109  149106       9  149115  149112       8  149118  149112       8
  149118  149115       9  149124  149121       8  149127  149121       8  149127
  149124       9  149133  149130       8  149136  149130       8  149136  149133
       9  149142  149139       8  149145  149139       8  149145  149142       9
  149151  149148       8  149154  149148       8  149154  149151       9  149160
  149157       8  149163  149157       8  149163  149160       9  149169  149166
       8  149172  149166       8  149172  149169       9  149178  149175       8
  149181  149175       8  149181  149178       9  149187  149184       8  149190
  149184       8  149190  149187       9  149196  149193       8  149199  149193
       8  149199  149196       9  149205  149202       8  149208  149202       8
  149208  149205       9  149214  149211       8  149217  149211       8  149217
  149214       9  149223  149220       8  149226  149220       8  149226  149223
       9  149232  149229       8  149235  149229       8  149235  149232       9
  149241  149238       8  149244  149238       8  149244  149241       9  149250
  149247       8  149253  149247       8  149253  149250       9  149259  149256
       8  149262  149256       8  149262  149259       9  149268  149265       8
  149271  149265       8  149271  149268       9  149277  149274       8  149280
  149274       8  149280  149277       9  149286  149283       8  149289  149283
       8  149289  149286       9  149295  149292       8  149298  149292       8
  149298  149295       9  149304  149301       8  149307  149301       8  149307
  149304       9  149313  149310       8  149316  149310       8  149316  149313
       9  149322  149319       8  149325  149319       8  149325  149322       9
  149331  149328       8  149334  149328       8  149334  149331       9  149340
  149337       8  149343  149337       8  149343  149340       9  149349  149346
       8  149352  149346       8  149352  149349       9  149358  149355       8
  149361  149355       8  149361  149358       9  149367  149364       8  149370
  149364       8  149370  149367       9  149376  149373       8  149379  149373
       8  149379  149376       9  149385  149382       8  149388  149382       8
  149388  149385       9  149394  149391       8  149397  149391       8  149397
  149394       9  149403  149400       8  149406  149400       8  149406  149403
       9  149412  149409       8  149415  149409       8  149415  149412       9
  149421  149418       8  149424  149418       8  149424  149421       9  149430
  149427       8  149433  149427       8  149433  149430       9  149439  149436
       8  149442  149436       8  149442  149439       9  149448  149445       8
  149451  149445       8  149451  149448       9  149457  149454       8  149460
  149454       8  149460  149457       9  149466  149463       8  149469  149463
       8  149469  149466       9  149475  149472       8  149478  149472       8
  149478  149475       9  149484  149481       8  149487  149481       8  149487
  149484       9  149493  149490       8  149496  149490       8  149496  149493
       9  149502  149499       8  149505  149499       8  149505  149502       9
  149511  149508       8  149514  149508       8  149514  149511       9  149520
  149517       8  149523  149517       8  149523  149520       9  149529  149526
       8  149532  149526       8  149532  149529       9  149538  149535       8
  149541  149535       8  149541  149538       9  149547  149544       8  149550
  149544       8  149550  149547       9  149556  149553       8  149559  149553
       8  149559  149556       9  149565  149562       8  149568  149562       8
  149568  149565       9  149574  149571       8  149577  149571       8  149577
  149574       9  149583  149580       8  149586  149580       8  149586  149583
       9  149592  149589       8  149595  149589       8  149595  149592       9
  149601  149598       8  149604  149598       8  149604  149601       9  149610
  149607       8  149613  149607       8  149613  149610       9  149619  149616
       8  149622  149616       8  149622  149619       9  149628  149625       8
  149631  149625       8  149631  149628       9  149637  149634       8  149640
  149634       8  149640  149637       9  149646  149643       8  149649  149643
       8  149649  149646       9  149655  149652       8  149658  149652       8
  149658  149655       9  149664  149661       8  149667  149661       8  149667
  149664       9  149673  149670       8  149676  149670       8  149676  149673
       9  149682  149679       8  149685  149679       8  149685  149682       9
  149691  149688       8  149694  149688       8  149694  149691       9  149700
  149697       8  149703  149697       8  149703  149700       9  149709  149706
       8  149712  149706       8  149712  149709       9  149718  149715       8
  149721  149715       8  149721  149718       9  149727  149724       8  149730
  149724       8  149730  149727       9  149736  149733       8  149739  149733
       8  149739  149736       9  149745  149742       8  149748  149742       8
  149748  149745       9  149754  149751       8  149757  149751       8  149757
  149754       9  149763  149760       8  149766  149760       8  149766  149763
       9  149772  149769       8  149775  149769       8  149775  149772       9
  149781  149778       8  149784  149778       8  149784  149781       9  149790
  149787       8  149793  149787       8  149793  149790       9  149799  149796
       8  149802  149796       8  149802  149799       9  149808  149805       8
  149811  149805       8  149811  149808       9  149817  149814       8  149820
  149814       8  149820  149817       9  149826  149823       8  149829  149823
       8  149829  149826       9  149835  149832       8  149838  149832       8
  149838  149835       9  149844  149841       8  149847  149841       8  149847
  149844       9  149853  149850       8  149856  149850       8  149856  149853
       9  149862  149859       8  149865  149859       8  149865  149862       9
  149871  149868       8  149874  149868       8  149874  149871       9  149880
  149877       8  149883  149877       8  149883  149880       9  149889  149886
       8  149892  149886       8  149892  149889       9  149898  149895       8
  149901  149895       8  149901  149898       9  149907  149904       8  149910
  149904       8  149910  149907       9  149916  149913       8  149919  149913
       8  149919  149916       9  149925  149922       8  149928  149922       8
  149928  149925       9  149934  149931       8  149937  149931       8  149937
  149934       9  149943  149940       8  149946  149940       8  149946  149943
       9  149952  149949       8  149955  149949       8  149955  149952       9
  149961  149958       8  149964  149958       8  149964  149961       9  149970
  149967       8  149973  149967       8  149973  149970       9  149979  149976
       8  149982  149976       8  149982  149979       9  149988  149985       8
  149991  149985       8  149991  149988       9  149997  149994       8  150000
  149994       8  150000  149997       9  150006  150003       8  150009  150003
       8  150009  150006       9  150015  150012       8  150018  150012       8
  150018  150015       9  150024  150021       8  150027  150021       8  150027
  150024       9  150033  150030       8  150036  150030       8  150036  150033
       9  150042  150039       8  150045  150039       8  150045  150042       9
  150051  150048       8  150054  150048       8  150054  150051       9  150060
  150057       8  150063  150057       8  150063  150060       9  150069  150066
       8  150072  150066       8  150072  150069       9  150078  150075       8
  150081  150075       8  150081  150078       9  150087  150084       8  150090
  150084       8  150090  150087       9  150096  150093       8  150099  150093
       8  150099  150096       9  150105  150102       8  150108  150102       8
  150108  150105       9  150114  150111       8  150117  150111       8  150117
  150114       9  150123  150120       8  150126  150120       8  150126  150123
       9  150132  150129       8  150135  150129       8  150135  150132       9
  150141  150138       8  150144  150138       8  150144  150141       9  150150
  150147       8  150153  150147       8  150153  150150       9  150159  150156
       8  150162  150156       8  150162  150159       9  150168  150165       8
  150171  150165       8  150171  150168       9  150177  150174       8  150180
  150174       8  150180  150177       9  150186  150183       8  150189  150183
       8  150189  150186       9  150195  150192       8  150198  150192       8
  150198  150195       9  150204  150201       8  150207  150201       8  150207
  150204       9  150213  150210       8  150216  150210       8  150216  150213
       9  150222  150219       8  150225  150219       8  150225  150222       9
  150231  150228       8  150234  150228       8  150234  150231       9  150240
  150237       8  150243  150237       8  150243  150240       9  150249  150246
       8  150252  150246       8  150252  150249       9  150258  150255       8
  150261  150255       8  150261  150258       9  150267  150264       8  150270
  150264       8  150270  150267       9  150276  150273       8  150279  150273
       8  150279  150276       9  150285  150282       8  150288  150282       8
  150288  150285       9  150294  150291       8  150297  150291       8  150297
  150294       9  150303  150300       8  150306  150300       8  150306  150303
       9  150312  150309       8  150315  150309       8  150315  150312       9
  150321  150318       8  150324  150318       8  150324  150321       9  150330
  150327       8  150333  150327       8  150333  150330       9  150339  150336
       8  150342  150336       8  150342  150339       9  150348  150345       8
  150351  150345       8  150351  150348       9  150357  150354       8  150360
  150354       8  150360  150357       9  150366  150363       8  150369  150363
       8  150369  150366       9  150375  150372       8  150378  150372       8
  150378  150375       9  150384  150381       8  150387  150381       8  150387
  150384       9  150393  150390       8  150396  150390       8  150396  150393
       9  150402  150399       8  150405  150399       8  150405  150402       9
  150411  150408       8  150414  150408       8  150414  150411       9  150420
  150417       8  150423  150417       8  150423  150420       9  150429  150426
       8  150432  150426       8  150432  150429       9  150438  150435       8
  150441  150435       8  150441  150438       9  150447  150444       8  150450
  150444       8  150450  150447       9  150456  150453       8  150459  150453
       8  150459  150456       9  150465  150462       8  150468  150462       8
  150468  150465       9  150474  150471       8  150477  150471       8  150477
  150474       9  150483  150480       8  150486  150480       8  150486  150483
       9  150492  150489       8  150495  150489       8  150495  150492       9
  150501  150498       8  150504  150498       8  150504  150501       9  150510
  150507       8  150513  150507       8  150513  150510       9  150519  150516
       8  150522  150516       8  150522  150519       9  150528  150525       8
  150531  150525       8  150531  150528       9  150537  150534       8  150540
  150534       8  150540  150537       9  150546  150543       8  150549  150543
       8  150549  150546       9  150555  150552       8  150558  150552       8
  150558  150555       9  150564  150561       8  150567  150561       8  150567
  150564       9  150573  150570       8  150576  150570       8  150576  150573
       9  150582  150579       8  150585  150579       8  150585  150582       9
  150591  150588       8  150594  150588       8  150594  150591       9  150600
  150597       8  150603  150597       8  150603  150600       9  150609  150606
       8  150612  150606       8  150612  150609       9  150618  150615       8
  150621  150615       8  150621  150618       9  150627  150624       8  150630
  150624       8  150630  150627       9  150636  150633       8  150639  150633
       8  150639  150636       9  150645  150642       8  150648  150642       8
  150648  150645       9  150654  150651       8  150657  150651       8  150657
  150654       9  150663  150660       8  150666  150660       8  150666  150663
       9  150672  150669       8  150675  150669       8  150675  150672       9
  150681  150678       8  150684  150678       8  150684  150681       9  150690
  150687       8  150693  150687       8  150693  150690       9  150699  150696
       8  150702  150696       8  150702  150699       9  150708  150705       8
  150711  150705       8  150711  150708       9  150717  150714       8  150720
  150714       8  150720  150717       9  150726  150723       8  150729  150723
       8  150729  150726       9  150735  150732       8  150738  150732       8
  150738  150735       9  150744  150741       8  150747  150741       8  150747
  150744       9  150753  150750       8  150756  150750       8  150756  150753
       9  150762  150759       8  150765  150759       8  150765  150762       9
  150771  150768       8  150774  150768       8  150774  150771       9  150780
  150777       8  150783  150777       8  150783  150780       9  150789  150786
       8  150792  150786       8  150792  150789       9  150798  150795       8
  150801  150795       8  150801  150798       9  150807  150804       8  150810
  150804       8  150810  150807       9  150816  150813       8  150819  150813
       8  150819  150816       9  150825  150822       8  150828  150822       8
  150828  150825       9  150834  150831       8  150837  150831       8  150837
  150834       9  150843  150840       8  150846  150840       8  150846  150843
       9  150852  150849       8  150855  150849       8  150855  150852       9
  150861  150858       8  150864  150858       8  150864  150861       9  150870
  150867       8  150873  150867       8  150873  150870       9  150879  150876
       8  150882  150876       8  150882  150879       9  150888  150885       8
  150891  150885       8  150891  150888       9  150897  150894       8  150900
  150894       8  150900  150897       9  150906  150903       8  150909  150903
       8  150909  150906       9  150915  150912       8  150918  150912       8
  150918  150915       9  150924  150921       8  150927  150921       8  150927
  150924       9  150933  150930       8  150936  150930       8  150936  150933
       9  150942  150939       8  150945  150939       8  150945  150942       9
  150951  150948       8  150954  150948       8  150954  150951       9  150960
  150957       8  150963  150957       8  150963  150960       9  150969  150966
       8  150972  150966       8  150972  150969       9  150978  150975       8
  150981  150975       8  150981  150978       9  150987  150984       8  150990
  150984       8  150990  150987       9  150996  150993       8  150999  150993
       8  150999  150996       9  151005  151002       8  151008  151002       8
  151008  151005       9  151014  151011       8  151017  151011       8  151017
  151014       9  151023  151020       8  151026  151020       8  151026  151023
       9  151032  151029       8  151035  151029       8  151035  151032       9
  151041  151038       8  151044  151038       8  151044  151041       9  151050
  151047       8  151053  151047       8  151053  151050       9  151059  151056
       8  151062  151056       8  151062  151059       9  151068  151065       8
  151071  151065       8  151071  151068       9  151077  151074       8  151080
  151074       8  151080  151077       9  151086  151083       8  151089  151083
       8  151089  151086       9  151095  151092       8  151098  151092       8
  151098  151095       9  151104  151101       8  151107  151101       8  151107
  151104       9  151113  151110       8  151116  151110       8  151116  151113
       9  151122  151119       8  151125  151119       8  151125  151122       9
  151131  151128       8  151134  151128       8  151134  151131       9  151140
  151137       8  151143  151137       8  151143  151140       9  151149  151146
       8  151152  151146       8  151152  151149       9  151158  151155       8
  151161  151155       8  151161  151158       9  151167  151164       8  151170
  151164       8  151170  151167       9  151176  151173       8  151179  151173
       8  151179  151176       9  151185  151182       8  151188  151182       8
  151188  151185       9  151194  151191       8  151197  151191       8  151197
  151194       9  151203  151200       8  151206  151200       8  151206  151203
       9  151212  151209       8  151215  151209       8  151215  151212       9
  151221  151218       8  151224  151218       8  151224  151221       9  151230
  151227       8  151233  151227       8  151233  151230       9  151239  151236
       8  151242  151236       8  151242  151239       9  151248  151245       8
  151251  151245       8  151251  151248       9  151257  151254       8  151260
  151254       8  151260  151257       9  151266  151263       8  151269  151263
       8  151269  151266       9  151275  151272       8  151278  151272       8
  151278  151275       9  151284  151281       8  151287  151281       8  151287
  151284       9  151293  151290       8  151296  151290       8  151296  151293
       9  151302  151299       8  151305  151299       8  151305  151302       9
  151311  151308       8  151314  151308       8  151314  151311       9  151320
  151317       8  151323  151317       8  151323  151320       9  151329  151326
       8  151332  151326       8  151332  151329       9  151338  151335       8
  151341  151335       8  151341  151338       9  151347  151344       8  151350
  151344       8  151350  151347       9  151356  151353       8  151359  151353
       8  151359  151356       9  151365  151362       8  151368  151362       8
  151368  151365       9  151374  151371       8  151377  151371       8  151377
  151374       9  151383  151380       8  151386  151380       8  151386  151383
       9  151392  151389       8  151395  151389       8  151395  151392       9
  151401  151398       8  151404  151398       8  151404  151401       9  151410
  151407       8  151413  151407       8  151413  151410       9  151419  151416
       8  151422  151416       8  151422  151419       9  151428  151425       8
  151431  151425       8  151431  151428       9  151437  151434       8  151440
  151434       8  151440  151437       9  151446  151443       8  151449  151443
       8  151449  151446       9  151455  151452       8  151458  151452       8
  151458  151455       9  151464  151461       8  151467  151461       8  151467
  151464       9  151473  151470       8  151476  151470       8  151476  151473
       9  151482  151479       8  151485  151479       8  151485  151482       9
  151491  151488       8  151494  151488       8  151494  151491       9  151500
  151497       8  151503  151497       8  151503  151500       9  151509  151506
       8  151512  151506       8  151512  151509       9  151518  151515       8
  151521  151515       8  151521  151518       9  151527  151524       8  151530
  151524       8  151530  151527       9  151536  151533       8  151539  151533
       8  151539  151536       9  151545  151542       8  151548  151542       8
  151548  151545       9  151554  151551       8  151557  151551       8  151557
  151554       9  151563  151560       8  151566  151560       8  151566  151563
       9  151572  151569       8  151575  151569       8  151575  151572       9
  151581  151578       8  151584  151578       8  151584  151581       9  151590
  151587       8  151593  151587       8  151593  151590       9  151599  151596
       8  151602  151596       8  151602  151599       9  151608  151605       8
  151611  151605       8  151611  151608       9  151617  151614       8  151620
  151614       8  151620  151617       9  151626  151623       8  151629  151623
       8  151629  151626       9  151635  151632       8  151638  151632       8
  151638  151635       9  151644  151641       8  151647  151641       8  151647
  151644       9  151653  151650       8  151656  151650       8  151656  151653
       9  151662  151659       8  151665  151659       8  151665  151662       9
  151671  151668       8  151674  151668       8  151674  151671       9  151680
  151677       8  151683  151677       8  151683  151680       9  151689  151686
       8  151692  151686       8  151692  151689       9  151698  151695       8
  151701  151695       8  151701  151698       9  151707  151704       8  151710
  151704       8  151710  151707       9  151716  151713       8  151719  151713
       8  151719  151716       9  151725  151722       8  151728  151722       8
  151728  151725       9  151734  151731       8  151737  151731       8  151737
  151734       9  151743  151740       8  151746  151740       8  151746  151743
       9  151752  151749       8  151755  151749       8  151755  151752       9
  151761  151758       8  151764  151758       8  151764  151761       9  151770
  151767       8  151773  151767       8  151773  151770       9  151779  151776
       8  151782  151776       8  151782  151779       9  151788  151785       8
  151791  151785       8  151791  151788       9  151797  151794       8  151800
  151794       8  151800  151797       9  151806  151803       8  151809  151803
       8  151809  151806       9  151815  151812       8  151818  151812       8
  151818  151815       9  151824  151821       8  151827  151821       8  151827
  151824       9  151833  151830       8  151836  151830       8  151836  151833
       9  151842  151839       8  151845  151839       8  151845  151842       9
  151851  151848       8  151854  151848       8  151854  151851       9  151860
  151857       8  151863  151857       8  151863  151860       9  151869  151866
       8  151872  151866       8  151872  151869       9  151878  151875       8
  151881  151875       8  151881  151878       9  151887  151884       8  151890
  151884       8  151890  151887       9  151896  151893       8  151899  151893
       8  151899  151896       9  151905  151902       8  151908  151902       8
  151908  151905       9  151914  151911       8  151917  151911       8  151917
  151914       9  151923  151920       8  151926  151920       8  151926  151923
       9  151932  151929       8  151935  151929       8  151935  151932       9
  151941  151938       8  151944  151938       8  151944  151941       9  151950
  151947       8  151953  151947       8  151953  151950       9  151959  151956
       8  151962  151956       8  151962  151959       9  151968  151965       8
  151971  151965       8  151971  151968       9  151977  151974       8  151980
  151974       8  151980  151977       9  151986  151983       8  151989  151983
       8  151989  151986       9  151995  151992       8  151998  151992       8
  151998  151995       9  152004  152001       8  152007  152001       8  152007
  152004       9  152013  152010       8  152016  152010       8  152016  152013
       9  152022  152019       8  152025  152019       8  152025  152022       9
  152031  152028       8  152034  152028       8  152034  152031       9  152040
  152037       8  152043  152037       8  152043  152040       9  152049  152046
       8  152052  152046       8  152052  152049       9  152058  152055       8
  152061  152055       8  152061  152058       9  152067  152064       8  152070
  152064       8  152070  152067       9  152076  152073       8  152079  152073
       8  152079  152076       9  152085  152082       8  152088  152082       8
  152088  152085       9  152094  152091       8  152097  152091       8  152097
  152094       9  152103  152100       8  152106  152100       8  152106  152103
       9  152112  152109       8  152115  152109       8  152115  152112       9
  152121  152118       8  152124  152118       8  152124  152121       9  152130
  152127       8  152133  152127       8  152133  152130       9  152139  152136
       8  152142  152136       8  152142  152139       9  152148  152145       8
  152151  152145       8  152151  152148       9  152157  152154       8  152160
  152154       8  152160  152157       9  152166  152163       8  152169  152163
       8  152169  152166       9  152175  152172       8  152178  152172       8
  152178  152175       9  152184  152181       8  152187  152181       8  152187
  152184       9  152193  152190       8  152196  152190       8  152196  152193
       9  152202  152199       8  152205  152199       8  152205  152202       9
  152211  152208       8  152214  152208       8  152214  152211       9  152220
  152217       8  152223  152217       8  152223  152220       9  152229  152226
       8  152232  152226       8  152232  152229       9  152238  152235       8
  152241  152235       8  152241  152238       9  152247  152244       8  152250
  152244       8  152250  152247       9  152256  152253       8  152259  152253
       8  152259  152256       9  152265  152262       8  152268  152262       8
  152268  152265       9  152274  152271       8  152277  152271       8  152277
  152274       9  152283  152280       8  152286  152280       8  152286  152283
       9  152292  152289       8  152295  152289       8  152295  152292       9
  152301  152298       8  152304  152298       8  152304  152301       9  152310
  152307       8  152313  152307       8  152313  152310       9  152319  152316
       8  152322  152316       8  152322  152319       9  152328  152325       8
  152331  152325       8  152331  152328       9  152337  152334       8  152340
  152334       8  152340  152337       9  152346  152343       8  152349  152343
       8  152349  152346       9  152355  152352       8  152358  152352       8
  152358  152355       9  152364  152361       8  152367  152361       8  152367
  152364       9  152373  152370       8  152376  152370       8  152376  152373
       9  152382  152379       8  152385  152379       8  152385  152382       9
  152391  152388       8  152394  152388       8  152394  152391       9  152400
  152397       8  152403  152397       8  152403  152400       9  152409  152406
       8  152412  152406       8  152412  152409       9  152418  152415       8
  152421  152415       8  152421  152418       9  152427  152424       8  152430
  152424       8  152430  152427       9  152436  152433       8  152439  152433
       8  152439  152436       9  152445  152442       8  152448  152442       8
  152448  152445       9  152454  152451       8  152457  152451       8  152457
  152454       9  152463  152460       8  152466  152460       8  152466  152463
       9  152472  152469       8  152475  152469       8  152475  152472       9
  152481  152478       8  152484  152478       8  152484  152481       9  152490
  152487       8  152493  152487       8  152493  152490       9  152499  152496
       8  152502  152496       8  152502  152499       9  152508  152505       8
  152511  152505       8  152511  152508       9  152517  152514       8  152520
  152514       8  152520  152517       9  152526  152523       8  152529  152523
       8  152529  152526       9  152535  152532       8  152538  152532       8
  152538  152535       9  152544  152541       8  152547  152541       8  152547
  152544       9  152553  152550       8  152556  152550       8  152556  152553
       9  152562  152559       8  152565  152559       8  152565  152562       9
  152571  152568       8  152574  152568       8  152574  152571       9  152580
  152577       8  152583  152577       8  152583  152580       9  152589  152586
       8  152592  152586       8  152592  152589       9  152598  152595       8
  152601  152595       8  152601  152598       9  152607  152604       8  152610
  152604       8  152610  152607       9  152616  152613       8  152619  152613
       8  152619  152616       9  152625  152622       8  152628  152622       8
  152628  152625       9  152634  152631       8  152637  152631       8  152637
  152634       9  152643  152640       8  152646  152640       8  152646  152643
       9  152652  152649       8  152655  152649       8  152655  152652       9
  152661  152658       8  152664  152658       8  152664  152661       9  152670
  152667       8  152673  152667       8  152673  152670       9  152679  152676
       8  152682  152676       8  152682  152679       9  152688  152685       8
  152691  152685       8  152691  152688       9  152697  152694       8  152700
  152694       8  152700  152697       9  152706  152703       8  152709  152703
       8  152709  152706       9  152715  152712       8  152718  152712       8
  152718  152715       9  152724  152721       8  152727  152721       8  152727
  152724       9  152733  152730       8  152736  152730       8  152736  152733
       9  152742  152739       8  152745  152739       8  152745  152742       9
  152751  152748       8  152754  152748       8  152754  152751       9  152760
  152757       8  152763  152757       8  152763  152760       9  152769  152766
       8  152772  152766       8  152772  152769       9  152778  152775       8
  152781  152775       8  152781  152778       9  152787  152784       8  152790
  152784       8  152790  152787       9  152796  152793       8  152799  152793
       8  152799  152796       9  152805  152802       8  152808  152802       8
  152808  152805       9  152814  152811       8  152817  152811       8  152817
  152814       9  152823  152820       8  152826  152820       8  152826  152823
       9  152832  152829       8  152835  152829       8  152835  152832       9
  152841  152838       8  152844  152838       8  152844  152841       9  152850
  152847       8  152853  152847       8  152853  152850       9  152859  152856
       8  152862  152856       8  152862  152859       9  152868  152865       8
  152871  152865       8  152871  152868       9  152877  152874       8  152880
  152874       8  152880  152877       9  152886  152883       8  152889  152883
       8  152889  152886       9  152895  152892       8  152898  152892       8
  152898  152895       9  152904  152901       8  152907  152901       8  152907
  152904       9  152913  152910       8  152916  152910       8  152916  152913
       9  152922  152919       8  152925  152919       8  152925  152922       9
  152931  152928       8  152934  152928       8  152934  152931       9  152940
  152937       8  152943  152937       8  152943  152940       9  152949  152946
       8  152952  152946       8  152952  152949       9  152958  152955       8
  152961  152955       8  152961  152958       9  152967  152964       8  152970
  152964       8  152970  152967       9  152976  152973       8  152979  152973
       8  152979  152976       9  152985  152982       8  152988  152982       8
  152988  152985       9  152994  152991       8  152997  152991       8  152997
  152994       9  153003  153000       8  153006  153000       8  153006  153003
       9  153012  153009       8  153015  153009       8  153015  153012       9
  153021  153018       8  153024  153018       8  153024  153021       9  153030
  153027       8  153033  153027       8  153033  153030       9  153039  153036
       8  153042  153036       8  153042  153039       9  153048  153045       8
  153051  153045       8  153051  153048       9  153057  153054       8  153060
  153054       8  153060  153057       9  153066  153063       8  153069  153063
       8  153069  153066       9  153075  153072       8  153078  153072       8
  153078  153075       9  153084  153081       8  153087  153081       8  153087
  153084       9  153093  153090       8  153096  153090       8  153096  153093
       9  153102  153099       8  153105  153099       8  153105  153102       9
  153111  153108       8  153114  153108       8  153114  153111       9  153120
  153117       8  153123  153117       8  153123  153120       9  153129  153126
       8  153132  153126       8  153132  153129       9  153138  153135       8
  153141  153135       8  153141  153138       9  153147  153144       8  153150
  153144       8  153150  153147       9  153156  153153       8  153159  153153
       8  153159  153156       9  153165  153162       8  153168  153162       8
  153168  153165       9  153174  153171       8  153177  153171       8  153177
  153174       9  153183  153180       8  153186  153180       8  153186  153183
       9  153192  153189       8  153195  153189       8  153195  153192       9
  153201  153198       8  153204  153198       8  153204  153201       9  153210
  153207       8  153213  153207       8  153213  153210       9  153219  153216
       8  153222  153216       8  153222  153219       9  153228  153225       8
  153231  153225       8  153231  153228       9  153237  153234       8  153240
  153234       8  153240  153237       9  153246  153243       8  153249  153243
       8  153249  153246       9  153255  153252       8  153258  153252       8
  153258  153255       9  153264  153261       8  153267  153261       8  153267
  153264       9  153273  153270       8  153276  153270       8  153276  153273
       9  153282  153279       8  153285  153279       8  153285  153282       9
  153291  153288       8  153294  153288       8  153294  153291       9  153300
  153297       8  153303  153297       8  153303  153300       9  153309  153306
       8  153312  153306       8  153312  153309       9  153318  153315       8
  153321  153315       8  153321  153318       9  153327  153324       8  153330
  153324       8  153330  153327       9  153336  153333       8  153339  153333
       8  153339  153336       9  153345  153342       8  153348  153342       8
  153348  153345       9  153354  153351       8  153357  153351       8  153357
  153354       9  153363  153360       8  153366  153360       8  153366  153363
       9  153372  153369       8  153375  153369       8  153375  153372       9
  153381  153378       8  153384  153378       8  153384  153381       9  153390
  153387       8  153393  153387       8  153393  153390       9  153399  153396
       8  153402  153396       8  153402  153399       9  153408  153405       8
  153411  153405       8  153411  153408       9  153417  153414       8  153420
  153414       8  153420  153417       9  153426  153423       8  153429  153423
       8  153429  153426       9  153435  153432       8  153438  153432       8
  153438  153435       9  153444  153441       8  153447  153441       8  153447
  153444       9  153453  153450       8  153456  153450       8  153456  153453
       9  153462  153459       8  153465  153459       8  153465  153462       9
  153471  153468       8  153474  153468       8  153474  153471       9  153480
  153477       8  153483  153477       8  153483  153480       9  153489  153486
       8  153492  153486       8  153492  153489       9  153498  153495       8
  153501  153495       8  153501  153498       9  153507  153504       8  153510
  153504       8  153510  153507       9  153516  153513       8  153519  153513
       8  153519  153516       9  153525  153522       8  153528  153522       8
  153528  153525       9  153534  153531       8  153537  153531       8  153537
  153534       9  153543  153540       8  153546  153540       8  153546  153543
       9  153552  153549       8  153555  153549       8  153555  153552       9
  153561  153558       8  153564  153558       8  153564  153561       9  153570
  153567       8  153573  153567       8  153573  153570       9  153579  153576
       8  153582  153576       8  153582  153579       9  153588  153585       8
  153591  153585       8  153591  153588       9  153597  153594       8  153600
  153594       8  153600  153597       9  153606  153603       8  153609  153603
       8  153609  153606       9  153615  153612       8  153618  153612       8
  153618  153615       9  153624  153621       8  153627  153621       8  153627
  153624       9  153633  153630       8  153636  153630       8  153636  153633
       9  153642  153639       8  153645  153639       8  153645  153642       9
  153651  153648       8  153654  153648       8  153654  153651       9  153660
  153657       8  153663  153657       8  153663  153660       9  153669  153666
       8  153672  153666       8  153672  153669       9  153678  153675       8
  153681  153675       8  153681  153678       9  153687  153684       8  153690
  153684       8  153690  153687       9  153696  153693       8  153699  153693
       8  153699  153696       9  153705  153702       8  153708  153702       8
  153708  153705       9  153714  153711       8  153717  153711       8  153717
  153714       9  153723  153720       8  153726  153720       8  153726  153723
       9  153732  153729       8  153735  153729       8  153735  153732       9
  153741  153738       8  153744  153738       8  153744  153741       9  153750
  153747       8  153753  153747       8  153753  153750       9  153759  153756
       8  153762  153756       8  153762  153759       9  153768  153765       8
  153771  153765       8  153771  153768       9  153777  153774       8  153780
  153774       8  153780  153777       9  153786  153783       8  153789  153783
       8  153789  153786       9  153795  153792       8  153798  153792       8
  153798  153795       9  153804  153801       8  153807  153801       8  153807
  153804       9  153813  153810       8  153816  153810       8  153816  153813
       9  153822  153819       8  153825  153819       8  153825  153822       9
  153831  153828       8  153834  153828       8  153834  153831       9  153840
  153837       8  153843  153837       8  153843  153840       9  153849  153846
       8  153852  153846       8  153852  153849       9  153858  153855       8
  153861  153855       8  153861  153858       9  153867  153864       8  153870
  153864       8  153870  153867       9  153876  153873       8  153879  153873
       8  153879  153876       9  153885  153882       8  153888  153882       8
  153888  153885       9  153894  153891       8  153897  153891       8  153897
  153894       9  153903  153900       8  153906  153900       8  153906  153903
       9  153912  153909       8  153915  153909       8  153915  153912       9
  153921  153918       8  153924  153918       8  153924  153921       9  153930
  153927       8  153933  153927       8  153933  153930       9  153939  153936
       8  153942  153936       8  153942  153939       9  153948  153945       8
  153951  153945       8  153951  153948       9  153957  153954       8  153960
  153954       8  153960  153957       9  153966  153963       8  153969  153963
       8  153969  153966       9  153975  153972       8  153978  153972       8
  153978  153975       9  153984  153981       8  153987  153981       8  153987
  153984       9  153993  153990       8  153996  153990       8  153996  153993
       9  154002  153999       8  154005  153999       8  154005  154002       9
  154011  154008       8  154014  154008       8  154014  154011       9  154020
  154017       8  154023  154017       8  154023  154020       9  154029  154026
       8  154032  154026       8  154032  154029       9  154038  154035       8
  154041  154035       8  154041  154038       9  154047  154044       8  154050
  154044       8  154050  154047       9  154056  154053       8  154059  154053
       8  154059  154056       9  154065  154062       8  154068  154062       8
  154068  154065       9  154074  154071       8  154077  154071       8  154077
  154074       9  154083  154080       8  154086  154080       8  154086  154083
       9  154092  154089       8  154095  154089       8  154095  154092       9
  154101  154098       8  154104  154098       8  154104  154101       9  154110
  154107       8  154113  154107       8  154113  154110       9  154119  154116
       8  154122  154116       8  154122  154119       9  154128  154125       8
  154131  154125       8  154131  154128       9  154137  154134       8  154140
  154134       8  154140  154137       9  154146  154143       8  154149  154143
       8  154149  154146       9  154155  154152       8  154158  154152       8
  154158  154155       9  154164  154161       8  154167  154161       8  154167
  154164       9  154173  154170       8  154176  154170       8  154176  154173
       9  154182  154179       8  154185  154179       8  154185  154182       9
  154191  154188       8  154194  154188       8  154194  154191       9  154200
  154197       8  154203  154197       8  154203  154200       9  154209  154206
       8  154212  154206       8  154212  154209       9  154218  154215       8
  154221  154215       8  154221  154218       9  154227  154224       8  154230
  154224       8  154230  154227       9  154236  154233       8  154239  154233
       8  154239  154236       9  154245  154242       8  154248  154242       8
  154248  154245       9  154254  154251       8  154257  154251       8  154257
  154254       9  154263  154260       8  154266  154260       8  154266  154263
       9  154272  154269       8  154275  154269       8  154275  154272       9
  154281  154278       8  154284  154278       8  154284  154281       9  154290
  154287       8  154293  154287       8  154293  154290       9  154299  154296
       8  154302  154296       8  154302  154299       9  154308  154305       8
  154311  154305       8  154311  154308       9  154317  154314       8  154320
  154314       8  154320  154317       9  154326  154323       8  154329  154323
       8  154329  154326       9  154335  154332       8  154338  154332       8
  154338  154335       9  154344  154341       8  154347  154341       8  154347
  154344       9  154353  154350       8  154356  154350       8  154356  154353
       9  154362  154359       8  154365  154359       8  154365  154362       9
  154371  154368       8  154374  154368       8  154374  154371       9  154380
  154377       8  154383  154377       8  154383  154380       9  154389  154386
       8  154392  154386       8  154392  154389       9  154398  154395       8
  154401  154395       8  154401  154398       9  154407  154404       8  154410
  154404       8  154410  154407       9  154416  154413       8  154419  154413
       8  154419  154416       9  154425  154422       8  154428  154422       8
  154428  154425       9  154434  154431       8  154437  154431       8  154437
  154434       9  154443  154440       8  154446  154440       8  154446  154443
       9  154452  154449       8  154455  154449       8  154455  154452       9
  154461  154458       8  154464  154458       8  154464  154461       9  154470
  154467       8  154473  154467       8  154473  154470       9  154479  154476
       8  154482  154476       8  154482  154479       9  154488  154485       8
  154491  154485       8  154491  154488       9  154497  154494       8  154500
  154494       8  154500  154497       9  154506  154503       8  154509  154503
       8  154509  154506       9  154515  154512       8  154518  154512       8
  154518  154515       9  154524  154521       8  154527  154521       8  154527
  154524       9  154533  154530       8  154536  154530       8  154536  154533
       9  154542  154539       8  154545  154539       8  154545  154542       9
  154551  154548       8  154554  154548       8  154554  154551       9  154560
  154557       8  154563  154557       8  154563  154560       9  154569  154566
       8  154572  154566       8  154572  154569       9  154578  154575       8
  154581  154575       8  154581  154578       9  154587  154584       8  154590
  154584       8  154590  154587       9  154596  154593       8  154599  154593
       8  154599  154596       9  154605  154602       8  154608  154602       8
  154608  154605       9  154614  154611       8  154617  154611       8  154617
  154614       9  154623  154620       8  154626  154620       8  154626  154623
       9  154632  154629       8  154635  154629       8  154635  154632       9
  154641  154638       8  154644  154638       8  154644  154641       9  154650
  154647       8  154653  154647       8  154653  154650       9  154659  154656
       8  154662  154656       8  154662  154659       9  154668  154665       8
  154671  154665       8  154671  154668       9  154677  154674       8  154680
  154674       8  154680  154677       9  154686  154683       8  154689  154683
       8  154689  154686       9  154695  154692       8  154698  154692       8
  154698  154695       9  154704  154701       8  154707  154701       8  154707
  154704       9  154713  154710       8  154716  154710       8  154716  154713
       9  154722  154719       8  154725  154719       8  154725  154722       9
  154731  154728       8  154734  154728       8  154734  154731       9  154740
  154737       8  154743  154737       8  154743  154740       9  154749  154746
       8  154752  154746       8  154752  154749       9  154758  154755       8
  154761  154755       8  154761  154758       9  154767  154764       8  154770
  154764       8  154770  154767       9  154776  154773       8  154779  154773
       8  154779  154776       9  154785  154782       8  154788  154782       8
  154788  154785       9  154794  154791       8  154797  154791       8  154797
  154794       9  154803  154800       8  154806  154800       8  154806  154803
       9  154812  154809       8  154815  154809       8  154815  154812       9
  154821  154818       8  154824  154818       8  154824  154821       9  154830
  154827       8  154833  154827       8  154833  154830       9  154839  154836
       8  154842  154836       8  154842  154839       9  154848  154845       8
  154851  154845       8  154851  154848       9  154857  154854       8  154860
  154854       8  154860  154857       9  154866  154863       8  154869  154863
       8  154869  154866       9  154875  154872       8  154878  154872       8
  154878  154875       9  154884  154881       8  154887  154881       8  154887
  154884       9  154893  154890       8  154896  154890       8  154896  154893
       9  154902  154899       8  154905  154899       8  154905  154902       9
  154911  154908       8  154914  154908       8  154914  154911       9  154920
  154917       8  154923  154917       8  154923  154920       9  154929  154926
       8  154932  154926       8  154932  154929       9  154938  154935       8
  154941  154935       8  154941  154938       9  154947  154944       8  154950
  154944       8  154950  154947       9  154956  154953       8  154959  154953
       8  154959  154956       9  154965  154962       8  154968  154962       8
  154968  154965       9  154974  154971       8  154977  154971       8  154977
  154974       9  154983  154980       8  154986  154980       8  154986  154983
       9  154992  154989       8  154995  154989       8  154995  154992       9
  155001  154998       8  155004  154998       8  155004  155001       9  155010
  155007       8  155013  155007       8  155013  155010       9  155019  155016
       8  155022  155016       8  155022  155019       9  155028  155025       8
  155031  155025       8  155031  155028       9  155037  155034       8  155040
  155034       8  155040  155037       9  155046  155043       8  155049  155043
       8  155049  155046       9  155055  155052       8  155058  155052       8
  155058  155055       9  155064  155061       8  155067  155061       8  155067
  155064       9  155073  155070       8  155076  155070       8  155076  155073
       9  155082  155079       8  155085  155079       8  155085  155082       9
  155091  155088       8  155094  155088       8  155094  155091       9  155100
  155097       8  155103  155097       8  155103  155100       9  155109  155106
       8  155112  155106       8  155112  155109       9  155118  155115       8
  155121  155115       8  155121  155118       9  155127  155124       8  155130
  155124       8  155130  155127       9  155136  155133       8  155139  155133
       8  155139  155136       9  155145  155142       8  155148  155142       8
  155148  155145       9  155154  155151       8  155157  155151       8  155157
  155154       9  155163  155160       8  155166  155160       8  155166  155163
       9  155172  155169       8  155175  155169       8  155175  155172       9
  155181  155178       8  155184  155178       8  155184  155181       9  155190
  155187       8  155193  155187       8  155193  155190       9  155199  155196
       8  155202  155196       8  155202  155199       9  155208  155205       8
  155211  155205       8  155211  155208       9  155217  155214       8  155220
  155214       8  155220  155217       9  155226  155223       8  155229  155223
       8  155229  155226       9  155235  155232       8  155238  155232       8
  155238  155235       9  155244  155241       8  155247  155241       8  155247
  155244       9  155253  155250       8  155256  155250       8  155256  155253
       9  155262  155259       8  155265  155259       8  155265  155262       9
  155271  155268       8  155274  155268       8  155274  155271       9  155280
  155277       8  155283  155277       8  155283  155280       9  155289  155286
       8  155292  155286       8  155292  155289       9  155298  155295       8
  155301  155295       8  155301  155298       9  155307  155304       8  155310
  155304       8  155310  155307       9  155316  155313       8  155319  155313
       8  155319  155316       9  155325  155322       8  155328  155322       8
  155328  155325       9  155334  155331       8  155337  155331       8  155337
  155334       9  155343  155340       8  155346  155340       8  155346  155343
       9  155352  155349       8  155355  155349       8  155355  155352       9
  155361  155358       8  155364  155358       8  155364  155361       9  155370
  155367       8  155373  155367       8  155373  155370       9  155379  155376
       8  155382  155376       8  155382  155379       9  155388  155385       8
  155391  155385       8  155391  155388       9  155397  155394       8  155400
  155394       8  155400  155397       9  155406  155403       8  155409  155403
       8  155409  155406       9  155415  155412       8  155418  155412       8
  155418  155415       9  155424  155421       8  155427  155421       8  155427
  155424       9  155433  155430       8  155436  155430       8  155436  155433
       9  155442  155439       8  155445  155439       8  155445  155442       9
  155451  155448       8  155454  155448       8  155454  155451       9  155460
  155457       8  155463  155457       8  155463  155460       9  155469  155466
       8  155472  155466       8  155472  155469       9  155478  155475       8
  155481  155475       8  155481  155478       9  155487  155484       8  155490
  155484       8  155490  155487       9  155496  155493       8  155499  155493
       8  155499  155496       9  155505  155502       8  155508  155502       8
  155508  155505       9  155514  155511       8  155517  155511       8  155517
  155514       9  155523  155520       8  155526  155520       8  155526  155523
       9  155532  155529       8  155535  155529       8  155535  155532       9
  155541  155538       8  155544  155538       8  155544  155541       9  155550
  155547       8  155553  155547       8  155553  155550       9  155559  155556
       8  155562  155556       8  155562  155559       9  155568  155565       8
  155571  155565       8  155571  155568       9  155577  155574       8  155580
  155574       8  155580  155577       9  155586  155583       8  155589  155583
       8  155589  155586       9  155595  155592       8  155598  155592       8
  155598  155595       9  155604  155601       8  155607  155601       8  155607
  155604       9  155613  155610       8  155616  155610       8  155616  155613
       9  155622  155619       8  155625  155619       8  155625  155622       9
  155631  155628       8  155634  155628       8  155634  155631       9  155640
  155637       8  155643  155637       8  155643  155640       9  155649  155646
       8  155652  155646       8  155652  155649       9  155658  155655       8
  155661  155655       8  155661  155658       9  155667  155664       8  155670
  155664       8  155670  155667       9  155676  155673       8  155679  155673
       8  155679  155676       9  155685  155682       8  155688  155682       8
  155688  155685       9  155694  155691       8  155697  155691       8  155697
  155694       9  155703  155700       8  155706  155700       8  155706  155703
       9  155712  155709       8  155715  155709       8  155715  155712       9
  155721  155718       8  155724  155718       8  155724  155721       9  155730
  155727       8  155733  155727       8  155733  155730       9  155739  155736
       8  155742  155736       8  155742  155739       9  155748  155745       8
  155751  155745       8  155751  155748       9  155757  155754       8  155760
  155754       8  155760  155757       9  155766  155763       8  155769  155763
       8  155769  155766       9  155775  155772       8  155778  155772       8
  155778  155775       9  155784  155781       8  155787  155781       8  155787
  155784       9  155793  155790       8  155796  155790       8  155796  155793
       9  155802  155799       8  155805  155799       8  155805  155802       9
  155811  155808       8  155814  155808       8  155814  155811       9  155820
  155817       8  155823  155817       8  155823  155820       9  155829  155826
       8  155832  155826       8  155832  155829       9  155838  155835       8
  155841  155835       8  155841  155838       9  155847  155844       8  155850
  155844       8  155850  155847       9  155856  155853       8  155859  155853
       8  155859  155856       9  155865  155862       8  155868  155862       8
  155868  155865       9  155874  155871       8  155877  155871       8  155877
  155874       9  155883  155880       8  155886  155880       8  155886  155883
       9  155892  155889       8  155895  155889       8  155895  155892       9
  155901  155898       8  155904  155898       8  155904  155901       9  155910
  155907       8  155913  155907       8  155913  155910       9  155919  155916
       8  155922  155916       8  155922  155919       9  155928  155925       8
  155931  155925       8  155931  155928       9  155937  155934       8  155940
  155934       8  155940  155937       9  155946  155943       8  155949  155943
       8  155949  155946       9  155955  155952       8  155958  155952       8
  155958  155955       9  155964  155961       8  155967  155961       8  155967
  155964       9  155973  155970       8  155976  155970       8  155976  155973
       9  155982  155979       8  155985  155979       8  155985  155982       9
  155991  155988       8  155994  155988       8  155994  155991       9  156000
  155997       8  156003  155997       8  156003  156000       9  156009  156006
       8  156012  156006       8  156012  156009       9  156018  156015       8
  156021  156015       8  156021  156018       9  156027  156024       8  156030
  156024       8  156030  156027       9  156036  156033       8  156039  156033
       8  156039  156036       9  156045  156042       8  156048  156042       8
  156048  156045       9  156054  156051       8  156057  156051       8  156057
  156054       9  156063  156060       8  156066  156060       8  156066  156063
       9  156072  156069       8  156075  156069       8  156075  156072       9
  156081  156078       8  156084  156078       8  156084  156081       9  156090
  156087       8  156093  156087       8  156093  156090       9  156099  156096
       8  156102  156096       8  156102  156099       9  156108  156105       8
  156111  156105       8  156111  156108       9  156117  156114       8  156120
  156114       8  156120  156117       9  156126  156123       8  156129  156123
       8  156129  156126       9  156135  156132       8  156138  156132       8
  156138  156135       9  156144  156141       8  156147  156141       8  156147
  156144       9  156153  156150       8  156156  156150       8  156156  156153
       9  156162  156159       8  156165  156159       8  156165  156162       9
  156171  156168       8  156174  156168       8  156174  156171       9  156180
  156177       8  156183  156177       8  156183  156180       9  156189  156186
       8  156192  156186       8  156192  156189       9  156198  156195       8
  156201  156195       8  156201  156198       9  156207  156204       8  156210
  156204       8  156210  156207       9  156216  156213       8  156219  156213
       8  156219  156216       9  156225  156222       8  156228  156222       8
  156228  156225       9  156234  156231       8  156237  156231       8  156237
  156234       9  156243  156240       8  156246  156240       8  156246  156243
       9  156252  156249       8  156255  156249       8  156255  156252       9
  156261  156258       8  156264  156258       8  156264  156261       9  156270
  156267       8  156273  156267       8  156273  156270       9  156279  156276
       8  156282  156276       8  156282  156279       9  156288  156285       8
  156291  156285       8  156291  156288       9  156297  156294       8  156300
  156294       8  156300  156297       9  156306  156303       8  156309  156303
       8  156309  156306       9  156315  156312       8  156318  156312       8
  156318  156315       9  156324  156321       8  156327  156321       8  156327
  156324       9  156333  156330       8  156336  156330       8  156336  156333
       9  156342  156339       8  156345  156339       8  156345  156342       9
  156351  156348       8  156354  156348       8  156354  156351       9  156360
  156357       8  156363  156357       8  156363  156360       9  156369  156366
       8  156372  156366       8  156372  156369       9  156378  156375       8
  156381  156375       8  156381  156378       9  156387  156384       8  156390
  156384       8  156390  156387       9  156396  156393       8  156399  156393
       8  156399  156396       9  156405  156402       8  156408  156402       8
  156408  156405       9  156414  156411       8  156417  156411       8  156417
  156414       9  156423  156420       8  156426  156420       8  156426  156423
       9  156432  156429       8  156435  156429       8  156435  156432       9
  156441  156438       8  156444  156438       8  156444  156441       9  156450
  156447       8  156453  156447       8  156453  156450       9  156459  156456
       8  156462  156456       8  156462  156459       9  156468  156465       8
  156471  156465       8  156471  156468       9  156477  156474       8  156480
  156474       8  156480  156477       9  156486  156483       8  156489  156483
       8  156489  156486       9  156495  156492       8  156498  156492       8
  156498  156495       9  156504  156501       8  156507  156501       8  156507
  156504       9  156513  156510       8  156516  156510       8  156516  156513
       9  156522  156519       8  156525  156519       8  156525  156522       9
  156531  156528       8  156534  156528       8  156534  156531       9  156540
  156537       8  156543  156537       8  156543  156540       9  156549  156546
       8  156552  156546       8  156552  156549       9  156558  156555       8
  156561  156555       8  156561  156558       9  156567  156564       8  156570
  156564       8  156570  156567       9  156576  156573       8  156579  156573
       8  156579  156576       9  156585  156582       8  156588  156582       8
  156588  156585       9  156594  156591       8  156597  156591       8  156597
  156594       9  156603  156600       8  156606  156600       8  156606  156603
       9  156612  156609       8  156615  156609       8  156615  156612       9
  156621  156618       8  156624  156618       8  156624  156621       9  156630
  156627       8  156633  156627       8  156633  156630       9  156639  156636
       8  156642  156636       8  156642  156639       9  156648  156645       8
  156651  156645       8  156651  156648       9  156657  156654       8  156660
  156654       8  156660  156657       9  156666  156663       8  156669  156663
       8  156669  156666       9  156675  156672       8  156678  156672       8
  156678  156675       9  156684  156681       8  156687  156681       8  156687
  156684       9  156693  156690       8  156696  156690       8  156696  156693
       9  156702  156699       8  156705  156699       8  156705  156702       9
  156711  156708       8  156714  156708       8  156714  156711       9  156720
  156717       8  156723  156717       8  156723  156720       9  156729  156726
       8  156732  156726       8  156732  156729       9  156738  156735       8
  156741  156735       8  156741  156738       9  156747  156744       8  156750
  156744       8  156750  156747       9  156756  156753       8  156759  156753
       8  156759  156756       9  156765  156762       8  156768  156762       8
  156768  156765       9  156774  156771       8  156777  156771       8  156777
  156774       9  156783  156780       8  156786  156780       8  156786  156783
       9  156792  156789       8  156795  156789       8  156795  156792       9
  156801  156798       8  156804  156798       8  156804  156801       9  156810
  156807       8  156813  156807       8  156813  156810       9  156819  156816
       8  156822  156816       8  156822  156819       9  156828  156825       8
  156831  156825       8  156831  156828       9  156837  156834       8  156840
  156834       8  156840  156837       9  156846  156843       8  156849  156843
       8  156849  156846       9  156855  156852       8  156858  156852       8
  156858  156855       9  156864  156861       8  156867  156861       8  156867
  156864       9  156873  156870       8  156876  156870       8  156876  156873
       9  156882  156879       8  156885  156879       8  156885  156882       9
  156891  156888       8  156894  156888       8  156894  156891       9  156900
  156897       8  156903  156897       8  156903  156900       9  156909  156906
       8  156912  156906       8  156912  156909       9  156918  156915       8
  156921  156915       8  156921  156918       9  156927  156924       8  156930
  156924       8  156930  156927       9  156936  156933       8  156939  156933
       8  156939  156936       9  156945  156942       8  156948  156942       8
  156948  156945       9  156954  156951       8  156957  156951       8  156957
  156954       9  156963  156960       8  156966  156960       8  156966  156963
       9  156972  156969       8  156975  156969       8  156975  156972       9
  156981  156978       8  156984  156978       8  156984  156981       9  156990
  156987       8  156993  156987       8  156993  156990       9  156999  156996
       8  157002  156996       8  157002  156999       9  157008  157005       8
  157011  157005       8  157011  157008       9  157017  157014       8  157020
  157014       8  157020  157017       9  157026  157023       8  157029  157023
       8  157029  157026       9  157035  157032       8  157038  157032       8
  157038  157035       9  157044  157041       8  157047  157041       8  157047
  157044       9  157053  157050       8  157056  157050       8  157056  157053
       9  157062  157059       8  157065  157059       8  157065  157062       9
  157071  157068       8  157074  157068       8  157074  157071       9  157080
  157077       8  157083  157077       8  157083  157080       9  157089  157086
       8  157092  157086       8  157092  157089       9  157098  157095       8
  157101  157095       8  157101  157098       9  157107  157104       8  157110
  157104       8  157110  157107       9  157116  157113       8  157119  157113
       8  157119  157116       9  157125  157122       8  157128  157122       8
  157128  157125       9  157134  157131       8  157137  157131       8  157137
  157134       9  157143  157140       8  157146  157140       8  157146  157143
       9  157152  157149       8  157155  157149       8  157155  157152       9
  157161  157158       8  157164  157158       8  157164  157161       9  157170
  157167       8  157173  157167       8  157173  157170       9  157179  157176
       8  157182  157176       8  157182  157179       9  157188  157185       8
  157191  157185       8  157191  157188       9  157197  157194       8  157200
  157194       8  157200  157197       9  157206  157203       8  157209  157203
       8  157209  157206       9  157215  157212       8  157218  157212       8
  157218  157215       9  157224  157221       8  157227  157221       8  157227
  157224       9  157233  157230       8  157236  157230       8  157236  157233
       9  157242  157239       8  157245  157239       8  157245  157242       9
  157251  157248       8  157254  157248       8  157254  157251       9  157260
  157257       8  157263  157257       8  157263  157260       9  157269  157266
       8  157272  157266       8  157272  157269       9  157278  157275       8
  157281  157275       8  157281  157278       9  157287  157284       8  157290
  157284       8  157290  157287       9  157296  157293       8  157299  157293
       8  157299  157296       9  157305  157302       8  157308  157302       8
  157308  157305       9  157314  157311       8  157317  157311       8  157317
  157314       9  157323  157320       8  157326  157320       8  157326  157323
       9  157332  157329       8  157335  157329       8  157335  157332       9
  157341  157338       8  157344  157338       8  157344  157341       9  157350
  157347       8  157353  157347       8  157353  157350       9  157359  157356
       8  157362  157356       8  157362  157359       9  157368  157365       8
  157371  157365       8  157371  157368       9  157377  157374       8  157380
  157374       8  157380  157377       9  157386  157383       8  157389  157383
       8  157389  157386       9  157395  157392       8  157398  157392       8
  157398  157395       9  157404  157401       8  157407  157401       8  157407
  157404       9  157413  157410       8  157416  157410       8  157416  157413
       9  157422  157419       8  157425  157419       8  157425  157422       9
  157431  157428       8  157434  157428       8  157434  157431       9  157440
  157437       8  157443  157437       8  157443  157440       9  157449  157446
       8  157452  157446       8  157452  157449       9  157458  157455       8
  157461  157455       8  157461  157458       9  157467  157464       8  157470
  157464       8  157470  157467       9  157476  157473       8  157479  157473
       8  157479  157476       9  157485  157482       8  157488  157482       8
  157488  157485       9  157494  157491       8  157497  157491       8  157497
  157494       9  157503  157500       8  157506  157500       8  157506  157503
       9  157512  157509       8  157515  157509       8  157515  157512       9
  157521  157518       8  157524  157518       8  157524  157521       9  157530
  157527       8  157533  157527       8  157533  157530       9  157539  157536
       8  157542  157536       8  157542  157539       9  157548  157545       8
  157551  157545       8  157551  157548       9  157557  157554       8  157560
  157554       8  157560  157557       9  157566  157563       8  157569  157563
       8  157569  157566       9  157575  157572       8  157578  157572       8
  157578  157575       9  157584  157581       8  157587  157581       8  157587
  157584       9  157593  157590       8  157596  157590       8  157596  157593
       9  157602  157599       8  157605  157599       8  157605  157602       9
  157611  157608       8  157614  157608       8  157614  157611       9  157620
  157617       8  157623  157617       8  157623  157620       9  157629  157626
       8  157632  157626       8  157632  157629       9  157638  157635       8
  157641  157635       8  157641  157638       9  157647  157644       8  157650
  157644       8  157650  157647       9  157656  157653       8  157659  157653
       8  157659  157656       9  157665  157662       8  157668  157662       8
  157668  157665       9  157674  157671       8  157677  157671       8  157677
  157674       9  157683  157680       8  157686  157680       8  157686  157683
       9  157692  157689       8  157695  157689       8  157695  157692       9
  157701  157698       8  157704  157698       8  157704  157701       9  157710
  157707       8  157713  157707       8  157713  157710       9  157719  157716
       8  157722  157716       8  157722  157719       9  157728  157725       8
  157731  157725       8  157731  157728       9  157737  157734       8  157740
  157734       8  157740  157737       9  157746  157743       8  157749  157743
       8  157749  157746       9  157755  157752       8  157758  157752       8
  157758  157755       9  157764  157761       8  157767  157761       8  157767
  157764       9  157773  157770       8  157776  157770       8  157776  157773
       9  157782  157779       8  157785  157779       8  157785  157782       9
  157791  157788       8  157794  157788       8  157794  157791       9  157800
  157797       8  157803  157797       8  157803  157800       9  157809  157806
       8  157812  157806       8  157812  157809       9  157818  157815       8
  157821  157815       8  157821  157818       9  157827  157824       8  157830
  157824       8  157830  157827       9  157836  157833       8  157839  157833
       8  157839  157836       9  157845  157842       8  157848  157842       8
  157848  157845       9  157854  157851       8  157857  157851       8  157857
  157854       9  157863  157860       8  157866  157860       8  157866  157863
       9  157872  157869       8  157875  157869       8  157875  157872       9
  157881  157878       8  157884  157878       8  157884  157881       9  157890
  157887       8  157893  157887       8  157893  157890       9  157899  157896
       8  157902  157896       8  157902  157899       9  157908  157905       8
  157911  157905       8  157911  157908       9  157917  157914       8  157920
  157914       8  157920  157917       9  157926  157923       8  157929  157923
       8  157929  157926       9  157935  157932       8  157938  157932       8
  157938  157935       9  157944  157941       8  157947  157941       8  157947
  157944       9  157953  157950       8  157956  157950       8  157956  157953
       9  157962  157959       8  157965  157959       8  157965  157962       9
  157971  157968       8  157974  157968       8  157974  157971       9  157980
  157977       8  157983  157977       8  157983  157980       9  157989  157986
       8  157992  157986       8  157992  157989       9  157998  157995       8
  158001  157995       8  158001  157998       9  158007  158004       8  158010
  158004       8  158010  158007       9  158016  158013       8  158019  158013
       8  158019  158016       9  158025  158022       8  158028  158022       8
  158028  158025       9  158034  158031       8  158037  158031       8  158037
  158034       9  158043  158040       8  158046  158040       8  158046  158043
       9  158052  158049       8  158055  158049       8  158055  158052       9
  158061  158058       8  158064  158058       8  158064  158061       9  158070
  158067       8  158073  158067       8  158073  158070       9  158079  158076
       8  158082  158076       8  158082  158079       9  158088  158085       8
  158091  158085       8  158091  158088       9  158097  158094       8  158100
  158094       8  158100  158097       9  158106  158103       8  158109  158103
       8  158109  158106       9  158115  158112       8  158118  158112       8
  158118  158115       9  158124  158121       8  158127  158121       8  158127
  158124       9  158133  158130       8  158136  158130       8  158136  158133
       9  158142  158139       8  158145  158139       8  158145  158142       9
  158151  158148       8  158154  158148       8  158154  158151       9  158160
  158157       8  158163  158157       8  158163  158160       9  158169  158166
       8  158172  158166       8  158172  158169       9  158178  158175       8
  158181  158175       8  158181  158178       9  158187  158184       8  158190
  158184       8  158190  158187       9  158196  158193       8  158199  158193
       8  158199  158196       9  158205  158202       8  158208  158202       8
  158208  158205       9  158214  158211       8  158217  158211       8  158217
  158214       9  158223  158220       8  158226  158220       8  158226  158223
       9  158232  158229       8  158235  158229       8  158235  158232       9
  158241  158238       8  158244  158238       8  158244  158241       9  158250
  158247       8  158253  158247       8  158253  158250       9  158259  158256
       8  158262  158256       8  158262  158259       9  158268  158265       8
  158271  158265       8  158271  158268       9  158277  158274       8  158280
  158274       8  158280  158277       9  158286  158283       8  158289  158283
       8  158289  158286       9  158295  158292       8  158298  158292       8
  158298  158295       9  158304  158301       8  158307  158301       8  158307
  158304       9  158313  158310       8  158316  158310       8  158316  158313
       9  158322  158319       8  158325  158319       8  158325  158322       9
  158331  158328       8  158334  158328       8  158334  158331       9  158340
  158337       8  158343  158337       8  158343  158340       9  158349  158346
       8  158352  158346       8  158352  158349       9  158358  158355       8
  158361  158355       8  158361  158358       9  158367  158364       8  158370
  158364       8  158370  158367       9  158376  158373       8  158379  158373
       8  158379  158376       9  158385  158382       8  158388  158382       8
  158388  158385       9  158394  158391       8  158397  158391       8  158397
  158394       9  158403  158400       8  158406  158400       8  158406  158403
       9  158412  158409       8  158415  158409       8  158415  158412       9
  158421  158418       8  158424  158418       8  158424  158421       9  158430
  158427       8  158433  158427       8  158433  158430       9  158439  158436
       8  158442  158436       8  158442  158439       9  158448  158445       8
  158451  158445       8  158451  158448       9  158457  158454       8  158460
  158454       8  158460  158457       9  158466  158463       8  158469  158463
       8  158469  158466       9  158475  158472       8  158478  158472       8
  158478  158475       9  158484  158481       8  158487  158481       8  158487
  158484       9  158493  158490       8  158496  158490       8  158496  158493
       9  158502  158499       8  158505  158499       8  158505  158502       9
  158511  158508       8  158514  158508       8  158514  158511       9  158520
  158517       8  158523  158517       8  158523  158520       9  158529  158526
       8  158532  158526       8  158532  158529       9  158538  158535       8
  158541  158535       8  158541  158538       9  158547  158544       8  158550
  158544       8  158550  158547       9  158556  158553       8  158559  158553
       8  158559  158556       9  158565  158562       8  158568  158562       8
  158568  158565       9  158574  158571       8  158577  158571       8  158577
  158574       9  158583  158580       8  158586  158580       8  158586  158583
       9  158592  158589       8  158595  158589       8  158595  158592       9
  158601  158598       8  158604  158598       8  158604  158601       9  158610
  158607       8  158613  158607       8  158613  158610       9  158619  158616
       8  158622  158616       8  158622  158619       9  158628  158625       8
  158631  158625       8  158631  158628       9  158637  158634       8  158640
  158634       8  158640  158637       9  158646  158643       8  158649  158643
       8  158649  158646       9  158655  158652       8  158658  158652       8
  158658  158655       9  158664  158661       8  158667  158661       8  158667
  158664       9  158673  158670       8  158676  158670       8  158676  158673
       9  158682  158679       8  158685  158679       8  158685  158682       9
  158691  158688       8  158694  158688       8  158694  158691       9  158700
  158697       8  158703  158697       8  158703  158700       9  158709  158706
       8  158712  158706       8  158712  158709       9  158718  158715       8
  158721  158715       8  158721  158718       9  158727  158724       8  158730
  158724       8  158730  158727       9  158736  158733       8  158739  158733
       8  158739  158736       9  158745  158742       8  158748  158742       8
  158748  158745       9  158754  158751       8  158757  158751       8  158757
  158754       9  158763  158760       8  158766  158760       8  158766  158763
       9  158772  158769       8  158775  158769       8  158775  158772       9
  158781  158778       8  158784  158778       8  158784  158781       9  158790
  158787       8  158793  158787       8  158793  158790       9  158799  158796
       8  158802  158796       8  158802  158799       9  158808  158805       8
  158811  158805       8  158811  158808       9  158817  158814       8  158820
  158814       8  158820  158817       9  158826  158823       8  158829  158823
       8  158829  158826       9  158835  158832       8  158838  158832       8
  158838  158835       9  158844  158841       8  158847  158841       8  158847
  158844       9  158853  158850       8  158856  158850       8  158856  158853
       9  158862  158859       8  158865  158859       8  158865  158862       9
  158871  158868       8  158874  158868       8  158874  158871       9  158880
  158877       8  158883  158877       8  158883  158880       9  158889  158886
       8  158892  158886       8  158892  158889       9  158898  158895       8
  158901  158895       8  158901  158898       9  158907  158904       8  158910
  158904       8  158910  158907       9  158916  158913       8  158919  158913
       8  158919  158916       9  158925  158922       8  158928  158922       8
  158928  158925       9  158934  158931       8  158937  158931       8  158937
  158934       9  158943  158940       8  158946  158940       8  158946  158943
       9  158952  158949       8  158955  158949       8  158955  158952       9
  158961  158958       8  158964  158958       8  158964  158961       9  158970
  158967       8  158973  158967       8  158973  158970       9  158979  158976
       8  158982  158976       8  158982  158979       9  158988  158985       8
  158991  158985       8  158991  158988       9  158997  158994       8  159000
  158994       8  159000  158997       9  159006  159003       8  159009  159003
       8  159009  159006       9  159015  159012       8  159018  159012       8
  159018  159015       9  159024  159021       8  159027  159021       8  159027
  159024       9  159033  159030       8  159036  159030       8  159036  159033
       9  159042  159039       8  159045  159039       8  159045  159042       9
  159051  159048       8  159054  159048       8  159054  159051       9  159060
  159057       8  159063  159057       8  159063  159060       9  159069  159066
       8  159072  159066       8  159072  159069       9  159078  159075       8
  159081  159075       8  159081  159078       9  159087  159084       8  159090
  159084       8  159090  159087       9  159096  159093       8  159099  159093
       8  159099  159096       9  159105  159102       8  159108  159102       8
  159108  159105       9  159114  159111       8  159117  159111       8  159117
  159114       9  159123  159120       8  159126  159120       8  159126  159123
       9  159132  159129       8  159135  159129       8  159135  159132       9
  159141  159138       8  159144  159138       8  159144  159141       9  159150
  159147       8  159153  159147       8  159153  159150       9  159159  159156
       8  159162  159156       8  159162  159159       9  159168  159165       8
  159171  159165       8  159171  159168       9  159177  159174       8  159180
  159174       8  159180  159177       9  159186  159183       8  159189  159183
       8  159189  159186       9  159195  159192       8  159198  159192       8
  159198  159195       9  159204  159201       8  159207  159201       8  159207
  159204       9  159213  159210       8  159216  159210       8  159216  159213
       9  159222  159219       8  159225  159219       8  159225  159222       9
  159231  159228       8  159234  159228       8  159234  159231       9  159240
  159237       8  159243  159237       8  159243  159240       9  159249  159246
       8  159252  159246       8  159252  159249       9  159258  159255       8
  159261  159255       8  159261  159258       9  159267  159264       8  159270
  159264       8  159270  159267       9  159276  159273       8  159279  159273
       8  159279  159276       9  159285  159282       8  159288  159282       8
  159288  159285       9  159294  159291       8  159297  159291       8  159297
  159294       9  159303  159300       8  159306  159300       8  159306  159303
       9  159312  159309       8  159315  159309       8  159315  159312       9
  159321  159318       8  159324  159318       8  159324  159321       9  159330
  159327       8  159333  159327       8  159333  159330       9  159339  159336
       8  159342  159336       8  159342  159339       9  159348  159345       8
  159351  159345       8  159351  159348       9  159357  159354       8  159360
  159354       8  159360  159357       9  159366  159363       8  159369  159363
       8  159369  159366       9  159375  159372       8  159378  159372       8
  159378  159375       9  159384  159381       8  159387  159381       8  159387
  159384       9  159393  159390       8  159396  159390       8  159396  159393
       9  159402  159399       8  159405  159399       8  159405  159402       9
  159411  159408       8  159414  159408       8  159414  159411       9  159420
  159417       8  159423  159417       8  159423  159420       9  159429  159426
       8  159432  159426       8  159432  159429       9  159438  159435       8
  159441  159435       8  159441  159438       9  159447  159444       8  159450
  159444       8  159450  159447       9  159456  159453       8  159459  159453
       8  159459  159456       9  159465  159462       8  159468  159462       8
  159468  159465       9  159474  159471       8  159477  159471       8  159477
  159474       9  159483  159480       8  159486  159480       8  159486  159483
       9  159492  159489       8  159495  159489       8  159495  159492       9
  159501  159498       8  159504  159498       8  159504  159501       9  159510
  159507       8  159513  159507       8  159513  159510       9  159519  159516
       8  159522  159516       8  159522  159519       9  159528  159525       8
  159531  159525       8  159531  159528       9  159537  159534       8  159540
  159534       8  159540  159537       9  159546  159543       8  159549  159543
       8  159549  159546       9  159555  159552       8  159558  159552       8
  159558  159555       9  159564  159561       8  159567  159561       8  159567
  159564       9  159573  159570       8  159576  159570       8  159576  159573
       9  159582  159579       8  159585  159579       8  159585  159582       9
  159591  159588       8  159594  159588       8  159594  159591       9  159600
  159597       8  159603  159597       8  159603  159600       9  159609  159606
       8  159612  159606       8  159612  159609       9  159618  159615       8
  159621  159615       8  159621  159618       9  159627  159624       8  159630
  159624       8  159630  159627       9  159636  159633       8  159639  159633
       8  159639  159636       9  159645  159642       8  159648  159642       8
  159648  159645       9  159654  159651       8  159657  159651       8  159657
  159654       9  159663  159660       8  159666  159660       8  159666  159663
       9  159672  159669       8  159675  159669       8  159675  159672       9
  159681  159678       8  159684  159678       8  159684  159681       9  159690
  159687       8  159693  159687       8  159693  159690       9  159699  159696
       8  159702  159696       8  159702  159699       9  159708  159705       8
  159711  159705       8  159711  159708       9  159717  159714       8  159720
  159714       8  159720  159717       9  159726  159723       8  159729  159723
       8  159729  159726       9  159735  159732       8  159738  159732       8
  159738  159735       9  159744  159741       8  159747  159741       8  159747
  159744       9  159753  159750       8  159756  159750       8  159756  159753
       9  159762  159759       8  159765  159759       8  159765  159762       9
  159771  159768       8  159774  159768       8  159774  159771       9  159780
  159777       8  159783  159777       8  159783  159780       9  159789  159786
       8  159792  159786       8  159792  159789       9  159798  159795       8
  159801  159795       8  159801  159798       9  159807  159804       8  159810
  159804       8  159810  159807       9  159816  159813       8  159819  159813
       8  159819  159816       9  159825  159822       8  159828  159822       8
  159828  159825       9  159834  159831       8  159837  159831       8  159837
  159834       9  159843  159840       8  159846  159840       8  159846  159843
       9  159852  159849       8  159855  159849       8  159855  159852       9
  159861  159858       8  159864  159858       8  159864  159861       9  159870
  159867       8  159873  159867       8  159873  159870       9  159879  159876
       8  159882  159876       8  159882  159879       9  159888  159885       8
  159891  159885       8  159891  159888       9  159897  159894       8  159900
  159894       8  159900  159897       9  159906  159903       8  159909  159903
       8  159909  159906       9  159915  159912       8  159918  159912       8
  159918  159915       9  159924  159921       8  159927  159921       8  159927
  159924       9  159933  159930       8  159936  159930       8  159936  159933
       9  159942  159939       8  159945  159939       8  159945  159942       9
  159951  159948       8  159954  159948       8  159954  159951       9  159960
  159957       8  159963  159957       8  159963  159960       9  159969  159966
       8  159972  159966       8  159972  159969       9  159978  159975       8
  159981  159975       8  159981  159978       9  159987  159984       8  159990
  159984       8  159990  159987       9  159996  159993       8  159999  159993
       8  159999  159996       9  160005  160002       8  160008  160002       8
  160008  160005       9  160014  160011       8  160017  160011       8  160017
  160014       9  160023  160020       8  160026  160020       8  160026  160023
       9  160032  160029       8  160035  160029       8  160035  160032       9
  160041  160038       8  160044  160038       8  160044  160041       9  160050
  160047       8  160053  160047       8  160053  160050       9  160059  160056
       8  160062  160056       8  160062  160059       9  160068  160065       8
  160071  160065       8  160071  160068       9  160077  160074       8  160080
  160074       8  160080  160077       9  160086  160083       8  160089  160083
       8  160089  160086       9  160095  160092       8  160098  160092       8
  160098  160095       9  160104  160101       8  160107  160101       8  160107
  160104       9  160113  160110       8  160116  160110       8  160116  160113
       9  160122  160119       8  160125  160119       8  160125  160122       9
  160131  160128       8  160134  160128       8  160134  160131       9  160140
  160137       8  160143  160137       8  160143  160140       9  160149  160146
       8  160152  160146       8  160152  160149       9  160158  160155       8
  160161  160155       8  160161  160158       9  160167  160164       8  160170
  160164       8  160170  160167       9  160176  160173       8  160179  160173
       8  160179  160176       9  160185  160182       8  160188  160182       8
  160188  160185       9  160194  160191       8  160197  160191       8  160197
  160194       9  160203  160200       8  160206  160200       8  160206  160203
       9  160212  160209       8  160215  160209       8  160215  160212       9
  160221  160218       8  160224  160218       8  160224  160221       9  160230
  160227       8  160233  160227       8  160233  160230       9  160239  160236
       8  160242  160236       8  160242  160239       9  160248  160245       8
  160251  160245       8  160251  160248       9  160257  160254       8  160260
  160254       8  160260  160257       9  160266  160263       8  160269  160263
       8  160269  160266       9  160275  160272       8  160278  160272       8
  160278  160275       9  160284  160281       8  160287  160281       8  160287
  160284       9  160293  160290       8  160296  160290       8  160296  160293
       9  160302  160299       8  160305  160299       8  160305  160302       9
  160311  160308       8  160314  160308       8  160314  160311       9  160320
  160317       8  160323  160317       8  160323  160320       9  160329  160326
       8  160332  160326       8  160332  160329       9  160338  160335       8
  160341  160335       8  160341  160338       9  160347  160344       8  160350
  160344       8  160350  160347       9  160356  160353       8  160359  160353
       8  160359  160356       9  160365  160362       8  160368  160362       8
  160368  160365       9  160374  160371       8  160377  160371       8  160377
  160374       9  160383  160380       8  160386  160380       8  160386  160383
       9  160392  160389       8  160395  160389       8  160395  160392       9
  160401  160398       8  160404  160398       8  160404  160401       9  160410
  160407       8  160413  160407       8  160413  160410       9  160419  160416
       8  160422  160416       8  160422  160419       9  160428  160425       8
  160431  160425       8  160431  160428       9  160437  160434       8  160440
  160434       8  160440  160437       9  160446  160443       8  160449  160443
       8  160449  160446       9  160455  160452       8  160458  160452       8
  160458  160455       9  160464  160461       8  160467  160461       8  160467
  160464       9  160473  160470       8  160476  160470       8  160476  160473
       9  160482  160479       8  160485  160479       8  160485  160482       9
  160491  160488       8  160494  160488       8  160494  160491       9  160500
  160497       8  160503  160497       8  160503  160500       9  160509  160506
       8  160512  160506       8  160512  160509       9  160518  160515       8
  160521  160515       8  160521  160518       9  160527  160524       8  160530
  160524       8  160530  160527       9  160536  160533       8  160539  160533
       8  160539  160536       9  160545  160542       8  160548  160542       8
  160548  160545       9  160554  160551       8  160557  160551       8  160557
  160554       9  160563  160560       8  160566  160560       8  160566  160563
       9  160572  160569       8  160575  160569       8  160575  160572       9
  160581  160578       8  160584  160578       8  160584  160581       9  160590
  160587       8  160593  160587       8  160593  160590       9  160599  160596
       8  160602  160596       8  160602  160599       9  160608  160605       8
  160611  160605       8  160611  160608       9  160617  160614       8  160620
  160614       8  160620  160617       9  160626  160623       8  160629  160623
       8  160629  160626       9  160635  160632       8  160638  160632       8
  160638  160635       9  160644  160641       8  160647  160641       8  160647
  160644       9  160653  160650       8  160656  160650       8  160656  160653
       9  160662  160659       8  160665  160659       8  160665  160662       9
  160671  160668       8  160674  160668       8  160674  160671       9  160680
  160677       8  160683  160677       8  160683  160680       9  160689  160686
       8  160692  160686       8  160692  160689       9  160698  160695       8
  160701  160695       8  160701  160698       9  160707  160704       8  160710
  160704       8  160710  160707       9  160716  160713       8  160719  160713
       8  160719  160716       9  160725  160722       8  160728  160722       8
  160728  160725       9  160734  160731       8  160737  160731       8  160737
  160734       9  160743  160740       8  160746  160740       8  160746  160743
       9  160752  160749       8  160755  160749       8  160755  160752       9
  160761  160758       8  160764  160758       8  160764  160761       9  160770
  160767       8  160773  160767       8  160773  160770       9  160779  160776
       8  160782  160776       8  160782  160779       9  160788  160785       8
  160791  160785       8  160791  160788       9  160797  160794       8  160800
  160794       8  160800  160797       9  160806  160803       8  160809  160803
       8  160809  160806       9  160815  160812       8  160818  160812       8
  160818  160815       9  160824  160821       8  160827  160821       8  160827
  160824       9  160833  160830       8  160836  160830       8  160836  160833
       9  160842  160839       8  160845  160839       8  160845  160842       9
  160851  160848       8  160854  160848       8  160854  160851       9  160860
  160857       8  160863  160857       8  160863  160860       9  160869  160866
       8  160872  160866       8  160872  160869       9  160878  160875       8
  160881  160875       8  160881  160878       9  160887  160884       8  160890
  160884       8  160890  160887       9  160896  160893       8  160899  160893
       8  160899  160896       9  160905  160902       8  160908  160902       8
  160908  160905       9  160914  160911       8  160917  160911       8  160917
  160914       9  160923  160920       8  160926  160920       8  160926  160923
       9  160932  160929       8  160935  160929       8  160935  160932       9
  160941  160938       8  160944  160938       8  160944  160941       9  160950
  160947       8  160953  160947       8  160953  160950       9  160959  160956
       8  160962  160956       8  160962  160959       9  160968  160965       8
  160971  160965       8  160971  160968       9  160977  160974       8  160980
  160974       8  160980  160977       9  160986  160983       8  160989  160983
       8  160989  160986       9  160995  160992       8  160998  160992       8
  160998  160995       9  161004  161001       8  161007  161001       8  161007
  161004       9  161013  161010       8  161016  161010       8  161016  161013
       9  161022  161019       8  161025  161019       8  161025  161022       9
  161031  161028       8  161034  161028       8  161034  161031       9  161040
  161037       8  161043  161037       8  161043  161040       9  161049  161046
       8  161052  161046       8  161052  161049       9  161058  161055       8
  161061  161055       8  161061  161058       9  161067  161064       8  161070
  161064       8  161070  161067       9  161076  161073       8  161079  161073
       8  161079  161076       9  161085  161082       8  161088  161082       8
  161088  161085       9  161094  161091       8  161097  161091       8  161097
  161094       9  161103  161100       8  161106  161100       8  161106  161103
       9  161112  161109       8  161115  161109       8  161115  161112       9
  161121  161118       8  161124  161118       8  161124  161121       9  161130
  161127       8  161133  161127       8  161133  161130       9  161139  161136
       8  161142  161136       8  161142  161139       9  161148  161145       8
  161151  161145       8  161151  161148       9  161157  161154       8  161160
  161154       8  161160  161157       9  161166  161163       8  161169  161163
       8  161169  161166       9  161175  161172       8  161178  161172       8
  161178  161175       9  161184  161181       8  161187  161181       8  161187
  161184       9  161193  161190       8  161196  161190       8  161196  161193
       9  161202  161199       8  161205  161199       8  161205  161202       9
  161211  161208       8  161214  161208       8  161214  161211       9  161220
  161217       8  161223  161217       8  161223  161220       9  161229  161226
       8  161232  161226       8  161232  161229       9  161238  161235       8
  161241  161235       8  161241  161238       9  161247  161244       8  161250
  161244       8  161250  161247       9  161256  161253       8  161259  161253
       8  161259  161256       9  161265  161262       8  161268  161262       8
  161268  161265       9  161274  161271       8  161277  161271       8  161277
  161274       9  161283  161280       8  161286  161280       8  161286  161283
       9  161292  161289       8  161295  161289       8  161295  161292       9
  161301  161298       8  161304  161298       8  161304  161301       9  161310
  161307       8  161313  161307       8  161313  161310       9  161319  161316
       8  161322  161316       8  161322  161319       9  161328  161325       8
  161331  161325       8  161331  161328       9  161337  161334       8  161340
  161334       8  161340  161337       9  161346  161343       8  161349  161343
       8  161349  161346       9  161355  161352       8  161358  161352       8
  161358  161355       9  161364  161361       8  161367  161361       8  161367
  161364       9  161373  161370       8  161376  161370       8  161376  161373
       9  161382  161379       8  161385  161379       8  161385  161382       9
  161391  161388       8  161394  161388       8  161394  161391       9  161400
  161397       8  161403  161397       8  161403  161400       9  161409  161406
       8  161412  161406       8  161412  161409       9  161418  161415       8
  161421  161415       8  161421  161418       9  161427  161424       8  161430
  161424       8  161430  161427       9  161436  161433       8  161439  161433
       8  161439  161436       9  161445  161442       8  161448  161442       8
  161448  161445       9  161454  161451       8  161457  161451       8  161457
  161454       9  161463  161460       8  161466  161460       8  161466  161463
       9  161472  161469       8  161475  161469       8  161475  161472       9
  161481  161478       8  161484  161478       8  161484  161481       9  161490
  161487       8  161493  161487       8  161493  161490       9  161499  161496
       8  161502  161496       8  161502  161499       9  161508  161505       8
  161511  161505       8  161511  161508       9  161517  161514       8  161520
  161514       8  161520  161517       9  161526  161523       8  161529  161523
       8  161529  161526       9  161535  161532       8  161538  161532       8
  161538  161535       9  161544  161541       8  161547  161541       8  161547
  161544       9  161553  161550       8  161556  161550       8  161556  161553
       9  161562  161559       8  161565  161559       8  161565  161562       9
  161571  161568       8  161574  161568       8  161574  161571       9  161580
  161577       8  161583  161577       8  161583  161580       9  161589  161586
       8  161592  161586       8  161592  161589       9  161598  161595       8
  161601  161595       8  161601  161598       9  161607  161604       8  161610
  161604       8  161610  161607       9  161616  161613       8  161619  161613
       8  161619  161616       9  161625  161622       8  161628  161622       8
  161628  161625       9  161634  161631       8  161637  161631       8  161637
  161634       9  161643  161640       8  161646  161640       8  161646  161643
       9  161652  161649       8  161655  161649       8  161655  161652       9
  161661  161658       8  161664  161658       8  161664  161661       9  161670
  161667       8  161673  161667       8  161673  161670       9  161679  161676
       8  161682  161676       8  161682  161679       9  161688  161685       8
  161691  161685       8  161691  161688       9  161697  161694       8  161700
  161694       8  161700  161697       9  161706  161703       8  161709  161703
       8  161709  161706       9  161715  161712       8  161718  161712       8
  161718  161715       9  161724  161721       8  161727  161721       8  161727
  161724       9  161733  161730       8  161736  161730       8  161736  161733
       9  161742  161739       8  161745  161739       8  161745  161742       9
  161751  161748       8  161754  161748       8  161754  161751       9  161760
  161757       8  161763  161757       8  161763  161760       9  161769  161766
       8  161772  161766       8  161772  161769       9  161778  161775       8
  161781  161775       8  161781  161778       9  161787  161784       8  161790
  161784       8  161790  161787       9  161796  161793       8  161799  161793
       8  161799  161796       9  161805  161802       8  161808  161802       8
  161808  161805       9  161814  161811       8  161817  161811       8  161817
  161814       9  161823  161820       8  161826  161820       8  161826  161823
       9  161832  161829       8  161835  161829       8  161835  161832       9
  161841  161838       8  161844  161838       8  161844  161841       9  161850
  161847       8  161853  161847       8  161853  161850       9  161859  161856
       8  161862  161856       8  161862  161859       9  161868  161865       8
  161871  161865       8  161871  161868       9  161877  161874       8  161880
  161874       8  161880  161877       9  161886  161883       8  161889  161883
       8  161889  161886       9  161895  161892       8  161898  161892       8
  161898  161895       9  161904  161901       8  161907  161901       8  161907
  161904       9  161913  161910       8  161916  161910       8  161916  161913
       9  161922  161919       8  161925  161919       8  161925  161922       9
  161931  161928       8  161934  161928       8  161934  161931       9  161940
  161937       8  161943  161937       8  161943  161940       9  161949  161946
       8  161952  161946       8  161952  161949       9  161958  161955       8
  161961  161955       8  161961  161958       9  161967  161964       8  161970
  161964       8  161970  161967       9  161976  161973       8  161979  161973
       8  161979  161976       9  161985  161982       8  161988  161982       8
  161988  161985       9  161994  161991       8  161997  161991       8  161997
  161994       9  162003  162000       8  162006  162000       8  162006  162003
       9  162012  162009       8  162015  162009       8  162015  162012       9
  162021  162018       8  162024  162018       8  162024  162021       9  162030
  162027       8  162033  162027       8  162033  162030       9  162039  162036
       8  162042  162036       8  162042  162039       9  162048  162045       8
  162051  162045       8  162051  162048       9  162057  162054       8  162060
  162054       8  162060  162057       9  162066  162063       8  162069  162063
       8  162069  162066       9  162075  162072       8  162078  162072       8
  162078  162075       9  162084  162081       8  162087  162081       8  162087
  162084       9  162093  162090       8  162096  162090       8  162096  162093
       9  162102  162099       8  162105  162099       8  162105  162102       9
  162111  162108       8  162114  162108       8  162114  162111       9  162120
  162117       8  162123  162117       8  162123  162120       9  162129  162126
       8  162132  162126       8  162132  162129       9  162138  162135       8
  162141  162135       8  162141  162138       9  162147  162144       8  162150
  162144       8  162150  162147       9  162156  162153       8  162159  162153
       8  162159  162156       9  162165  162162       8  162168  162162       8
  162168  162165       9  162174  162171       8  162177  162171       8  162177
  162174       9  162183  162180       8  162186  162180       8  162186  162183
       9  162192  162189       8  162195  162189       8  162195  162192       9
  162201  162198       8  162204  162198       8  162204  162201       9  162210
  162207       8  162213  162207       8  162213  162210       9  162219  162216
       8  162222  162216       8  162222  162219       9  162228  162225       8
  162231  162225       8  162231  162228       9  162237  162234       8  162240
  162234       8  162240  162237       9  162246  162243       8  162249  162243
       8  162249  162246       9  162255  162252       8  162258  162252       8
  162258  162255       9  162264  162261       8  162267  162261       8  162267
  162264       9  162273  162270       8  162276  162270       8  162276  162273
       9  162282  162279       8  162285  162279       8  162285  162282       9
  162291  162288       8  162294  162288       8  162294  162291       9  162300
  162297       8  162303  162297       8  162303  162300       9  162309  162306
       8  162312  162306       8  162312  162309       9  162318  162315       8
  162321  162315       8  162321  162318       9  162327  162324       8  162330
  162324       8  162330  162327       9  162336  162333       8  162339  162333
       8  162339  162336       9  162345  162342       8  162348  162342       8
  162348  162345       9  162354  162351       8  162357  162351       8  162357
  162354       9  162363  162360       8  162366  162360       8  162366  162363
       9  162372  162369       8  162375  162369       8  162375  162372       9
  162381  162378       8  162384  162378       8  162384  162381       9  162390
  162387       8  162393  162387       8  162393  162390       9  162399  162396
       8  162402  162396       8  162402  162399       9  162408  162405       8
  162411  162405       8  162411  162408       9  162417  162414       8  162420
  162414       8  162420  162417       9  162426  162423       8  162429  162423
       8  162429  162426       9  162435  162432       8  162438  162432       8
  162438  162435       9  162444  162441       8  162447  162441       8  162447
  162444       9  162453  162450       8  162456  162450       8  162456  162453
       9  162462  162459       8  162465  162459       8  162465  162462       9
  162471  162468       8  162474  162468       8  162474  162471       9  162480
  162477       8  162483  162477       8  162483  162480       9  162489  162486
       8  162492  162486       8  162492  162489       9  162498  162495       8
  162501  162495       8  162501  162498       9  162507  162504       8  162510
  162504       8  162510  162507       9  162516  162513       8  162519  162513
       8  162519  162516       9  162525  162522       8  162528  162522       8
  162528  162525       9  162534  162531       8  162537  162531       8  162537
  162534       9  162543  162540       8  162546  162540       8  162546  162543
       9  162552  162549       8  162555  162549       8  162555  162552       9
  162561  162558       8  162564  162558       8  162564  162561       9  162570
  162567       8  162573  162567       8  162573  162570       9  162579  162576
       8  162582  162576       8  162582  162579       9  162588  162585       8
  162591  162585       8  162591  162588       9  162597  162594       8  162600
  162594       8  162600  162597       9  162606  162603       8  162609  162603
       8  162609  162606       9  162615  162612       8  162618  162612       8
  162618  162615       9  162624  162621       8  162627  162621       8  162627
  162624       9  162633  162630       8  162636  162630       8  162636  162633
       9  162642  162639       8  162645  162639       8  162645  162642       9
  162651  162648       8  162654  162648       8  162654  162651       9  162660
  162657       8  162663  162657       8  162663  162660       9  162669  162666
       8  162672  162666       8  162672  162669       9  162678  162675       8
  162681  162675       8  162681  162678       9  162687  162684       8  162690
  162684       8  162690  162687       9  162696  162693       8  162699  162693
       8  162699  162696       9  162705  162702       8  162708  162702       8
  162708  162705       9  162714  162711       8  162717  162711       8  162717
  162714       9  162723  162720       8  162726  162720       8  162726  162723
       9  162732  162729       8  162735  162729       8  162735  162732       9
  162741  162738       8  162744  162738       8  162744  162741       9  162750
  162747       8  162753  162747       8  162753  162750       9  162759  162756
       8  162762  162756       8  162762  162759       9  162768  162765       8
  162771  162765       8  162771  162768       9  162777  162774       8  162780
  162774       8  162780  162777       9  162786  162783       8  162789  162783
       8  162789  162786       9  162795  162792       8  162798  162792       8
  162798  162795       9  162804  162801       8  162807  162801       8  162807
  162804       9  162813  162810       8  162816  162810       8  162816  162813
       9  162822  162819       8  162825  162819       8  162825  162822       9
  162831  162828       8  162834  162828       8  162834  162831       9  162840
  162837       8  162843  162837       8  162843  162840       9  162849  162846
       8  162852  162846       8  162852  162849       9  162858  162855       8
  162861  162855       8  162861  162858       9  162867  162864       8  162870
  162864       8  162870  162867       9  162876  162873       8  162879  162873
       8  162879  162876       9  162885  162882       8  162888  162882       8
  162888  162885       9  162894  162891       8  162897  162891       8  162897
  162894       9  162903  162900       8  162906  162900       8  162906  162903
       9  162912  162909       8  162915  162909       8  162915  162912       9
  162921  162918       8  162924  162918       8  162924  162921       9  162930
  162927       8  162933  162927       8  162933  162930       9  162939  162936
       8  162942  162936       8  162942  162939       9  162948  162945       8
  162951  162945       8  162951  162948       9  162957  162954       8  162960
  162954       8  162960  162957       9  162966  162963       8  162969  162963
       8  162969  162966       9  162975  162972       8  162978  162972       8
  162978  162975       9  162984  162981       8  162987  162981       8  162987
  162984       9  162993  162990       8  162996  162990       8  162996  162993
       9  163002  162999       8  163005  162999       8  163005  163002       9
  163011  163008       8  163014  163008       8  163014  163011       9  163020
  163017       8  163023  163017       8  163023  163020       9  163029  163026
       8  163032  163026       8  163032  163029       9  163038  163035       8
  163041  163035       8  163041  163038       9  163047  163044       8  163050
  163044       8  163050  163047       9  163056  163053       8  163059  163053
       8  163059  163056       9  163065  163062       8  163068  163062       8
  163068  163065       9  163074  163071       8  163077  163071       8  163077
  163074       9  163083  163080       8  163086  163080       8  163086  163083
       9  163092  163089       8  163095  163089       8  163095  163092       9
  163101  163098       8  163104  163098       8  163104  163101       9  163110
  163107       8  163113  163107       8  163113  163110       9  163119  163116
       8  163122  163116       8  163122  163119       9  163128  163125       8
  163131  163125       8  163131  163128       9  163137  163134       8  163140
  163134       8  163140  163137       9  163146  163143       8  163149  163143
       8  163149  163146       9  163155  163152       8  163158  163152       8
  163158  163155       9  163164  163161       8  163167  163161       8  163167
  163164       9  163173  163170       8  163176  163170       8  163176  163173
       9  163182  163179       8  163185  163179       8  163185  163182       9
  163191  163188       8  163194  163188       8  163194  163191       9  163200
  163197       8  163203  163197       8  163203  163200       9  163209  163206
       8  163212  163206       8  163212  163209       9  163218  163215       8
  163221  163215       8  163221  163218       9  163227  163224       8  163230
  163224       8  163230  163227       9  163236  163233       8  163239  163233
       8  163239  163236       9  163245  163242       8  163248  163242       8
  163248  163245       9  163254  163251       8  163257  163251       8  163257
  163254       9  163263  163260       8  163266  163260       8  163266  163263
       9  163272  163269       8  163275  163269       8  163275  163272       9
  163281  163278       8  163284  163278       8  163284  163281       9  163290
  163287       8  163293  163287       8  163293  163290       9  163299  163296
       8  163302  163296       8  163302  163299       9  163308  163305       8
  163311  163305       8  163311  163308       9  163317  163314       8  163320
  163314       8  163320  163317       9  163326  163323       8  163329  163323
       8  163329  163326       9  163335  163332       8  163338  163332       8
  163338  163335       9  163344  163341       8  163347  163341       8  163347
  163344       9  163353  163350       8  163356  163350       8  163356  163353
       9  163362  163359       8  163365  163359       8  163365  163362       9
  163371  163368       8  163374  163368       8  163374  163371       9  163380
  163377       8  163383  163377       8  163383  163380       9  163389  163386
       8  163392  163386       8  163392  163389       9  163398  163395       8
  163401  163395       8  163401  163398       9  163407  163404       8  163410
  163404       8  163410  163407       9  163416  163413       8  163419  163413
       8  163419  163416       9  163425  163422       8  163428  163422       8
  163428  163425       9  163434  163431       8  163437  163431       8  163437
  163434       9  163443  163440       8  163446  163440       8  163446  163443
       9  163452  163449       8  163455  163449       8  163455  163452       9
  163461  163458       8  163464  163458       8  163464  163461       9  163470
  163467       8  163473  163467       8  163473  163470       9  163479  163476
       8  163482  163476       8  163482  163479       9  163488  163485       8
  163491  163485       8  163491  163488       9  163497  163494       8  163500
  163494       8  163500  163497       9  163506  163503       8  163509  163503
       8  163509  163506       9  163515  163512       8  163518  163512       8
  163518  163515       9  163524  163521       8  163527  163521       8  163527
  163524       9  163533  163530       8  163536  163530       8  163536  163533
       9  163542  163539       8  163545  163539       8  163545  163542       9
  163551  163548       8  163554  163548       8  163554  163551       9  163560
  163557       8  163563  163557       8  163563  163560       9  163569  163566
       8  163572  163566       8  163572  163569       9  163578  163575       8
  163581  163575       8  163581  163578       9  163587  163584       8  163590
  163584       8  163590  163587       9  163596  163593       8  163599  163593
       8  163599  163596       9  163605  163602       8  163608  163602       8
  163608  163605       9  163614  163611       8  163617  163611       8  163617
  163614       9  163623  163620       8  163626  163620       8  163626  163623
       9  163632  163629       8  163635  163629       8  163635  163632       9
  163641  163638       8  163644  163638       8  163644  163641       9  163650
  163647       8  163653  163647       8  163653  163650       9  163659  163656
       8  163662  163656       8  163662  163659       9  163668  163665       8
  163671  163665       8  163671  163668       9  163677  163674       8  163680
  163674       8  163680  163677       9  163686  163683       8  163689  163683
       8  163689  163686       9  163695  163692       8  163698  163692       8
  163698  163695       9  163704  163701       8  163707  163701       8  163707
  163704       9  163713  163710       8  163716  163710       8  163716  163713
       9  163722  163719       8  163725  163719       8  163725  163722       9
  163731  163728       8  163734  163728       8  163734  163731       9  163740
  163737       8  163743  163737       8  163743  163740       9  163749  163746
       8  163752  163746       8  163752  163749       9  163758  163755       8
  163761  163755       8  163761  163758       9  163767  163764       8  163770
  163764       8  163770  163767       9  163776  163773       8  163779  163773
       8  163779  163776       9  163785  163782       8  163788  163782       8
  163788  163785       9  163794  163791       8  163797  163791       8  163797
  163794       9  163803  163800       8  163806  163800       8  163806  163803
       9  163812  163809       8  163815  163809       8  163815  163812       9
  163821  163818       8  163824  163818       8  163824  163821       9  163830
  163827       8  163833  163827       8  163833  163830       9  163839  163836
       8  163842  163836       8  163842  163839       9  163848  163845       8
  163851  163845       8  163851  163848       9  163857  163854       8  163860
  163854       8  163860  163857       9  163866  163863       8  163869  163863
       8  163869  163866       9  163875  163872       8  163878  163872       8
  163878  163875       9  163884  163881       8  163887  163881       8  163887
  163884       9  163893  163890       8  163896  163890       8  163896  163893
       9  163902  163899       8  163905  163899       8  163905  163902       9
  163911  163908       8  163914  163908       8  163914  163911       9  163920
  163917       8  163923  163917       8  163923  163920       9  163929  163926
       8  163932  163926       8  163932  163929       9  163938  163935       8
  163941  163935       8  163941  163938       9  163947  163944       8  163950
  163944       8  163950  163947       9  163956  163953       8  163959  163953
       8  163959  163956       9  163965  163962       8  163968  163962       8
  163968  163965       9  163974  163971       8  163977  163971       8  163977
  163974       9  163983  163980       8  163986  163980       8  163986  163983
       9  163992  163989       8  163995  163989       8  163995  163992       9
  164001  163998       8  164004  163998       8  164004  164001       9  164010
  164007       8  164013  164007       8  164013  164010       9  164019  164016
       8  164022  164016       8  164022  164019       9  164028  164025       8
  164031  164025       8  164031  164028       9  164037  164034       8  164040
  164034       8  164040  164037       9  164046  164043       8  164049  164043
       8  164049  164046       9  164055  164052       8  164058  164052       8
  164058  164055       9  164064  164061       8  164067  164061       8  164067
  164064       9  164073  164070       8  164076  164070       8  164076  164073
       9  164082  164079       8  164085  164079       8  164085  164082       9
  164091  164088       8  164094  164088       8  164094  164091       9  164100
  164097       8  164103  164097       8  164103  164100       9  164109  164106
       8  164112  164106       8  164112  164109       9  164118  164115       8
  164121  164115       8  164121  164118       9  164127  164124       8  164130
  164124       8  164130  164127       9  164136  164133       8  164139  164133
       8  164139  164136       9  164145  164142       8  164148  164142       8
  164148  164145       9  164154  164151       8  164157  164151       8  164157
  164154       9  164163  164160       8  164166  164160       8  164166  164163
       9  164172  164169       8  164175  164169       8  164175  164172       9
  164181  164178       8  164184  164178       8  164184  164181       9  164190
  164187       8  164193  164187       8  164193  164190       9  164199  164196
       8  164202  164196       8  164202  164199       9  164208  164205       8
  164211  164205       8  164211  164208       9  164217  164214       8  164220
  164214       8  164220  164217       9  164226  164223       8  164229  164223
       8  164229  164226       9  164235  164232       8  164238  164232       8
  164238  164235       9  164244  164241       8  164247  164241       8  164247
  164244       9  164253  164250       8  164256  164250       8  164256  164253
       9  164262  164259       8  164265  164259       8  164265  164262       9
  164271  164268       8  164274  164268       8  164274  164271       9  164280
  164277       8  164283  164277       8  164283  164280       9  164289  164286
       8  164292  164286       8  164292  164289       9  164298  164295       8
  164301  164295       8  164301  164298       9  164307  164304       8  164310
  164304       8  164310  164307       9  164316  164313       8  164319  164313
       8  164319  164316       9  164325  164322       8  164328  164322       8
  164328  164325       9  164334  164331       8  164337  164331       8  164337
  164334       9  164343  164340       8  164346  164340       8  164346  164343
       9  164352  164349       8  164355  164349       8  164355  164352       9
  164361  164358       8  164364  164358       8  164364  164361       9  164370
  164367       8  164373  164367       8  164373  164370       9  164379  164376
       8  164382  164376       8  164382  164379       9  164388  164385       8
  164391  164385       8  164391  164388       9  164397  164394       8  164400
  164394       8  164400  164397       9  164406  164403       8  164409  164403
       8  164409  164406       9  164415  164412       8  164418  164412       8
  164418  164415       9  164424  164421       8  164427  164421       8  164427
  164424       9  164433  164430       8  164436  164430       8  164436  164433
       9  164442  164439       8  164445  164439       8  164445  164442       9
  164451  164448       8  164454  164448       8  164454  164451       9  164460
  164457       8  164463  164457       8  164463  164460       9  164469  164466
       8  164472  164466       8  164472  164469       9  164478  164475       8
  164481  164475       8  164481  164478       9  164487  164484       8  164490
  164484       8  164490  164487       9  164496  164493       8  164499  164493
       8  164499  164496       9  164505  164502       8  164508  164502       8
  164508  164505       9  164514  164511       8  164517  164511       8  164517
  164514       9  164523  164520       8  164526  164520       8  164526  164523
       9  164532  164529       8  164535  164529       8  164535  164532       9
  164541  164538       8  164544  164538       8  164544  164541       9  164550
  164547       8  164553  164547       8  164553  164550       9  164559  164556
       8  164562  164556       8  164562  164559       9  164568  164565       8
  164571  164565       8  164571  164568       9  164577  164574       8  164580
  164574       8  164580  164577       9  164586  164583       8  164589  164583
       8  164589  164586       9  164595  164592       8  164598  164592       8
  164598  164595       9  164604  164601       8  164607  164601       8  164607
  164604       9  164613  164610       8  164616  164610       8  164616  164613
       9  164622  164619       8  164625  164619       8  164625  164622       9
  164631  164628       8  164634  164628       8  164634  164631       9  164640
  164637       8  164643  164637       8  164643  164640       9  164649  164646
       8  164652  164646       8  164652  164649       9  164658  164655       8
  164661  164655       8  164661  164658       9  164667  164664       8  164670
  164664       8  164670  164667       9  164676  164673       8  164679  164673
       8  164679  164676       9  164685  164682       8  164688  164682       8
  164688  164685       9  164694  164691       8  164697  164691       8  164697
  164694       9  164703  164700       8  164706  164700       8  164706  164703
       9  164712  164709       8  164715  164709       8  164715  164712       9
  164721  164718       8  164724  164718       8  164724  164721       9  164730
  164727       8  164733  164727       8  164733  164730       9  164739  164736
       8  164742  164736       8  164742  164739       9  164748  164745       8
  164751  164745       8  164751  164748       9  164757  164754       8  164760
  164754       8  164760  164757       9  164766  164763       8  164769  164763
       8  164769  164766       9  164775  164772       8  164778  164772       8
  164778  164775       9  164784  164781       8  164787  164781       8  164787
  164784       9  164793  164790       8  164796  164790       8  164796  164793
       9  164802  164799       8  164805  164799       8  164805  164802       9
  164811  164808       8  164814  164808       8  164814  164811       9  164820
  164817       8  164823  164817       8  164823  164820       9  164829  164826
       8  164832  164826       8  164832  164829       9  164838  164835       8
  164841  164835       8  164841  164838       9  164847  164844       8  164850
  164844       8  164850  164847       9  164856  164853       8  164859  164853
       8  164859  164856       9  164865  164862       8  164868  164862       8
  164868  164865       9  164874  164871       8  164877  164871       8  164877
  164874       9  164883  164880       8  164886  164880       8  164886  164883
       9  164892  164889       8  164895  164889       8  164895  164892       9
  164901  164898       8  164904  164898       8  164904  164901       9  164910
  164907       8  164913  164907       8  164913  164910       9  164919  164916
       8  164922  164916       8  164922  164919       9  164928  164925       8
  164931  164925       8  164931  164928       9  164937  164934       8  164940
  164934       8  164940  164937       9  164946  164943       8  164949  164943
       8  164949  164946       9  164955  164952       8  164958  164952       8
  164958  164955       9  164964  164961       8  164967  164961       8  164967
  164964       9  164973  164970       8  164976  164970       8  164976  164973
       9  164982  164979       8  164985  164979       8  164985  164982       9
  164991  164988       8  164994  164988       8  164994  164991       9  165000
  164997       8  165003  164997       8  165003  165000       9  165009  165006
       8  165012  165006       8  165012  165009       9  165018  165015       8
  165021  165015       8  165021  165018       9  165027  165024       8  165030
  165024       8  165030  165027       9  165036  165033       8  165039  165033
       8  165039  165036       9  165045  165042       8  165048  165042       8
  165048  165045       9  165054  165051       8  165057  165051       8  165057
  165054       9  165063  165060       8  165066  165060       8  165066  165063
       9  165072  165069       8  165075  165069       8  165075  165072       9
  165081  165078       8  165084  165078       8  165084  165081       9  165090
  165087       8  165093  165087       8  165093  165090       9  165099  165096
       8  165102  165096       8  165102  165099       9  165108  165105       8
  165111  165105       8  165111  165108       9  165117  165114       8  165120
  165114       8  165120  165117       9  165126  165123       8  165129  165123
       8  165129  165126       9  165135  165132       8  165138  165132       8
  165138  165135       9  165144  165141       8  165147  165141       8  165147
  165144       9  165153  165150       8  165156  165150       8  165156  165153
       9  165162  165159       8  165165  165159       8  165165  165162       9
  165171  165168       8  165174  165168       8  165174  165171       9  165180
  165177       8  165183  165177       8  165183  165180       9  165189  165186
       8  165192  165186       8  165192  165189       9  165198  165195       8
  165201  165195       8  165201  165198       9  165207  165204       8  165210
  165204       8  165210  165207       9  165216  165213       8  165219  165213
       8  165219  165216       9  165225  165222       8  165228  165222       8
  165228  165225       9  165234  165231       8  165237  165231       8  165237
  165234       9  165243  165240       8  165246  165240       8  165246  165243
       9  165252  165249       8  165255  165249       8  165255  165252       9
  165261  165258       8  165264  165258       8  165264  165261       9  165270
  165267       8  165273  165267       8  165273  165270       9  165279  165276
       8  165282  165276       8  165282  165279       9  165288  165285       8
  165291  165285       8  165291  165288       9  165297  165294       8  165300
  165294       8  165300  165297       9  165306  165303       8  165309  165303
       8  165309  165306       9  165315  165312       8  165318  165312       8
  165318  165315       9  165324  165321       8  165327  165321       8  165327
  165324       9  165333  165330       8  165336  165330       8  165336  165333
       9  165342  165339       8  165345  165339       8  165345  165342       9
  165351  165348       8  165354  165348       8  165354  165351       9  165360
  165357       8  165363  165357       8  165363  165360       9  165369  165366
       8  165372  165366       8  165372  165369       9  165378  165375       8
  165381  165375       8  165381  165378       9  165387  165384       8  165390
  165384       8  165390  165387       9  165396  165393       8  165399  165393
       8  165399  165396       9  165405  165402       8  165408  165402       8
  165408  165405       9  165414  165411       8  165417  165411       8  165417
  165414       9  165423  165420       8  165426  165420       8  165426  165423
       9  165432  165429       8  165435  165429       8  165435  165432       9
  165441  165438       8  165444  165438       8  165444  165441       9  165450
  165447       8  165453  165447       8  165453  165450       9  165459  165456
       8  165462  165456       8  165462  165459       9  165468  165465       8
  165471  165465       8  165471  165468       9  165477  165474       8  165480
  165474       8  165480  165477       9  165486  165483       8  165489  165483
       8  165489  165486       9  165495  165492       8  165498  165492       8
  165498  165495       9  165504  165501       8  165507  165501       8  165507
  165504       9  165513  165510       8  165516  165510       8  165516  165513
       9  165522  165519       8  165525  165519       8  165525  165522       9
  165531  165528       8  165534  165528       8  165534  165531       9  165540
  165537       8  165543  165537       8  165543  165540       9  165549  165546
       8  165552  165546       8  165552  165549       9  165558  165555       8
  165561  165555       8  165561  165558       9  165567  165564       8  165570
  165564       8  165570  165567       9  165576  165573       8  165579  165573
       8  165579  165576       9  165585  165582       8  165588  165582       8
  165588  165585       9  165594  165591       8  165597  165591       8  165597
  165594       9  165603  165600       8  165606  165600       8  165606  165603
       9  165612  165609       8  165615  165609       8  165615  165612       9
  165621  165618       8  165624  165618       8  165624  165621       9  165630
  165627       8  165633  165627       8  165633  165630       9  165639  165636
       8  165642  165636       8  165642  165639       9  165648  165645       8
  165651  165645       8  165651  165648       9  165657  165654       8  165660
  165654       8  165660  165657       9  165666  165663       8  165669  165663
       8  165669  165666       9  165675  165672       8  165678  165672       8
  165678  165675       9  165684  165681       8  165687  165681       8  165687
  165684       9  165693  165690       8  165696  165690       8  165696  165693
       9  165702  165699       8  165705  165699       8  165705  165702       9
  165711  165708       8  165714  165708       8  165714  165711       9  165720
  165717       8  165723  165717       8  165723  165720       9  165729  165726
       8  165732  165726       8  165732  165729       9  165738  165735       8
  165741  165735       8  165741  165738       9  165747  165744       8  165750
  165744       8  165750  165747       9  165756  165753       8  165759  165753
       8  165759  165756       9  165765  165762       8  165768  165762       8
  165768  165765       9  165774  165771       8  165777  165771       8  165777
  165774       9  165783  165780       8  165786  165780       8  165786  165783
       9  165792  165789       8  165795  165789       8  165795  165792       9
  165801  165798       8  165804  165798       8  165804  165801       9  165810
  165807       8  165813  165807       8  165813  165810       9  165819  165816
       8  165822  165816       8  165822  165819       9  165828  165825       8
  165831  165825       8  165831  165828       9  165837  165834       8  165840
  165834       8  165840  165837       9  165846  165843       8  165849  165843
       8  165849  165846       9  165855  165852       8  165858  165852       8
  165858  165855       9  165864  165861       8  165867  165861       8  165867
  165864       9  165873  165870       8  165876  165870       8  165876  165873
       9  165882  165879       8  165885  165879       8  165885  165882       9
  165891  165888       8  165894  165888       8  165894  165891       9  165900
  165897       8  165903  165897       8  165903  165900       9  165909  165906
       8  165912  165906       8  165912  165909       9  165918  165915       8
  165921  165915       8  165921  165918       9  165927  165924       8  165930
  165924       8  165930  165927       9  165936  165933       8  165939  165933
       8  165939  165936       9  165945  165942       8  165948  165942       8
  165948  165945       9  165954  165951       8  165957  165951       8  165957
  165954       9  165963  165960       8  165966  165960       8  165966  165963
       9  165972  165969       8  165975  165969       8  165975  165972       9
  165981  165978       8  165984  165978       8  165984  165981       9  165990
  165987       8  165993  165987       8  165993  165990       9  165999  165996
       8  166002  165996       8  166002  165999       9  166008  166005       8
  166011  166005       8  166011  166008       9  166017  166014       8  166020
  166014       8  166020  166017       9  166026  166023       8  166029  166023
       8  166029  166026       9  166035  166032       8  166038  166032       8
  166038  166035       9  166044  166041       8  166047  166041       8  166047
  166044       9  166053  166050       8  166056  166050       8  166056  166053
       9  166062  166059       8  166065  166059       8  166065  166062       9
  166071  166068       8  166074  166068       8  166074  166071       9  166080
  166077       8  166083  166077       8  166083  166080       9  166089  166086
       8  166092  166086       8  166092  166089       9  166098  166095       8
  166101  166095       8  166101  166098       9  166107  166104       8  166110
  166104       8  166110  166107       9  166116  166113       8  166119  166113
       8  166119  166116       9  166125  166122       8  166128  166122       8
  166128  166125       9  166134  166131       8  166137  166131       8  166137
  166134       9  166143  166140       8  166146  166140       8  166146  166143
       9  166152  166149       8  166155  166149       8  166155  166152       9
  166161  166158       8  166164  166158       8  166164  166161       9  166170
  166167       8  166173  166167       8  166173  166170       9  166179  166176
       8  166182  166176       8  166182  166179       9  166188  166185       8
  166191  166185       8  166191  166188       9  166197  166194       8  166200
  166194       8  166200  166197       9  166206  166203       8  166209  166203
       8  166209  166206       9  166215  166212       8  166218  166212       8
  166218  166215       9  166224  166221       8  166227  166221       8  166227
  166224       9  166233  166230       8  166236  166230       8  166236  166233
       9  166242  166239       8  166245  166239       8  166245  166242       9
  166251  166248       8  166254  166248       8  166254  166251       9  166260
  166257       8  166263  166257       8  166263  166260       9  166269  166266
       8  166272  166266       8  166272  166269       9  166278  166275       8
  166281  166275       8  166281  166278       9  166287  166284       8  166290
  166284       8  166290  166287       9  166296  166293       8  166299  166293
       8  166299  166296       9  166305  166302       8  166308  166302       8
  166308  166305       9  166314  166311       8  166317  166311       8  166317
  166314       9  166323  166320       8  166326  166320       8  166326  166323
       9  166332  166329       8  166335  166329       8  166335  166332       9
  166341  166338       8  166344  166338       8  166344  166341       9  166350
  166347       8  166353  166347       8  166353  166350       9  166359  166356
       8  166362  166356       8  166362  166359       9  166368  166365       8
  166371  166365       8  166371  166368       9  166377  166374       8  166380
  166374       8  166380  166377       9  166386  166383       8  166389  166383
       8  166389  166386       9  166395  166392       8  166398  166392       8
  166398  166395       9  166404  166401       8  166407  166401       8  166407
  166404       9  166413  166410       8  166416  166410       8  166416  166413
       9  166422  166419       8  166425  166419       8  166425  166422       9
  166431  166428       8  166434  166428       8  166434  166431       9  166440
  166437       8  166443  166437       8  166443  166440       9  166449  166446
       8  166452  166446       8  166452  166449       9  166458  166455       8
  166461  166455       8  166461  166458       9  166467  166464       8  166470
  166464       8  166470  166467       9  166476  166473       8  166479  166473
       8  166479  166476       9  166485  166482       8  166488  166482       8
  166488  166485       9  166494  166491       8  166497  166491       8  166497
  166494       9  166503  166500       8  166506  166500       8  166506  166503
       9  166512  166509       8  166515  166509       8  166515  166512       9
  166521  166518       8  166524  166518       8  166524  166521       9  166530
  166527       8  166533  166527       8  166533  166530       9  166539  166536
       8  166542  166536       8  166542  166539       9  166548  166545       8
  166551  166545       8  166551  166548       9  166557  166554       8  166560
  166554       8  166560  166557       9  166566  166563       8  166569  166563
       8  166569  166566       9  166575  166572       8  166578  166572       8
  166578  166575       9  166584  166581       8  166587  166581       8  166587
  166584       9  166593  166590       8  166596  166590       8  166596  166593
       9  166602  166599       8  166605  166599       8  166605  166602       9
  166611  166608       8  166614  166608       8  166614  166611       9  166620
  166617       8  166623  166617       8  166623  166620       9  166629  166626
       8  166632  166626       8  166632  166629       9  166638  166635       8
  166641  166635       8  166641  166638       9  166647  166644       8  166650
  166644       8  166650  166647       9  166656  166653       8  166659  166653
       8  166659  166656       9  166665  166662       8  166668  166662       8
  166668  166665       9  166674  166671       8  166677  166671       8  166677
  166674       9  166683  166680       8  166686  166680       8  166686  166683
       9  166692  166689       8  166695  166689       8  166695  166692       9
  166701  166698       8  166704  166698       8  166704  166701       9  166710
  166707       8  166713  166707       8  166713  166710       9  166719  166716
       8  166722  166716       8  166722  166719       9  166728  166725       8
  166731  166725       8  166731  166728       9  166737  166734       8  166740
  166734       8  166740  166737       9  166746  166743       8  166749  166743
       8  166749  166746       9  166755  166752       8  166758  166752       8
  166758  166755       9  166764  166761       8  166767  166761       8  166767
  166764       9  166773  166770       8  166776  166770       8  166776  166773
       9  166782  166779       8  166785  166779       8  166785  166782       9
  166791  166788       8  166794  166788       8  166794  166791       9  166800
  166797       8  166803  166797       8  166803  166800       9  166809  166806
       8  166812  166806       8  166812  166809       9  166818  166815       8
  166821  166815       8  166821  166818       9  166827  166824       8  166830
  166824       8  166830  166827       9  166836  166833       8  166839  166833
       8  166839  166836       9  166845  166842       8  166848  166842       8
  166848  166845       9  166854  166851       8  166857  166851       8  166857
  166854       9  166863  166860       8  166866  166860       8  166866  166863
       9  166872  166869       8  166875  166869       8  166875  166872       9
  166881  166878       8  166884  166878       8  166884  166881       9  166890
  166887       8  166893  166887       8  166893  166890       9  166899  166896
       8  166902  166896       8  166902  166899       9  166908  166905       8
  166911  166905       8  166911  166908       9  166917  166914       8  166920
  166914       8  166920  166917       9  166926  166923       8  166929  166923
       8  166929  166926       9  166935  166932       8  166938  166932       8
  166938  166935       9  166944  166941       8  166947  166941       8  166947
  166944       9  166953  166950       8  166956  166950       8  166956  166953
       9  166962  166959       8  166965  166959       8  166965  166962       9
  166971  166968       8  166974  166968       8  166974  166971       9  166980
  166977       8  166983  166977       8  166983  166980       9  166989  166986
       8  166992  166986       8  166992  166989       9  166998  166995       8
  167001  166995       8  167001  166998       9  167007  167004       8  167010
  167004       8  167010  167007       9  167016  167013       8  167019  167013
       8  167019  167016       9  167025  167022       8  167028  167022       8
  167028  167025       9  167034  167031       8  167037  167031       8  167037
  167034       9  167043  167040       8  167046  167040       8  167046  167043
       9  167052  167049       8  167055  167049       8  167055  167052       9
  167061  167058       8  167064  167058       8  167064  167061       9  167070
  167067       8  167073  167067       8  167073  167070       9  167079  167076
       8  167082  167076       8  167082  167079       9  167088  167085       8
  167091  167085       8  167091  167088       9  167097  167094       8  167100
  167094       8  167100  167097       9  167106  167103       8  167109  167103
       8  167109  167106       9  167115  167112       8  167118  167112       8
  167118  167115       9  167124  167121       8  167127  167121       8  167127
  167124       9  167133  167130       8  167136  167130       8  167136  167133
       9  167142  167139       8  167145  167139       8  167145  167142       9
  167151  167148       8  167154  167148       8  167154  167151       9  167160
  167157       8  167163  167157       8  167163  167160       9  167169  167166
       8  167172  167166       8  167172  167169       9  167178  167175       8
  167181  167175       8  167181  167178       9  167187  167184       8  167190
  167184       8  167190  167187       9  167196  167193       8  167199  167193
       8  167199  167196       9  167205  167202       8  167208  167202       8
  167208  167205       9  167214  167211       8  167217  167211       8  167217
  167214       9  167223  167220       8  167226  167220       8  167226  167223
       9  167232  167229       8  167235  167229       8  167235  167232       9
  167241  167238       8  167244  167238       8  167244  167241       9  167250
  167247       8  167253  167247       8  167253  167250       9  167259  167256
       8  167262  167256       8  167262  167259       9  167268  167265       8
  167271  167265       8  167271  167268       9  167277  167274       8  167280
  167274       8  167280  167277       9  167286  167283       8  167289  167283
       8  167289  167286       9  167295  167292       8  167298  167292       8
  167298  167295       9  167304  167301       8  167307  167301       8  167307
  167304       9  167313  167310       8  167316  167310       8  167316  167313
       9  167322  167319       8  167325  167319       8  167325  167322       9
  167331  167328       8  167334  167328       8  167334  167331       9  167340
  167337       8  167343  167337       8  167343  167340       9  167349  167346
       8  167352  167346       8  167352  167349       9  167358  167355       8
  167361  167355       8  167361  167358       9  167367  167364       8  167370
  167364       8  167370  167367       9  167376  167373       8  167379  167373
       8  167379  167376       9  167385  167382       8  167388  167382       8
  167388  167385       9  167394  167391       8  167397  167391       8  167397
  167394       9  167403  167400       8  167406  167400       8  167406  167403
       9  167412  167409       8  167415  167409       8  167415  167412       9
  167421  167418       8  167424  167418       8  167424  167421       9  167430
  167427       8  167433  167427       8  167433  167430       9  167439  167436
       8  167442  167436       8  167442  167439       9  167448  167445       8
  167451  167445       8  167451  167448       9  167457  167454       8  167460
  167454       8  167460  167457       9  167466  167463       8  167469  167463
       8  167469  167466       9  167475  167472       8  167478  167472       8
  167478  167475       9  167484  167481       8  167487  167481       8  167487
  167484       9  167493  167490       8  167496  167490       8  167496  167493
       9  167502  167499       8  167505  167499       8  167505  167502       9
  167511  167508       8  167514  167508       8  167514  167511       9  167520
  167517       8  167523  167517       8  167523  167520       9  167529  167526
       8  167532  167526       8  167532  167529       9  167538  167535       8
  167541  167535       8  167541  167538       9  167547  167544       8  167550
  167544       8  167550  167547       9  167556  167553       8  167559  167553
       8  167559  167556       9  167565  167562       8  167568  167562       8
  167568  167565       9  167574  167571       8  167577  167571       8  167577
  167574       9  167583  167580       8  167586  167580       8  167586  167583
       9  167592  167589       8  167595  167589       8  167595  167592       9
  167601  167598       8  167604  167598       8  167604  167601       9  167610
  167607       8  167613  167607       8  167613  167610       9  167619  167616
       8  167622  167616       8  167622  167619       9  167628  167625       8
  167631  167625       8  167631  167628       9  167637  167634       8  167640
  167634       8  167640  167637       9  167646  167643       8  167649  167643
       8  167649  167646       9  167655  167652       8  167658  167652       8
  167658  167655       9  167664  167661       8  167667  167661       8  167667
  167664       9  167673  167670       8  167676  167670       8  167676  167673
       9  167682  167679       8  167685  167679       8  167685  167682       9
  167691  167688       8  167694  167688       8  167694  167691       9  167700
  167697       8  167703  167697       8  167703  167700       9  167709  167706
       8  167712  167706       8  167712  167709       9  167718  167715       8
  167721  167715       8  167721  167718       9  167727  167724       8  167730
  167724       8  167730  167727       9  167736  167733       8  167739  167733
       8  167739  167736       9  167745  167742       8  167748  167742       8
  167748  167745       9  167754  167751       8  167757  167751       8  167757
  167754       9  167763  167760       8  167766  167760       8  167766  167763
       9  167772  167769       8  167775  167769       8  167775  167772       9
  167781  167778       8  167784  167778       8  167784  167781       9  167790
  167787       8  167793  167787       8  167793  167790       9  167799  167796
       8  167802  167796       8  167802  167799       9  167808  167805       8
  167811  167805       8  167811  167808       9  167817  167814       8  167820
  167814       8  167820  167817       9  167826  167823       8  167829  167823
       8  167829  167826       9  167835  167832       8  167838  167832       8
  167838  167835       9  167844  167841       8  167847  167841       8  167847
  167844       9  167853  167850       8  167856  167850       8  167856  167853
       9  167862  167859       8  167865  167859       8  167865  167862       9
  167871  167868       8  167874  167868       8  167874  167871       9  167880
  167877       8  167883  167877       8  167883  167880       9  167889  167886
       8  167892  167886       8  167892  167889       9  167898  167895       8
  167901  167895       8  167901  167898       9  167907  167904       8  167910
  167904       8  167910  167907       9  167916  167913       8  167919  167913
       8  167919  167916       9  167925  167922       8  167928  167922       8
  167928  167925       9  167934  167931       8  167937  167931       8  167937
  167934       9  167943  167940       8  167946  167940       8  167946  167943
       9  167952  167949       8  167955  167949       8  167955  167952       9
  167961  167958       8  167964  167958       8  167964  167961       9  167970
  167967       8  167973  167967       8  167973  167970       9  167979  167976
       8  167982  167976       8  167982  167979       9  167988  167985       8
  167991  167985       8  167991  167988       9  167997  167994       8  168000
  167994       8  168000  167997       9  168006  168003       8  168009  168003
       8  168009  168006       9  168015  168012       8  168018  168012       8
  168018  168015       9  168024  168021       8  168027  168021       8  168027
  168024       9  168033  168030       8  168036  168030       8  168036  168033
       9  168042  168039       8  168045  168039       8  168045  168042       9
  168051  168048       8  168054  168048       8  168054  168051       9  168060
  168057       8  168063  168057       8  168063  168060       9  168069  168066
       8  168072  168066       8  168072  168069       9  168078  168075       8
  168081  168075       8  168081  168078       9  168087  168084       8  168090
  168084       8  168090  168087       9  168096  168093       8  168099  168093
       8  168099  168096       9  168105  168102       8  168108  168102       8
  168108  168105       9  168114  168111       8  168117  168111       8  168117
  168114       9  168123  168120       8  168126  168120       8  168126  168123
       9  168132  168129       8  168135  168129       8  168135  168132       9
  168141  168138       8  168144  168138       8  168144  168141       9  168150
  168147       8  168153  168147       8  168153  168150       9  168159  168156
       8  168162  168156       8  168162  168159       9  168168  168165       8
  168171  168165       8  168171  168168       9  168177  168174       8  168180
  168174       8  168180  168177       9  168186  168183       8  168189  168183
       8  168189  168186       9  168195  168192       8  168198  168192       8
  168198  168195       9  168204  168201       8  168207  168201       8  168207
  168204       9  168213  168210       8  168216  168210       8  168216  168213
       9  168222  168219       8  168225  168219       8  168225  168222       9
  168231  168228       8  168234  168228       8  168234  168231       9  168240
  168237       8  168243  168237       8  168243  168240       9  168249  168246
       8  168252  168246       8  168252  168249       9  168258  168255       8
  168261  168255       8  168261  168258       9  168267  168264       8  168270
  168264       8  168270  168267       9  168276  168273       8  168279  168273
       8  168279  168276       9  168285  168282       8  168288  168282       8
  168288  168285       9  168294  168291       8  168297  168291       8  168297
  168294       9  168303  168300       8  168306  168300       8  168306  168303
       9  168312  168309       8  168315  168309       8  168315  168312       9
  168321  168318       8  168324  168318       8  168324  168321       9  168330
  168327       8  168333  168327       8  168333  168330       9  168339  168336
       8  168342  168336       8  168342  168339       9  168348  168345       8
  168351  168345       8  168351  168348       9  168357  168354       8  168360
  168354       8  168360  168357       9  168366  168363       8  168369  168363
       8  168369  168366       9  168375  168372       8  168378  168372       8
  168378  168375       9  168384  168381       8  168387  168381       8  168387
  168384       9  168393  168390       8  168396  168390       8  168396  168393
       9  168402  168399       8  168405  168399       8  168405  168402       9
  168411  168408       8  168414  168408       8  168414  168411       9  168420
  168417       8  168423  168417       8  168423  168420       9  168429  168426
       8  168432  168426       8  168432  168429       9  168438  168435       8
  168441  168435       8  168441  168438       9  168447  168444       8  168450
  168444       8  168450  168447       9  168456  168453       8  168459  168453
       8  168459  168456       9  168465  168462       8  168468  168462       8
  168468  168465       9  168474  168471       8  168477  168471       8  168477
  168474       9  168483  168480       8  168486  168480       8  168486  168483
       9  168492  168489       8  168495  168489       8  168495  168492       9
  168501  168498       8  168504  168498       8  168504  168501       9  168510
  168507       8  168513  168507       8  168513  168510       9  168519  168516
       8  168522  168516       8  168522  168519       9  168528  168525       8
  168531  168525       8  168531  168528       9  168537  168534       8  168540
  168534       8  168540  168537       9  168546  168543       8  168549  168543
       8  168549  168546       9  168555  168552       8  168558  168552       8
  168558  168555       9  168564  168561       8  168567  168561       8  168567
  168564       9  168573  168570       8  168576  168570       8  168576  168573
       9  168582  168579       8  168585  168579       8  168585  168582       9
  168591  168588       8  168594  168588       8  168594  168591       9  168600
  168597       8  168603  168597       8  168603  168600       9  168609  168606
       8  168612  168606       8  168612  168609       9  168618  168615       8
  168621  168615       8  168621  168618       9  168627  168624       8  168630
  168624       8  168630  168627       9  168636  168633       8  168639  168633
       8  168639  168636       9  168645  168642       8  168648  168642       8
  168648  168645       9  168654  168651       8  168657  168651       8  168657
  168654       9  168663  168660       8  168666  168660       8  168666  168663
       9  168672  168669       8  168675  168669       8  168675  168672       9
  168681  168678       8  168684  168678       8  168684  168681       9  168690
  168687       8  168693  168687       8  168693  168690       9  168699  168696
       8  168702  168696       8  168702  168699       9  168708  168705       8
  168711  168705       8  168711  168708       9  168717  168714       8  168720
  168714       8  168720  168717       9  168726  168723       8  168729  168723
       8  168729  168726       9  168735  168732       8  168738  168732       8
  168738  168735       9  168744  168741       8  168747  168741       8  168747
  168744       9  168753  168750       8  168756  168750       8  168756  168753
       9  168762  168759       8  168765  168759       8  168765  168762       9
  168771  168768       8  168774  168768       8  168774  168771       9  168780
  168777       8  168783  168777       8  168783  168780       9  168789  168786
       8  168792  168786       8  168792  168789       9  168798  168795       8
  168801  168795       8  168801  168798       9  168807  168804       8  168810
  168804       8  168810  168807       9  168816  168813       8  168819  168813
       8  168819  168816       9  168825  168822       8  168828  168822       8
  168828  168825       9  168834  168831       8  168837  168831       8  168837
  168834       9  168843  168840       8  168846  168840       8  168846  168843
       9  168852  168849       8  168855  168849       8  168855  168852       9
  168861  168858       8  168864  168858       8  168864  168861       9  168870
  168867       8  168873  168867       8  168873  168870       9  168879  168876
       8  168882  168876       8  168882  168879       9  168888  168885       8
  168891  168885       8  168891  168888       9  168897  168894       8  168900
  168894       8  168900  168897       9  168906  168903       8  168909  168903
       8  168909  168906       9  168915  168912       8  168918  168912       8
  168918  168915       9  168924  168921       8  168927  168921       8  168927
  168924       9  168933  168930       8  168936  168930       8  168936  168933
       9  168942  168939       8  168945  168939       8  168945  168942       9
  168951  168948       8  168954  168948       8  168954  168951       9  168960
  168957       8  168963  168957       8  168963  168960       9  168969  168966
       8  168972  168966       8  168972  168969       9  168978  168975       8
  168981  168975       8  168981  168978       9  168987  168984       8  168990
  168984       8  168990  168987       9  168996  168993       8  168999  168993
       8  168999  168996       9  169005  169002       8  169008  169002       8
  169008  169005       9  169014  169011       8  169017  169011       8  169017
  169014       9  169023  169020       8  169026  169020       8  169026  169023
       9  169032  169029       8  169035  169029       8  169035  169032       9
  169041  169038       8  169044  169038       8  169044  169041       9  169050
  169047       8  169053  169047       8  169053  169050       9  169059  169056
       8  169062  169056       8  169062  169059       9  169068  169065       8
  169071  169065       8  169071  169068       9  169077  169074       8  169080
  169074       8  169080  169077       9  169086  169083       8  169089  169083
       8  169089  169086       9  169095  169092       8  169098  169092       8
  169098  169095       9  169104  169101       8  169107  169101       8  169107
  169104       9  169113  169110       8  169116  169110       8  169116  169113
       9  169122  169119       8  169125  169119       8  169125  169122       9
  169131  169128       8  169134  169128       8  169134  169131       9  169140
  169137       8  169143  169137       8  169143  169140       9  169149  169146
       8  169152  169146       8  169152  169149       9  169158  169155       8
  169161  169155       8  169161  169158       9  169167  169164       8  169170
  169164       8  169170  169167       9  169176  169173       8  169179  169173
       8  169179  169176       9  169185  169182       8  169188  169182       8
  169188  169185       9  169194  169191       8  169197  169191       8  169197
  169194       9  169203  169200       8  169206  169200       8  169206  169203
       9  169212  169209       8  169215  169209       8  169215  169212       9
  169221  169218       8  169224  169218       8  169224  169221       9  169230
  169227       8  169233  169227       8  169233  169230       9  169239  169236
       8  169242  169236       8  169242  169239       9  169248  169245       8
  169251  169245       8  169251  169248       9  169257  169254       8  169260
  169254       8  169260  169257       9  169266  169263       8  169269  169263
       8  169269  169266       9  169275  169272       8  169278  169272       8
  169278  169275       9  169284  169281       8  169287  169281       8  169287
  169284       9  169293  169290       8  169296  169290       8  169296  169293
       9  169302  169299       8  169305  169299       8  169305  169302       9
  169311  169308       8  169314  169308       8  169314  169311       9  169320
  169317       8  169323  169317       8  169323  169320       9  169329  169326
       8  169332  169326       8  169332  169329       9  169338  169335       8
  169341  169335       8  169341  169338       9  169347  169344       8  169350
  169344       8  169350  169347       9  169356  169353       8  169359  169353
       8  169359  169356       9  169365  169362       8  169368  169362       8
  169368  169365       9  169374  169371       8  169377  169371       8  169377
  169374       9  169383  169380       8  169386  169380       8  169386  169383
       9  169392  169389       8  169395  169389       8  169395  169392       9
  169401  169398       8  169404  169398       8  169404  169401       9  169410
  169407       8  169413  169407       8  169413  169410       9  169419  169416
       8  169422  169416       8  169422  169419       9  169428  169425       8
  169431  169425       8  169431  169428       9  169437  169434       8  169440
  169434       8  169440  169437       9  169446  169443       8  169449  169443
       8  169449  169446       9  169455  169452       8  169458  169452       8
  169458  169455       9  169464  169461       8  169467  169461       8  169467
  169464       9  169473  169470       8  169476  169470       8  169476  169473
       9  169482  169479       8  169485  169479       8  169485  169482       9
  169491  169488       8  169494  169488       8  169494  169491       9  169500
  169497       8  169503  169497       8  169503  169500       9  169509  169506
       8  169512  169506       8  169512  169509       9  169518  169515       8
  169521  169515       8  169521  169518       9  169527  169524       8  169530
  169524       8  169530  169527       9  169536  169533       8  169539  169533
       8  169539  169536       9  169545  169542       8  169548  169542       8
  169548  169545       9  169554  169551       8  169557  169551       8  169557
  169554       9  169563  169560       8  169566  169560       8  169566  169563
       9  169572  169569       8  169575  169569       8  169575  169572       9
  169581  169578       8  169584  169578       8  169584  169581       9  169590
  169587       8  169593  169587       8  169593  169590       9  169599  169596
       8  169602  169596       8  169602  169599       9  169608  169605       8
  169611  169605       8  169611  169608       9  169617  169614       8  169620
  169614       8  169620  169617       9  169626  169623       8  169629  169623
       8  169629  169626       9  169635  169632       8  169638  169632       8
  169638  169635       9  169644  169641       8  169647  169641       8  169647
  169644       9  169653  169650       8  169656  169650       8  169656  169653
       9  169662  169659       8  169665  169659       8  169665  169662       9
  169671  169668       8  169674  169668       8  169674  169671       9  169680
  169677       8  169683  169677       8  169683  169680       9  169689  169686
       8  169692  169686       8  169692  169689       9  169698  169695       8
  169701  169695       8  169701  169698       9  169707  169704       8  169710
  169704       8  169710  169707       9  169716  169713       8  169719  169713
       8  169719  169716       9  169725  169722       8  169728  169722       8
  169728  169725       9  169734  169731       8  169737  169731       8  169737
  169734       9  169743  169740       8  169746  169740       8  169746  169743
       9  169752  169749       8  169755  169749       8  169755  169752       9
  169761  169758       8  169764  169758       8  169764  169761       9  169770
  169767       8  169773  169767       8  169773  169770       9  169779  169776
       8  169782  169776       8  169782  169779       9  169788  169785       8
  169791  169785       8  169791  169788       9  169797  169794       8  169800
  169794       8  169800  169797       9  169806  169803       8  169809  169803
       8  169809  169806       9  169815  169812       8  169818  169812       8
  169818  169815       9  169824  169821       8  169827  169821       8  169827
  169824       9  169833  169830       8  169836  169830       8  169836  169833
       9  169842  169839       8  169845  169839       8  169845  169842       9
  169851  169848       8  169854  169848       8  169854  169851       9  169860
  169857       8  169863  169857       8  169863  169860       9  169869  169866
       8  169872  169866       8  169872  169869       9  169878  169875       8
  169881  169875       8  169881  169878       9  169887  169884       8  169890
  169884       8  169890  169887       9  169896  169893       8  169899  169893
       8  169899  169896       9  169905  169902       8  169908  169902       8
  169908  169905       9  169914  169911       8  169917  169911       8  169917
  169914       9  169923  169920       8  169926  169920       8  169926  169923
       9  169932  169929       8  169935  169929       8  169935  169932       9
  169941  169938       8  169944  169938       8  169944  169941       9  169950
  169947       8  169953  169947       8  169953  169950       9  169959  169956
       8  169962  169956       8  169962  169959       9  169968  169965       8
  169971  169965       8  169971  169968       9  169977  169974       8  169980
  169974       8  169980  169977       9  169986  169983       8  169989  169983
       8  169989  169986       9  169995  169992       8  169998  169992       8
  169998  169995       9  170004  170001       8  170007  170001       8  170007
  170004       9  170013  170010       8  170016  170010       8  170016  170013
       9  170022  170019       8  170025  170019       8  170025  170022       9
  170031  170028       8  170034  170028       8  170034  170031       9  170040
  170037       8  170043  170037       8  170043  170040       9  170049  170046
       8  170052  170046       8  170052  170049       9  170058  170055       8
  170061  170055       8  170061  170058       9  170067  170064       8  170070
  170064       8  170070  170067       9  170076  170073       8  170079  170073
       8  170079  170076       9  170085  170082       8  170088  170082       8
  170088  170085       9  170094  170091       8  170097  170091       8  170097
  170094       9  170103  170100       8  170106  170100       8  170106  170103
       9  170112  170109       8  170115  170109       8  170115  170112       9
  170121  170118       8  170124  170118       8  170124  170121       9  170130
  170127       8  170133  170127       8  170133  170130       9  170139  170136
       8  170142  170136       8  170142  170139       9  170148  170145       8
  170151  170145       8  170151  170148       9  170157  170154       8  170160
  170154       8  170160  170157       9  170166  170163       8  170169  170163
       8  170169  170166       9  170175  170172       8  170178  170172       8
  170178  170175       9  170184  170181       8  170187  170181       8  170187
  170184       9  170193  170190       8  170196  170190       8  170196  170193
       9  170202  170199       8  170205  170199       8  170205  170202       9
  170211  170208       8  170214  170208       8  170214  170211       9  170220
  170217       8  170223  170217       8  170223  170220       9  170229  170226
       8  170232  170226       8  170232  170229       9  170238  170235       8
  170241  170235       8  170241  170238       9  170247  170244       8  170250
  170244       8  170250  170247       9  170256  170253       8  170259  170253
       8  170259  170256       9  170265  170262       8  170268  170262       8
  170268  170265       9  170274  170271       8  170277  170271       8  170277
  170274       9  170283  170280       8  170286  170280       8  170286  170283
       9  170292  170289       8  170295  170289       8  170295  170292       9
  170301  170298       8  170304  170298       8  170304  170301       9  170310
  170307       8  170313  170307       8  170313  170310       9  170319  170316
       8  170322  170316       8  170322  170319       9  170328  170325       8
  170331  170325       8  170331  170328       9  170337  170334       8  170340
  170334       8  170340  170337       9  170346  170343       8  170349  170343
       8  170349  170346       9  170355  170352       8  170358  170352       8
  170358  170355       9  170364  170361       8  170367  170361       8  170367
  170364       9  170373  170370       8  170376  170370       8  170376  170373
       9  170382  170379       8  170385  170379       8  170385  170382       9
  170391  170388       8  170394  170388       8  170394  170391       9  170400
  170397       8  170403  170397       8  170403  170400       9  170409  170406
       8  170412  170406       8  170412  170409       9  170418  170415       8
  170421  170415       8  170421  170418       9  170427  170424       8  170430
  170424       8  170430  170427       9  170436  170433       8  170439  170433
       8  170439  170436       9  170445  170442       8  170448  170442       8
  170448  170445       9  170454  170451       8  170457  170451       8  170457
  170454       9  170463  170460       8  170466  170460       8  170466  170463
       9  170472  170469       8  170475  170469       8  170475  170472       9
  170481  170478       8  170484  170478       8  170484  170481       9  170490
  170487       8  170493  170487       8  170493  170490       9  170499  170496
       8  170502  170496       8  170502  170499       9  170508  170505       8
  170511  170505       8  170511  170508       9  170517  170514       8  170520
  170514       8  170520  170517       9  170526  170523       8  170529  170523
       8  170529  170526       9  170535  170532       8  170538  170532       8
  170538  170535       9  170544  170541       8  170547  170541       8  170547
  170544       9  170553  170550       8  170556  170550       8  170556  170553
       9  170562  170559       8  170565  170559       8  170565  170562       9
  170571  170568       8  170574  170568       8  170574  170571       9  170580
  170577       8  170583  170577       8  170583  170580       9  170589  170586
       8  170592  170586       8  170592  170589       9  170598  170595       8
  170601  170595       8  170601  170598       9  170607  170604       8  170610
  170604       8  170610  170607       9  170616  170613       8  170619  170613
       8  170619  170616       9  170625  170622       8  170628  170622       8
  170628  170625       9  170634  170631       8  170637  170631       8  170637
  170634       9  170643  170640       8  170646  170640       8  170646  170643
       9  170652  170649       8  170655  170649       8  170655  170652       9
  170661  170658       8  170664  170658       8  170664  170661       9  170670
  170667       8  170673  170667       8  170673  170670       9  170679  170676
       8  170682  170676       8  170682  170679       9  170688  170685       8
  170691  170685       8  170691  170688       9  170697  170694       8  170700
  170694       8  170700  170697       9  170706  170703       8  170709  170703
       8  170709  170706       9  170715  170712       8  170718  170712       8
  170718  170715       9  170724  170721       8  170727  170721       8  170727
  170724       9  170733  170730       8  170736  170730       8  170736  170733
       9  170742  170739       8  170745  170739       8  170745  170742       9
  170751  170748       8  170754  170748       8  170754  170751       9  170760
  170757       8  170763  170757       8  170763  170760       9  170769  170766
       8  170772  170766       8  170772  170769       9  170778  170775       8
  170781  170775       8  170781  170778       9  170787  170784       8  170790
  170784       8  170790  170787       9  170796  170793       8  170799  170793
       8  170799  170796       9  170805  170802       8  170808  170802       8
  170808  170805       9  170814  170811       8  170817  170811       8  170817
  170814       9  170823  170820       8  170826  170820       8  170826  170823
       9  170832  170829       8  170835  170829       8  170835  170832       9
  170841  170838       8  170844  170838       8  170844  170841       9  170850
  170847       8  170853  170847       8  170853  170850       9  170859  170856
       8  170862  170856       8  170862  170859       9  170868  170865       8
  170871  170865       8  170871  170868       9  170877  170874       8  170880
  170874       8  170880  170877       9  170886  170883       8  170889  170883
       8  170889  170886       9  170895  170892       8  170898  170892       8
  170898  170895       9  170904  170901       8  170907  170901       8  170907
  170904       9  170913  170910       8  170916  170910       8  170916  170913
       9  170922  170919       8  170925  170919       8  170925  170922       9
  170931  170928       8  170934  170928       8  170934  170931       9  170940
  170937       8  170943  170937       8  170943  170940       9  170949  170946
       8  170952  170946       8  170952  170949       9  170958  170955       8
  170961  170955       8  170961  170958       9  170967  170964       8  170970
  170964       8  170970  170967       9  170976  170973       8  170979  170973
       8  170979  170976       9  170985  170982       8  170988  170982       8
  170988  170985       9  170994  170991       8  170997  170991       8  170997
  170994       9  171003  171000       8  171006  171000       8  171006  171003
       9  171012  171009       8  171015  171009       8  171015  171012       9
  171021  171018       8  171024  171018       8  171024  171021       9  171030
  171027       8  171033  171027       8  171033  171030       9  171039  171036
       8  171042  171036       8  171042  171039       9  171048  171045       8
  171051  171045       8  171051  171048       9  171057  171054       8  171060
  171054       8  171060  171057       9  171066  171063       8  171069  171063
       8  171069  171066       9  171075  171072       8  171078  171072       8
  171078  171075       9  171084  171081       8  171087  171081       8  171087
  171084       9  171093  171090       8  171096  171090       8  171096  171093
       9  171102  171099       8  171105  171099       8  171105  171102       9
  171111  171108       8  171114  171108       8  171114  171111       9  171120
  171117       8  171123  171117       8  171123  171120       9  171129  171126
       8  171132  171126       8  171132  171129       9  171138  171135       8
  171141  171135       8  171141  171138       9  171147  171144       8  171150
  171144       8  171150  171147       9  171156  171153       8  171159  171153
       8  171159  171156       9  171165  171162       8  171168  171162       8
  171168  171165       9  171174  171171       8  171177  171171       8  171177
  171174       9  171183  171180       8  171186  171180       8  171186  171183
       9  171192  171189       8  171195  171189       8  171195  171192       9
  171201  171198       8  171204  171198       8  171204  171201       9  171210
  171207       8  171213  171207       8  171213  171210       9  171219  171216
       8  171222  171216       8  171222  171219       9  171228  171225       8
  171231  171225       8  171231  171228       9  171237  171234       8  171240
  171234       8  171240  171237       9  171246  171243       8  171249  171243
       8  171249  171246       9  171255  171252       8  171258  171252       8
  171258  171255       9  171264  171261       8  171267  171261       8  171267
  171264       9  171273  171270       8  171276  171270       8  171276  171273
       9  171282  171279       8  171285  171279       8  171285  171282       9
  171291  171288       8  171294  171288       8  171294  171291       9  171300
  171297       8  171303  171297       8  171303  171300       9  171309  171306
       8  171312  171306       8  171312  171309       9  171318  171315       8
  171321  171315       8  171321  171318       9  171327  171324       8  171330
  171324       8  171330  171327       9  171336  171333       8  171339  171333
       8  171339  171336       9  171345  171342       8  171348  171342       8
  171348  171345       9  171354  171351       8  171357  171351       8  171357
  171354       9  171363  171360       8  171366  171360       8  171366  171363
       9  171372  171369       8  171375  171369       8  171375  171372       9
  171381  171378       8  171384  171378       8  171384  171381       9  171390
  171387       8  171393  171387       8  171393  171390       9  171399  171396
       8  171402  171396       8  171402  171399       9  171408  171405       8
  171411  171405       8  171411  171408       9  171417  171414       8  171420
  171414       8  171420  171417       9  171426  171423       8  171429  171423
       8  171429  171426       9  171435  171432       8  171438  171432       8
  171438  171435       9  171444  171441       8  171447  171441       8  171447
  171444       9  171453  171450       8  171456  171450       8  171456  171453
       9  171462  171459       8  171465  171459       8  171465  171462       9
  171471  171468       8  171474  171468       8  171474  171471       9  171480
  171477       8  171483  171477       8  171483  171480       9  171489  171486
       8  171492  171486       8  171492  171489       9  171498  171495       8
  171501  171495       8  171501  171498       9  171507  171504       8  171510
  171504       8  171510  171507       9  171516  171513       8  171519  171513
       8  171519  171516       9  171525  171522       8  171528  171522       8
  171528  171525       9  171534  171531       8  171537  171531       8  171537
  171534       9  171543  171540       8  171546  171540       8  171546  171543
       9  171552  171549       8  171555  171549       8  171555  171552       9
  171561  171558       8  171564  171558       8  171564  171561       9  171570
  171567       8  171573  171567       8  171573  171570       9  171579  171576
       8  171582  171576       8  171582  171579       9  171588  171585       8
  171591  171585       8  171591  171588       9  171597  171594       8  171600
  171594       8  171600  171597       9  171606  171603       8  171609  171603
       8  171609  171606       9  171615  171612       8  171618  171612       8
  171618  171615       9  171624  171621       8  171627  171621       8  171627
  171624       9  171633  171630       8  171636  171630       8  171636  171633
       9  171642  171639       8  171645  171639       8  171645  171642       9
  171651  171648       8  171654  171648       8  171654  171651       9  171660
  171657       8  171663  171657       8  171663  171660       9  171669  171666
       8  171672  171666       8  171672  171669       9  171678  171675       8
  171681  171675       8  171681  171678       9  171687  171684       8  171690
  171684       8  171690  171687       9  171696  171693       8  171699  171693
       8  171699  171696       9  171705  171702       8  171708  171702       8
  171708  171705       9  171714  171711       8  171717  171711       8  171717
  171714       9  171723  171720       8  171726  171720       8  171726  171723
       9  171732  171729       8  171735  171729       8  171735  171732       9
  171741  171738       8  171744  171738       8  171744  171741       9  171750
  171747       8  171753  171747       8  171753  171750       9  171759  171756
       8  171762  171756       8  171762  171759       9  171768  171765       8
  171771  171765       8  171771  171768       9  171777  171774       8  171780
  171774       8  171780  171777       9  171786  171783       8  171789  171783
       8  171789  171786       9  171795  171792       8  171798  171792       8
  171798  171795       9  171804  171801       8  171807  171801       8  171807
  171804       9  171813  171810       8  171816  171810       8  171816  171813
       9  171822  171819       8  171825  171819       8  171825  171822       9
  171831  171828       8  171834  171828       8  171834  171831       9  171840
  171837       8  171843  171837       8  171843  171840       9  171849  171846
       8  171852  171846       8  171852  171849       9  171858  171855       8
  171861  171855       8  171861  171858       9  171867  171864       8  171870
  171864       8  171870  171867       9  171876  171873       8  171879  171873
       8  171879  171876       9  171885  171882       8  171888  171882       8
  171888  171885       9  171894  171891       8  171897  171891       8  171897
  171894       9  171903  171900       8  171906  171900       8  171906  171903
       9  171912  171909       8  171915  171909       8  171915  171912       9
  171921  171918       8  171924  171918       8  171924  171921       9  171930
  171927       8  171933  171927       8  171933  171930       9  171939  171936
       8  171942  171936       8  171942  171939       9  171948  171945       8
  171951  171945       8  171951  171948       9  171957  171954       8  171960
  171954       8  171960  171957       9  171966  171963       8  171969  171963
       8  171969  171966       9  171975  171972       8  171978  171972       8
  171978  171975       9  171984  171981       8  171987  171981       8  171987
  171984       9  171993  171990       8  171996  171990       8  171996  171993
       9  172002  171999       8  172005  171999       8  172005  172002       9
  172011  172008       8  172014  172008       8  172014  172011       9  172020
  172017       8  172023  172017       8  172023  172020       9  172029  172026
       8  172032  172026       8  172032  172029       9  172038  172035       8
  172041  172035       8  172041  172038       9  172047  172044       8  172050
  172044       8  172050  172047       9  172056  172053       8  172059  172053
       8  172059  172056       9  172065  172062       8  172068  172062       8
  172068  172065       9  172074  172071       8  172077  172071       8  172077
  172074       9  172083  172080       8  172086  172080       8  172086  172083
       9  172092  172089       8  172095  172089       8  172095  172092       9
  172101  172098       8  172104  172098       8  172104  172101       9  172110
  172107       8  172113  172107       8  172113  172110       9  172119  172116
       8  172122  172116       8  172122  172119       9  172128  172125       8
  172131  172125       8  172131  172128       9  172137  172134       8  172140
  172134       8  172140  172137       9  172146  172143       8  172149  172143
       8  172149  172146       9  172155  172152       8  172158  172152       8
  172158  172155       9  172164  172161       8  172167  172161       8  172167
  172164       9  172173  172170       8  172176  172170       8  172176  172173
       9  172182  172179       8  172185  172179       8  172185  172182       9
  172191  172188       8  172194  172188       8  172194  172191       9  172200
  172197       8  172203  172197       8  172203  172200       9  172209  172206
       8  172212  172206       8  172212  172209       9  172218  172215       8
  172221  172215       8  172221  172218       9  172227  172224       8  172230
  172224       8  172230  172227       9  172236  172233       8  172239  172233
       8  172239  172236       9  172245  172242       8  172248  172242       8
  172248  172245       9  172254  172251       8  172257  172251       8  172257
  172254       9  172263  172260       8  172266  172260       8  172266  172263
       9  172272  172269       8  172275  172269       8  172275  172272       9
  172281  172278       8  172284  172278       8  172284  172281       9  172290
  172287       8  172293  172287       8  172293  172290       9  172299  172296
       8  172302  172296       8  172302  172299       9  172308  172305       8
  172311  172305       8  172311  172308       9  172317  172314       8  172320
  172314       8  172320  172317       9  172326  172323       8  172329  172323
       8  172329  172326       9  172335  172332       8  172338  172332       8
  172338  172335       9  172344  172341       8  172347  172341       8  172347
  172344       9  172353  172350       8  172356  172350       8  172356  172353
       9  172362  172359       8  172365  172359       8  172365  172362       9
  172371  172368       8  172374  172368       8  172374  172371       9  172380
  172377       8  172383  172377       8  172383  172380       9  172389  172386
       8  172392  172386       8  172392  172389       9  172398  172395       8
  172401  172395       8  172401  172398       9  172407  172404       8  172410
  172404       8  172410  172407       9  172416  172413       8  172419  172413
       8  172419  172416       9  172425  172422       8  172428  172422       8
  172428  172425       9  172434  172431       8  172437  172431       8  172437
  172434       9  172443  172440       8  172446  172440       8  172446  172443
       9  172452  172449       8  172455  172449       8  172455  172452       9
  172461  172458       8  172464  172458       8  172464  172461       9  172470
  172467       8  172473  172467       8  172473  172470       9  172479  172476
       8  172482  172476       8  172482  172479       9  172488  172485       8
  172491  172485       8  172491  172488       9  172497  172494       8  172500
  172494       8  172500  172497       9  172506  172503       8  172509  172503
       8  172509  172506       9  172515  172512       8  172518  172512       8
  172518  172515       9  172524  172521       8  172527  172521       8  172527
  172524       9  172533  172530       8  172536  172530       8  172536  172533
       9  172542  172539       8  172545  172539       8  172545  172542       9
  172551  172548       8  172554  172548       8  172554  172551       9  172560
  172557       8  172563  172557       8  172563  172560       9  172569  172566
       8  172572  172566       8  172572  172569       9  172578  172575       8
  172581  172575       8  172581  172578       9  172587  172584       8  172590
  172584       8  172590  172587       9  172596  172593       8  172599  172593
       8  172599  172596       9  172605  172602       8  172608  172602       8
  172608  172605       9  172614  172611       8  172617  172611       8  172617
  172614       9  172623  172620       8  172626  172620       8  172626  172623
       9  172632  172629       8  172635  172629       8  172635  172632       9
  172641  172638       8  172644  172638       8  172644  172641       9  172650
  172647       8  172653  172647       8  172653  172650       9  172659  172656
       8  172662  172656       8  172662  172659       9  172668  172665       8
  172671  172665       8  172671  172668       9  172677  172674       8  172680
  172674       8  172680  172677       9  172686  172683       8  172689  172683
       8  172689  172686       9  172695  172692       8  172698  172692       8
  172698  172695       9  172704  172701       8  172707  172701       8  172707
  172704       9  172713  172710       8  172716  172710       8  172716  172713
       9  172722  172719       8  172725  172719       8  172725  172722       9
  172731  172728       8  172734  172728       8  172734  172731       9  172740
  172737       8  172743  172737       8  172743  172740       9  172749  172746
       8  172752  172746       8  172752  172749       9  172758  172755       8
  172761  172755       8  172761  172758       9  172767  172764       8  172770
  172764       8  172770  172767       9  172776  172773       8  172779  172773
       8  172779  172776       9  172785  172782       8  172788  172782       8
  172788  172785       9  172794  172791       8  172797  172791       8  172797
  172794       9  172803  172800       8  172806  172800       8  172806  172803
       9  172812  172809       8  172815  172809       8  172815  172812       9
  172821  172818       8  172824  172818       8  172824  172821       9  172830
  172827       8  172833  172827       8  172833  172830       9  172839  172836
       8  172842  172836       8  172842  172839       9  172848  172845       8
  172851  172845       8  172851  172848       9  172857  172854       8  172860
  172854       8  172860  172857       9  172866  172863       8  172869  172863
       8  172869  172866       9  172875  172872       8  172878  172872       8
  172878  172875       9  172884  172881       8  172887  172881       8  172887
  172884       9  172893  172890       8  172896  172890       8  172896  172893
       9  172902  172899       8  172905  172899       8  172905  172902       9
  172911  172908       8  172914  172908       8  172914  172911       9  172920
  172917       8  172923  172917       8  172923  172920       9  172929  172926
       8  172932  172926       8  172932  172929       9  172938  172935       8
  172941  172935       8  172941  172938       9  172947  172944       8  172950
  172944       8  172950  172947       9  172956  172953       8  172959  172953
       8  172959  172956       9  172965  172962       8  172968  172962       8
  172968  172965       9  172974  172971       8  172977  172971       8  172977
  172974       9  172983  172980       8  172986  172980       8  172986  172983
       9  172992  172989       8  172995  172989       8  172995  172992       9
  173001  172998       8  173004  172998       8  173004  173001       9  173010
  173007       8  173013  173007       8  173013  173010       9  173019  173016
       8  173022  173016       8  173022  173019       9  173028  173025       8
  173031  173025       8  173031  173028       9  173037  173034       8  173040
  173034       8  173040  173037       9  173046  173043       8  173049  173043
       8  173049  173046       9  173055  173052       8  173058  173052       8
  173058  173055       9  173064  173061       8  173067  173061       8  173067
  173064       9  173073  173070       8  173076  173070       8  173076  173073
       9  173082  173079       8  173085  173079       8  173085  173082       9
  173091  173088       8  173094  173088       8  173094  173091       9  173100
  173097       8  173103  173097       8  173103  173100       9  173109  173106
       8  173112  173106       8  173112  173109       9  173118  173115       8
  173121  173115       8  173121  173118       9  173127  173124       8  173130
  173124       8  173130  173127       9  173136  173133       8  173139  173133
       8  173139  173136       9  173145  173142       8  173148  173142       8
  173148  173145       9  173154  173151       8  173157  173151       8  173157
  173154       9  173163  173160       8  173166  173160       8  173166  173163
       9  173172  173169       8  173175  173169       8  173175  173172       9
  173181  173178       8  173184  173178       8  173184  173181       9  173190
  173187       8  173193  173187       8  173193  173190       9  173199  173196
       8  173202  173196       8  173202  173199       9  173208  173205       8
  173211  173205       8  173211  173208       9  173217  173214       8  173220
  173214       8  173220  173217       9  173226  173223       8  173229  173223
       8  173229  173226       9  173235  173232       8  173238  173232       8
  173238  173235       9  173244  173241       8  173247  173241       8  173247
  173244       9  173253  173250       8  173256  173250       8  173256  173253
       9  173262  173259       8  173265  173259       8  173265  173262       9
  173271  173268       8  173274  173268       8  173274  173271       9  173280
  173277       8  173283  173277       8  173283  173280       9  173289  173286
       8  173292  173286       8  173292  173289       9  173298  173295       8
  173301  173295       8  173301  173298       9  173307  173304       8  173310
  173304       8  173310  173307       9  173316  173313       8  173319  173313
       8  173319  173316       9  173325  173322       8  173328  173322       8
  173328  173325       9  173334  173331       8  173337  173331       8  173337
  173334       9  173343  173340       8  173346  173340       8  173346  173343
       9  173352  173349       8  173355  173349       8  173355  173352       9
  173361  173358       8  173364  173358       8  173364  173361       9  173370
  173367       8  173373  173367       8  173373  173370       9  173379  173376
       8  173382  173376       8  173382  173379       9  173388  173385       8
  173391  173385       8  173391  173388       9  173397  173394       8  173400
  173394       8  173400  173397       9  173406  173403       8  173409  173403
       8  173409  173406       9  173415  173412       8  173418  173412       8
  173418  173415       9  173424  173421       8  173427  173421       8  173427
  173424       9  173433  173430       8  173436  173430       8  173436  173433
       9  173442  173439       8  173445  173439       8  173445  173442       9
  173451  173448       8  173454  173448       8  173454  173451       9  173460
  173457       8  173463  173457       8  173463  173460       9  173469  173466
       8  173472  173466       8  173472  173469       9  173478  173475       8
  173481  173475       8  173481  173478       9  173487  173484       8  173490
  173484       8  173490  173487       9  173496  173493       8  173499  173493
       8  173499  173496       9  173505  173502       8  173508  173502       8
  173508  173505       9  173514  173511       8  173517  173511       8  173517
  173514       9  173523  173520       8  173526  173520       8  173526  173523
       9  173532  173529       8  173535  173529       8  173535  173532       9
  173541  173538       8  173544  173538       8  173544  173541       9  173550
  173547       8  173553  173547       8  173553  173550       9  173559  173556
       8  173562  173556       8  173562  173559       9  173568  173565       8
  173571  173565       8  173571  173568       9  173577  173574       8  173580
  173574       8  173580  173577       9  173586  173583       8  173589  173583
       8  173589  173586       9  173595  173592       8  173598  173592       8
  173598  173595       9  173604  173601       8  173607  173601       8  173607
  173604       9  173613  173610       8  173616  173610       8  173616  173613
       9  173622  173619       8  173625  173619       8  173625  173622       9
  173631  173628       8  173634  173628       8  173634  173631       9  173640
  173637       8  173643  173637       8  173643  173640       9  173649  173646
       8  173652  173646       8  173652  173649       9  173658  173655       8
  173661  173655       8  173661  173658       9  173667  173664       8  173670
  173664       8  173670  173667       9  173676  173673       8  173679  173673
       8  173679  173676       9  173685  173682       8  173688  173682       8
  173688  173685       9  173694  173691       8  173697  173691       8  173697
  173694       9  173703  173700       8  173706  173700       8  173706  173703
       9  173712  173709       8  173715  173709       8  173715  173712       9
  173721  173718       8  173724  173718       8  173724  173721       9  173730
  173727       8  173733  173727       8  173733  173730       9  173739  173736
       8  173742  173736       8  173742  173739       9  173748  173745       8
  173751  173745       8  173751  173748       9  173757  173754       8  173760
  173754       8  173760  173757       9  173766  173763       8  173769  173763
       8  173769  173766       9  173775  173772       8  173778  173772       8
  173778  173775       9  173784  173781       8  173787  173781       8  173787
  173784       9  173793  173790       8  173796  173790       8  173796  173793
       9  173802  173799       8  173805  173799       8  173805  173802       9
  173811  173808       8  173814  173808       8  173814  173811       9  173820
  173817       8  173823  173817       8  173823  173820       9  173829  173826
       8  173832  173826       8  173832  173829       9  173838  173835       8
  173841  173835       8  173841  173838       9  173847  173844       8  173850
  173844       8  173850  173847       9  173856  173853       8  173859  173853
       8  173859  173856       9  173865  173862       8  173868  173862       8
  173868  173865       9  173874  173871       8  173877  173871       8  173877
  173874       9  173883  173880       8  173886  173880       8  173886  173883
       9  173892  173889       8  173895  173889       8  173895  173892       9
  173901  173898       8  173904  173898       8  173904  173901       9  173910
  173907       8  173913  173907       8  173913  173910       9  173919  173916
       8  173922  173916       8  173922  173919       9  173928  173925       8
  173931  173925       8  173931  173928       9  173937  173934       8  173940
  173934       8  173940  173937       9  173946  173943       8  173949  173943
       8  173949  173946       9  173955  173952       8  173958  173952       8
  173958  173955       9  173964  173961       8  173967  173961       8  173967
  173964       9  173973  173970       8  173976  173970       8  173976  173973
       9  173982  173979       8  173985  173979       8  173985  173982       9
  173991  173988       8  173994  173988       8  173994  173991       9  174000
  173997       8  174003  173997       8  174003  174000       9  174009  174006
       8  174012  174006       8  174012  174009       9  174018  174015       8
  174021  174015       8  174021  174018       9  174027  174024       8  174030
  174024       8  174030  174027       9  174036  174033       8  174039  174033
       8  174039  174036       9  174045  174042       8  174048  174042       8
  174048  174045       9  174054  174051       8  174057  174051       8  174057
  174054       9  174063  174060       8  174066  174060       8  174066  174063
       9  174072  174069       8  174075  174069       8  174075  174072       9
  174081  174078       8  174084  174078       8  174084  174081       9  174090
  174087       8  174093  174087       8  174093  174090       9  174099  174096
       8  174102  174096       8  174102  174099       9  174108  174105       8
  174111  174105       8  174111  174108       9  174117  174114       8  174120
  174114       8  174120  174117       9  174126  174123       8  174129  174123
       8  174129  174126       9  174135  174132       8  174138  174132       8
  174138  174135       9  174144  174141       8  174147  174141       8  174147
  174144       9  174153  174150       8  174156  174150       8  174156  174153
       9  174162  174159       8  174165  174159       8  174165  174162       9
  174171  174168       8  174174  174168       8  174174  174171       9  174180
  174177       8  174183  174177       8  174183  174180       9  174189  174186
       8  174192  174186       8  174192  174189       9  174198  174195       8
  174201  174195       8  174201  174198       9  174207  174204       8  174210
  174204       8  174210  174207       9  174216  174213       8  174219  174213
       8  174219  174216       9  174225  174222       8  174228  174222       8
  174228  174225       9  174234  174231       8  174237  174231       8  174237
  174234       9  174243  174240       8  174246  174240       8  174246  174243
       9  174252  174249       8  174255  174249       8  174255  174252       9
  174261  174258       8  174264  174258       8  174264  174261       9  174270
  174267       8  174273  174267       8  174273  174270       9  174279  174276
       8  174282  174276       8  174282  174279       9  174288  174285       8
  174291  174285       8  174291  174288       9  174297  174294       8  174300
  174294       8  174300  174297       9  174306  174303       8  174309  174303
       8  174309  174306       9  174315  174312       8  174318  174312       8
  174318  174315       9  174324  174321       8  174327  174321       8  174327
  174324       9  174333  174330       8  174336  174330       8  174336  174333
       9  174342  174339       8  174345  174339       8  174345  174342       9
  174351  174348       8  174354  174348       8  174354  174351       9  174360
  174357       8  174363  174357       8  174363  174360       9  174369  174366
       8  174372  174366       8  174372  174369       9  174378  174375       8
  174381  174375       8  174381  174378       9  174387  174384       8  174390
  174384       8  174390  174387       9  174396  174393       8  174399  174393
       8  174399  174396       9  174405  174402       8  174408  174402       8
  174408  174405       9  174414  174411       8  174417  174411       8  174417
  174414       9  174423  174420       8  174426  174420       8  174426  174423
       9  174432  174429       8  174435  174429       8  174435  174432       9
  174441  174438       8  174444  174438       8  174444  174441       9  174450
  174447       8  174453  174447       8  174453  174450       9  174459  174456
       8  174462  174456       8  174462  174459       9  174468  174465       8
  174471  174465       8  174471  174468       9  174477  174474       8  174480
  174474       8  174480  174477       9  174486  174483       8  174489  174483
       8  174489  174486       9  174495  174492       8  174498  174492       8
  174498  174495       9  174504  174501       8  174507  174501       8  174507
  174504       9  174513  174510       8  174516  174510       8  174516  174513
       9  174522  174519       8  174525  174519       8  174525  174522       9
  174531  174528       8  174534  174528       8  174534  174531       9  174540
  174537       8  174543  174537       8  174543  174540       9  174549  174546
       8  174552  174546       8  174552  174549       9  174558  174555       8
  174561  174555       8  174561  174558       9  174567  174564       8  174570
  174564       8  174570  174567       9  174576  174573       8  174579  174573
       8  174579  174576       9  174585  174582       8  174588  174582       8
  174588  174585       9  174594  174591       8  174597  174591       8  174597
  174594       9  174603  174600       8  174606  174600       8  174606  174603
       9  174612  174609       8  174615  174609       8  174615  174612       9
  174621  174618       8  174624  174618       8  174624  174621       9  174630
  174627       8  174633  174627       8  174633  174630       9  174639  174636
       8  174642  174636       8  174642  174639       9  174648  174645       8
  174651  174645       8  174651  174648       9  174657  174654       8  174660
  174654       8  174660  174657       9  174666  174663       8  174669  174663
       8  174669  174666       9  174675  174672       8  174678  174672       8
  174678  174675       9  174684  174681       8  174687  174681       8  174687
  174684       9  174693  174690       8  174696  174690       8  174696  174693
       9  174702  174699       8  174705  174699       8  174705  174702       9
  174711  174708       8  174714  174708       8  174714  174711       9  174720
  174717       8  174723  174717       8  174723  174720       9  174729  174726
       8  174732  174726       8  174732  174729       9  174738  174735       8
  174741  174735       8  174741  174738       9  174747  174744       8  174750
  174744       8  174750  174747       9  174756  174753       8  174759  174753
       8  174759  174756       9  174765  174762       8  174768  174762       8
  174768  174765       9  174774  174771       8  174777  174771       8  174777
  174774       9  174783  174780       8  174786  174780       8  174786  174783
       9  174792  174789       8  174795  174789       8  174795  174792       9
  174801  174798       8  174804  174798       8  174804  174801       9  174810
  174807       8  174813  174807       8  174813  174810       9  174819  174816
       8  174822  174816       8  174822  174819       9  174828  174825       8
  174831  174825       8  174831  174828       9  174837  174834       8  174840
  174834       8  174840  174837       9  174846  174843       8  174849  174843
       8  174849  174846       9  174855  174852       8  174858  174852       8
  174858  174855       9  174864  174861       8  174867  174861       8  174867
  174864       9  174873  174870       8  174876  174870       8  174876  174873
       9  174882  174879       8  174885  174879       8  174885  174882       9
  174891  174888       8  174894  174888       8  174894  174891       9  174900
  174897       8  174903  174897       8  174903  174900       9  174909  174906
       8  174912  174906       8  174912  174909       9  174918  174915       8
  174921  174915       8  174921  174918       9  174927  174924       8  174930
  174924       8  174930  174927       9  174936  174933       8  174939  174933
       8  174939  174936       9  174945  174942       8  174948  174942       8
  174948  174945       9  174954  174951       8  174957  174951       8  174957
  174954       9  174963  174960       8  174966  174960       8  174966  174963
       9  174972  174969       8  174975  174969       8  174975  174972       9
  174981  174978       8  174984  174978       8  174984  174981       9  174990
  174987       8  174993  174987       8  174993  174990       9  174999  174996
       8  175002  174996       8  175002  174999       9  175008  175005       8
  175011  175005       8  175011  175008       9  175017  175014       8  175020
  175014       8  175020  175017       9  175026  175023       8  175029  175023
       8  175029  175026       9  175035  175032       8  175038  175032       8
  175038  175035       9  175044  175041       8  175047  175041       8  175047
  175044       9  175053  175050       8  175056  175050       8  175056  175053
       9  175062  175059       8  175065  175059       8  175065  175062       9
  175071  175068       8  175074  175068       8  175074  175071       9  175080
  175077       8  175083  175077       8  175083  175080       9  175089  175086
       8  175092  175086       8  175092  175089       9  175098  175095       8
  175101  175095       8  175101  175098       9  175107  175104       8  175110
  175104       8  175110  175107       9  175116  175113       8  175119  175113
       8  175119  175116       9  175125  175122       8  175128  175122       8
  175128  175125       9  175134  175131       8  175137  175131       8  175137
  175134       9  175143  175140       8  175146  175140       8  175146  175143
       9  175152  175149       8  175155  175149       8  175155  175152       9
  175161  175158       8  175164  175158       8  175164  175161       9  175170
  175167       8  175173  175167       8  175173  175170       9  175179  175176
       8  175182  175176       8  175182  175179       9  175188  175185       8
  175191  175185       8  175191  175188       9  175197  175194       8  175200
  175194       8  175200  175197       9  175206  175203       8  175209  175203
       8  175209  175206       9  175215  175212       8  175218  175212       8
  175218  175215       9  175224  175221       8  175227  175221       8  175227
  175224       9  175233  175230       8  175236  175230       8  175236  175233
       9  175242  175239       8  175245  175239       8  175245  175242       9
  175251  175248       8  175254  175248       8  175254  175251       9  175260
  175257       8  175263  175257       8  175263  175260       9  175269  175266
       8  175272  175266       8  175272  175269       9  175278  175275       8
  175281  175275       8  175281  175278       9  175287  175284       8  175290
  175284       8  175290  175287       9  175296  175293       8  175299  175293
       8  175299  175296       9  175305  175302       8  175308  175302       8
  175308  175305       9  175314  175311       8  175317  175311       8  175317
  175314       9  175323  175320       8  175326  175320       8  175326  175323
       9  175332  175329       8  175335  175329       8  175335  175332       9
  175341  175338       8  175344  175338       8  175344  175341       9  175350
  175347       8  175353  175347       8  175353  175350       9  175359  175356
       8  175362  175356       8  175362  175359       9  175368  175365       8
  175371  175365       8  175371  175368       9  175377  175374       8  175380
  175374       8  175380  175377       9  175386  175383       8  175389  175383
       8  175389  175386       9  175395  175392       8  175398  175392       8
  175398  175395       9  175404  175401       8  175407  175401       8  175407
  175404       9  175413  175410       8  175416  175410       8  175416  175413
       9  175422  175419       8  175425  175419       8  175425  175422       9
  175431  175428       8  175434  175428       8  175434  175431       9  175440
  175437       8  175443  175437       8  175443  175440       9  175449  175446
       8  175452  175446       8  175452  175449       9  175458  175455       8
  175461  175455       8  175461  175458       9  175467  175464       8  175470
  175464       8  175470  175467       9  175476  175473       8  175479  175473
       8  175479  175476       9  175485  175482       8  175488  175482       8
  175488  175485       9  175494  175491       8  175497  175491       8  175497
  175494       9  175503  175500       8  175506  175500       8  175506  175503
       9  175512  175509       8  175515  175509       8  175515  175512       9
  175521  175518       8  175524  175518       8  175524  175521       9  175530
  175527       8  175533  175527       8  175533  175530       9  175539  175536
       8  175542  175536       8  175542  175539       9  175548  175545       8
  175551  175545       8  175551  175548       9  175557  175554       8  175560
  175554       8  175560  175557       9  175566  175563       8  175569  175563
       8  175569  175566       9  175575  175572       8  175578  175572       8
  175578  175575       9  175584  175581       8  175587  175581       8  175587
  175584       9  175593  175590       8  175596  175590       8  175596  175593
       9  175602  175599       8  175605  175599       8  175605  175602       9
  175611  175608       8  175614  175608       8  175614  175611       9  175620
  175617       8  175623  175617       8  175623  175620       9  175629  175626
       8  175632  175626       8  175632  175629       9  175638  175635       8
  175641  175635       8  175641  175638       9  175647  175644       8  175650
  175644       8  175650  175647       9  175656  175653       8  175659  175653
       8  175659  175656       9  175665  175662       8  175668  175662       8
  175668  175665       9  175674  175671       8  175677  175671       8  175677
  175674       9  175683  175680       8  175686  175680       8  175686  175683
       9  175692  175689       8  175695  175689       8  175695  175692       9
  175701  175698       8  175704  175698       8  175704  175701       9  175710
  175707       8  175713  175707       8  175713  175710       9  175719  175716
       8  175722  175716       8  175722  175719       9  175728  175725       8
  175731  175725       8  175731  175728       9  175737  175734       8  175740
  175734       8  175740  175737       9  175746  175743       8  175749  175743
       8  175749  175746       9  175755  175752       8  175758  175752       8
  175758  175755       9  175764  175761       8  175767  175761       8  175767
  175764       9  175773  175770       8  175776  175770       8  175776  175773
       9  175782  175779       8  175785  175779       8  175785  175782       9
  175791  175788       8  175794  175788       8  175794  175791       9  175800
  175797       8  175803  175797       8  175803  175800       9  175809  175806
       8  175812  175806       8  175812  175809       9  175818  175815       8
  175821  175815       8  175821  175818       9  175827  175824       8  175830
  175824       8  175830  175827       9  175836  175833       8  175839  175833
       8  175839  175836       9  175845  175842       8  175848  175842       8
  175848  175845       9  175854  175851       8  175857  175851       8  175857
  175854       9  175863  175860       8  175866  175860       8  175866  175863
       9  175872  175869       8  175875  175869       8  175875  175872       9
  175881  175878       8  175884  175878       8  175884  175881       9  175890
  175887       8  175893  175887       8  175893  175890       9  175899  175896
       8  175902  175896       8  175902  175899       9  175908  175905       8
  175911  175905       8  175911  175908       9  175917  175914       8  175920
  175914       8  175920  175917       9  175926  175923       8  175929  175923
       8  175929  175926       9  175935  175932       8  175938  175932       8
  175938  175935       9  175944  175941       8  175947  175941       8  175947
  175944       9  175953  175950       8  175956  175950       8  175956  175953
       9  175962  175959       8  175965  175959       8  175965  175962       9
  175971  175968       8  175974  175968       8  175974  175971       9  175980
  175977       8  175983  175977       8  175983  175980       9  175989  175986
       8  175992  175986       8  175992  175989       9  175998  175995       8
  176001  175995       8  176001  175998       9  176007  176004       8  176010
  176004       8  176010  176007       9  176016  176013       8  176019  176013
       8  176019  176016       9  176025  176022       8  176028  176022       8
  176028  176025       9  176034  176031       8  176037  176031       8  176037
  176034       9  176043  176040       8  176046  176040       8  176046  176043
       9  176052  176049       8  176055  176049       8  176055  176052       9
  176061  176058       8  176064  176058       8  176064  176061       9  176070
  176067       8  176073  176067       8  176073  176070       9  176079  176076
       8  176082  176076       8  176082  176079       9  176088  176085       8
  176091  176085       8  176091  176088       9  176097  176094       8  176100
  176094       8  176100  176097       9  176106  176103       8  176109  176103
       8  176109  176106       9  176115  176112       8  176118  176112       8
  176118  176115       9  176124  176121       8  176127  176121       8  176127
  176124       9  176133  176130       8  176136  176130       8  176136  176133
       9  176142  176139       8  176145  176139       8  176145  176142       9
  176151  176148       8  176154  176148       8  176154  176151       9  176160
  176157       8  176163  176157       8  176163  176160       9  176169  176166
       8  176172  176166       8  176172  176169       9  176178  176175       8
  176181  176175       8  176181  176178       9  176187  176184       8  176190
  176184       8  176190  176187       9  176196  176193       8  176199  176193
       8  176199  176196       9  176205  176202       8  176208  176202       8
  176208  176205       9  176214  176211       8  176217  176211       8  176217
  176214       9  176223  176220       8  176226  176220       8  176226  176223
       9  176232  176229       8  176235  176229       8  176235  176232       9
  176241  176238       8  176244  176238       8  176244  176241       9  176250
  176247       8  176253  176247       8  176253  176250       9  176259  176256
       8  176262  176256       8  176262  176259       9  176268  176265       8
  176271  176265       8  176271  176268       9  176277  176274       8  176280
  176274       8  176280  176277       9  176286  176283       8  176289  176283
       8  176289  176286       9  176295  176292       8  176298  176292       8
  176298  176295       9  176304  176301       8  176307  176301       8  176307
  176304       9  176313  176310       8  176316  176310       8  176316  176313
       9  176322  176319       8  176325  176319       8  176325  176322       9
  176331  176328       8  176334  176328       8  176334  176331       9  176340
  176337       8  176343  176337       8  176343  176340       9  176349  176346
       8  176352  176346       8  176352  176349       9  176358  176355       8
  176361  176355       8  176361  176358       9  176367  176364       8  176370
  176364       8  176370  176367       9  176376  176373       8  176379  176373
       8  176379  176376       9  176385  176382       8  176388  176382       8
  176388  176385       9  176394  176391       8  176397  176391       8  176397
  176394       9  176403  176400       8  176406  176400       8  176406  176403
       9  176412  176409       8  176415  176409       8  176415  176412       9
  176421  176418       8  176424  176418       8  176424  176421       9  176430
  176427       8  176433  176427       8  176433  176430       9  176439  176436
       8  176442  176436       8  176442  176439       9  176448  176445       8
  176451  176445       8  176451  176448       9  176457  176454       8  176460
  176454       8  176460  176457       9  176466  176463       8  176469  176463
       8  176469  176466       9  176475  176472       8  176478  176472       8
  176478  176475       9  176484  176481       8  176487  176481       8  176487
  176484       9  176493  176490       8  176496  176490       8  176496  176493
       9  176502  176499       8  176505  176499       8  176505  176502       9
  176511  176508       8  176514  176508       8  176514  176511       9  176520
  176517       8  176523  176517       8  176523  176520       9  176529  176526
       8  176532  176526       8  176532  176529       9  176538  176535       8
  176541  176535       8  176541  176538       9  176547  176544       8  176550
  176544       8  176550  176547       9  176556  176553       8  176559  176553
       8  176559  176556       9  176565  176562       8  176568  176562       8
  176568  176565       9  176574  176571       8  176577  176571       8  176577
  176574       9  176583  176580       8  176586  176580       8  176586  176583
       9  176592  176589       8  176595  176589       8  176595  176592       9
  176601  176598       8  176604  176598       8  176604  176601       9  176610
  176607       8  176613  176607       8  176613  176610       9  176619  176616
       8  176622  176616       8  176622  176619       9  176628  176625       8
  176631  176625       8  176631  176628       9  176637  176634       8  176640
  176634       8  176640  176637       9  176646  176643       8  176649  176643
       8  176649  176646       9  176655  176652       8  176658  176652       8
  176658  176655       9  176664  176661       8  176667  176661       8  176667
  176664       9  176673  176670       8  176676  176670       8  176676  176673
       9  176682  176679       8  176685  176679       8  176685  176682       9
  176691  176688       8  176694  176688       8  176694  176691       9  176700
  176697       8  176703  176697       8  176703  176700       9  176709  176706
       8  176712  176706       8  176712  176709       9  176718  176715       8
  176721  176715       8  176721  176718       9  176727  176724       8  176730
  176724       8  176730  176727       9  176736  176733       8  176739  176733
       8  176739  176736       9  176745  176742       8  176748  176742       8
  176748  176745       9  176754  176751       8  176757  176751       8  176757
  176754       9  176763  176760       8  176766  176760       8  176766  176763
       9  176772  176769       8  176775  176769       8  176775  176772       9
  176781  176778       8  176784  176778       8  176784  176781       9  176790
  176787       8  176793  176787       8  176793  176790       9  176799  176796
       8  176802  176796       8  176802  176799       9  176808  176805       8
  176811  176805       8  176811  176808       9  176817  176814       8  176820
  176814       8  176820  176817       9  176826  176823       8  176829  176823
       8  176829  176826       9  176835  176832       8  176838  176832       8
  176838  176835       9  176844  176841       8  176847  176841       8  176847
  176844       9  176853  176850       8  176856  176850       8  176856  176853
       9  176862  176859       8  176865  176859       8  176865  176862       9
  176871  176868       8  176874  176868       8  176874  176871       9  176880
  176877       8  176883  176877       8  176883  176880       9  176889  176886
       8  176892  176886       8  176892  176889       9  176898  176895       8
  176901  176895       8  176901  176898       9  176907  176904       8  176910
  176904       8  176910  176907       9  176916  176913       8  176919  176913
       8  176919  176916       9  176925  176922       8  176928  176922       8
  176928  176925       9  176934  176931       8  176937  176931       8  176937
  176934       9  176943  176940       8  176946  176940       8  176946  176943
       9  176952  176949       8  176955  176949       8  176955  176952       9
  176961  176958       8  176964  176958       8  176964  176961       9  176970
  176967       8  176973  176967       8  176973  176970       9  176979  176976
       8  176982  176976       8  176982  176979       9  176988  176985       8
  176991  176985       8  176991  176988       9  176997  176994       8  177000
  176994       8  177000  176997       9  177006  177003       8  177009  177003
       8  177009  177006       9  177015  177012       8  177018  177012       8
  177018  177015       9  177024  177021       8  177027  177021       8  177027
  177024       9  177033  177030       8  177036  177030       8  177036  177033
       9  177042  177039       8  177045  177039       8  177045  177042       9
  177051  177048       8  177054  177048       8  177054  177051       9  177060
  177057       8  177063  177057       8  177063  177060       9  177069  177066
       8  177072  177066       8  177072  177069       9  177078  177075       8
  177081  177075       8  177081  177078       9  177087  177084       8  177090
  177084       8  177090  177087       9  177096  177093       8  177099  177093
       8  177099  177096       9  177105  177102       8  177108  177102       8
  177108  177105       9  177114  177111       8  177117  177111       8  177117
  177114       9  177123  177120       8  177126  177120       8  177126  177123
       9  177132  177129       8  177135  177129       8  177135  177132       9
  177141  177138       8  177144  177138       8  177144  177141       9  177150
  177147       8  177153  177147       8  177153  177150       9  177159  177156
       8  177162  177156       8  177162  177159       9  177168  177165       8
  177171  177165       8  177171  177168       9  177177  177174       8  177180
  177174       8  177180  177177       9  177186  177183       8  177189  177183
       8  177189  177186       9  177195  177192       8  177198  177192       8
  177198  177195       9  177204  177201       8  177207  177201       8  177207
  177204       9  177213  177210       8  177216  177210       8  177216  177213
       9  177222  177219       8  177225  177219       8  177225  177222       9
  177231  177228       8  177234  177228       8  177234  177231       9  177240
  177237       8  177243  177237       8  177243  177240       9  177249  177246
       8  177252  177246       8  177252  177249       9  177258  177255       8
  177261  177255       8  177261  177258       9  177267  177264       8  177270
  177264       8  177270  177267       9  177276  177273       8  177279  177273
       8  177279  177276       9  177285  177282       8  177288  177282       8
  177288  177285       9  177294  177291       8  177297  177291       8  177297
  177294       9  177303  177300       8  177306  177300       8  177306  177303
       9  177312  177309       8  177315  177309       8  177315  177312       9
  177321  177318       8  177324  177318       8  177324  177321       9  177330
  177327       8  177333  177327       8  177333  177330       9  177339  177336
       8  177342  177336       8  177342  177339       9  177348  177345       8
  177351  177345       8  177351  177348       9  177357  177354       8  177360
  177354       8  177360  177357       9  177366  177363       8  177369  177363
       8  177369  177366       9  177375  177372       8  177378  177372       8
  177378  177375       9  177384  177381       8  177387  177381       8  177387
  177384       9  177393  177390       8  177396  177390       8  177396  177393
       9  177402  177399       8  177405  177399       8  177405  177402       9
  177411  177408       8  177414  177408       8  177414  177411       9  177420
  177417       8  177423  177417       8  177423  177420       9  177429  177426
       8  177432  177426       8  177432  177429       9  177438  177435       8
  177441  177435       8  177441  177438       9  177447  177444       8  177450
  177444       8  177450  177447       9  177456  177453       8  177459  177453
       8  177459  177456       9  177465  177462       8  177468  177462       8
  177468  177465       9  177474  177471       8  177477  177471       8  177477
  177474       9  177483  177480       8  177486  177480       8  177486  177483
       9  177492  177489       8  177495  177489       8  177495  177492       9
  177501  177498       8  177504  177498       8  177504  177501       9  177510
  177507       8  177513  177507       8  177513  177510       9  177519  177516
       8  177522  177516       8  177522  177519       9  177528  177525       8
  177531  177525       8  177531  177528       9  177537  177534       8  177540
  177534       8  177540  177537       9  177546  177543       8  177549  177543
       8  177549  177546       9  177555  177552       8  177558  177552       8
  177558  177555       9  177564  177561       8  177567  177561       8  177567
  177564       9  177573  177570       8  177576  177570       8  177576  177573
       9  177582  177579       8  177585  177579       8  177585  177582       9
  177591  177588       8  177594  177588       8  177594  177591       9  177600
  177597       8  177603  177597       8  177603  177600       9  177609  177606
       8  177612  177606       8  177612  177609       9  177618  177615       8
  177621  177615       8  177621  177618       9  177627  177624       8  177630
  177624       8  177630  177627       9  177636  177633       8  177639  177633
       8  177639  177636       9  177645  177642       8  177648  177642       8
  177648  177645       9  177654  177651       8  177657  177651       8  177657
  177654       9  177663  177660       8  177666  177660       8  177666  177663
       9  177672  177669       8  177675  177669       8  177675  177672       9
  177681  177678       8  177684  177678       8  177684  177681       9  177690
  177687       8  177693  177687       8  177693  177690       9  177699  177696
       8  177702  177696       8  177702  177699       9  177708  177705       8
  177711  177705       8  177711  177708       9  177717  177714       8  177720
  177714       8  177720  177717       9  177726  177723       8  177729  177723
       8  177729  177726       9  177735  177732       8  177738  177732       8
  177738  177735       9  177744  177741       8  177747  177741       8  177747
  177744       9  177753  177750       8  177756  177750       8  177756  177753
       9  177762  177759       8  177765  177759       8  177765  177762       9
  177771  177768       8  177774  177768       8  177774  177771       9  177780
  177777       8  177783  177777       8  177783  177780       9  177789  177786
       8  177792  177786       8  177792  177789       9  177798  177795       8
  177801  177795       8  177801  177798       9  177807  177804       8  177810
  177804       8  177810  177807       9  177816  177813       8  177819  177813
       8  177819  177816       9  177825  177822       8  177828  177822       8
  177828  177825       9  177834  177831       8  177837  177831       8  177837
  177834       9  177843  177840       8  177846  177840       8  177846  177843
       9  177852  177849       8  177855  177849       8  177855  177852       9
  177861  177858       8  177864  177858       8  177864  177861       9  177870
  177867       8  177873  177867       8  177873  177870       9  177879  177876
       8  177882  177876       8  177882  177879       9  177888  177885       8
  177891  177885       8  177891  177888       9  177897  177894       8  177900
  177894       8  177900  177897       9  177906  177903       8  177909  177903
       8  177909  177906       9  177915  177912       8  177918  177912       8
  177918  177915       9  177924  177921       8  177927  177921       8  177927
  177924       9  177933  177930       8  177936  177930       8  177936  177933
       9  177942  177939       8  177945  177939       8  177945  177942       9
  177951  177948       8  177954  177948       8  177954  177951       9  177960
  177957       8  177963  177957       8  177963  177960       9  177969  177966
       8  177972  177966       8  177972  177969       9  177978  177975       8
  177981  177975       8  177981  177978       9  177987  177984       8  177990
  177984       8  177990  177987       9  177996  177993       8  177999  177993
       8  177999  177996       9  178005  178002       8  178008  178002       8
  178008  178005       9  178014  178011       8  178017  178011       8  178017
  178014       9  178023  178020       8  178026  178020       8  178026  178023
       9  178032  178029       8  178035  178029       8  178035  178032       9
  178041  178038       8  178044  178038       8  178044  178041       9  178050
  178047       8  178053  178047       8  178053  178050       9  178059  178056
       8  178062  178056       8  178062  178059       9  178068  178065       8
  178071  178065       8  178071  178068       9  178077  178074       8  178080
  178074       8  178080  178077       9  178086  178083       8  178089  178083
       8  178089  178086       9  178095  178092       8  178098  178092       8
  178098  178095       9  178104  178101       8  178107  178101       8  178107
  178104       9  178113  178110       8  178116  178110       8  178116  178113
       9  178122  178119       8  178125  178119       8  178125  178122       9
  178131  178128       8  178134  178128       8  178134  178131       9  178140
  178137       8  178143  178137       8  178143  178140       9  178149  178146
       8  178152  178146       8  178152  178149       9  178158  178155       8
  178161  178155       8  178161  178158       9  178167  178164       8  178170
  178164       8  178170  178167       9  178176  178173       8  178179  178173
       8  178179  178176       9  178185  178182       8  178188  178182       8
  178188  178185       9  178194  178191       8  178197  178191       8  178197
  178194       9  178203  178200       8  178206  178200       8  178206  178203
       9  178212  178209       8  178215  178209       8  178215  178212       9
  178221  178218       8  178224  178218       8  178224  178221       9  178230
  178227       8  178233  178227       8  178233  178230       9  178239  178236
       8  178242  178236       8  178242  178239       9  178248  178245       8
  178251  178245       8  178251  178248       9  178257  178254       8  178260
  178254       8  178260  178257       9  178266  178263       8  178269  178263
       8  178269  178266       9  178275  178272       8  178278  178272       8
  178278  178275       9  178284  178281       8  178287  178281       8  178287
  178284       9  178293  178290       8  178296  178290       8  178296  178293
       9  178302  178299       8  178305  178299       8  178305  178302       9
  178311  178308       8  178314  178308       8  178314  178311       9  178320
  178317       8  178323  178317       8  178323  178320       9  178329  178326
       8  178332  178326       8  178332  178329       9  178338  178335       8
  178341  178335       8  178341  178338       9  178347  178344       8  178350
  178344       8  178350  178347       9  178356  178353       8  178359  178353
       8  178359  178356       9  178365  178362       8  178368  178362       8
  178368  178365       9  178374  178371       8  178377  178371       8  178377
  178374       9  178383  178380       8  178386  178380       8  178386  178383
       9  178392  178389       8  178395  178389       8  178395  178392       9
  178401  178398       8  178404  178398       8  178404  178401       9  178410
  178407       8  178413  178407       8  178413  178410       9  178419  178416
       8  178422  178416       8  178422  178419       9  178428  178425       8
  178431  178425       8  178431  178428       9  178437  178434       8  178440
  178434       8  178440  178437       9  178446  178443       8  178449  178443
       8  178449  178446       9  178455  178452       8  178458  178452       8
  178458  178455       9  178464  178461       8  178467  178461       8  178467
  178464       9  178473  178470       8  178476  178470       8  178476  178473
       9  178482  178479       8  178485  178479       8  178485  178482       9
  178491  178488       8  178494  178488       8  178494  178491       9  178500
  178497       8  178503  178497       8  178503  178500       9  178509  178506
       8  178512  178506       8  178512  178509       9  178518  178515       8
  178521  178515       8  178521  178518       9  178527  178524       8  178530
  178524       8  178530  178527       9  178536  178533       8  178539  178533
       8  178539  178536       9  178545  178542       8  178548  178542       8
  178548  178545       9  178554  178551       8  178557  178551       8  178557
  178554       9  178563  178560       8  178566  178560       8  178566  178563
       9  178572  178569       8  178575  178569       8  178575  178572       9
  178581  178578       8  178584  178578       8  178584  178581       9  178590
  178587       8  178593  178587       8  178593  178590       9  178599  178596
       8  178602  178596       8  178602  178599       9  178608  178605       8
  178611  178605       8  178611  178608       9  178617  178614       8  178620
  178614       8  178620  178617       9  178626  178623       8  178629  178623
       8  178629  178626       9  178635  178632       8  178638  178632       8
  178638  178635       9  178644  178641       8  178647  178641       8  178647
  178644       9  178653  178650       8  178656  178650       8  178656  178653
       9  178662  178659       8  178665  178659       8  178665  178662       9
  178671  178668       8  178674  178668       8  178674  178671       9  178680
  178677       8  178683  178677       8  178683  178680       9  178689  178686
       8  178692  178686       8  178692  178689       9  178698  178695       8
  178701  178695       8  178701  178698       9  178707  178704       8  178710
  178704       8  178710  178707       9  178716  178713       8  178719  178713
       8  178719  178716       9  178725  178722       8  178728  178722       8
  178728  178725       9  178734  178731       8  178737  178731       8  178737
  178734       9  178743  178740       8  178746  178740       8  178746  178743
       9  178752  178749       8  178755  178749       8  178755  178752       9
  178761  178758       8  178764  178758       8  178764  178761       9  178770
  178767       8  178773  178767       8  178773  178770       9  178779  178776
       8  178782  178776       8  178782  178779       9  178788  178785       8
  178791  178785       8  178791  178788       9  178797  178794       8  178800
  178794       8  178800  178797       9  178806  178803       8  178809  178803
       8  178809  178806       9  178815  178812       8  178818  178812       8
  178818  178815       9  178824  178821       8  178827  178821       8  178827
  178824       9  178833  178830       8  178836  178830       8  178836  178833
       9  178842  178839       8  178845  178839       8  178845  178842       9
  178851  178848       8  178854  178848       8  178854  178851       9  178860
  178857       8  178863  178857       8  178863  178860       9  178869  178866
       8  178872  178866       8  178872  178869       9  178878  178875       8
  178881  178875       8  178881  178878       9  178887  178884       8  178890
  178884       8  178890  178887       9  178896  178893       8  178899  178893
       8  178899  178896       9  178905  178902       8  178908  178902       8
  178908  178905       9  178914  178911       8  178917  178911       8  178917
  178914       9  178923  178920       8  178926  178920       8  178926  178923
       9  178932  178929       8  178935  178929       8  178935  178932       9
  178941  178938       8  178944  178938       8  178944  178941       9  178950
  178947       8  178953  178947       8  178953  178950       9  178959  178956
       8  178962  178956       8  178962  178959       9  178968  178965       8
  178971  178965       8  178971  178968       9  178977  178974       8  178980
  178974       8  178980  178977       9  178986  178983       8  178989  178983
       8  178989  178986       9  178995  178992       8  178998  178992       8
  178998  178995       9  179004  179001       8  179007  179001       8  179007
  179004       9  179013  179010       8  179016  179010       8  179016  179013
       9  179022  179019       8  179025  179019       8  179025  179022       9
  179031  179028       8  179034  179028       8  179034  179031       9  179040
  179037       8  179043  179037       8  179043  179040       9  179049  179046
       8  179052  179046       8  179052  179049       9  179058  179055       8
  179061  179055       8  179061  179058       9  179067  179064       8  179070
  179064       8  179070  179067       9  179076  179073       8  179079  179073
       8  179079  179076       9  179085  179082       8  179088  179082       8
  179088  179085       9  179094  179091       8  179097  179091       8  179097
  179094       9  179103  179100       8  179106  179100       8  179106  179103
       9  179112  179109       8  179115  179109       8  179115  179112       9
  179121  179118       8  179124  179118       8  179124  179121       9  179130
  179127       8  179133  179127       8  179133  179130       9  179139  179136
       8  179142  179136       8  179142  179139       9  179148  179145       8
  179151  179145       8  179151  179148       9  179157  179154       8  179160
  179154       8  179160  179157       9  179166  179163       8  179169  179163
       8  179169  179166       9  179175  179172       8  179178  179172       8
  179178  179175       9  179184  179181       8  179187  179181       8  179187
  179184       9  179193  179190       8  179196  179190       8  179196  179193
       9  179202  179199       8  179205  179199       8  179205  179202       9
  179211  179208       8  179214  179208       8  179214  179211       9  179220
  179217       8  179223  179217       8  179223  179220       9  179229  179226
       8  179232  179226       8  179232  179229       9  179238  179235       8
  179241  179235       8  179241  179238       9  179247  179244       8  179250
  179244       8  179250  179247       9  179256  179253       8  179259  179253
       8  179259  179256       9  179265  179262       8  179268  179262       8
  179268  179265       9  179274  179271       8  179277  179271       8  179277
  179274       9  179283  179280       8  179286  179280       8  179286  179283
       9  179292  179289       8  179295  179289       8  179295  179292       9
  179301  179298       8  179304  179298       8  179304  179301       9  179310
  179307       8  179313  179307       8  179313  179310       9  179319  179316
       8  179322  179316       8  179322  179319       9  179328  179325       8
  179331  179325       8  179331  179328       9  179337  179334       8  179340
  179334       8  179340  179337       9  179346  179343       8  179349  179343
       8  179349  179346       9  179355  179352       8  179358  179352       8
  179358  179355       9  179364  179361       8  179367  179361       8  179367
  179364       9  179373  179370       8  179376  179370       8  179376  179373
       9  179382  179379       8  179385  179379       8  179385  179382       9
  179391  179388       8  179394  179388       8  179394  179391       9  179400
  179397       8  179403  179397       8  179403  179400       9  179409  179406
       8  179412  179406       8  179412  179409       9  179418  179415       8
  179421  179415       8  179421  179418       9  179427  179424       8  179430
  179424       8  179430  179427       9  179436  179433       8  179439  179433
       8  179439  179436       9  179445  179442       8  179448  179442       8
  179448  179445       9  179454  179451       8  179457  179451       8  179457
  179454       9  179463  179460       8  179466  179460       8  179466  179463
       9  179472  179469       8  179475  179469       8  179475  179472       9
  179481  179478       8  179484  179478       8  179484  179481       9  179490
  179487       8  179493  179487       8  179493  179490       9  179499  179496
       8  179502  179496       8  179502  179499       9  179508  179505       8
  179511  179505       8  179511  179508       9  179517  179514       8  179520
  179514       8  179520  179517       9  179526  179523       8  179529  179523
       8  179529  179526       9  179535  179532       8  179538  179532       8
  179538  179535       9  179544  179541       8  179547  179541       8  179547
  179544       9  179553  179550       8  179556  179550       8  179556  179553
       9  179562  179559       8  179565  179559       8  179565  179562       9
  179571  179568       8  179574  179568       8  179574  179571       9  179580
  179577       8  179583  179577       8  179583  179580       9  179589  179586
       8  179592  179586       8  179592  179589       9  179598  179595       8
  179601  179595       8  179601  179598       9  179607  179604       8  179610
  179604       8  179610  179607       9  179616  179613       8  179619  179613
       8  179619  179616       9  179625  179622       8  179628  179622       8
  179628  179625       9  179634  179631       8  179637  179631       8  179637
  179634       9  179643  179640       8  179646  179640       8  179646  179643
       9  179652  179649       8  179655  179649       8  179655  179652       9
  179661  179658       8  179664  179658       8  179664  179661       9  179670
  179667       8  179673  179667       8  179673  179670       9  179679  179676
       8  179682  179676       8  179682  179679       9  179688  179685       8
  179691  179685       8  179691  179688       9  179697  179694       8  179700
  179694       8  179700  179697       9  179706  179703       8  179709  179703
       8  179709  179706       9  179715  179712       8  179718  179712       8
  179718  179715       9  179724  179721       8  179727  179721       8  179727
  179724       9  179733  179730       8  179736  179730       8  179736  179733
       9  179742  179739       8  179745  179739       8  179745  179742       9
  179751  179748       8  179754  179748       8  179754  179751       9  179760
  179757       8  179763  179757       8  179763  179760       9  179769  179766
       8  179772  179766       8  179772  179769       9  179778  179775       8
  179781  179775       8  179781  179778       9  179787  179784       8  179790
  179784       8  179790  179787       9  179796  179793       8  179799  179793
       8  179799  179796       9  179805  179802       8  179808  179802       8
  179808  179805       9  179814  179811       8  179817  179811       8  179817
  179814       9  179823  179820       8  179826  179820       8  179826  179823
       9  179832  179829       8  179835  179829       8  179835  179832       9
  179841  179838       8  179844  179838       8  179844  179841       9  179850
  179847       8  179853  179847       8  179853  179850       9  179859  179856
       8  179862  179856       8  179862  179859       9  179868  179865       8
  179871  179865       8  179871  179868       9  179877  179874       8  179880
  179874       8  179880  179877       9  179886  179883       8  179889  179883
       8  179889  179886       9  179895  179892       8  179898  179892       8
  179898  179895       9  179904  179901       8  179907  179901       8  179907
  179904       9  179913  179910       8  179916  179910       8  179916  179913
       9  179922  179919       8  179925  179919       8  179925  179922       9
  179931  179928       8  179934  179928       8  179934  179931       9  179940
  179937       8  179943  179937       8  179943  179940       9  179949  179946
       8  179952  179946       8  179952  179949       9  179958  179955       8
  179961  179955       8  179961  179958       9  179967  179964       8  179970
  179964       8  179970  179967       9  179976  179973       8  179979  179973
       8  179979  179976       9  179985  179982       8  179988  179982       8
  179988  179985       9  179994  179991       8  179997  179991       8  179997
  179994       9  180003  180000       8  180006  180000       8  180006  180003
       9  180012  180009       8  180015  180009       8  180015  180012       9
  180021  180018       8  180024  180018       8  180024  180021       9  180030
  180027       8  180033  180027       8  180033  180030       9  180039  180036
       8  180042  180036       8  180042  180039       9  180048  180045       8
  180051  180045       8  180051  180048       9  180057  180054       8  180060
  180054       8  180060  180057       9  180066  180063       8  180069  180063
       8  180069  180066       9  180075  180072       8  180078  180072       8
  180078  180075       9  180084  180081       8  180087  180081       8  180087
  180084       9  180093  180090       8  180096  180090       8  180096  180093
       9  180102  180099       8  180105  180099       8  180105  180102       9
  180111  180108       8  180114  180108       8  180114  180111       9  180120
  180117       8  180123  180117       8  180123  180120       9  180129  180126
       8  180132  180126       8  180132  180129       9  180138  180135       8
  180141  180135       8  180141  180138       9  180147  180144       8  180150
  180144       8  180150  180147       9  180156  180153       8  180159  180153
       8  180159  180156       9  180165  180162       8  180168  180162       8
  180168  180165       9  180174  180171       8  180177  180171       8  180177
  180174       9  180183  180180       8  180186  180180       8  180186  180183
       9  180192  180189       8  180195  180189       8  180195  180192       9
  180201  180198       8  180204  180198       8  180204  180201       9  180210
  180207       8  180213  180207       8  180213  180210       9  180219  180216
       8  180222  180216       8  180222  180219       9  180228  180225       8
  180231  180225       8  180231  180228       9  180237  180234       8  180240
  180234       8  180240  180237       9  180246  180243       8  180249  180243
       8  180249  180246       9  180255  180252       8  180258  180252       8
  180258  180255       9  180264  180261       8  180267  180261       8  180267
  180264       9  180273  180270       8  180276  180270       8  180276  180273
       9  180282  180279       8  180285  180279       8  180285  180282       9
  180291  180288       8  180294  180288       8  180294  180291       9  180300
  180297       8  180303  180297       8  180303  180300       9  180309  180306
       8  180312  180306       8  180312  180309       9  180318  180315       8
  180321  180315       8  180321  180318       9  180327  180324       8  180330
  180324       8  180330  180327       9  180336  180333       8  180339  180333
       8  180339  180336       9  180345  180342       8  180348  180342       8
  180348  180345       9  180354  180351       8  180357  180351       8  180357
  180354       9  180363  180360       8  180366  180360       8  180366  180363
       9  180372  180369       8  180375  180369       8  180375  180372       9
  180381  180378       8  180384  180378       8  180384  180381       9  180390
  180387       8  180393  180387       8  180393  180390       9  180399  180396
       8  180402  180396       8  180402  180399       9  180408  180405       8
  180411  180405       8  180411  180408       9  180417  180414       8  180420
  180414       8  180420  180417       9  180426  180423       8  180429  180423
       8  180429  180426       9  180435  180432       8  180438  180432       8
  180438  180435       9  180444  180441       8  180447  180441       8  180447
  180444       9  180453  180450       8  180456  180450       8  180456  180453
       9  180462  180459       8  180465  180459       8  180465  180462       9
  180471  180468       8  180474  180468       8  180474  180471       9  180480
  180477       8  180483  180477       8  180483  180480       9  180489  180486
       8  180492  180486       8  180492  180489       9  180498  180495       8
  180501  180495       8  180501  180498       9  180507  180504       8  180510
  180504       8  180510  180507       9  180516  180513       8  180519  180513
       8  180519  180516       9  180525  180522       8  180528  180522       8
  180528  180525       9  180534  180531       8  180537  180531       8  180537
  180534       9  180543  180540       8  180546  180540       8  180546  180543
       9  180552  180549       8  180555  180549       8  180555  180552       9
  180561  180558       8  180564  180558       8  180564  180561       9  180570
  180567       8  180573  180567       8  180573  180570       9  180579  180576
       8  180582  180576       8  180582  180579       9  180588  180585       8
  180591  180585       8  180591  180588       9  180597  180594       8  180600
  180594       8  180600  180597       9  180606  180603       8  180609  180603
       8  180609  180606       9  180615  180612       8  180618  180612       8
  180618  180615       9  180624  180621       8  180627  180621       8  180627
  180624       9  180633  180630       8  180636  180630       8  180636  180633
       9  180642  180639       8  180645  180639       8  180645  180642       9
  180651  180648       8  180654  180648       8  180654  180651       9  180660
  180657       8  180663  180657       8  180663  180660       9  180669  180666
       8  180672  180666       8  180672  180669       9  180678  180675       8
  180681  180675       8  180681  180678       9  180687  180684       8  180690
  180684       8  180690  180687       9  180696  180693       8  180699  180693
       8  180699  180696       9  180705  180702       8  180708  180702       8
  180708  180705       9  180714  180711       8  180717  180711       8  180717
  180714       9  180723  180720       8  180726  180720       8  180726  180723
       9  180732  180729       8  180735  180729       8  180735  180732       9
  180741  180738       8  180744  180738       8  180744  180741       9  180750
  180747       8  180753  180747       8  180753  180750       9  180759  180756
       8  180762  180756       8  180762  180759       9  180768  180765       8
  180771  180765       8  180771  180768       9  180777  180774       8  180780
  180774       8  180780  180777       9  180786  180783       8  180789  180783
       8  180789  180786       9  180795  180792       8  180798  180792       8
  180798  180795       9  180804  180801       8  180807  180801       8  180807
  180804       9  180813  180810       8  180816  180810       8  180816  180813
       9  180822  180819       8  180825  180819       8  180825  180822       9
  180831  180828       8  180834  180828       8  180834  180831       9  180840
  180837       8  180843  180837       8  180843  180840       9  180849  180846
       8  180852  180846       8  180852  180849       9  180858  180855       8
  180861  180855       8  180861  180858       9  180867  180864       8  180870
  180864       8  180870  180867       9  180876  180873       8  180879  180873
       8  180879  180876       9  180885  180882       8  180888  180882       8
  180888  180885       9  180894  180891       8  180897  180891       8  180897
  180894       9  180903  180900       8  180906  180900       8  180906  180903
       9  180912  180909       8  180915  180909       8  180915  180912       9
  180921  180918       8  180924  180918       8  180924  180921       9  180930
  180927       8  180933  180927       8  180933  180930       9  180939  180936
       8  180942  180936       8  180942  180939       9  180948  180945       8
  180951  180945       8  180951  180948       9  180957  180954       8  180960
  180954       8  180960  180957       9  180966  180963       8  180969  180963
       8  180969  180966       9  180975  180972       8  180978  180972       8
  180978  180975       9  180984  180981       8  180987  180981       8  180987
  180984       9  180993  180990       8  180996  180990       8  180996  180993
       9  181002  180999       8  181005  180999       8  181005  181002       9
  181011  181008       8  181014  181008       8  181014  181011       9  181020
  181017       8  181023  181017       8  181023  181020       9  181029  181026
       8  181032  181026       8  181032  181029       9  181038  181035       8
  181041  181035       8  181041  181038       9  181047  181044       8  181050
  181044       8  181050  181047       9  181056  181053       8  181059  181053
       8  181059  181056       9  181065  181062       8  181068  181062       8
  181068  181065       9  181074  181071       8  181077  181071       8  181077
  181074       9  181083  181080       8  181086  181080       8  181086  181083
       9  181092  181089       8  181095  181089       8  181095  181092       9
  181101  181098       8  181104  181098       8  181104  181101       9  181110
  181107       8  181113  181107       8  181113  181110       9  181119  181116
       8  181122  181116       8  181122  181119       9  181128  181125       8
  181131  181125       8  181131  181128       9  181137  181134       8  181140
  181134       8  181140  181137       9  181146  181143       8  181149  181143
       8  181149  181146       9  181155  181152       8  181158  181152       8
  181158  181155       9  181164  181161       8  181167  181161       8  181167
  181164       9  181173  181170       8  181176  181170       8  181176  181173
       9  181182  181179       8  181185  181179       8  181185  181182       9
  181191  181188       8  181194  181188       8  181194  181191       9  181200
  181197       8  181203  181197       8  181203  181200       9  181209  181206
       8  181212  181206       8  181212  181209       9  181218  181215       8
  181221  181215       8  181221  181218       9  181227  181224       8  181230
  181224       8  181230  181227       9  181236  181233       8  181239  181233
       8  181239  181236       9  181245  181242       8  181248  181242       8
  181248  181245       9  181254  181251       8  181257  181251       8  181257
  181254       9  181263  181260       8  181266  181260       8  181266  181263
       9  181272  181269       8  181275  181269       8  181275  181272       9
  181281  181278       8  181284  181278       8  181284  181281       9  181290
  181287       8  181293  181287       8  181293  181290       9  181299  181296
       8  181302  181296       8  181302  181299       9  181308  181305       8
  181311  181305       8  181311  181308       9  181317  181314       8  181320
  181314       8  181320  181317       9  181326  181323       8  181329  181323
       8  181329  181326       9  181335  181332       8  181338  181332       8
  181338  181335       9  181344  181341       8  181347  181341       8  181347
  181344       9  181353  181350       8  181356  181350       8  181356  181353
       9  181362  181359       8  181365  181359       8  181365  181362       9
  181371  181368       8  181374  181368       8  181374  181371       9  181380
  181377       8  181383  181377       8  181383  181380       9  181389  181386
       8  181392  181386       8  181392  181389       9  181398  181395       8
  181401  181395       8  181401  181398       9  181407  181404       8  181410
  181404       8  181410  181407       9  181416  181413       8  181419  181413
       8  181419  181416       9  181425  181422       8  181428  181422       8
  181428  181425       9  181434  181431       8  181437  181431       8  181437
  181434       9  181443  181440       8  181446  181440       8  181446  181443
       9  181452  181449       8  181455  181449       8  181455  181452       9
  181461  181458       8  181464  181458       8  181464  181461       9  181470
  181467       8  181473  181467       8  181473  181470       9  181479  181476
       8  181482  181476       8  181482  181479       9  181488  181485       8
  181491  181485       8  181491  181488       9  181497  181494       8  181500
  181494       8  181500  181497       9  181506  181503       8  181509  181503
       8  181509  181506       9  181515  181512       8  181518  181512       8
  181518  181515       9  181524  181521       8  181527  181521       8  181527
  181524       9  181533  181530       8  181536  181530       8  181536  181533
       9  181542  181539       8  181545  181539       8  181545  181542       9
  181551  181548       8  181554  181548       8  181554  181551       9  181560
  181557       8  181563  181557       8  181563  181560       9  181569  181566
       8  181572  181566       8  181572  181569       9  181578  181575       8
  181581  181575       8  181581  181578       9  181587  181584       8  181590
  181584       8  181590  181587       9  181596  181593       8  181599  181593
       8  181599  181596       9  181605  181602       8  181608  181602       8
  181608  181605       9  181614  181611       8  181617  181611       8  181617
  181614       9  181623  181620       8  181626  181620       8  181626  181623
       9  181632  181629       8  181635  181629       8  181635  181632       9
  181641  181638       8  181644  181638       8  181644  181641       9  181650
  181647       8  181653  181647       8  181653  181650       9  181659  181656
       8  181662  181656       8  181662  181659       9  181668  181665       8
  181671  181665       8  181671  181668       9  181677  181674       8  181680
  181674       8  181680  181677       9  181686  181683       8  181689  181683
       8  181689  181686       9  181695  181692       8  181698  181692       8
  181698  181695       9  181704  181701       8  181707  181701       8  181707
  181704       9  181713  181710       8  181716  181710       8  181716  181713
       9  181722  181719       8  181725  181719       8  181725  181722       9
  181731  181728       8  181734  181728       8  181734  181731       9  181740
  181737       8  181743  181737       8  181743  181740       9  181749  181746
       8  181752  181746       8  181752  181749       9  181758  181755       8
  181761  181755       8  181761  181758       9  181767  181764       8  181770
  181764       8  181770  181767       9  181776  181773       8  181779  181773
       8  181779  181776       9  181785  181782       8  181788  181782       8
  181788  181785       9  181794  181791       8  181797  181791       8  181797
  181794       9  181803  181800       8  181806  181800       8  181806  181803
       9  181812  181809       8  181815  181809       8  181815  181812       9
  181821  181818       8  181824  181818       8  181824  181821       9  181830
  181827       8  181833  181827       8  181833  181830       9  181839  181836
       8  181842  181836       8  181842  181839       9  181848  181845       8
  181851  181845       8  181851  181848       9  181857  181854       8  181860
  181854       8  181860  181857       9  181866  181863       8  181869  181863
       8  181869  181866       9  181875  181872       8  181878  181872       8
  181878  181875       9  181884  181881       8  181887  181881       8  181887
  181884       9  181893  181890       8  181896  181890       8  181896  181893
       9  181902  181899       8  181905  181899       8  181905  181902       9
  181911  181908       8  181914  181908       8  181914  181911       9  181920
  181917       8  181923  181917       8  181923  181920       9  181929  181926
       8  181932  181926       8  181932  181929       9  181938  181935       8
  181941  181935       8  181941  181938       9  181947  181944       8  181950
  181944       8  181950  181947       9  181956  181953       8  181959  181953
       8  181959  181956       9  181965  181962       8  181968  181962       8
  181968  181965       9  181974  181971       8  181977  181971       8  181977
  181974       9  181983  181980       8  181986  181980       8  181986  181983
       9  181992  181989       8  181995  181989       8  181995  181992       9
  182001  181998       8  182004  181998       8  182004  182001       9  182010
  182007       8  182013  182007       8  182013  182010       9  182019  182016
       8  182022  182016       8  182022  182019       9  182028  182025       8
  182031  182025       8  182031  182028       9  182037  182034       8  182040
  182034       8  182040  182037       9  182046  182043       8  182049  182043
       8  182049  182046       9  182055  182052       8  182058  182052       8
  182058  182055       9  182064  182061       8  182067  182061       8  182067
  182064       9  182073  182070       8  182076  182070       8  182076  182073
       9  182082  182079       8  182085  182079       8  182085  182082       9
  182091  182088       8  182094  182088       8  182094  182091       9  182100
  182097       8  182103  182097       8  182103  182100       9  182109  182106
       8  182112  182106       8  182112  182109       9  182118  182115       8
  182121  182115       8  182121  182118       9  182127  182124       8  182130
  182124       8  182130  182127       9  182136  182133       8  182139  182133
       8  182139  182136       9  182145  182142       8  182148  182142       8
  182148  182145       9  182154  182151       8  182157  182151       8  182157
  182154       9  182163  182160       8  182166  182160       8  182166  182163
       9  182172  182169       8  182175  182169       8  182175  182172       9
  182181  182178       8  182184  182178       8  182184  182181       9  182190
  182187       8  182193  182187       8  182193  182190       9  182199  182196
       8  182202  182196       8  182202  182199       9  182208  182205       8
  182211  182205       8  182211  182208       9  182217  182214       8  182220
  182214       8  182220  182217       9  182226  182223       8  182229  182223
       8  182229  182226       9  182235  182232       8  182238  182232       8
  182238  182235       9  182244  182241       8  182247  182241       8  182247
  182244       9  182253  182250       8  182256  182250       8  182256  182253
       9  182262  182259       8  182265  182259       8  182265  182262       9
  182271  182268       8  182274  182268       8  182274  182271       9  182280
  182277       8  182283  182277       8  182283  182280       9  182289  182286
       8  182292  182286       8  182292  182289       9  182298  182295       8
  182301  182295       8  182301  182298       9  182307  182304       8  182310
  182304       8  182310  182307       9  182316  182313       8  182319  182313
       8  182319  182316       9  182325  182322       8  182328  182322       8
  182328  182325       9  182334  182331       8  182337  182331       8  182337
  182334       9  182343  182340       8  182346  182340       8  182346  182343
       9  182352  182349       8  182355  182349       8  182355  182352       9
  182361  182358       8  182364  182358       8  182364  182361       9  182370
  182367       8  182373  182367       8  182373  182370       9  182379  182376
       8  182382  182376       8  182382  182379       9  182388  182385       8
  182391  182385       8  182391  182388       9  182397  182394       8  182400
  182394       8  182400  182397       9  182406  182403       8  182409  182403
       8  182409  182406       9  182415  182412       8  182418  182412       8
  182418  182415       9  182424  182421       8  182427  182421       8  182427
  182424       9  182433  182430       8  182436  182430       8  182436  182433
       9  182442  182439       8  182445  182439       8  182445  182442       9
  182451  182448       8  182454  182448       8  182454  182451       9  182460
  182457       8  182463  182457       8  182463  182460       9  182469  182466
       8  182472  182466       8  182472  182469       9  182478  182475       8
  182481  182475       8  182481  182478       9  182487  182484       8  182490
  182484       8  182490  182487       9  182496  182493       8  182499  182493
       8  182499  182496       9  182505  182502       8  182508  182502       8
  182508  182505       9  182514  182511       8  182517  182511       8  182517
  182514       9  182523  182520       8  182526  182520       8  182526  182523
       9  182532  182529       8  182535  182529       8  182535  182532       9
  182541  182538       8  182544  182538       8  182544  182541       9  182550
  182547       8  182553  182547       8  182553  182550       9  182559  182556
       8  182562  182556       8  182562  182559       9  182568  182565       8
  182571  182565       8  182571  182568       9  182577  182574       8  182580
  182574       8  182580  182577       9  182586  182583       8  182589  182583
       8  182589  182586       9  182595  182592       8  182598  182592       8
  182598  182595       9  182604  182601       8  182607  182601       8  182607
  182604       9  182613  182610       8  182616  182610       8  182616  182613
       9  182622  182619       8  182625  182619       8  182625  182622       9
  182631  182628       8  182634  182628       8  182634  182631       9  182640
  182637       8  182643  182637       8  182643  182640       9  182649  182646
       8  182652  182646       8  182652  182649       9  182658  182655       8
  182661  182655       8  182661  182658       9  182667  182664       8  182670
  182664       8  182670  182667       9  182676  182673       8  182679  182673
       8  182679  182676       9  182685  182682       8  182688  182682       8
  182688  182685       9  182694  182691       8  182697  182691       8  182697
  182694       9  182703  182700       8  182706  182700       8  182706  182703
       9  182712  182709       8  182715  182709       8  182715  182712       9
  182721  182718       8  182724  182718       8  182724  182721       9  182730
  182727       8  182733  182727       8  182733  182730       9  182739  182736
       8  182742  182736       8  182742  182739       9  182748  182745       8
  182751  182745       8  182751  182748       9  182757  182754       8  182760
  182754       8  182760  182757       9  182766  182763       8  182769  182763
       8  182769  182766       9  182775  182772       8  182778  182772       8
  182778  182775       9  182784  182781       8  182787  182781       8  182787
  182784       9  182793  182790       8  182796  182790       8  182796  182793
       9  182802  182799       8  182805  182799       8  182805  182802       9
  182811  182808       8  182814  182808       8  182814  182811       9  182820
  182817       8  182823  182817       8  182823  182820       9  182829  182826
       8  182832  182826       8  182832  182829       9  182838  182835       8
  182841  182835       8  182841  182838       9  182847  182844       8  182850
  182844       8  182850  182847       9  182856  182853       8  182859  182853
       8  182859  182856       9  182865  182862       8  182868  182862       8
  182868  182865       9  182874  182871       8  182877  182871       8  182877
  182874       9  182883  182880       8  182886  182880       8  182886  182883
       9  182892  182889       8  182895  182889       8  182895  182892       9
  182901  182898       8  182904  182898       8  182904  182901       9  182910
  182907       8  182913  182907       8  182913  182910       9  182919  182916
       8  182922  182916       8  182922  182919       9  182928  182925       8
  182931  182925       8  182931  182928       9  182937  182934       8  182940
  182934       8  182940  182937       9  182946  182943       8  182949  182943
       8  182949  182946       9  182955  182952       8  182958  182952       8
  182958  182955       9  182964  182961       8  182967  182961       8  182967
  182964       9  182973  182970       8  182976  182970       8  182976  182973
       9  182982  182979       8  182985  182979       8  182985  182982       9
  182991  182988       8  182994  182988       8  182994  182991       9  183000
  182997       8  183003  182997       8  183003  183000       9  183009  183006
       8  183012  183006       8  183012  183009       9  183018  183015       8
  183021  183015       8  183021  183018       9  183027  183024       8  183030
  183024       8  183030  183027       9  183036  183033       8  183039  183033
       8  183039  183036       9  183045  183042       8  183048  183042       8
  183048  183045       9  183054  183051       8  183057  183051       8  183057
  183054       9  183063  183060       8  183066  183060       8  183066  183063
       9  183072  183069       8  183075  183069       8  183075  183072       9
  183081  183078       8  183084  183078       8  183084  183081       9  183090
  183087       8  183093  183087       8  183093  183090       9  183099  183096
       8  183102  183096       8  183102  183099       9  183108  183105       8
  183111  183105       8  183111  183108       9  183117  183114       8  183120
  183114       8  183120  183117       9  183126  183123       8  183129  183123
       8  183129  183126       9  183135  183132       8  183138  183132       8
  183138  183135       9  183144  183141       8  183147  183141       8  183147
  183144       9  183153  183150       8  183156  183150       8  183156  183153
       9  183162  183159       8  183165  183159       8  183165  183162       9
  183171  183168       8  183174  183168       8  183174  183171       9  183180
  183177       8  183183  183177       8  183183  183180       9  183189  183186
       8  183192  183186       8  183192  183189       9  183198  183195       8
  183201  183195       8  183201  183198       9  183207  183204       8  183210
  183204       8  183210  183207       9  183216  183213       8  183219  183213
       8  183219  183216       9  183225  183222       8  183228  183222       8
  183228  183225       9  183234  183231       8  183237  183231       8  183237
  183234       9  183243  183240       8  183246  183240       8  183246  183243
       9  183252  183249       8  183255  183249       8  183255  183252       9
  183261  183258       8  183264  183258       8  183264  183261       9  183270
  183267       8  183273  183267       8  183273  183270       9  183279  183276
       8  183282  183276       8  183282  183279       9  183288  183285       8
  183291  183285       8  183291  183288       9  183297  183294       8  183300
  183294       8  183300  183297       9  183306  183303       8  183309  183303
       8  183309  183306       9  183315  183312       8  183318  183312       8
  183318  183315       9  183324  183321       8  183327  183321       8  183327
  183324       9  183333  183330       8  183336  183330       8  183336  183333
       9  183342  183339       8  183345  183339       8  183345  183342       9
  183351  183348       8  183354  183348       8  183354  183351       9  183360
  183357       8  183363  183357       8  183363  183360       9  183369  183366
       8  183372  183366       8  183372  183369       9  183378  183375       8
  183381  183375       8  183381  183378       9  183387  183384       8  183390
  183384       8  183390  183387       9  183396  183393       8  183399  183393
       8  183399  183396       9  183405  183402       8  183408  183402       8
  183408  183405       9  183414  183411       8  183417  183411       8  183417
  183414       9  183423  183420       8  183426  183420       8  183426  183423
       9  183432  183429       8  183435  183429       8  183435  183432       9
  183441  183438       8  183444  183438       8  183444  183441       9  183450
  183447       8  183453  183447       8  183453  183450       9  183459  183456
       8  183462  183456       8  183462  183459       9  183468  183465       8
  183471  183465       8  183471  183468       9  183477  183474       8  183480
  183474       8  183480  183477       9  183486  183483       8  183489  183483
       8  183489  183486       9  183495  183492       8  183498  183492       8
  183498  183495       9  183504  183501       8  183507  183501       8  183507
  183504       9  183513  183510       8  183516  183510       8  183516  183513
       9  183522  183519       8  183525  183519       8  183525  183522       9
  183531  183528       8  183534  183528       8  183534  183531       9  183540
  183537       8  183543  183537       8  183543  183540       9  183549  183546
       8  183552  183546       8  183552  183549       9  183558  183555       8
  183561  183555       8  183561  183558       9  183567  183564       8  183570
  183564       8  183570  183567       9  183576  183573       8  183579  183573
       8  183579  183576       9  183585  183582       8  183588  183582       8
  183588  183585       9  183594  183591       8  183597  183591       8  183597
  183594       9  183603  183600       8  183606  183600       8  183606  183603
       9  183612  183609       8  183615  183609       8  183615  183612       9
  183621  183618       8  183624  183618       8  183624  183621       9  183630
  183627       8  183633  183627       8  183633  183630       9  183639  183636
       8  183642  183636       8  183642  183639       9  183648  183645       8
  183651  183645       8  183651  183648       9  183657  183654       8  183660
  183654       8  183660  183657       9  183666  183663       8  183669  183663
       8  183669  183666       9  183675  183672       8  183678  183672       8
  183678  183675       9  183684  183681       8  183687  183681       8  183687
  183684       9  183693  183690       8  183696  183690       8  183696  183693
       9  183702  183699       8  183705  183699       8  183705  183702       9
  183711  183708       8  183714  183708       8  183714  183711       9  183720
  183717       8  183723  183717       8  183723  183720       9  183729  183726
       8  183732  183726       8  183732  183729       9  183738  183735       8
  183741  183735       8  183741  183738       9  183747  183744       8  183750
  183744       8  183750  183747       9  183756  183753       8  183759  183753
       8  183759  183756       9  183765  183762       8  183768  183762       8
  183768  183765       9  183774  183771       8  183777  183771       8  183777
  183774       9  183783  183780       8  183786  183780       8  183786  183783
       9  183792  183789       8  183795  183789       8  183795  183792       9
  183801  183798       8  183804  183798       8  183804  183801       9  183810
  183807       8  183813  183807       8  183813  183810       9  183819  183816
       8  183822  183816       8  183822  183819       9  183828  183825       8
  183831  183825       8  183831  183828       9  183837  183834       8  183840
  183834       8  183840  183837       9  183846  183843       8  183849  183843
       8  183849  183846       9  183855  183852       8  183858  183852       8
  183858  183855       9  183864  183861       8  183867  183861       8  183867
  183864       9  183873  183870       8  183876  183870       8  183876  183873
       9  183882  183879       8  183885  183879       8  183885  183882       9
  183891  183888       8  183894  183888       8  183894  183891       9  183900
  183897       8  183903  183897       8  183903  183900       9  183909  183906
       8  183912  183906       8  183912  183909       9  183918  183915       8
  183921  183915       8  183921  183918       9  183927  183924       8  183930
  183924       8  183930  183927       9  183936  183933       8  183939  183933
       8  183939  183936       9  183945  183942       8  183948  183942       8
  183948  183945       9  183954  183951       8  183957  183951       8  183957
  183954       9  183963  183960       8  183966  183960       8  183966  183963
       9  183972  183969       8  183975  183969       8  183975  183972       9
  183981  183978       8  183984  183978       8  183984  183981       9  183990
  183987       8  183993  183987       8  183993  183990       9  183999  183996
       8  184002  183996       8  184002  183999       9  184008  184005       8
  184011  184005       8  184011  184008       9  184017  184014       8  184020
  184014       8  184020  184017       9  184026  184023       8  184029  184023
       8  184029  184026       9  184035  184032       8  184038  184032       8
  184038  184035       9  184044  184041       8  184047  184041       8  184047
  184044       9  184053  184050       8  184056  184050       8  184056  184053
       9  184062  184059       8  184065  184059       8  184065  184062       9
  184071  184068       8  184074  184068       8  184074  184071       9  184080
  184077       8  184083  184077       8  184083  184080       9  184089  184086
       8  184092  184086       8  184092  184089       9  184098  184095       8
  184101  184095       8  184101  184098       9  184107  184104       8  184110
  184104       8  184110  184107       9  184116  184113       8  184119  184113
       8  184119  184116       9  184125  184122       8  184128  184122       8
  184128  184125       9  184134  184131       8  184137  184131       8  184137
  184134       9  184143  184140       8  184146  184140       8  184146  184143
       9  184152  184149       8  184155  184149       8  184155  184152       9
  184161  184158       8  184164  184158       8  184164  184161       9  184170
  184167       8  184173  184167       8  184173  184170       9  184179  184176
       8  184182  184176       8  184182  184179       9  184188  184185       8
  184191  184185       8  184191  184188       9  184197  184194       8  184200
  184194       8  184200  184197       9  184206  184203       8  184209  184203
       8  184209  184206       9  184215  184212       8  184218  184212       8
  184218  184215       9  184224  184221       8  184227  184221       8  184227
  184224       9  184233  184230       8  184236  184230       8  184236  184233
       9  184242  184239       8  184245  184239       8  184245  184242       9
  184251  184248       8  184254  184248       8  184254  184251       9  184260
  184257       8  184263  184257       8  184263  184260       9  184269  184266
       8  184272  184266       8  184272  184269       9  184278  184275       8
  184281  184275       8  184281  184278       9  184287  184284       8  184290
  184284       8  184290  184287       9  184296  184293       8  184299  184293
       8  184299  184296       9  184305  184302       8  184308  184302       8
  184308  184305       9  184314  184311       8  184317  184311       8  184317
  184314       9  184323  184320       8  184326  184320       8  184326  184323
       9  184332  184329       8  184335  184329       8  184335  184332       9
  184341  184338       8  184344  184338       8  184344  184341       9  184350
  184347       8  184353  184347       8  184353  184350       9  184359  184356
       8  184362  184356       8  184362  184359       9  184368  184365       8
  184371  184365       8  184371  184368       9  184377  184374       8  184380
  184374       8  184380  184377       9  184386  184383       8  184389  184383
       8  184389  184386       9  184395  184392       8  184398  184392       8
  184398  184395       9  184404  184401       8  184407  184401       8  184407
  184404       9  184413  184410       8  184416  184410       8  184416  184413
       9  184422  184419       8  184425  184419       8  184425  184422       9
  184431  184428       8  184434  184428       8  184434  184431       9  184440
  184437       8  184443  184437       8  184443  184440       9  184449  184446
       8  184452  184446       8  184452  184449       9  184458  184455       8
  184461  184455       8  184461  184458       9  184467  184464       8  184470
  184464       8  184470  184467       9  184476  184473       8  184479  184473
       8  184479  184476       9  184485  184482       8  184488  184482       8
  184488  184485       9  184494  184491       8  184497  184491       8  184497
  184494       9  184503  184500       8  184506  184500       8  184506  184503
       9  184512  184509       8  184515  184509       8  184515  184512       9
  184521  184518       8  184524  184518       8  184524  184521       9  184530
  184527       8  184533  184527       8  184533  184530       9  184539  184536
       8  184542  184536       8  184542  184539       9  184548  184545       8
  184551  184545       8  184551  184548       9  184557  184554       8  184560
  184554       8  184560  184557       9  184566  184563       8  184569  184563
       8  184569  184566       9  184575  184572       8  184578  184572       8
  184578  184575       9  184584  184581       8  184587  184581       8  184587
  184584       9  184593  184590       8  184596  184590       8  184596  184593
       9  184602  184599       8  184605  184599       8  184605  184602       9
  184611  184608       8  184614  184608       8  184614  184611       9  184620
  184617       8  184623  184617       8  184623  184620       9  184629  184626
       8  184632  184626       8  184632  184629       9  184638  184635       8
  184641  184635       8  184641  184638       9  184647  184644       8  184650
  184644       8  184650  184647       9  184656  184653       8  184659  184653
       8  184659  184656       9  184665  184662       8  184668  184662       8
  184668  184665       9  184674  184671       8  184677  184671       8  184677
  184674       9  184683  184680       8  184686  184680       8  184686  184683
       9  184692  184689       8  184695  184689       8  184695  184692       9
  184701  184698       8  184704  184698       8  184704  184701       9  184710
  184707       8  184713  184707       8  184713  184710       9  184719  184716
       8  184722  184716       8  184722  184719       9  184728  184725       8
  184731  184725       8  184731  184728       9  184737  184734       8  184740
  184734       8  184740  184737       9  184746  184743       8  184749  184743
       8  184749  184746       9  184755  184752       8  184758  184752       8
  184758  184755       9  184764  184761       8  184767  184761       8  184767
  184764       9  184773  184770       8  184776  184770       8  184776  184773
       9  184782  184779       8  184785  184779       8  184785  184782       9
  184791  184788       8  184794  184788       8  184794  184791       9  184800
  184797       8  184803  184797       8  184803  184800       9  184809  184806
       8  184812  184806       8  184812  184809       9  184818  184815       8
  184821  184815       8  184821  184818       9  184827  184824       8  184830
  184824       8  184830  184827       9  184836  184833       8  184839  184833
       8  184839  184836       9  184845  184842       8  184848  184842       8
  184848  184845       9  184854  184851       8  184857  184851       8  184857
  184854       9  184863  184860       8  184866  184860       8  184866  184863
       9  184872  184869       8  184875  184869       8  184875  184872       9
  184881  184878       8  184884  184878       8  184884  184881       9  184890
  184887       8  184893  184887       8  184893  184890       9  184899  184896
       8  184902  184896       8  184902  184899       9  184908  184905       8
  184911  184905       8  184911  184908       9  184917  184914       8  184920
  184914       8  184920  184917       9  184926  184923       8  184929  184923
       8  184929  184926       9  184935  184932       8  184938  184932       8
  184938  184935       9  184944  184941       8  184947  184941       8  184947
  184944       9  184953  184950       8  184956  184950       8  184956  184953
       9  184962  184959       8  184965  184959       8  184965  184962       9
  184971  184968       8  184974  184968       8  184974  184971       9  184980
  184977       8  184983  184977       8  184983  184980       9  184989  184986
       8  184992  184986       8  184992  184989       9  184998  184995       8
  185001  184995       8  185001  184998       9  185007  185004       8  185010
  185004       8  185010  185007       9  185016  185013       8  185019  185013
       8  185019  185016       9  185025  185022       8  185028  185022       8
  185028  185025       9  185034  185031       8  185037  185031       8  185037
  185034       9  185043  185040       8  185046  185040       8  185046  185043
       9  185052  185049       8  185055  185049       8  185055  185052       9
  185061  185058       8  185064  185058       8  185064  185061       9  185070
  185067       8  185073  185067       8  185073  185070       9  185079  185076
       8  185082  185076       8  185082  185079       9  185088  185085       8
  185091  185085       8  185091  185088       9  185097  185094       8  185100
  185094       8  185100  185097       9  185106  185103       8  185109  185103
       8  185109  185106       9  185115  185112       8  185118  185112       8
  185118  185115       9  185124  185121       8  185127  185121       8  185127
  185124       9  185133  185130       8  185136  185130       8  185136  185133
       9  185142  185139       8  185145  185139       8  185145  185142       9
  185151  185148       8  185154  185148       8  185154  185151       9  185160
  185157       8  185163  185157       8  185163  185160       9  185169  185166
       8  185172  185166       8  185172  185169       9  185178  185175       8
  185181  185175       8  185181  185178       9  185187  185184       8  185190
  185184       8  185190  185187       9  185196  185193       8  185199  185193
       8  185199  185196       9  185205  185202       8  185208  185202       8
  185208  185205       9  185214  185211       8  185217  185211       8  185217
  185214       9  185223  185220       8  185226  185220       8  185226  185223
       9  185232  185229       8  185235  185229       8  185235  185232       9
  185241  185238       8  185244  185238       8  185244  185241       9  185250
  185247       8  185253  185247       8  185253  185250       9  185259  185256
       8  185262  185256       8  185262  185259       9  185268  185265       8
  185271  185265       8  185271  185268       9  185277  185274       8  185280
  185274       8  185280  185277       9  185286  185283       8  185289  185283
       8  185289  185286       9  185295  185292       8  185298  185292       8
  185298  185295       9  185304  185301       8  185307  185301       8  185307
  185304       9  185313  185310       8  185316  185310       8  185316  185313
       9  185322  185319       8  185325  185319       8  185325  185322       9
  185331  185328       8  185334  185328       8  185334  185331       9  185340
  185337       8  185343  185337       8  185343  185340       9  185349  185346
       8  185352  185346       8  185352  185349       9  185358  185355       8
  185361  185355       8  185361  185358       9  185367  185364       8  185370
  185364       8  185370  185367       9  185376  185373       8  185379  185373
       8  185379  185376       9  185385  185382       8  185388  185382       8
  185388  185385       9  185394  185391       8  185397  185391       8  185397
  185394       9  185403  185400       8  185406  185400       8  185406  185403
       9  185412  185409       8  185415  185409       8  185415  185412       9
  185421  185418       8  185424  185418       8  185424  185421       9  185430
  185427       8  185433  185427       8  185433  185430       9  185439  185436
       8  185442  185436       8  185442  185439       9  185448  185445       8
  185451  185445       8  185451  185448       9  185457  185454       8  185460
  185454       8  185460  185457       9  185466  185463       8  185469  185463
       8  185469  185466       9  185475  185472       8  185478  185472       8
  185478  185475       9  185484  185481       8  185487  185481       8  185487
  185484       9  185493  185490       8  185496  185490       8  185496  185493
       9  185502  185499       8  185505  185499       8  185505  185502       9
  185511  185508       8  185514  185508       8  185514  185511       9  185520
  185517       8  185523  185517       8  185523  185520       9  185529  185526
       8  185532  185526       8  185532  185529       9  185538  185535       8
  185541  185535       8  185541  185538       9  185547  185544       8  185550
  185544       8  185550  185547       9  185556  185553       8  185559  185553
       8  185559  185556       9  185565  185562       8  185568  185562       8
  185568  185565       9  185574  185571       8  185577  185571       8  185577
  185574       9  185583  185580       8  185586  185580       8  185586  185583
       9  185592  185589       8  185595  185589       8  185595  185592       9
  185601  185598       8  185604  185598       8  185604  185601       9  185610
  185607       8  185613  185607       8  185613  185610       9  185619  185616
       8  185622  185616       8  185622  185619       9  185628  185625       8
  185631  185625       8  185631  185628       9  185637  185634       8  185640
  185634       8  185640  185637       9  185646  185643       8  185649  185643
       8  185649  185646       9  185655  185652       8  185658  185652       8
  185658  185655       9  185664  185661       8  185667  185661       8  185667
  185664       9  185673  185670       8  185676  185670       8  185676  185673
       9  185682  185679       8  185685  185679       8  185685  185682       9
  185691  185688       8  185694  185688       8  185694  185691       9  185700
  185697       8  185703  185697       8  185703  185700       9  185709  185706
       8  185712  185706       8  185712  185709       9  185718  185715       8
  185721  185715       8  185721  185718       9  185727  185724       8  185730
  185724       8  185730  185727       9  185736  185733       8  185739  185733
       8  185739  185736       9  185745  185742       8  185748  185742       8
  185748  185745       9  185754  185751       8  185757  185751       8  185757
  185754       9  185763  185760       8  185766  185760       8  185766  185763
       9  185772  185769       8  185775  185769       8  185775  185772       9
  185781  185778       8  185784  185778       8  185784  185781       9  185790
  185787       8  185793  185787       8  185793  185790       9  185799  185796
       8  185802  185796       8  185802  185799       9  185808  185805       8
  185811  185805       8  185811  185808       9  185817  185814       8  185820
  185814       8  185820  185817       9  185826  185823       8  185829  185823
       8  185829  185826       9  185835  185832       8  185838  185832       8
  185838  185835       9  185844  185841       8  185847  185841       8  185847
  185844       9  185853  185850       8  185856  185850       8  185856  185853
       9  185862  185859       8  185865  185859       8  185865  185862       9
  185871  185868       8  185874  185868       8  185874  185871       9  185880
  185877       8  185883  185877       8  185883  185880       9  185889  185886
       8  185892  185886       8  185892  185889       9  185898  185895       8
  185901  185895       8  185901  185898       9  185907  185904       8  185910
  185904       8  185910  185907       9  185916  185913       8  185919  185913
       8  185919  185916       9  185925  185922       8  185928  185922       8
  185928  185925       9  185934  185931       8  185937  185931       8  185937
  185934       9  185943  185940       8  185946  185940       8  185946  185943
       9  185952  185949       8  185955  185949       8  185955  185952       9
  185961  185958       8  185964  185958       8  185964  185961       9  185970
  185967       8  185973  185967       8  185973  185970       9  185979  185976
       8  185982  185976       8  185982  185979       9  185988  185985       8
  185991  185985       8  185991  185988       9  185997  185994       8  186000
  185994       8  186000  185997       9  186006  186003       8  186009  186003
       8  186009  186006       9  186015  186012       8  186018  186012       8
  186018  186015       9  186024  186021       8  186027  186021       8  186027
  186024       9  186033  186030       8  186036  186030       8  186036  186033
       9  186042  186039       8  186045  186039       8  186045  186042       9
  186051  186048       8  186054  186048       8  186054  186051       9  186060
  186057       8  186063  186057       8  186063  186060       9  186069  186066
       8  186072  186066       8  186072  186069       9  186078  186075       8
  186081  186075       8  186081  186078       9  186087  186084       8  186090
  186084       8  186090  186087       9  186096  186093       8  186099  186093
       8  186099  186096       9  186105  186102       8  186108  186102       8
  186108  186105       9  186114  186111       8  186117  186111       8  186117
  186114       9  186123  186120       8  186126  186120       8  186126  186123
       9  186132  186129       8  186135  186129       8  186135  186132       9
  186141  186138       8  186144  186138       8  186144  186141       9  186150
  186147       8  186153  186147       8  186153  186150       9  186159  186156
       8  186162  186156       8  186162  186159       9  186168  186165       8
  186171  186165       8  186171  186168       9  186177  186174       8  186180
  186174       8  186180  186177       9  186186  186183       8  186189  186183
       8  186189  186186       9  186195  186192       8  186198  186192       8
  186198  186195       9  186204  186201       8  186207  186201       8  186207
  186204       9  186213  186210       8  186216  186210       8  186216  186213
       9  186222  186219       8  186225  186219       8  186225  186222       9
  186231  186228       8  186234  186228       8  186234  186231       9  186240
  186237       8  186243  186237       8  186243  186240       9  186249  186246
       8  186252  186246       8  186252  186249       9  186258  186255       8
  186261  186255       8  186261  186258       9  186267  186264       8  186270
  186264       8  186270  186267       9  186276  186273       8  186279  186273
       8  186279  186276       9  186285  186282       8  186288  186282       8
  186288  186285       9  186294  186291       8  186297  186291       8  186297
  186294       9  186303  186300       8  186306  186300       8  186306  186303
       9  186312  186309       8  186315  186309       8  186315  186312       9
  186321  186318       8  186324  186318       8  186324  186321       9  186330
  186327       8  186333  186327       8  186333  186330       9  186339  186336
       8  186342  186336       8  186342  186339       9  186348  186345       8
  186351  186345       8  186351  186348       9  186357  186354       8  186360
  186354       8  186360  186357       9  186366  186363       8  186369  186363
       8  186369  186366       9  186375  186372       8  186378  186372       8
  186378  186375       9  186384  186381       8  186387  186381       8  186387
  186384       9  186393  186390       8  186396  186390       8  186396  186393
       9  186402  186399       8  186405  186399       8  186405  186402       9
  186411  186408       8  186414  186408       8  186414  186411       9  186420
  186417       8  186423  186417       8  186423  186420       9  186429  186426
       8  186432  186426       8  186432  186429       9  186438  186435       8
  186441  186435       8  186441  186438       9  186447  186444       8  186450
  186444       8  186450  186447       9  186456  186453       8  186459  186453
       8  186459  186456       9  186465  186462       8  186468  186462       8
  186468  186465       9  186474  186471       8  186477  186471       8  186477
  186474       9  186483  186480       8  186486  186480       8  186486  186483
       9  186492  186489       8  186495  186489       8  186495  186492       9
  186501  186498       8  186504  186498       8  186504  186501       9  186510
  186507       8  186513  186507       8  186513  186510       9  186519  186516
       8  186522  186516       8  186522  186519       9  186528  186525       8
  186531  186525       8  186531  186528       9  186537  186534       8  186540
  186534       8  186540  186537       9  186546  186543       8  186549  186543
       8  186549  186546       9  186555  186552       8  186558  186552       8
  186558  186555       9  186564  186561       8  186567  186561       8  186567
  186564       9  186573  186570       8  186576  186570       8  186576  186573
       9  186582  186579       8  186585  186579       8  186585  186582       9
  186591  186588       8  186594  186588       8  186594  186591       9  186600
  186597       8  186603  186597       8  186603  186600       9  186609  186606
       8  186612  186606       8  186612  186609       9  186618  186615       8
  186621  186615       8  186621  186618       9  186627  186624       8  186630
  186624       8  186630  186627       9  186636  186633       8  186639  186633
       8  186639  186636       9  186645  186642       8  186648  186642       8
  186648  186645       9  186654  186651       8  186657  186651       8  186657
  186654       9  186663  186660       8  186666  186660       8  186666  186663
       9  186672  186669       8  186675  186669       8  186675  186672       9
  186681  186678       8  186684  186678       8  186684  186681       9  186690
  186687       8  186693  186687       8  186693  186690       9  186699  186696
       8  186702  186696       8  186702  186699       9  186708  186705       8
  186711  186705       8  186711  186708       9  186717  186714       8  186720
  186714       8  186720  186717       9  186726  186723       8  186729  186723
       8  186729  186726       9  186735  186732       8  186738  186732       8
  186738  186735       9  186744  186741       8  186747  186741       8  186747
  186744       9  186753  186750       8  186756  186750       8  186756  186753
       9  186762  186759       8  186765  186759       8  186765  186762       9
  186771  186768       8  186774  186768       8  186774  186771       9  186780
  186777       8  186783  186777       8  186783  186780       9  186789  186786
       8  186792  186786       8  186792  186789       9  186798  186795       8
  186801  186795       8  186801  186798       9  186807  186804       8  186810
  186804       8  186810  186807       9  186816  186813       8  186819  186813
       8  186819  186816       9  186825  186822       8  186828  186822       8
  186828  186825       9  186834  186831       8  186837  186831       8  186837
  186834       9  186843  186840       8  186846  186840       8  186846  186843
       9  186852  186849       8  186855  186849       8  186855  186852       9
  186861  186858       8  186864  186858       8  186864  186861       9  186870
  186867       8  186873  186867       8  186873  186870       9  186879  186876
       8  186882  186876       8  186882  186879       9  186888  186885       8
  186891  186885       8  186891  186888       9  186897  186894       8  186900
  186894       8  186900  186897       9  186906  186903       8  186909  186903
       8  186909  186906       9  186915  186912       8  186918  186912       8
  186918  186915       9  186924  186921       8  186927  186921       8  186927
  186924       9  186933  186930       8  186936  186930       8  186936  186933
       9  186942  186939       8  186945  186939       8  186945  186942       9
  186951  186948       8  186954  186948       8  186954  186951       9  186960
  186957       8  186963  186957       8  186963  186960       9  186969  186966
       8  186972  186966       8  186972  186969       9  186978  186975       8
  186981  186975       8  186981  186978       9  186987  186984       8  186990
  186984       8  186990  186987       9  186996  186993       8  186999  186993
       8  186999  186996       9  187005  187002       8  187008  187002       8
  187008  187005       9  187014  187011       8  187017  187011       8  187017
  187014       9  187023  187020       8  187026  187020       8  187026  187023
       9  187032  187029       8  187035  187029       8  187035  187032       9
  187041  187038       8  187044  187038       8  187044  187041       9  187050
  187047       8  187053  187047       8  187053  187050       9  187059  187056
       8  187062  187056       8  187062  187059       9  187068  187065       8
  187071  187065       8  187071  187068       9  187077  187074       8  187080
  187074       8  187080  187077       9  187086  187083       8  187089  187083
       8  187089  187086       9  187095  187092       8  187098  187092       8
  187098  187095       9  187104  187101       8  187107  187101       8  187107
  187104       9  187113  187110       8  187116  187110       8  187116  187113
       9  187122  187119       8  187125  187119       8  187125  187122       9
  187131  187128       8  187134  187128       8  187134  187131       9  187140
  187137       8  187143  187137       8  187143  187140       9  187149  187146
       8  187152  187146       8  187152  187149       9  187158  187155       8
  187161  187155       8  187161  187158       9  187167  187164       8  187170
  187164       8  187170  187167       9  187176  187173       8  187179  187173
       8  187179  187176       9  187185  187182       8  187188  187182       8
  187188  187185       9  187194  187191       8  187197  187191       8  187197
  187194       9  187203  187200       8  187206  187200       8  187206  187203
       9  187212  187209       8  187215  187209       8  187215  187212       9
  187221  187218       8  187224  187218       8  187224  187221       9  187230
  187227       8  187233  187227       8  187233  187230       9  187239  187236
       8  187242  187236       8  187242  187239       9  187248  187245       8
  187251  187245       8  187251  187248       9  187257  187254       8  187260
  187254       8  187260  187257       9  187266  187263       8  187269  187263
       8  187269  187266       9  187275  187272       8  187278  187272       8
  187278  187275       9  187284  187281       8  187287  187281       8  187287
  187284       9  187293  187290       8  187296  187290       8  187296  187293
       9  187302  187299       8  187305  187299       8  187305  187302       9
  187311  187308       8  187314  187308       8  187314  187311       9  187320
  187317       8  187323  187317       8  187323  187320       9  187329  187326
       8  187332  187326       8  187332  187329       9  187338  187335       8
  187341  187335       8  187341  187338       9  187347  187344       8  187350
  187344       8  187350  187347       9  187356  187353       8  187359  187353
       8  187359  187356       9  187365  187362       8  187368  187362       8
  187368  187365       9  187374  187371       8  187377  187371       8  187377
  187374       9  187383  187380       8  187386  187380       8  187386  187383
       9  187392  187389       8  187395  187389       8  187395  187392       9
  187401  187398       8  187404  187398       8  187404  187401       9  187410
  187407       8  187413  187407       8  187413  187410       9  187419  187416
       8  187422  187416       8  187422  187419       9  187428  187425       8
  187431  187425       8  187431  187428       9  187437  187434       8  187440
  187434       8  187440  187437       9  187446  187443       8  187449  187443
       8  187449  187446       9  187455  187452       8  187458  187452       8
  187458  187455       9  187464  187461       8  187467  187461       8  187467
  187464       9  187473  187470       8  187476  187470       8  187476  187473
       9  187482  187479       8  187485  187479       8  187485  187482       9
  187491  187488       8  187494  187488       8  187494  187491       9  187500
  187497       8  187503  187497       8  187503  187500       9  187509  187506
       8  187512  187506       8  187512  187509       9  187518  187515       8
  187521  187515       8  187521  187518       9  187527  187524       8  187530
  187524       8  187530  187527       9  187536  187533       8  187539  187533
       8  187539  187536       9  187545  187542       8  187548  187542       8
  187548  187545       9  187554  187551       8  187557  187551       8  187557
  187554       9  187563  187560       8  187566  187560       8  187566  187563
       9  187572  187569       8  187575  187569       8  187575  187572       9
  187581  187578       8  187584  187578       8  187584  187581       9  187590
  187587       8  187593  187587       8  187593  187590       9  187599  187596
       8  187602  187596       8  187602  187599       9  187608  187605       8
  187611  187605       8  187611  187608       9  187617  187614       8  187620
  187614       8  187620  187617       9  187626  187623       8  187629  187623
       8  187629  187626       9  187635  187632       8  187638  187632       8
  187638  187635       9  187644  187641       8  187647  187641       8  187647
  187644       9  187653  187650       8  187656  187650       8  187656  187653
       9  187662  187659       8  187665  187659       8  187665  187662       9
  187671  187668       8  187674  187668       8  187674  187671       9  187680
  187677       8  187683  187677       8  187683  187680       9  187689  187686
       8  187692  187686       8  187692  187689       9  187698  187695       8
  187701  187695       8  187701  187698       9  187707  187704       8  187710
  187704       8  187710  187707       9  187716  187713       8  187719  187713
       8  187719  187716       9  187725  187722       8  187728  187722       8
  187728  187725       9  187734  187731       8  187737  187731       8  187737
  187734       9  187743  187740       8  187746  187740       8  187746  187743
       9  187752  187749       8  187755  187749       8  187755  187752       9
  187761  187758       8  187764  187758       8  187764  187761       9  187770
  187767       8  187773  187767       8  187773  187770       9  187779  187776
       8  187782  187776       8  187782  187779       9  187788  187785       8
  187791  187785       8  187791  187788       9  187797  187794       8  187800
  187794       8  187800  187797       9  187806  187803       8  187809  187803
       8  187809  187806       9  187815  187812       8  187818  187812       8
  187818  187815       9  187824  187821       8  187827  187821       8  187827
  187824       9  187833  187830       8  187836  187830       8  187836  187833
       9  187842  187839       8  187845  187839       8  187845  187842       9
  187851  187848       8  187854  187848       8  187854  187851       9  187860
  187857       8  187863  187857       8  187863  187860       9  187869  187866
       8  187872  187866       8  187872  187869       9  187878  187875       8
  187881  187875       8  187881  187878       9  187887  187884       8  187890
  187884       8  187890  187887       9  187896  187893       8  187899  187893
       8  187899  187896       9  187905  187902       8  187908  187902       8
  187908  187905       9  187914  187911       8  187917  187911       8  187917
  187914       9  187923  187920       8  187926  187920       8  187926  187923
       9  187932  187929       8  187935  187929       8  187935  187932       9
  187941  187938       8  187944  187938       8  187944  187941       9  187950
  187947       8  187953  187947       8  187953  187950       9  187959  187956
       8  187962  187956       8  187962  187959       9  187968  187965       8
  187971  187965       8  187971  187968       9  187977  187974       8  187980
  187974       8  187980  187977       9  187986  187983       8  187989  187983
       8  187989  187986       9  187995  187992       8  187998  187992       8
  187998  187995       9  188004  188001       8  188007  188001       8  188007
  188004       9  188013  188010       8  188016  188010       8  188016  188013
       9  188022  188019       8  188025  188019       8  188025  188022       9
  188031  188028       8  188034  188028       8  188034  188031       9  188040
  188037       8  188043  188037       8  188043  188040       9  188049  188046
       8  188052  188046       8  188052  188049       9  188058  188055       8
  188061  188055       8  188061  188058       9  188067  188064       8  188070
  188064       8  188070  188067       9  188076  188073       8  188079  188073
       8  188079  188076       9  188085  188082       8  188088  188082       8
  188088  188085       9  188094  188091       8  188097  188091       8  188097
  188094       9  188103  188100       8  188106  188100       8  188106  188103
       9  188112  188109       8  188115  188109       8  188115  188112       9
  188121  188118       8  188124  188118       8  188124  188121       9  188130
  188127       8  188133  188127       8  188133  188130       9  188139  188136
       8  188142  188136       8  188142  188139       9  188148  188145       8
  188151  188145       8  188151  188148       9  188157  188154       8  188160
  188154       8  188160  188157       9  188166  188163       8  188169  188163
       8  188169  188166       9  188175  188172       8  188178  188172       8
  188178  188175       9  188184  188181       8  188187  188181       8  188187
  188184       9  188193  188190       8  188196  188190       8  188196  188193
       9  188202  188199       8  188205  188199       8  188205  188202       9
  188211  188208       8  188214  188208       8  188214  188211       9  188220
  188217       8  188223  188217       8  188223  188220       9  188229  188226
       8  188232  188226       8  188232  188229       9  188238  188235       8
  188241  188235       8  188241  188238       9  188247  188244       8  188250
  188244       8  188250  188247       9  188256  188253       8  188259  188253
       8  188259  188256       9  188265  188262       8  188268  188262       8
  188268  188265       9  188274  188271       8  188277  188271       8  188277
  188274       9  188283  188280       8  188286  188280       8  188286  188283
       9  188292  188289       8  188295  188289       8  188295  188292       9
  188301  188298       8  188304  188298       8  188304  188301       9  188310
  188307       8  188313  188307       8  188313  188310       9  188319  188316
       8  188322  188316       8  188322  188319       9  188328  188325       8
  188331  188325       8  188331  188328       9  188337  188334       8  188340
  188334       8  188340  188337       9  188346  188343       8  188349  188343
       8  188349  188346       9  188355  188352       8  188358  188352       8
  188358  188355       9  188364  188361       8  188367  188361       8  188367
  188364       9  188373  188370       8  188376  188370       8  188376  188373
       9  188382  188379       8  188385  188379       8  188385  188382       9
  188391  188388       8  188394  188388       8  188394  188391       9  188400
  188397       8  188403  188397       8  188403  188400       9  188409  188406
       8  188412  188406       8  188412  188409       9  188418  188415       8
  188421  188415       8  188421  188418       9  188427  188424       8  188430
  188424       8  188430  188427       9  188436  188433       8  188439  188433
       8  188439  188436       9  188445  188442       8  188448  188442       8
  188448  188445       9  188454  188451       8  188457  188451       8  188457
  188454       9  188463  188460       8  188466  188460       8  188466  188463
       9  188472  188469       8  188475  188469       8  188475  188472       9
  188481  188478       8  188484  188478       8  188484  188481       9  188490
  188487       8  188493  188487       8  188493  188490       9  188499  188496
       8  188502  188496       8  188502  188499       9  188508  188505       8
  188511  188505       8  188511  188508       9  188517  188514       8  188520
  188514       8  188520  188517       9  188526  188523       8  188529  188523
       8  188529  188526       9  188535  188532       8  188538  188532       8
  188538  188535       9  188544  188541       8  188547  188541       8  188547
  188544       9  188553  188550       8  188556  188550       8  188556  188553
       9  188562  188559       8  188565  188559       8  188565  188562       9
  188571  188568       8  188574  188568       8  188574  188571       9  188580
  188577       8  188583  188577       8  188583  188580       9  188589  188586
       8  188592  188586       8  188592  188589       9  188598  188595       8
  188601  188595       8  188601  188598       9  188607  188604       8  188610
  188604       8  188610  188607       9  188616  188613       8  188619  188613
       8  188619  188616       9  188625  188622       8  188628  188622       8
  188628  188625       9  188634  188631       8  188637  188631       8  188637
  188634       9  188643  188640       8  188646  188640       8  188646  188643
       9  188652  188649       8  188655  188649       8  188655  188652       9
  188661  188658       8  188664  188658       8  188664  188661       9  188670
  188667       8  188673  188667       8  188673  188670       9  188679  188676
       8  188682  188676       8  188682  188679       9  188688  188685       8
  188691  188685       8  188691  188688       9  188697  188694       8  188700
  188694       8  188700  188697       9  188706  188703       8  188709  188703
       8  188709  188706       9  188715  188712       8  188718  188712       8
  188718  188715       9  188724  188721       8  188727  188721       8  188727
  188724       9  188733  188730       8  188736  188730       8  188736  188733
       9  188742  188739       8  188745  188739       8  188745  188742       9
  188751  188748       8  188754  188748       8  188754  188751       9  188760
  188757       8  188763  188757       8  188763  188760       9  188769  188766
       8  188772  188766       8  188772  188769       9  188778  188775       8
  188781  188775       8  188781  188778       9  188787  188784       8  188790
  188784       8  188790  188787       9  188796  188793       8  188799  188793
       8  188799  188796       9  188805  188802       8  188808  188802       8
  188808  188805       9  188814  188811       8  188817  188811       8  188817
  188814       9  188823  188820       8  188826  188820       8  188826  188823
       9  188832  188829       8  188835  188829       8  188835  188832       9
  188841  188838       8  188844  188838       8  188844  188841       9  188850
  188847       8  188853  188847       8  188853  188850       9  188859  188856
       8  188862  188856       8  188862  188859       9  188868  188865       8
  188871  188865       8  188871  188868       9  188877  188874       8  188880
  188874       8  188880  188877       9  188886  188883       8  188889  188883
       8  188889  188886       9  188895  188892       8  188898  188892       8
  188898  188895       9  188904  188901       8  188907  188901       8  188907
  188904       9  188913  188910       8  188916  188910       8  188916  188913
       9  188922  188919       8  188925  188919       8  188925  188922       9
  188931  188928       8  188934  188928       8  188934  188931       9  188940
  188937       8  188943  188937       8  188943  188940       9  188949  188946
       8  188952  188946       8  188952  188949       9  188958  188955       8
  188961  188955       8  188961  188958       9  188967  188964       8  188970
  188964       8  188970  188967       9  188976  188973       8  188979  188973
       8  188979  188976       9  188985  188982       8  188988  188982       8
  188988  188985       9  188994  188991       8  188997  188991       8  188997
  188994       9  189003  189000       8  189006  189000       8  189006  189003
       9  189012  189009       8  189015  189009       8  189015  189012       9
  189021  189018       8  189024  189018       8  189024  189021       9  189030
  189027       8  189033  189027       8  189033  189030       9  189039  189036
       8  189042  189036       8  189042  189039       9  189048  189045       8
  189051  189045       8  189051  189048       9  189057  189054       8  189060
  189054       8  189060  189057       9  189066  189063       8  189069  189063
       8  189069  189066       9  189075  189072       8  189078  189072       8
  189078  189075       9  189084  189081       8  189087  189081       8  189087
  189084       9  189093  189090       8  189096  189090       8  189096  189093
       9  189102  189099       8  189105  189099       8  189105  189102       9
  189111  189108       8  189114  189108       8  189114  189111       9  189120
  189117       8  189123  189117       8  189123  189120       9  189129  189126
       8  189132  189126       8  189132  189129       9  189138  189135       8
  189141  189135       8  189141  189138       9  189147  189144       8  189150
  189144       8  189150  189147       9  189156  189153       8  189159  189153
       8  189159  189156       9  189165  189162       8  189168  189162       8
  189168  189165       9  189174  189171       8  189177  189171       8  189177
  189174       9  189183  189180       8  189186  189180       8  189186  189183
       9  189192  189189       8  189195  189189       8  189195  189192       9
  189201  189198       8  189204  189198       8  189204  189201       9  189210
  189207       8  189213  189207       8  189213  189210       9  189219  189216
       8  189222  189216       8  189222  189219       9  189228  189225       8
  189231  189225       8  189231  189228       9  189237  189234       8  189240
  189234       8  189240  189237       9  189246  189243       8  189249  189243
       8  189249  189246       9  189255  189252       8  189258  189252       8
  189258  189255       9  189264  189261       8  189267  189261       8  189267
  189264       9  189273  189270       8  189276  189270       8  189276  189273
       9  189282  189279       8  189285  189279       8  189285  189282       9
  189291  189288       8  189294  189288       8  189294  189291       9  189300
  189297       8  189303  189297       8  189303  189300       9  189309  189306
       8  189312  189306       8  189312  189309       9  189318  189315       8
  189321  189315       8  189321  189318       9  189327  189324       8  189330
  189324       8  189330  189327       9  189336  189333       8  189339  189333
       8  189339  189336       9  189345  189342       8  189348  189342       8
  189348  189345       9  189354  189351       8  189357  189351       8  189357
  189354       9  189363  189360       8  189366  189360       8  189366  189363
       9  189372  189369       8  189375  189369       8  189375  189372       9
  189381  189378       8  189384  189378       8  189384  189381       9  189390
  189387       8  189393  189387       8  189393  189390       9  189399  189396
       8  189402  189396       8  189402  189399       9  189408  189405       8
  189411  189405       8  189411  189408       9  189417  189414       8  189420
  189414       8  189420  189417       9  189426  189423       8  189429  189423
       8  189429  189426       9  189435  189432       8  189438  189432       8
  189438  189435       9  189444  189441       8  189447  189441       8  189447
  189444       9  189453  189450       8  189456  189450       8  189456  189453
       9  189462  189459       8  189465  189459       8  189465  189462       9
  189471  189468       8  189474  189468       8  189474  189471       9  189480
  189477       8  189483  189477       8  189483  189480       9  189489  189486
       8  189492  189486       8  189492  189489       9  189498  189495       8
  189501  189495       8  189501  189498       9  189507  189504       8  189510
  189504       8  189510  189507       9  189516  189513       8  189519  189513
       8  189519  189516       9  189525  189522       8  189528  189522       8
  189528  189525       9  189534  189531       8  189537  189531       8  189537
  189534       9  189543  189540       8  189546  189540       8  189546  189543
       9  189552  189549       8  189555  189549       8  189555  189552       9
  189561  189558       8  189564  189558       8  189564  189561       9  189570
  189567       8  189573  189567       8  189573  189570       9  189579  189576
       8  189582  189576       8  189582  189579       9  189588  189585       8
  189591  189585       8  189591  189588       9  189597  189594       8  189600
  189594       8  189600  189597       9  189606  189603       8  189609  189603
       8  189609  189606       9  189615  189612       8  189618  189612       8
  189618  189615       9  189624  189621       8  189627  189621       8  189627
  189624       9  189633  189630       8  189636  189630       8  189636  189633
       9  189642  189639       8  189645  189639       8  189645  189642       9
  189651  189648       8  189654  189648       8  189654  189651       9  189660
  189657       8  189663  189657       8  189663  189660       9  189669  189666
       8  189672  189666       8  189672  189669       9  189678  189675       8
  189681  189675       8  189681  189678       9  189687  189684       8  189690
  189684       8  189690  189687       9  189696  189693       8  189699  189693
       8  189699  189696       9  189705  189702       8  189708  189702       8
  189708  189705       9  189714  189711       8  189717  189711       8  189717
  189714       9  189723  189720       8  189726  189720       8  189726  189723
       9  189732  189729       8  189735  189729       8  189735  189732       9
  189741  189738       8  189744  189738       8  189744  189741       9  189750
  189747       8  189753  189747       8  189753  189750       9  189759  189756
       8  189762  189756       8  189762  189759       9  189768  189765       8
  189771  189765       8  189771  189768       9  189777  189774       8  189780
  189774       8  189780  189777       9  189786  189783       8  189789  189783
       8  189789  189786       9  189795  189792       8  189798  189792       8
  189798  189795       9  189804  189801       8  189807  189801       8  189807
  189804       9  189813  189810       8  189816  189810       8  189816  189813
       9  189822  189819       8  189825  189819       8  189825  189822       9
  189831  189828       8  189834  189828       8  189834  189831       9  189840
  189837       8  189843  189837       8  189843  189840       9  189849  189846
       8  189852  189846       8  189852  189849       9  189858  189855       8
  189861  189855       8  189861  189858       9  189867  189864       8  189870
  189864       8  189870  189867       9  189876  189873       8  189879  189873
       8  189879  189876       9  189885  189882       8  189888  189882       8
  189888  189885       9  189894  189891       8  189897  189891       8  189897
  189894       9  189903  189900       8  189906  189900       8  189906  189903
       9  189912  189909       8  189915  189909       8  189915  189912       9
  189921  189918       8  189924  189918       8  189924  189921       9  189930
  189927       8  189933  189927       8  189933  189930       9  189939  189936
       8  189942  189936       8  189942  189939       9  189948  189945       8
  189951  189945       8  189951  189948       9  189957  189954       8  189960
  189954       8  189960  189957       9  189966  189963       8  189969  189963
       8  189969  189966       9  189975  189972       8  189978  189972       8
  189978  189975       9  189984  189981       8  189987  189981       8  189987
  189984       9  189993  189990       8  189996  189990       8  189996  189993
       9  190002  189999       8  190005  189999       8  190005  190002       9
  190011  190008       8  190014  190008       8  190014  190011       9  190020
  190017       8  190023  190017       8  190023  190020       9  190029  190026
       8  190032  190026       8  190032  190029       9  190038  190035       8
  190041  190035       8  190041  190038       9  190047  190044       8  190050
  190044       8  190050  190047       9  190056  190053       8  190059  190053
       8  190059  190056       9  190065  190062       8  190068  190062       8
  190068  190065       9  190074  190071       8  190077  190071       8  190077
  190074       9  190083  190080       8  190086  190080       8  190086  190083
       9  190092  190089       8  190095  190089       8  190095  190092       9
  190101  190098       8  190104  190098       8  190104  190101       9  190110
  190107       8  190113  190107       8  190113  190110       9  190119  190116
       8  190122  190116       8  190122  190119       9  190128  190125       8
  190131  190125       8  190131  190128       9  190137  190134       8  190140
  190134       8  190140  190137       9  190146  190143       8  190149  190143
       8  190149  190146       9  190155  190152       8  190158  190152       8
  190158  190155       9  190164  190161       8  190167  190161       8  190167
  190164       9  190173  190170       8  190176  190170       8  190176  190173
       9  190182  190179       8  190185  190179       8  190185  190182       9
  190191  190188       8  190194  190188       8  190194  190191       9  190200
  190197       8  190203  190197       8  190203  190200       9  190209  190206
       8  190212  190206       8  190212  190209       9  190218  190215       8
  190221  190215       8  190221  190218       9  190227  190224       8  190230
  190224       8  190230  190227       9  190236  190233       8  190239  190233
       8  190239  190236       9  190245  190242       8  190248  190242       8
  190248  190245       9  190254  190251       8  190257  190251       8  190257
  190254       9  190263  190260       8  190266  190260       8  190266  190263
       9  190272  190269       8  190275  190269       8  190275  190272       9
  190281  190278       8  190284  190278       8  190284  190281       9  190290
  190287       8  190293  190287       8  190293  190290       9  190299  190296
       8  190302  190296       8  190302  190299       9  190308  190305       8
  190311  190305       8  190311  190308       9  190317  190314       8  190320
  190314       8  190320  190317       9  190326  190323       8  190329  190323
       8  190329  190326       9  190335  190332       8  190338  190332       8
  190338  190335       9  190344  190341       8  190347  190341       8  190347
  190344       9  190353  190350       8  190356  190350       8  190356  190353
       9  190362  190359       8  190365  190359       8  190365  190362       9
  190371  190368       8  190374  190368       8  190374  190371       9  190380
  190377       8  190383  190377       8  190383  190380       9  190389  190386
       8  190392  190386       8  190392  190389       9  190398  190395       8
  190401  190395       8  190401  190398       9  190407  190404       8  190410
  190404       8  190410  190407       9  190416  190413       8  190419  190413
       8  190419  190416       9  190425  190422       8  190428  190422       8
  190428  190425       9  190434  190431       8  190437  190431       8  190437
  190434       9  190443  190440       8  190446  190440       8  190446  190443
       9  190452  190449       8  190455  190449       8  190455  190452       9
  190461  190458       8  190464  190458       8  190464  190461       9  190470
  190467       8  190473  190467       8  190473  190470       9  190479  190476
       8  190482  190476       8  190482  190479       9  190488  190485       8
  190491  190485       8  190491  190488       9  190497  190494       8  190500
  190494       8  190500  190497       9  190506  190503       8  190509  190503
       8  190509  190506       9  190515  190512       8  190518  190512       8
  190518  190515       9  190524  190521       8  190527  190521       8  190527
  190524       9  190533  190530       8  190536  190530       8  190536  190533
       9  190542  190539       8  190545  190539       8  190545  190542       9
  190551  190548       8  190554  190548       8  190554  190551       9  190560
  190557       8  190563  190557       8  190563  190560       9  190569  190566
       8  190572  190566       8  190572  190569       9  190578  190575       8
  190581  190575       8  190581  190578       9  190587  190584       8  190590
  190584       8  190590  190587       9  190596  190593       8  190599  190593
       8  190599  190596       9  190605  190602       8  190608  190602       8
  190608  190605       9  190614  190611       8  190617  190611       8  190617
  190614       9  190623  190620       8  190626  190620       8  190626  190623
       9  190632  190629       8  190635  190629       8  190635  190632       9
  190641  190638       8  190644  190638       8  190644  190641       9  190650
  190647       8  190653  190647       8  190653  190650       9  190659  190656
       8  190662  190656       8  190662  190659       9  190668  190665       8
  190671  190665       8  190671  190668       9  190677  190674       8  190680
  190674       8  190680  190677       9  190686  190683       8  190689  190683
       8  190689  190686       9  190695  190692       8  190698  190692       8
  190698  190695       9  190704  190701       8  190707  190701       8  190707
  190704       9  190713  190710       8  190716  190710       8  190716  190713
       9  190722  190719       8  190725  190719       8  190725  190722       9
  190731  190728       8  190734  190728       8  190734  190731       9  190740
  190737       8  190743  190737       8  190743  190740       9  190749  190746
       8  190752  190746       8  190752  190749       9  190758  190755       8
  190761  190755       8  190761  190758       9  190767  190764       8  190770
  190764       8  190770  190767       9  190776  190773       8  190779  190773
       8  190779  190776       9  190785  190782       8  190788  190782       8
  190788  190785       9  190794  190791       8  190797  190791       8  190797
  190794       9  190803  190800       8  190806  190800       8  190806  190803
       9  190812  190809       8  190815  190809       8  190815  190812       9
  190821  190818       8  190824  190818       8  190824  190821       9  190830
  190827       8  190833  190827       8  190833  190830       9  190839  190836
       8  190842  190836       8  190842  190839       9  190848  190845       8
  190851  190845       8  190851  190848       9  190857  190854       8  190860
  190854       8  190860  190857       9  190866  190863       8  190869  190863
       8  190869  190866       9  190875  190872       8  190878  190872       8
  190878  190875       9  190884  190881       8  190887  190881       8  190887
  190884       9  190893  190890       8  190896  190890       8  190896  190893
       9  190902  190899       8  190905  190899       8  190905  190902       9
  190911  190908       8  190914  190908       8  190914  190911       9  190920
  190917       8  190923  190917       8  190923  190920       9  190929  190926
       8  190932  190926       8  190932  190929       9  190938  190935       8
  190941  190935       8  190941  190938       9  190947  190944       8  190950
  190944       8  190950  190947       9  190956  190953       8  190959  190953
       8  190959  190956       9  190965  190962       8  190968  190962       8
  190968  190965       9  190974  190971       8  190977  190971       8  190977
  190974       9  190983  190980       8  190986  190980       8  190986  190983
       9  190992  190989       8  190995  190989       8  190995  190992       9
  191001  190998       8  191004  190998       8  191004  191001       9  191010
  191007       8  191013  191007       8  191013  191010       9  191019  191016
       8  191022  191016       8  191022  191019       9  191028  191025       8
  191031  191025       8  191031  191028       9  191037  191034       8  191040
  191034       8  191040  191037       9  191046  191043       8  191049  191043
       8  191049  191046       9  191055  191052       8  191058  191052       8
  191058  191055       9  191064  191061       8  191067  191061       8  191067
  191064       9  191073  191070       8  191076  191070       8  191076  191073
       9  191082  191079       8  191085  191079       8  191085  191082       9
  191091  191088       8  191094  191088       8  191094  191091       9  191100
  191097       8  191103  191097       8  191103  191100       9  191109  191106
       8  191112  191106       8  191112  191109       9  191118  191115       8
  191121  191115       8  191121  191118       9  191127  191124       8  191130
  191124       8  191130  191127       9  191136  191133       8  191139  191133
       8  191139  191136       9  191145  191142       8  191148  191142       8
  191148  191145       9  191154  191151       8  191157  191151       8  191157
  191154       9  191163  191160       8  191166  191160       8  191166  191163
       9  191172  191169       8  191175  191169       8  191175  191172       9
  191181  191178       8  191184  191178       8  191184  191181       9  191190
  191187       8  191193  191187       8  191193  191190       9  191199  191196
       8  191202  191196       8  191202  191199       9  191208  191205       8
  191211  191205       8  191211  191208       9  191217  191214       8  191220
  191214       8  191220  191217       9  191226  191223       8  191229  191223
       8  191229  191226       9  191235  191232       8  191238  191232       8
  191238  191235       9  191244  191241       8  191247  191241       8  191247
  191244       9  191253  191250       8  191256  191250       8  191256  191253
       9  191262  191259       8  191265  191259       8  191265  191262       9
  191271  191268       8  191274  191268       8  191274  191271       9  191280
  191277       8  191283  191277       8  191283  191280       9  191289  191286
       8  191292  191286       8  191292  191289       9  191298  191295       8
  191301  191295       8  191301  191298       9  191307  191304       8  191310
  191304       8  191310  191307       9  191316  191313       8  191319  191313
       8  191319  191316       9  191325  191322       8  191328  191322       8
  191328  191325       9  191334  191331       8  191337  191331       8  191337
  191334       9  191343  191340       8  191346  191340       8  191346  191343
       9  191352  191349       8  191355  191349       8  191355  191352       9
  191361  191358       8  191364  191358       8  191364  191361       9  191370
  191367       8  191373  191367       8  191373  191370       9  191379  191376
       8  191382  191376       8  191382  191379       9  191388  191385       8
  191391  191385       8  191391  191388       9  191397  191394       8  191400
  191394       8  191400  191397       9  191406  191403       8  191409  191403
       8  191409  191406       9  191415  191412       8  191418  191412       8
  191418  191415       9  191424  191421       8  191427  191421       8  191427
  191424       9  191433  191430       8  191436  191430       8  191436  191433
       9  191442  191439       8  191445  191439       8  191445  191442       9
  191451  191448       8  191454  191448       8  191454  191451       9  191460
  191457       8  191463  191457       8  191463  191460       9  191469  191466
       8  191472  191466       8  191472  191469       9  191478  191475       8
  191481  191475       8  191481  191478       9  191487  191484       8  191490
  191484       8  191490  191487       9  191496  191493       8  191499  191493
       8  191499  191496       9  191505  191502       8  191508  191502       8
  191508  191505       9  191514  191511       8  191517  191511       8  191517
  191514       9  191523  191520       8  191526  191520       8  191526  191523
       9  191532  191529       8  191535  191529       8  191535  191532       9
  191541  191538       8  191544  191538       8  191544  191541       9  191550
  191547       8  191553  191547       8  191553  191550       9  191559  191556
       8  191562  191556       8  191562  191559       9  191568  191565       8
  191571  191565       8  191571  191568       9  191577  191574       8  191580
  191574       8  191580  191577       9  191586  191583       8  191589  191583
       8  191589  191586       9  191595  191592       8  191598  191592       8
  191598  191595       9  191604  191601       8  191607  191601       8  191607
  191604       9  191613  191610       8  191616  191610       8  191616  191613
       9  191622  191619       8  191625  191619       8  191625  191622       9
  191631  191628       8  191634  191628       8  191634  191631       9  191640
  191637       8  191643  191637       8  191643  191640       9  191649  191646
       8  191652  191646       8  191652  191649       9  191658  191655       8
  191661  191655       8  191661  191658       9  191667  191664       8  191670
  191664       8  191670  191667       9  191676  191673       8  191679  191673
       8  191679  191676       9  191685  191682       8  191688  191682       8
  191688  191685       9  191694  191691       8  191697  191691       8  191697
  191694       9  191703  191700       8  191706  191700       8  191706  191703
       9  191712  191709       8  191715  191709       8  191715  191712       9
  191721  191718       8  191724  191718       8  191724  191721       9  191730
  191727       8  191733  191727       8  191733  191730       9  191739  191736
       8  191742  191736       8  191742  191739       9  191748  191745       8
  191751  191745       8  191751  191748       9  191757  191754       8  191760
  191754       8  191760  191757       9  191766  191763       8  191769  191763
       8  191769  191766       9  191775  191772       8  191778  191772       8
  191778  191775       9  191784  191781       8  191787  191781       8  191787
  191784       9  191793  191790       8  191796  191790       8  191796  191793
       9  191802  191799       8  191805  191799       8  191805  191802       9
  191811  191808       8  191814  191808       8  191814  191811       9  191820
  191817       8  191823  191817       8  191823  191820       9  191829  191826
       8  191832  191826       8  191832  191829       9  191838  191835       8
  191841  191835       8  191841  191838       9  191847  191844       8  191850
  191844       8  191850  191847       9  191856  191853       8  191859  191853
       8  191859  191856       9  191865  191862       8  191868  191862       8
  191868  191865       9  191874  191871       8  191877  191871       8  191877
  191874       9  191883  191880       8  191886  191880       8  191886  191883
       9  191892  191889       8  191895  191889       8  191895  191892       9
  191901  191898       8  191904  191898       8  191904  191901       9  191910
  191907       8  191913  191907       8  191913  191910       9  191919  191916
       8  191922  191916       8  191922  191919       9  191928  191925       8
  191931  191925       8  191931  191928       9  191937  191934       8  191940
  191934       8  191940  191937       9  191946  191943       8  191949  191943
       8  191949  191946       9  191955  191952       8  191958  191952       8
  191958  191955       9  191964  191961       8  191967  191961       8  191967
  191964       9
%FLAG BONDS_WITHOUT_HYDROGEN                                                    
%FORMAT(10I8)                                                                   
    2028    2031       2    2016    2019       4    2016    2022       4    2016
    2025       4    2013    2016       4    2010    2013       5    2010    2028
       2    2007    2010       2    2004    2007       2    2001    2004       2
    2001    2031       2    1995    1998       2    1983    1986       4    1983
    1989       4    1983    1992       4    1980    1983       4    1977    1980
       5    1977    1995       2    1974    1977       2    1971    1974       2
    1968    1971       2    1968    1998       2    1962    1965       2    1950
    1953       4    1950    1956       4    1950    1959       4    1947    1950
       4    1944    1947       5    1944    1962       2    1941    1944       2
    1938    1941       2    1935    1938       2    1935    1965       2    1929
    1932       2    1917    1920       4    1917    1923       4    1917    1926
       4    1914    1917       4    1911    1914       5    1911    1929       2
    1908    1911       2    1905    1908       2    1902    1905       2    1902
    1932       2    1896    1899       2    1884    1887       4    1884    1890
       4    1884    1893       4    1881    1884       4    1878    1881       5
    1878    1896       2    1875    1878       2    1872    1875       2    1869
    1872       2    1869    1899       2    1863    1866       2    1851    1854
       4    1851    1857       4    1851    1860       4    1848    1851       4
    1845    1848       5    1845    1863       2    1842    1845       2    1839
    1842       2    1836    1839       2    1836    1866       2    1830    1833
       2    1818    1821       4    1818    1824       4    1818    1827       4
    1815    1818       4    1812    1815       5    1812    1830       2    1809
    1812       2    1806    1809       2    1803    1806       2    1803    1833
       2    1797    1800       2    1785    1788       4    1785    1791       4
    1785    1794       4    1782    1785       4    1779    1782       5    1779
    1797       2    1776    1779       2    1773    1776       2    1770    1773
       2    1770    1800       2    1764    1767       2    1752    1755       4
    1752    1758       4    1752    1761       4    1749    1752       4    1746
    1749       5    1746    1764       2    1743    1746       2    1740    1743
       2    1737    1740       2    1737    1767       2    1731    1734       2
    1719    1722       4    1719    1725       4    1719    1728       4    1716
    1719       4    1713    1716       5    1713    1731       2    1710    1713
       2    1707    1710       2    1704    1707       2    1704    1734       2
    1698    1701       2    1686    1689       4    1686    1692       4    1686
    1695       4    1683    1686       4    1680    1683       5    1680    1698
       2    1677    1680       2    1674    1677       2    1671    1674       2
    1671    1701       2    1665    1668       2    1653    1656       4    1653
    1659       4    1653    1662       4    1650    1653       4    1647    1650
       5    1647    1665       2    1644    1647       2    1641    1644       2
    1638    1641       2    1638    1668       2    1632    1635       2    1626
    1629       2    1614    1617       4    1614    1620       4    1614    1623
       4    1611    1614       4    1608    1611       5    1608    1626       2
    1605    1608       2    1602    1605       2    1599    1602       2    1599
    1629       2    1593    1596       2    1581    1584       4    1581    1587
       4    1581    1590       4    1578    1581       4    1575    1578       5
    1575    1593       2    1572    1575       2    1569    1572       2    1566
    1569       2    1566    1596       2    1560    1563       2    1548    1551
       4    1548    1554       4    1548    1557       4    1545    1548       4
    1542    1545       5    1542    1560       2    1539    1542       2    1536
    1539       2    1533    1536       2    1533    1563       2    1527    1530
       2    1515    1518       4    1515    1521       4    1515    1524       4
    1512    1515       4    1509    1512       5    1509    1527       2    1506
    1509       2    1503    1506       2    1500    1503       2    1500    1530
       2    1494    1497       2    1482    1485       4    1482    1488       4
    1482    1491       4    1479    1482       4    1476    1479       5    1476
    1494       2    1473    1476       2    1470    1473       2    1467    1470
       2    1467    1497       2    1461    1464       2    1449    1452       4
    1449    1455       4    1449    1458       4    1446    1449       4    1443
    1446       5    1443    1461       2    1440    1443       2    1437    1440
       2    1434    1437       2    1434    1464       2    1428    1431       2
    1416    1419       4    1416    1422       4    1416    1425       4    1413
    1416       4    1410    1413       5    1410    1428       2    1407    1410
       2    1404    1407       2    1401    1404       2    1401    1431       2
    1395    1398       2    1383    1386       4    1383    1389       4    1383
    1392       4    1380    1383       4    1377    1380       5    1377    1395
       2    1374    1377       2    1371    1374       2    1368    1371       2
    1368    1398       2    1362    1365       2    1350    1353       4    1350
    1356       4    1350    1359       4    1347    1350       4    1344    1347
       5    1344    1362       2    1341    1344       2    1338    1341       2
    1335    1338       2    1335    1365       2    1329    1332       2    1317
    1320       4    1317    1323       4    1317    1326       4    1314    1317
       4    1311    1314       5    1311    1329       2    1308    1311       2
    1305    1308       2    1302    1305       2    1302    1332       2    1296
    1299       2    1284    1287       4    1284    1290       4    1284    1293
       4    1281    1284       4    1278    1281       5    1278    1296       2
    1275    1278       2    1272    1275       2    1269    1272       2    1269
    1299       2    1263    1266       2    1251    1254       4    1251    1257
       4    1251    1260       4    1248    1251       4    1245    1248       5
    1245    1263       2    1242    1245       2    1239    1242       2    1236
    1239       2    1236    1266       2    1230    1233       2    1218    1221
       4    1218    1224       4    1218    1227       4    1215    1218       4
    1212    1215       5    1212    1230       2    1209    1212       2    1206
    1209       2    1203    1206       2    1203    1233       2    1197    1200
       7    1197    1203       5    1194    1197       7    1191    1194       7
    1188    1191       7    1188    1236       5    1185    1188       7    1182
    1185       7    1179    1182       7    1179    1269       5    1176    1179
       7    1173    1176       7    1170    1173       7    1170    1302       5
    1167    1170       7    1164    1167       7    1161    1164       7    1161
    1335       5    1158    1161       7    1155    1158       7    1152    1155
       7    1152    1368       5    1149    1152       7    1146    1149       7
    1143    1146       7    1143    1401       5    1140    1143       7    1137
    1140       7    1134    1137       7    1134    1434       5    1131    1134
       7    1128    1131       7    1125    1128       7    1125    1467       5
    1122    1125       7    1119    1122       7    1116    1119       7    1116
    1500       5    1113    1116       7    1110    1113       7    1107    1110
       7    1107    1533       5    1104    1107       7    1101    1104       7
    1098    1101       7    1098    1566       5    1095    1098       7    1092
    1095       7    1086    1089       2    1074    1077       4    1074    1080
       4    1074    1083       4    1071    1074       4    1068    1071       5
    1068    1086       2    1065    1068       2    1062    1065       2    1059
    1062       2    1059    1089       2    1053    1056       2    1041    1044
       4    1041    1047       4    1041    1050       4    1038    1041       4
    1035    1038       5    1035    1053       2    1032    1035       2    1029
    1032       2    1026    1029       2    1026    1056       2    1020    1023
       2    1008    1011       4    1008    1014       4    1008    1017       4
    1005    1008       4    1002    1005       5    1002    1020       2     999
    1002       2     996     999       2     993     996       2     993    1023
       2     987     990       2     975     978       4     975     981       4
     975     984       4     972     975       4     969     972       5     969
     987       2     966     969       2     963     966       2     960     963
       2     960     990       2     954     957       2     942     945       4
     942     948       4     942     951       4     939     942       4     936
     939       5     936     954       2     933     936       2     930     933
       2     927     930       2     927     957       2     921     924       2
     909     912       4     909     915       4     909     918       4     906
     909       4     903     906       5     903     921       2     900     903
       2     897     900       2     894     897       2     894     924       2
     888     891       2     876     879       4     876     882       4     876
     885       4     873     876       4     870     873       5     870     888
       2     867     870       2     864     867       2     861     864       2
     861     891       2     855     858       2     843     846       4     843
     849       4     843     852       4     840     843       4     837     840
       5     837     855       2     834     837       2     831     834       2
     828     831       2     828     858       2     822     825       2     810
     813       4     810     816       4     810     819       4     807     810
       4     804     807       5     804     822       2     801     804       2
     798     801       2     795     798       2     795     825       2     789
     792       2     777     780       4     777     783       4     777     786
       4     774     777       4     771     774       5     771     789       2
     768     771       2     765     768       2     762     765       2     762
     792       2     756     759       2     744     747       4     744     750
       4     744     753       4     741     744       4     738     741       5
     738     756       2     735     738       2     732     735       2     729
     732       2     729     759       2     723     726       7     723     729
       5     720     723       7     717     720       7     714     717       7
     714     762       5     711     714       7     708     711       7     705
     708       7     705     795       5     702     705       7     699     702
       7     696     699       7     696     828       5     693     696       7
     690     693       7     687     690       7     687     861       5     684
     687       7     681     684       7     678     681       7     678     894
       5     675     678       7     672     675       7     669     672       7
     669     927       5     666     669       7     663     666       7     660
     663       7     660     960       5     657     660       7     654     657
       7     651     654       7     651     993       5     648     651       7
     645     648       7     642     645       7     642    1026       5     639
     642       7     636     639       7     633     636       7     633    1059
       5     630     633       7     627     630       7     624     627       7
     624    1092       7     624    1599       5     621     624       5     621
    1632       2     618     621       2     615     618       2     612     615
       2     612    1635       2     606     609       2     594     597       4
     594     600       4     594     603       4     591     594       4     588
     591       5     588     606       2     585     588       2     582     585
       2     579     582       2     579     609       2     573     576       2
     561     564       4     561     567       4     561     570       4     558
     561       4     555     558       5     555     573       2     552     555
       2     549     552       2     546     549       2     546     576       2
     540     543       2     528     531       4     528     534       4     528
     537       4     525     528       4     522     525       5     522     540
       2     519     522       2     516     519       2     513     516       2
     513     543       2     507     510       2     495     498       4     495
     501       4     495     504       4     492     495       4     489     492
       5     489     507       2     486     489       2     483     486       2
     480     483       2     480     510       2     474     477       2     462
     465       4     462     468       4     462     471       4     459     462
       4     456     459       5     456     474       2     453     456       2
     450     453       2     447     450       2     447     477       2     441
     444       2     429     432       4     429     435       4     429     438
       4     426     429       4     423     426       5     423     441       2
     420     423       2     417     420       2     414     417       2     414
     444       2     408     411       2     396     399       4     396     402
       4     396     405       4     393     396       4     390     393       5
     390     408       2     387     390       2     384     387       2     381
     384       2     381     411       2     375     378       2     363     366
       4     363     369       4     363     372       4     360     363       4
     357     360       5     357     375       2     354     357       2     351
     354       2     348     351       2     348     378       2     342     345
       2     330     333       4     330     336       4     330     339       4
     327     330       4     324     327       5     324     342       2     321
     324       2     318     321       2     315     318       2     315     345
       2     309     312       2     297     300       4     297     303       4
     297     306       4     294     297       4     291     294       5     291
     309       2     288     291       2     285     288       2     282     285
       2     282     312       2     276     279       2     264     267       4
     264     270       4     264     273       4     261     264       4     258
     261       5     258     276       2     255     258       2     252     255
       2     249     252       2     249     279       2     243     246       2
     231     234       4     231     237       4     231     240       4     228
     231       4     225     228       5     225     243       2     222     225
       2     219     222       2     216     219       2     216     246       2
     210     213       7     210     216       5     207     210       7     204
     207       7     201     204       7     201     249       5     198     201
       7     195     198       7     192     195       7     192     282       5
     189     192       7     186     189       7     183     186       7     183
     315       5     180     183       7     177     180       7     174     177
       7     174     348       5     171     174       7     168     171       7
     165     168       7     165     381       5     162     165       7     159
     162       7     156     159       7     156     414       5     153     156
       7     150     153       7     147     150       7     147     447       5
     144     147       7     141     144       7     138     141       7     138
     480       5     135     138       7     132     135       7     129     132
       7     129     513       5     126     129       7     123     126       7
     120     123       7     120     546       5     117     120       7     114
     117       7     111     114       7     111     579       5     111     612
       5     108     111       7     105     108       7     102     105       7
     102    1638       5      99     102       7      96      99       7      93
      96       7      93    1671       5      90      93       7      87      90
       7      84      87       7      84    1704       5      81      84       7
      78      81       7      75      78       7      75    1737       5      72
      75       7      69      72       7      66      69       7      66    1770
       5      63      66       7      60      63       7      57      60       7
      57    1803       5      54      57       7      51      54       7      48
      51       7      48    1836       5      45      48       7      42      45
       7      39      42       7      39    1869       5      36      39       7
      33      36       7      30      33       7      30    1902       5      27
      30       7      24      27       7      21      24       7      21    1935
       5      18      21       7      15      18       7      12      15       7
      12    1968       5       9      12       7       6       9       7       3
       6       7       3    2001       5       0       3       7
%FLAG ANGLES_INC_HYDROGEN                                                       
%FORMAT(10I8)                                                                   
    4920    2025    4923       1    4917    2025    4920       1    4917    2025
    4923       1    4911    2022    4914       1    4908    2022    4911       1
    4908    2022    4914       1    4902    2019    4905       1    4899    2019
    4902       1    4899    2019    4905       1    4893    2013    4896       1
    4875    1992    4878       1    4872    1992    4875       1    4872    1992
    4878       1    4866    1989    4869       1    4863    1989    4866       1
    4863    1989    4869       1    4857    1986    4860       1    4854    1986
    4857       1    4854    1986    4860       1    4848    1980    4851       1
    4830    1959    4833       1    4827    1959    4830       1    4827    1959
    4833       1    4821    1956    4824       1    4818    1956    4821       1
    4818    1956    4824       1    4812    1953    4815       1    4809    1953
    4812       1    4809    1953    4815       1    4803    1947    4806       1
    4785    1926    4788       1    4782    1926    4785       1    4782    1926
    4788       1    4776    1923    4779       1    4773    1923    4776       1
    4773    1923    4779       1    4767    1920    4770       1    4764    1920
    4767       1    4764    1920    4770       1    4758    1914    4761       1
    4740    1893    4743       1    4737    1893    4740       1    4737    1893
    4743       1    4731    1890    4734       1    4728    1890    4731       1
    4728    1890    4734       1    4722    1887    4725       1    4719    1887
    4722       1    4719    1887    4725       1    4713    1881    4716       1
    4695    1860    4698       1    4692    1860    4695       1    4692    1860
    4698       1    4686    1857    4689       1    4683    1857    4686       1
    4683    1857    4689       1    4677    1854    4680       1    4674    1854
    4677       1    4674    1854    4680       1    4668    1848    4671       1
    4650    1827    4653       1    4647    1827    4650       1    4647    1827
    4653       1    4641    1824    4644       1    4638    1824    4641       1
    4638    1824    4644       1    4632    1821    4635       1    4629    1821
    4632       1    4629    1821    4635       1    4623    1815    4626       1
    4605    1794    4608       1    4602    1794    4605       1    4602    1794
    4608       1    4596    1791    4599       1    4593    1791    4596       1
    4593    1791    4599       1    4587    1788    4590       1    4584    1788
    4587       1    4584    1788    4590       1    4578    1782    4581       1
    4560    1761    4563       1    4557    1761    4560       1    4557    1761
    4563       1    4551    1758    4554       1    4548    1758    4551       1
    4548    1758    4554       1    4542    1755    4545       1    4539    1755
    4542       1    4539    1755    4545       1    4533    1749    4536       1
    4515    1728    4518       1    4512    1728    4515       1    4512    1728
    4518       1    4506    1725    4509       1    4503    1725    4506       1
    4503    1725    4509       1    4497    1722    4500       1    4494    1722
    4497       1    4494    1722    4500       1    4488    1716    4491       1
    4470    1695    4473       1    4467    1695    4470       1    4467    1695
    4473       1    4461    1692    4464       1    4458    1692    4461       1
    4458    1692    4464       1    4452    1689    4455       1    4449    1689
    4452       1    4449    1689    4455       1    4443    1683    4446       1
    4425    1662    4428       1    4422    1662    4425       1    4422    1662
    4428       1    4416    1659    4419       1    4413    1659    4416       1
    4413    1659    4419       1    4407    1656    4410       1    4404    1656
    4407       1    4404    1656    4410       1    4398    1650    4401       1
    4374    1623    4377       1    4371    1623    4374       1    4371    1623
    4377       1    4365    1620    4368       1    4362    1620    4365       1
    4362    1620    4368       1    4356    1617    4359       1    4353    1617
    4356       1    4353    1617    4359       1    4347    1611    4350       1
    4329    1590    4332       1    4326    1590    4329       1    4326    1590
    4332       1    4320    1587    4323       1    4317    1587    4320       1
    4317    1587    4323       1    4311    1584    4314       1    4308    1584
    4311       1    4308    1584    4314       1    4302    1578    4305       1
    4284    1557    4287       1    4281    1557    4284       1    4281    1557
    4287       1    4275    1554    4278       1    4272    1554    4275       1
    4272    1554    4278       1    4266    1551    4269       1    4263    1551
    4266       1    4263    1551    4269       1    4257    1545    4260       1
    4239    1524    4242       1    4236    1524    4239       1    4236    1524
    4242       1    4230    1521    4233       1    4227    1521    4230       1
    4227    1521    4233       1    4221    1518    4224       1    4218    1518
    4221       1    4218    1518    4224       1    4212    1512    4215       1
    4194    1491    4197       1    4191    1491    4194       1    4191    1491
    4197       1    4185    1488    4188       1    4182    1488    4185       1
    4182    1488    4188       1    4176    1485    4179       1    4173    1485
    4176       1    4173    1485    4179       1    4167    1479    4170       1
    4149    1458    4152       1    4146    1458    4149       1    4146    1458
    4152       1    4140    1455    4143       1    4137    1455    4140       1
    4137    1455    4143       1    4131    1452    4134       1    4128    1452
    4131       1    4128    1452    4134       1    4122    1446    4125       1
    4104    1425    4107       1    4101    1425    4104       1    4101    1425
    4107       1    4095    1422    4098       1    4092    1422    4095       1
    4092    1422    4098       1    4086    1419    4089       1    4083    1419
    4086       1    4083    1419    4089       1    4077    1413    4080       1
    4059    1392    4062       1    4056    1392    4059       1    4056    1392
    4062       1    4050    1389    4053       1    4047    1389    4050       1
    4047    1389    4053       1    4041    1386    4044       1    4038    1386
    4041       1    4038    1386    4044       1    4032    1380    4035       1
    4014    1359    4017       1    4011    1359    4014       1    4011    1359
    4017       1    4005    1356    4008       1    4002    1356    4005       1
    4002    1356    4008       1    3996    1353    3999       1    3993    1353
    3996       1    3993    1353    3999       1    3987    1347    3990       1
    3969    1326    3972       1    3966    1326    3969       1    3966    1326
    3972       1    3960    1323    3963       1    3957    1323    3960       1
    3957    1323    3963       1    3951    1320    3954       1    3948    1320
    3951       1    3948    1320    3954       1    3942    1314    3945       1
    3924    1293    3927       1    3921    1293    3924       1    3921    1293
    3927       1    3915    1290    3918       1    3912    1290    3915       1
    3912    1290    3918       1    3906    1287    3909       1    3903    1287
    3906       1    3903    1287    3909       1    3897    1281    3900       1
    3879    1260    3882       1    3876    1260    3879       1    3876    1260
    3882       1    3870    1257    3873       1    3867    1257    3870       1
    3867    1257    3873       1    3861    1254    3864       1    3858    1254
    3861       1    3858    1254    3864       1    3852    1248    3855       1
    3834    1227    3837       1    3831    1227    3834       1    3831    1227
    3837       1    3825    1224    3828       1    3822    1224    3825       1
    3822    1224    3828       1    3816    1221    3819       1    3813    1221
    3816       1    3813    1221    3819       1    3807    1215    3810       1
    3795    1200    3798       2    3792    1200    3795       2    3792    1200
    3798       2    3783    1194    3786       2    3777    1191    3780       2
    3768    1185    3771       2    3762    1182    3765       2    3753    1176
    3756       2    3747    1173    3750       2    3738    1167    3741       2
    3732    1164    3735       2    3723    1158    3726       2    3717    1155
    3720       2    3708    1149    3711       2    3702    1146    3705       2
    3693    1140    3696       2    3687    1137    3690       2    3678    1131
    3681       2    3672    1128    3675       2    3663    1122    3666       2
    3657    1119    3660       2    3648    1113    3651       2    3642    1110
    3645       2    3633    1104    3636       2    3627    1101    3630       2
    3618    1095    3621       2    3612    1092    3615       2    3600    1083
    3603       1    3597    1083    3600       1    3597    1083    3603       1
    3591    1080    3594       1    3588    1080    3591       1    3588    1080
    3594       1    3582    1077    3585       1    3579    1077    3582       1
    3579    1077    3585       1    3573    1071    3576       1    3555    1050
    3558       1    3552    1050    3555       1    3552    1050    3558       1
    3546    1047    3549       1    3543    1047    3546       1    3543    1047
    3549       1    3537    1044    3540       1    3534    1044    3537       1
    3534    1044    3540       1    3528    1038    3531       1    3510    1017
    3513       1    3507    1017    3510       1    3507    1017    3513       1
    3501    1014    3504       1    3498    1014    3501       1    3498    1014
    3504       1    3492    1011    3495       1    3489    1011    3492       1
    3489    1011    3495       1    3483    1005    3486       1    3465     984
    3468       1    3462     984    3465       1    3462     984    3468       1
    3456     981    3459       1    3453     981    3456       1    3453     981
    3459       1    3447     978    3450       1    3444     978    3447       1
    3444     978    3450       1    3438     972    3441       1    3420     951
    3423       1    3417     951    3420       1    3417     951    3423       1
    3411     948    3414       1    3408     948    3411       1    3408     948
    3414       1    3402     945    3405       1    3399     945    3402       1
    3399     945    3405       1    3393     939    3396       1    3375     918
    3378       1    3372     918    3375       1    3372     918    3378       1
    3366     915    3369       1    3363     915    3366       1    3363     915
    3369       1    3357     912    3360       1    3354     912    3357       1
    3354     912    3360       1    3348     906    3351       1    3330     885
    3333       1    3327     885    3330       1    3327     885    3333       1
    3321     882    3324       1    3318     882    3321       1    3318     882
    3324       1    3312     879    3315       1    3309     879    3312       1
    3309     879    3315       1    3303     873    3306       1    3285     852
    3288       1    3282     852    3285       1    3282     852    3288       1
    3276     849    3279       1    3273     849    3276       1    3273     849
    3279       1    3267     846    3270       1    3264     846    3267       1
    3264     846    3270       1    3258     840    3261       1    3240     819
    3243       1    3237     819    3240       1    3237     819    3243       1
    3231     816    3234       1    3228     816    3231       1    3228     816
    3234       1    3222     813    3225       1    3219     813    3222       1
    3219     813    3225       1    3213     807    3216       1    3195     786
    3198       1    3192     786    3195       1    3192     786    3198       1
    3186     783    3189       1    3183     783    3186       1    3183     783
    3189       1    3177     780    3180       1    3174     780    3177       1
    3174     780    3180       1    3168     774    3171       1    3150     753
    3153       1    3147     753    3150       1    3147     753    3153       1
    3141     750    3144       1    3138     750    3141       1    3138     750
    3144       1    3132     747    3135       1    3129     747    3132       1
    3129     747    3135       1    3123     741    3126       1    3111     726
    3114       2    3108     726    3111       2    3108     726    3114       2
    3099     720    3102       2    3093     717    3096       2    3084     711
    3087       2    3078     708    3081       2    3069     702    3072       2
    3063     699    3066       2    3054     693    3057       2    3048     690
    3051       2    3039     684    3042       2    3033     681    3036       2
    3024     675    3027       2    3018     672    3021       2    3009     666
    3012       2    3003     663    3006       2    2994     657    2997       2
    2988     654    2991       2    2979     648    2982       2    2973     645
    2976       2    2964     639    2967       2    2958     636    2961       2
    2949     630    2952       2    2943     627    2946       2    2925     603
    2928       1    2922     603    2925       1    2922     603    2928       1
    2916     600    2919       1    2913     600    2916       1    2913     600
    2919       1    2907     597    2910       1    2904     597    2907       1
    2904     597    2910       1    2898     591    2901       1    2880     570
    2883       1    2877     570    2880       1    2877     570    2883       1
    2871     567    2874       1    2868     567    2871       1    2868     567
    2874       1    2862     564    2865       1    2859     564    2862       1
    2859     564    2865       1    2853     558    2856       1    2835     537
    2838       1    2832     537    2835       1    2832     537    2838       1
    2826     534    2829       1    2823     534    2826       1    2823     534
    2829       1    2817     531    2820       1    2814     531    2817       1
    2814     531    2820       1    2808     525    2811       1    2790     504
    2793       1    2787     504    2790       1    2787     504    2793       1
    2781     501    2784       1    2778     501    2781       1    2778     501
    2784       1    2772     498    2775       1    2769     498    2772       1
    2769     498    2775       1    2763     492    2766       1    2745     471
    2748       1    2742     471    2745       1    2742     471    2748       1
    2736     468    2739       1    2733     468    2736       1    2733     468
    2739       1    2727     465    2730       1    2724     465    2727       1
    2724     465    2730       1    2718     459    2721       1    2700     438
    2703       1    2697     438    2700       1    2697     438    2703       1
    2691     435    2694       1    2688     435    2691       1    2688     435
    2694       1    2682     432    2685       1    2679     432    2682       1
    2679     432    2685       1    2673     426    2676       1    2655     405
    2658       1    2652     405    2655       1    2652     405    2658       1
    2646     402    2649       1    2643     402    2646       1    2643     402
    2649       1    2637     399    2640       1    2634     399    2637       1
    2634     399    2640       1    2628     393    2631       1    2610     372
    2613       1    2607     372    2610       1    2607     372    2613       1
    2601     369    2604       1    2598     369    2601       1    2598     369
    2604       1    2592     366    2595       1    2589     366    2592       1
    2589     366    2595       1    2583     360    2586       1    2565     339
    2568       1    2562     339    2565       1    2562     339    2568       1
    2556     336    2559       1    2553     336    2556       1    2553     336
    2559       1    2547     333    2550       1    2544     333    2547       1
    2544     333    2550       1    2538     327    2541       1    2520     306
    2523       1    2517     306    2520       1    2517     306    2523       1
    2511     303    2514       1    2508     303    2511       1    2508     303
    2514       1    2502     300    2505       1    2499     300    2502       1
    2499     300    2505       1    2493     294    2496       1    2475     273
    2478       1    2472     273    2475       1    2472     273    2478       1
    2466     270    2469       1    2463     270    2466       1    2463     270
    2469       1    2457     267    2460       1    2454     267    2457       1
    2454     267    2460       1    2448     261    2451       1    2430     240
    2433       1    2427     240    2430       1    2427     240    2433       1
    2421     237    2424       1    2418     237    2421       1    2418     237
    2424       1    2412     234    2415       1    2409     234    2412       1
    2409     234    2415       1    2403     228    2406       1    2391     213
    2394       2    2388     213    2391       2    2388     213    2394       2
    2379     207    2382       2    2373     204    2376       2    2364     198
    2367       2    2358     195    2361       2    2349     189    2352       2
    2343     186    2346       2    2334     180    2337       2    2328     177
    2331       2    2319     171    2322       2    2313     168    2316       2
    2304     162    2307       2    2298     159    2301       2    2289     153
    2292       2    2283     150    2286       2    2274     144    2277       2
    2268     141    2271       2    2259     135    2262       2    2253     132
    2256       2    2244     126    2247       2    2238     123    2241       2
    2229     117    2232       2    2223     114    2226       2    2217     108
    2220       2    2211     105    2214       2    2202      99    2205       2
    2196      96    2199       2    2187      90    2190       2    2181      87
    2184       2    2172      81    2175       2    2166      78    2169       2
    2157      72    2160       2    2151      69    2154       2    2142      63
    2145       2    2136      60    2139       2    2127      54    2130       2
    2121      51    2124       2    2112      45    2115       2    2106      42
    2109       2    2097      36    2100       2    2091      33    2094       2
    2082      27    2085       2    2076      24    2079       2    2067      18
    2070       2    2061      15    2064       2    2052       9    2055       2
    2046       6    2049       2    2037       0    2040       2    2034       0
    2037       2    2034       0    2040       2    2031    2028    4926       3
    2028    2031    4929       3    2016    2013    4893       5    2016    2013
    4896       5    2016    2019    4899       5    2016    2019    4902       5
    2016    2019    4905       5    2016    2022    4908       5    2016    2022
    4911       5    2016    2022    4914       5    2016    2025    4917       5
    2016    2025    4920       5    2016    2025    4923       5    2010    2007
    4890       3    2010    2013    4893       8    2010    2013    4896       8
    2010    2028    4926       3    2007    2004    4887       3    2004    2007
    4890       3    2001       3    2043      10    2001    2004    4887       3
    2001    2031    4929       3    1998    1995    4881       3    1995    1998
    4884       3    1983    1980    4848       5    1983    1980    4851       5
    1983    1986    4854       5    1983    1986    4857       5    1983    1986
    4860       5    1983    1989    4863       5    1983    1989    4866       5
    1983    1989    4869       5    1983    1992    4872       5    1983    1992
    4875       5    1983    1992    4878       5    1977    1974    4845       3
    1977    1980    4848       8    1977    1980    4851       8    1977    1995
    4881       3    1974    1971    4842       3    1971    1974    4845       3
    1968      12    2058      10    1968    1971    4842       3    1968    1998
    4884       3    1965    1962    4836       3    1962    1965    4839       3
    1950    1947    4803       5    1950    1947    4806       5    1950    1953
    4809       5    1950    1953    4812       5    1950    1953    4815       5
    1950    1956    4818       5    1950    1956    4821       5    1950    1956
    4824       5    1950    1959    4827       5    1950    1959    4830       5
    1950    1959    4833       5    1944    1941    4800       3    1944    1947
    4803       8    1944    1947    4806       8    1944    1962    4836       3
    1941    1938    4797       3    1938    1941    4800       3    1935      21
    2073      10    1935    1938    4797       3    1935    1965    4839       3
    1932    1929    4791       3    1929    1932    4794       3    1917    1914
    4758       5    1917    1914    4761       5    1917    1920    4764       5
    1917    1920    4767       5    1917    1920    4770       5    1917    1923
    4773       5    1917    1923    4776       5    1917    1923    4779       5
    1917    1926    4782       5    1917    1926    4785       5    1917    1926
    4788       5    1911    1908    4755       3    1911    1914    4758       8
    1911    1914    4761       8    1911    1929    4791       3    1908    1905
    4752       3    1905    1908    4755       3    1902      30    2088      10
    1902    1905    4752       3    1902    1932    4794       3    1899    1896
    4746       3    1896    1899    4749       3    1884    1881    4713       5
    1884    1881    4716       5    1884    1887    4719       5    1884    1887
    4722       5    1884    1887    4725       5    1884    1890    4728       5
    1884    1890    4731       5    1884    1890    4734       5    1884    1893
    4737       5    1884    1893    4740       5    1884    1893    4743       5
    1878    1875    4710       3    1878    1881    4713       8    1878    1881
    4716       8    1878    1896    4746       3    1875    1872    4707       3
    1872    1875    4710       3    1869      39    2103      10    1869    1872
    4707       3    1869    1899    4749       3    1866    1863    4701       3
    1863    1866    4704       3    1851    1848    4668       5    1851    1848
    4671       5    1851    1854    4674       5    1851    1854    4677       5
    1851    1854    4680       5    1851    1857    4683       5    1851    1857
    4686       5    1851    1857    4689       5    1851    1860    4692       5
    1851    1860    4695       5    1851    1860    4698       5    1845    1842
    4665       3    1845    1848    4668       8    1845    1848    4671       8
    1845    1863    4701       3    1842    1839    4662       3    1839    1842
    4665       3    1836      48    2118      10    1836    1839    4662       3
    1836    1866    4704       3    1833    1830    4656       3    1830    1833
    4659       3    1818    1815    4623       5    1818    1815    4626       5
    1818    1821    4629       5    1818    1821    4632       5    1818    1821
    4635       5    1818    1824    4638       5    1818    1824    4641       5
    1818    1824    4644       5    1818    1827    4647       5    1818    1827
    4650       5    1818    1827    4653       5    1812    1809    4620       3
    1812    1815    4623       8    1812    1815    4626       8    1812    1830
    4656       3    1809    1806    4617       3    1806    1809    4620       3
    1803      57    2133      10    1803    1806    4617       3    1803    1833
    4659       3    1800    1797    4611       3    1797    1800    4614       3
    1785    1782    4578       5    1785    1782    4581       5    1785    1788
    4584       5    1785    1788    4587       5    1785    1788    4590       5
    1785    1791    4593       5    1785    1791    4596       5    1785    1791
    4599       5    1785    1794    4602       5    1785    1794    4605       5
    1785    1794    4608       5    1779    1776    4575       3    1779    1782
    4578       8    1779    1782    4581       8    1779    1797    4611       3
    1776    1773    4572       3    1773    1776    4575       3    1770      66
    2148      10    1770    1773    4572       3    1770    1800    4614       3
    1767    1764    4566       3    1764    1767    4569       3    1752    1749
    4533       5    1752    1749    4536       5    1752    1755    4539       5
    1752    1755    4542       5    1752    1755    4545       5    1752    1758
    4548       5    1752    1758    4551       5    1752    1758    4554       5
    1752    1761    4557       5    1752    1761    4560       5    1752    1761
    4563       5    1746    1743    4530       3    1746    1749    4533       8
    1746    1749    4536       8    1746    1764    4566       3    1743    1740
    4527       3    1740    1743    4530       3    1737      75    2163      10
    1737    1740    4527       3    1737    1767    4569       3    1734    1731
    4521       3    1731    1734    4524       3    1719    1716    4488       5
    1719    1716    4491       5    1719    1722    4494       5    1719    1722
    4497       5    1719    1722    4500       5    1719    1725    4503       5
    1719    1725    4506       5    1719    1725    4509       5    1719    1728
    4512       5    1719    1728    4515       5    1719    1728    4518       5
    1713    1710    4485       3    1713    1716    4488       8    1713    1716
    4491       8    1713    1731    4521       3    1710    1707    4482       3
    1707    1710    4485       3    1704      84    2178      10    1704    1707
    4482       3    1704    1734    4524       3    1701    1698    4476       3
    1698    1701    4479       3    1686    1683    4443       5    1686    1683
    4446       5    1686    1689    4449       5    1686    1689    4452       5
    1686    1689    4455       5    1686    1692    4458       5    1686    1692
    4461       5    1686    1692    4464       5    1686    1695    4467       5
    1686    1695    4470       5    1686    1695    4473       5    1680    1677
    4440       3    1680    1683    4443       8    1680    1683    4446       8
    1680    1698    4476       3    1677    1674    4437       3    1674    1677
    4440       3    1671      93    2193      10    1671    1674    4437       3
    1671    1701    4479       3    1668    1665    4431       3    1665    1668
    4434       3    1653    1650    4398       5    1653    1650    4401       5
    1653    1656    4404       5    1653    1656    4407       5    1653    1656
    4410       5    1653    1659    4413       5    1653    1659    4416       5
    1653    1659    4419       5    1653    1662    4422       5    1653    1662
    4425       5    1653    1662    4428       5    1647    1644    4395       3
    1647    1650    4398       8    1647    1650    4401       8    1647    1665
    4431       3    1644    1641    4392       3    1641    1644    4395       3
    1638     102    2208      10    1638    1641    4392       3    1638    1668
    4434       3    1635    1632    4386       3    1632    1635    4389       3
    1629    1626    4380       3    1626    1629    4383       3    1614    1611
    4347       5    1614    1611    4350       5    1614    1617    4353       5
    1614    1617    4356       5    1614    1617    4359       5    1614    1620
    4362       5    1614    1620    4365       5    1614    1620    4368       5
    1614    1623    4371       5    1614    1623    4374       5    1614    1623
    4377       5    1608    1605    4344       3    1608    1611    4347       8
    1608    1611    4350       8    1608    1626    4380       3    1605    1602
    4341       3    1602    1605    4344       3    1599    1602    4341       3
    1599    1629    4383       3    1596    1593    4335       3    1593    1596
    4338       3    1581    1578    4302       5    1581    1578    4305       5
    1581    1584    4308       5    1581    1584    4311       5    1581    1584
    4314       5    1581    1587    4317       5    1581    1587    4320       5
    1581    1587    4323       5    1581    1590    4326       5    1581    1590
    4329       5    1581    1590    4332       5    1575    1572    4299       3
    1575    1578    4302       8    1575    1578    4305       8    1575    1593
    4335       3    1572    1569    4296       3    1569    1572    4299       3
    1566    1098    3624      10    1566    1569    4296       3    1566    1596
    4338       3    1563    1560    4290       3    1560    1563    4293       3
    1548    1545    4257       5    1548    1545    4260       5    1548    1551
    4263       5    1548    1551    4266       5    1548    1551    4269       5
    1548    1554    4272       5    1548    1554    4275       5    1548    1554
    4278       5    1548    1557    4281       5    1548    1557    4284       5
    1548    1557    4287       5    1542    1539    4254       3    1542    1545
    4257       8    1542    1545    4260       8    1542    1560    4290       3
    1539    1536    4251       3    1536    1539    4254       3    1533    1107
    3639      10    1533    1536    4251       3    1533    1563    4293       3
    1530    1527    4245       3    1527    1530    4248       3    1515    1512
    4212       5    1515    1512    4215       5    1515    1518    4218       5
    1515    1518    4221       5    1515    1518    4224       5    1515    1521
    4227       5    1515    1521    4230       5    1515    1521    4233       5
    1515    1524    4236       5    1515    1524    4239       5    1515    1524
    4242       5    1509    1506    4209       3    1509    1512    4212       8
    1509    1512    4215       8    1509    1527    4245       3    1506    1503
    4206       3    1503    1506    4209       3    1500    1116    3654      10
    1500    1503    4206       3    1500    1530    4248       3    1497    1494
    4200       3    1494    1497    4203       3    1482    1479    4167       5
    1482    1479    4170       5    1482    1485    4173       5    1482    1485
    4176       5    1482    1485    4179       5    1482    1488    4182       5
    1482    1488    4185       5    1482    1488    4188       5    1482    1491
    4191       5    1482    1491    4194       5    1482    1491    4197       5
    1476    1473    4164       3    1476    1479    4167       8    1476    1479
    4170       8    1476    1494    4200       3    1473    1470    4161       3
    1470    1473    4164       3    1467    1125    3669      10    1467    1470
    4161       3    1467    1497    4203       3    1464    1461    4155       3
    1461    1464    4158       3    1449    1446    4122       5    1449    1446
    4125       5    1449    1452    4128       5    1449    1452    4131       5
    1449    1452    4134       5    1449    1455    4137       5    1449    1455
    4140       5    1449    1455    4143       5    1449    1458    4146       5
    1449    1458    4149       5    1449    1458    4152       5    1443    1440
    4119       3    1443    1446    4122       8    1443    1446    4125       8
    1443    1461    4155       3    1440    1437    4116       3    1437    1440
    4119       3    1434    1134    3684      10    1434    1437    4116       3
    1434    1464    4158       3    1431    1428    4110       3    1428    1431
    4113       3    1416    1413    4077       5    1416    1413    4080       5
    1416    1419    4083       5    1416    1419    4086       5    1416    1419
    4089       5    1416    1422    4092       5    1416    1422    4095       5
    1416    1422    4098       5    1416    1425    4101       5    1416    1425
    4104       5    1416    1425    4107       5    1410    1407    4074       3
    1410    1413    4077       8    1410    1413    4080       8    1410    1428
    4110       3    1407    1404    4071       3    1404    1407    4074       3
    1401    1143    3699      10    1401    1404    4071       3    1401    1431
    4113       3    1398    1395    4065       3    1395    1398    4068       3
    1383    1380    4032       5    1383    1380    4035       5    1383    1386
    4038       5    1383    1386    4041       5    1383    1386    4044       5
    1383    1389    4047       5    1383    1389    4050       5    1383    1389
    4053       5    1383    1392    4056       5    1383    1392    4059       5
    1383    1392    4062       5    1377    1374    4029       3    1377    1380
    4032       8    1377    1380    4035       8    1377    1395    4065       3
    1374    1371    4026       3    1371    1374    4029       3    1368    1152
    3714      10    1368    1371    4026       3    1368    1398    4068       3
    1365    1362    4020       3    1362    1365    4023       3    1350    1347
    3987       5    1350    1347    3990       5    1350    1353    3993       5
    1350    1353    3996       5    1350    1353    3999       5    1350    1356
    4002       5    1350    1356    4005       5    1350    1356    4008       5
    1350    1359    4011       5    1350    1359    4014       5    1350    1359
    4017       5    1344    1341    3984       3    1344    1347    3987       8
    1344    1347    3990       8    1344    1362    4020       3    1341    1338
    3981       3    1338    1341    3984       3    1335    1161    3729      10
    1335    1338    3981       3    1335    1365    4023       3    1332    1329
    3975       3    1329    1332    3978       3    1317    1314    3942       5
    1317    1314    3945       5    1317    1320    3948       5    1317    1320
    3951       5    1317    1320    3954       5    1317    1323    3957       5
    1317    1323    3960       5    1317    1323    3963       5    1317    1326
    3966       5    1317    1326    3969       5    1317    1326    3972       5
    1311    1308    3939       3    1311    1314    3942       8    1311    1314
    3945       8    1311    1329    3975       3    1308    1305    3936       3
    1305    1308    3939       3    1302    1170    3744      10    1302    1305
    3936       3    1302    1332    3978       3    1299    1296    3930       3
    1296    1299    3933       3    1284    1281    3897       5    1284    1281
    3900       5    1284    1287    3903       5    1284    1287    3906       5
    1284    1287    3909       5    1284    1290    3912       5    1284    1290
    3915       5    1284    1290    3918       5    1284    1293    3921       5
    1284    1293    3924       5    1284    1293    3927       5    1278    1275
    3894       3    1278    1281    3897       8    1278    1281    3900       8
    1278    1296    3930       3    1275    1272    3891       3    1272    1275
    3894       3    1269    1179    3759      10    1269    1272    3891       3
    1269    1299    3933       3    1266    1263    3885       3    1263    1266
    3888       3    1251    1248    3852       5    1251    1248    3855       5
    1251    1254    3858       5    1251    1254    3861       5    1251    1254
    3864       5    1251    1257    3867       5    1251    1257    3870       5
    1251    1257    3873       5    1251    1260    3876       5    1251    1260
    3879       5    1251    1260    3882       5    1245    1242    3849       3
    1245    1248    3852       8    1245    1248    3855       8    1245    1263
    3885       3    1242    1239    3846       3    1239    1242    3849       3
    1236    1188    3774      10    1236    1239    3846       3    1236    1266
    3888       3    1233    1230    3840       3    1230    1233    3843       3
    1218    1215    3807       5    1218    1215    3810       5    1218    1221
    3813       5    1218    1221    3816       5    1218    1221    3819       5
    1218    1224    3822       5    1218    1224    3825       5    1218    1224
    3828       5    1218    1227    3831       5    1218    1227    3834       5
    1218    1227    3837       5    1212    1209    3804       3    1212    1215
    3807       8    1212    1215    3810       8    1212    1230    3840       3
    1209    1206    3801       3    1206    1209    3804       3    1203    1197
    3789      10    1203    1206    3801       3    1203    1233    3843       3
    1200    1197    3789      12    1197    1194    3783      12    1197    1194
    3786      12    1197    1200    3792      12    1197    1200    3795      12
    1197    1200    3798      12    1194    1191    3777      12    1194    1191
    3780      12    1194    1197    3789      12    1191    1188    3774      12
    1191    1194    3783      12    1191    1194    3786      12    1188    1185
    3768      12    1188    1185    3771      12    1188    1191    3777      12
    1188    1191    3780      12    1185    1182    3762      12    1185    1182
    3765      12    1185    1188    3774      12    1182    1179    3759      12
    1182    1185    3768      12    1182    1185    3771      12    1179    1176
    3753      12    1179    1176    3756      12    1179    1182    3762      12
    1179    1182    3765      12    1176    1173    3747      12    1176    1173
    3750      12    1176    1179    3759      12    1173    1170    3744      12
    1173    1176    3753      12    1173    1176    3756      12    1170    1167
    3738      12    1170    1167    3741      12    1170    1173    3747      12
    1170    1173    3750      12    1167    1164    3732      12    1167    1164
    3735      12    1167    1170    3744      12    1164    1161    3729      12
    1164    1167    3738      12    1164    1167    3741      12    1161    1158
    3723      12    1161    1158    3726      12    1161    1164    3732      12
    1161    1164    3735      12    1158    1155    3717      12    1158    1155
    3720      12    1158    1161    3729      12    1155    1152    3714      12
    1155    1158    3723      12    1155    1158    3726      12    1152    1149
    3708      12    1152    1149    3711      12    1152    1155    3717      12
    1152    1155    3720      12    1149    1146    3702      12    1149    1146
    3705      12    1149    1152    3714      12    1146    1143    3699      12
    1146    1149    3708      12    1146    1149    3711      12    1143    1140
    3693      12    1143    1140    3696      12    1143    1146    3702      12
    1143    1146    3705      12    1140    1137    3687      12    1140    1137
    3690      12    1140    1143    3699      12    1137    1134    3684      12
    1137    1140    3693      12    1137    1140    3696      12    1134    1131
    3678      12    1134    1131    3681      12    1134    1137    3687      12
    1134    1137    3690      12    1131    1128    3672      12    1131    1128
    3675      12    1131    1134    3684      12    1128    1125    3669      12
    1128    1131    3678      12    1128    1131    3681      12    1125    1122
    3663      12    1125    1122    3666      12    1125    1128    3672      12
    1125    1128    3675      12    1122    1119    3657      12    1122    1119
    3660      12    1122    1125    3669      12    1119    1116    3654      12
    1119    1122    3663      12    1119    1122    3666      12    1116    1113
    3648      12    1116    1113    3651      12    1116    1119    3657      12
    1116    1119    3660      12    1113    1110    3642      12    1113    1110
    3645      12    1113    1116    3654      12    1110    1107    3639      12
    1110    1113    3648      12    1110    1113    3651      12    1107    1104
    3633      12    1107    1104    3636      12    1107    1110    3642      12
    1107    1110    3645      12    1104    1101    3627      12    1104    1101
    3630      12    1104    1107    3639      12    1101    1098    3624      12
    1101    1104    3633      12    1101    1104    3636      12    1098    1095
    3618      12    1098    1095    3621      12    1098    1101    3627      12
    1098    1101    3630      12    1095    1092    3612      12    1095    1092
    3615      12    1095    1098    3624      12    1092    1095    3618      12
    1092    1095    3621      12    1089    1086    3606       3    1086    1089
    3609       3    1074    1071    3573       5    1074    1071    3576       5
    1074    1077    3579       5    1074    1077    3582       5    1074    1077
    3585       5    1074    1080    3588       5    1074    1080    3591       5
    1074    1080    3594       5    1074    1083    3597       5    1074    1083
    3600       5    1074    1083    3603       5    1068    1065    3570       3
    1068    1071    3573       8    1068    1071    3576       8    1068    1086
    3606       3    1065    1062    3567       3    1062    1065    3570       3
    1059     633    2955      10    1059    1062    3567       3    1059    1089
    3609       3    1056    1053    3561       3    1053    1056    3564       3
    1041    1038    3528       5    1041    1038    3531       5    1041    1044
    3534       5    1041    1044    3537       5    1041    1044    3540       5
    1041    1047    3543       5    1041    1047    3546       5    1041    1047
    3549       5    1041    1050    3552       5    1041    1050    3555       5
    1041    1050    3558       5    1035    1032    3525       3    1035    1038
    3528       8    1035    1038    3531       8    1035    1053    3561       3
    1032    1029    3522       3    1029    1032    3525       3    1026     642
    2970      10    1026    1029    3522       3    1026    1056    3564       3
    1023    1020    3516       3    1020    1023    3519       3    1008    1005
    3483       5    1008    1005    3486       5    1008    1011    3489       5
    1008    1011    3492       5    1008    1011    3495       5    1008    1014
    3498       5    1008    1014    3501       5    1008    1014    3504       5
    1008    1017    3507       5    1008    1017    3510       5    1008    1017
    3513       5    1002     999    3480       3    1002    1005    3483       8
    1002    1005    3486       8    1002    1020    3516       3     999     996
    3477       3     996     999    3480       3     993     651    2985      10
     993     996    3477       3     993    1023    3519       3     990     987
    3471       3     987     990    3474       3     975     972    3438       5
     975     972    3441       5     975     978    3444       5     975     978
    3447       5     975     978    3450       5     975     981    3453       5
     975     981    3456       5     975     981    3459       5     975     984
    3462       5     975     984    3465       5     975     984    3468       5
     969     966    3435       3     969     972    3438       8     969     972
    3441       8     969     987    3471       3     966     963    3432       3
     963     966    3435       3     960     660    3000      10     960     963
    3432       3     960     990    3474       3     957     954    3426       3
     954     957    3429       3     942     939    3393       5     942     939
    3396       5     942     945    3399       5     942     945    3402       5
     942     945    3405       5     942     948    3408       5     942     948
    3411       5     942     948    3414       5     942     951    3417       5
     942     951    3420       5     942     951    3423       5     936     933
    3390       3     936     939    3393       8     936     939    3396       8
     936     954    3426       3     933     930    3387       3     930     933
    3390       3     927     669    3015      10     927     930    3387       3
     927     957    3429       3     924     921    3381       3     921     924
    3384       3     909     906    3348       5     909     906    3351       5
     909     912    3354       5     909     912    3357       5     909     912
    3360       5     909     915    3363       5     909     915    3366       5
     909     915    3369       5     909     918    3372       5     909     918
    3375       5     909     918    3378       5     903     900    3345       3
     903     906    3348       8     903     906    3351       8     903     921
    3381       3     900     897    3342       3     897     900    3345       3
     894     678    3030      10     894     897    3342       3     894     924
    3384       3     891     888    3336       3     888     891    3339       3
     876     873    3303       5     876     873    3306       5     876     879
    3309       5     876     879    3312       5     876     879    3315       5
     876     882    3318       5     876     882    3321       5     876     882
    3324       5     876     885    3327       5     876     885    3330       5
     876     885    3333       5     870     867    3300       3     870     873
    3303       8     870     873    3306       8     870     888    3336       3
     867     864    3297       3     864     867    3300       3     861     687
    3045      10     861     864    3297       3     861     891    3339       3
     858     855    3291       3     855     858    3294       3     843     840
    3258       5     843     840    3261       5     843     846    3264       5
     843     846    3267       5     843     846    3270       5     843     849
    3273       5     843     849    3276       5     843     849    3279       5
     843     852    3282       5     843     852    3285       5     843     852
    3288       5     837     834    3255       3     837     840    3258       8
     837     840    3261       8     837     855    3291       3     834     831
    3252       3     831     834    3255       3     828     696    3060      10
     828     831    3252       3     828     858    3294       3     825     822
    3246       3     822     825    3249       3     810     807    3213       5
     810     807    3216       5     810     813    3219       5     810     813
    3222       5     810     813    3225       5     810     816    3228       5
     810     816    3231       5     810     816    3234       5     810     819
    3237       5     810     819    3240       5     810     819    3243       5
     804     801    3210       3     804     807    3213       8     804     807
    3216       8     804     822    3246       3     801     798    3207       3
     798     801    3210       3     795     705    3075      10     795     798
    3207       3     795     825    3249       3     792     789    3201       3
     789     792    3204       3     777     774    3168       5     777     774
    3171       5     777     780    3174       5     777     780    3177       5
     777     780    3180       5     777     783    3183       5     777     783
    3186       5     777     783    3189       5     777     786    3192       5
     777     786    3195       5     777     786    3198       5     771     768
    3165       3     771     774    3168       8     771     774    3171       8
     771     789    3201       3     768     765    3162       3     765     768
    3165       3     762     714    3090      10     762     765    3162       3
     762     792    3204       3     759     756    3156       3     756     759
    3159       3     744     741    3123       5     744     741    3126       5
     744     747    3129       5     744     747    3132       5     744     747
    3135       5     744     750    3138       5     744     750    3141       5
     744     750    3144       5     744     753    3147       5     744     753
    3150       5     744     753    3153       5     738     735    3120       3
     738     741    3123       8     738     741    3126       8     738     756
    3156       3     735     732    3117       3     732     735    3120       3
     729     723    3105      10     729     732    3117       3     729     759
    3159       3     726     723    3105      12     723     720    3099      12
     723     720    3102      12     723     726    3108      12     723     726
    3111      12     723     726    3114      12     720     717    3093      12
     720     717    3096      12     720     723    3105      12     717     714
    3090      12     717     720    3099      12     717     720    3102      12
     714     711    3084      12     714     711    3087      12     714     717
    3093      12     714     717    3096      12     711     708    3078      12
     711     708    3081      12     711     714    3090      12     708     705
    3075      12     708     711    3084      12     708     711    3087      12
     705     702    3069      12     705     702    3072      12     705     708
    3078      12     705     708    3081      12     702     699    3063      12
     702     699    3066      12     702     705    3075      12     699     696
    3060      12     699     702    3069      12     699     702    3072      12
     696     693    3054      12     696     693    3057      12     696     699
    3063      12     696     699    3066      12     693     690    3048      12
     693     690    3051      12     693     696    3060      12     690     687
    3045      12     690     693    3054      12     690     693    3057      12
     687     684    3039      12     687     684    3042      12     687     690
    3048      12     687     690    3051      12     684     681    3033      12
     684     681    3036      12     684     687    3045      12     681     678
    3030      12     681     684    3039      12     681     684    3042      12
     678     675    3024      12     678     675    3027      12     678     681
    3033      12     678     681    3036      12     675     672    3018      12
     675     672    3021      12     675     678    3030      12     672     669
    3015      12     672     675    3024      12     672     675    3027      12
     669     666    3009      12     669     666    3012      12     669     672
    3018      12     669     672    3021      12     666     663    3003      12
     666     663    3006      12     666     669    3015      12     663     660
    3000      12     663     666    3009      12     663     666    3012      12
     660     657    2994      12     660     657    2997      12     660     663
    3003      12     660     663    3006      12     657     654    2988      12
     657     654    2991      12     657     660    3000      12     654     651
    2985      12     654     657    2994      12     654     657    2997      12
     651     648    2979      12     651     648    2982      12     651     654
    2988      12     651     654    2991      12     648     645    2973      12
     648     645    2976      12     648     651    2985      12     645     642
    2970      12     645     648    2979      12     645     648    2982      12
     642     639    2964      12     642     639    2967      12     642     645
    2973      12     642     645    2976      12     639     636    2958      12
     639     636    2961      12     639     642    2970      12     636     633
    2955      12     636     639    2964      12     636     639    2967      12
     633     630    2949      12     633     630    2952      12     633     636
    2958      12     633     636    2961      12     630     627    2943      12
     630     627    2946      12     630     633    2955      12     627     630
    2949      12     627     630    2952      12     624     627    2943      12
     624     627    2946      12     624    1092    3612      12     624    1092
    3615      12     621     618    2940       3     621    1632    4386       3
     618     615    2937       3     615     618    2940       3     612     615
    2937       3     612    1635    4389       3     609     606    2931       3
     606     609    2934       3     594     591    2898       5     594     591
    2901       5     594     597    2904       5     594     597    2907       5
     594     597    2910       5     594     600    2913       5     594     600
    2916       5     594     600    2919       5     594     603    2922       5
     594     603    2925       5     594     603    2928       5     588     585
    2895       3     588     591    2898       8     588     591    2901       8
     588     606    2931       3     585     582    2892       3     582     585
    2895       3     579     582    2892       3     579     609    2934       3
     576     573    2886       3     573     576    2889       3     561     558
    2853       5     561     558    2856       5     561     564    2859       5
     561     564    2862       5     561     564    2865       5     561     567
    2868       5     561     567    2871       5     561     567    2874       5
     561     570    2877       5     561     570    2880       5     561     570
    2883       5     555     552    2850       3     555     558    2853       8
     555     558    2856       8     555     573    2886       3     552     549
    2847       3     549     552    2850       3     546     120    2235      10
     546     549    2847       3     546     576    2889       3     543     540
    2841       3     540     543    2844       3     528     525    2808       5
     528     525    2811       5     528     531    2814       5     528     531
    2817       5     528     531    2820       5     528     534    2823       5
     528     534    2826       5     528     534    2829       5     528     537
    2832       5     528     537    2835       5     528     537    2838       5
     522     519    2805       3     522     525    2808       8     522     525
    2811       8     522     540    2841       3     519     516    2802       3
     516     519    2805       3     513     129    2250      10     513     516
    2802       3     513     543    2844       3     510     507    2796       3
     507     510    2799       3     495     492    2763       5     495     492
    2766       5     495     498    2769       5     495     498    2772       5
     495     498    2775       5     495     501    2778       5     495     501
    2781       5     495     501    2784       5     495     504    2787       5
     495     504    2790       5     495     504    2793       5     489     486
    2760       3     489     492    2763       8     489     492    2766       8
     489     507    2796       3     486     483    2757       3     483     486
    2760       3     480     138    2265      10     480     483    2757       3
     480     510    2799       3     477     474    2751       3     474     477
    2754       3     462     459    2718       5     462     459    2721       5
     462     465    2724       5     462     465    2727       5     462     465
    2730       5     462     468    2733       5     462     468    2736       5
     462     468    2739       5     462     471    2742       5     462     471
    2745       5     462     471    2748       5     456     453    2715       3
     456     459    2718       8     456     459    2721       8     456     474
    2751       3     453     450    2712       3     450     453    2715       3
     447     147    2280      10     447     450    2712       3     447     477
    2754       3     444     441    2706       3     441     444    2709       3
     429     426    2673       5     429     426    2676       5     429     432
    2679       5     429     432    2682       5     429     432    2685       5
     429     435    2688       5     429     435    2691       5     429     435
    2694       5     429     438    2697       5     429     438    2700       5
     429     438    2703       5     423     420    2670       3     423     426
    2673       8     423     426    2676       8     423     441    2706       3
     420     417    2667       3     417     420    2670       3     414     156
    2295      10     414     417    2667       3     414     444    2709       3
     411     408    2661       3     408     411    2664       3     396     393
    2628       5     396     393    2631       5     396     399    2634       5
     396     399    2637       5     396     399    2640       5     396     402
    2643       5     396     402    2646       5     396     402    2649       5
     396     405    2652       5     396     405    2655       5     396     405
    2658       5     390     387    2625       3     390     393    2628       8
     390     393    2631       8     390     408    2661       3     387     384
    2622       3     384     387    2625       3     381     165    2310      10
     381     384    2622       3     381     411    2664       3     378     375
    2616       3     375     378    2619       3     363     360    2583       5
     363     360    2586       5     363     366    2589       5     363     366
    2592       5     363     366    2595       5     363     369    2598       5
     363     369    2601       5     363     369    2604       5     363     372
    2607       5     363     372    2610       5     363     372    2613       5
     357     354    2580       3     357     360    2583       8     357     360
    2586       8     357     375    2616       3     354     351    2577       3
     351     354    2580       3     348     174    2325      10     348     351
    2577       3     348     378    2619       3     345     342    2571       3
     342     345    2574       3     330     327    2538       5     330     327
    2541       5     330     333    2544       5     330     333    2547       5
     330     333    2550       5     330     336    2553       5     330     336
    2556       5     330     336    2559       5     330     339    2562       5
     330     339    2565       5     330     339    2568       5     324     321
    2535       3     324     327    2538       8     324     327    2541       8
     324     342    2571       3     321     318    2532       3     318     321
    2535       3     315     183    2340      10     315     318    2532       3
     315     345    2574       3     312     309    2526       3     309     312
    2529       3     297     294    2493       5     297     294    2496       5
     297     300    2499       5     297     300    2502       5     297     300
    2505       5     297     303    2508       5     297     303    2511       5
     297     303    2514       5     297     306    2517       5     297     306
    2520       5     297     306    2523       5     291     288    2490       3
     291     294    2493       8     291     294    2496       8     291     309
    2526       3     288     285    2487       3     285     288    2490       3
     282     192    2355      10     282     285    2487       3     282     312
    2529       3     279     276    2481       3     276     279    2484       3
     264     261    2448       5     264     261    2451       5     264     267
    2454       5     264     267    2457       5     264     267    2460       5
     264     270    2463       5     264     270    2466       5     264     270
    2469       5     264     273    2472       5     264     273    2475       5
     264     273    2478       5     258     255    2445       3     258     261
    2448       8     258     261    2451       8     258     276    2481       3
     255     252    2442       3     252     255    2445       3     249     201
    2370      10     249     252    2442       3     249     279    2484       3
     246     243    2436       3     243     246    2439       3     231     228
    2403       5     231     228    2406       5     231     234    2409       5
     231     234    2412       5     231     234    2415       5     231     237
    2418       5     231     237    2421       5     231     237    2424       5
     231     240    2427       5     231     240    2430       5     231     240
    2433       5     225     222    2400       3     225     228    2403       8
     225     228    2406       8     225     243    2436       3     222     219
    2397       3     219     222    2400       3     216     210    2385      10
     216     219    2397       3     216     246    2439       3     213     210
    2385      12     210     207    2379      12     210     207    2382      12
     210     213    2388      12     210     213    2391      12     210     213
    2394      12     207     204    2373      12     207     204    2376      12
     207     210    2385      12     204     201    2370      12     204     207
    2379      12     204     207    2382      12     201     198    2364      12
     201     198    2367      12     201     204    2373      12     201     204
    2376      12     198     195    2358      12     198     195    2361      12
     198     201    2370      12     195     192    2355      12     195     198
    2364      12     195     198    2367      12     192     189    2349      12
     192     189    2352      12     192     195    2358      12     192     195
    2361      12     189     186    2343      12     189     186    2346      12
     189     192    2355      12     186     183    2340      12     186     189
    2349      12     186     189    2352      12     183     180    2334      12
     183     180    2337      12     183     186    2343      12     183     186
    2346      12     180     177    2328      12     180     177    2331      12
     180     183    2340      12     177     174    2325      12     177     180
    2334      12     177     180    2337      12     174     171    2319      12
     174     171    2322      12     174     177    2328      12     174     177
    2331      12     171     168    2313      12     171     168    2316      12
     171     174    2325      12     168     165    2310      12     168     171
    2319      12     168     171    2322      12     165     162    2304      12
     165     162    2307      12     165     168    2313      12     165     168
    2316      12     162     159    2298      12     162     159    2301      12
     162     165    2310      12     159     156    2295      12     159     162
    2304      12     159     162    2307      12     156     153    2289      12
     156     153    2292      12     156     159    2298      12     156     159
    2301      12     153     150    2283      12     153     150    2286      12
     153     156    2295      12     150     147    2280      12     150     153
    2289      12     150     153    2292      12     147     144    2274      12
     147     144    2277      12     147     150    2283      12     147     150
    2286      12     144     141    2268      12     144     141    2271      12
     144     147    2280      12     141     138    2265      12     141     144
    2274      12     141     144    2277      12     138     135    2259      12
     138     135    2262      12     138     141    2268      12     138     141
    2271      12     135     132    2253      12     135     132    2256      12
     135     138    2265      12     132     129    2250      12     132     135
    2259      12     132     135    2262      12     129     126    2244      12
     129     126    2247      12     129     132    2253      12     129     132
    2256      12     126     123    2238      12     126     123    2241      12
     126     129    2250      12     123     120    2235      12     123     126
    2244      12     123     126    2247      12     120     117    2229      12
     120     117    2232      12     120     123    2238      12     120     123
    2241      12     117     114    2223      12     117     114    2226      12
     117     120    2235      12     114     117    2229      12     114     117
    2232      12     111     108    2217      12     111     108    2220      12
     111     114    2223      12     111     114    2226      12     108     105
    2211      12     108     105    2214      12     105     102    2208      12
     105     108    2217      12     105     108    2220      12     102      99
    2202      12     102      99    2205      12     102     105    2211      12
     102     105    2214      12      99      96    2196      12      99      96
    2199      12      99     102    2208      12      96      93    2193      12
      96      99    2202      12      96      99    2205      12      93      90
    2187      12      93      90    2190      12      93      96    2196      12
      93      96    2199      12      90      87    2181      12      90      87
    2184      12      90      93    2193      12      87      84    2178      12
      87      90    2187      12      87      90    2190      12      84      81
    2172      12      84      81    2175      12      84      87    2181      12
      84      87    2184      12      81      78    2166      12      81      78
    2169      12      81      84    2178      12      78      75    2163      12
      78      81    2172      12      78      81    2175      12      75      72
    2157      12      75      72    2160      12      75      78    2166      12
      75      78    2169      12      72      69    2151      12      72      69
    2154      12      72      75    2163      12      69      66    2148      12
      69      72    2157      12      69      72    2160      12      66      63
    2142      12      66      63    2145      12      66      69    2151      12
      66      69    2154      12      63      60    2136      12      63      60
    2139      12      63      66    2148      12      60      57    2133      12
      60      63    2142      12      60      63    2145      12      57      54
    2127      12      57      54    2130      12      57      60    2136      12
      57      60    2139      12      54      51    2121      12      54      51
    2124      12      54      57    2133      12      51      48    2118      12
      51      54    2127      12      51      54    2130      12      48      45
    2112      12      48      45    2115      12      48      51    2121      12
      48      51    2124      12      45      42    2106      12      45      42
    2109      12      45      48    2118      12      42      39    2103      12
      42      45    2112      12      42      45    2115      12      39      36
    2097      12      39      36    2100      12      39      42    2106      12
      39      42    2109      12      36      33    2091      12      36      33
    2094      12      36      39    2103      12      33      30    2088      12
      33      36    2097      12      33      36    2100      12      30      27
    2082      12      30      27    2085      12      30      33    2091      12
      30      33    2094      12      27      24    2076      12      27      24
    2079      12      27      30    2088      12      24      21    2073      12
      24      27    2082      12      24      27    2085      12      21      18
    2067      12      21      18    2070      12      21      24    2076      12
      21      24    2079      12      18      15    2061      12      18      15
    2064      12      18      21    2073      12      15      12    2058      12
      15      18    2067      12      15      18    2070      12      12       9
    2052      12      12       9    2055      12      12      15    2061      12
      12      15    2064      12       9       6    2046      12       9       6
    2049      12       9      12    2058      12       6       3    2043      12
       6       9    2052      12       6       9    2055      12       3       0
    2034      12       3       0    2037      12       3       0    2040      12
       3       6    2046      12       3       6    2049      12       0       3
    2043      12
%FLAG ANGLES_WITHOUT_HYDROGEN                                                   
%FORMAT(10I8)                                                                   
    2022    2016    2025       4    2019    2016    2022       4    2019    2016
    2025       4    2013    2010    2028       6    2013    2016    2019       4
    2013    2016    2022       4    2013    2016    2025       4    2010    2013
    2016       7    2010    2028    2031       9    2007    2010    2013       6
    2007    2010    2028       9    2004    2001    2031       9    2004    2007
    2010       9    2001    2004    2007       9    2001    2031    2028       9
    1989    1983    1992       4    1986    1983    1989       4    1986    1983
    1992       4    1980    1977    1995       6    1980    1983    1986       4
    1980    1983    1989       4    1980    1983    1992       4    1977    1980
    1983       7    1977    1995    1998       9    1974    1977    1980       6
    1974    1977    1995       9    1971    1968    1998       9    1971    1974
    1977       9    1968    1971    1974       9    1968    1998    1995       9
    1956    1950    1959       4    1953    1950    1956       4    1953    1950
    1959       4    1947    1944    1962       6    1947    1950    1953       4
    1947    1950    1956       4    1947    1950    1959       4    1944    1947
    1950       7    1944    1962    1965       9    1941    1944    1947       6
    1941    1944    1962       9    1938    1935    1965       9    1938    1941
    1944       9    1935    1938    1941       9    1935    1965    1962       9
    1923    1917    1926       4    1920    1917    1923       4    1920    1917
    1926       4    1914    1911    1929       6    1914    1917    1920       4
    1914    1917    1923       4    1914    1917    1926       4    1911    1914
    1917       7    1911    1929    1932       9    1908    1911    1914       6
    1908    1911    1929       9    1905    1902    1932       9    1905    1908
    1911       9    1902    1905    1908       9    1902    1932    1929       9
    1890    1884    1893       4    1887    1884    1890       4    1887    1884
    1893       4    1881    1878    1896       6    1881    1884    1887       4
    1881    1884    1890       4    1881    1884    1893       4    1878    1881
    1884       7    1878    1896    1899       9    1875    1878    1881       6
    1875    1878    1896       9    1872    1869    1899       9    1872    1875
    1878       9    1869    1872    1875       9    1869    1899    1896       9
    1857    1851    1860       4    1854    1851    1857       4    1854    1851
    1860       4    1848    1845    1863       6    1848    1851    1854       4
    1848    1851    1857       4    1848    1851    1860       4    1845    1848
    1851       7    1845    1863    1866       9    1842    1845    1848       6
    1842    1845    1863       9    1839    1836    1866       9    1839    1842
    1845       9    1836    1839    1842       9    1836    1866    1863       9
    1824    1818    1827       4    1821    1818    1824       4    1821    1818
    1827       4    1815    1812    1830       6    1815    1818    1821       4
    1815    1818    1824       4    1815    1818    1827       4    1812    1815
    1818       7    1812    1830    1833       9    1809    1812    1815       6
    1809    1812    1830       9    1806    1803    1833       9    1806    1809
    1812       9    1803    1806    1809       9    1803    1833    1830       9
    1791    1785    1794       4    1788    1785    1791       4    1788    1785
    1794       4    1782    1779    1797       6    1782    1785    1788       4
    1782    1785    1791       4    1782    1785    1794       4    1779    1782
    1785       7    1779    1797    1800       9    1776    1779    1782       6
    1776    1779    1797       9    1773    1770    1800       9    1773    1776
    1779       9    1770    1773    1776       9    1770    1800    1797       9
    1758    1752    1761       4    1755    1752    1758       4    1755    1752
    1761       4    1749    1746    1764       6    1749    1752    1755       4
    1749    1752    1758       4    1749    1752    1761       4    1746    1749
    1752       7    1746    1764    1767       9    1743    1746    1749       6
    1743    1746    1764       9    1740    1737    1767       9    1740    1743
    1746       9    1737    1740    1743       9    1737    1767    1764       9
    1725    1719    1728       4    1722    1719    1725       4    1722    1719
    1728       4    1716    1713    1731       6    1716    1719    1722       4
    1716    1719    1725       4    1716    1719    1728       4    1713    1716
    1719       7    1713    1731    1734       9    1710    1713    1716       6
    1710    1713    1731       9    1707    1704    1734       9    1707    1710
    1713       9    1704    1707    1710       9    1704    1734    1731       9
    1692    1686    1695       4    1689    1686    1692       4    1689    1686
    1695       4    1683    1680    1698       6    1683    1686    1689       4
    1683    1686    1692       4    1683    1686    1695       4    1680    1683
    1686       7    1680    1698    1701       9    1677    1680    1683       6
    1677    1680    1698       9    1674    1671    1701       9    1674    1677
    1680       9    1671    1674    1677       9    1671    1701    1698       9
    1659    1653    1662       4    1656    1653    1659       4    1656    1653
    1662       4    1650    1647    1665       6    1650    1653    1656       4
    1650    1653    1659       4    1650    1653    1662       4    1647    1650
    1653       7    1647    1665    1668       9    1644    1647    1650       6
    1644    1647    1665       9    1641    1638    1668       9    1641    1644
    1647       9    1638    1641    1644       9    1638    1668    1665       9
    1620    1614    1623       4    1617    1614    1620       4    1617    1614
    1623       4    1611    1608    1626       6    1611    1614    1617       4
    1611    1614    1620       4    1611    1614    1623       4    1608    1611
    1614       7    1608    1626    1629       9    1605    1608    1611       6
    1605    1608    1626       9    1602    1599    1629       9    1602    1605
    1608       9    1599    1602    1605       9    1599    1629    1626       9
    1587    1581    1590       4    1584    1581    1587       4    1584    1581
    1590       4    1578    1575    1593       6    1578    1581    1584       4
    1578    1581    1587       4    1578    1581    1590       4    1575    1578
    1581       7    1575    1593    1596       9    1572    1575    1578       6
    1572    1575    1593       9    1569    1566    1596       9    1569    1572
    1575       9    1566    1569    1572       9    1566    1596    1593       9
    1554    1548    1557       4    1551    1548    1554       4    1551    1548
    1557       4    1545    1542    1560       6    1545    1548    1551       4
    1545    1548    1554       4    1545    1548    1557       4    1542    1545
    1548       7    1542    1560    1563       9    1539    1542    1545       6
    1539    1542    1560       9    1536    1533    1563       9    1536    1539
    1542       9    1533    1536    1539       9    1533    1563    1560       9
    1521    1515    1524       4    1518    1515    1521       4    1518    1515
    1524       4    1512    1509    1527       6    1512    1515    1518       4
    1512    1515    1521       4    1512    1515    1524       4    1509    1512
    1515       7    1509    1527    1530       9    1506    1509    1512       6
    1506    1509    1527       9    1503    1500    1530       9    1503    1506
    1509       9    1500    1503    1506       9    1500    1530    1527       9
    1488    1482    1491       4    1485    1482    1488       4    1485    1482
    1491       4    1479    1476    1494       6    1479    1482    1485       4
    1479    1482    1488       4    1479    1482    1491       4    1476    1479
    1482       7    1476    1494    1497       9    1473    1476    1479       6
    1473    1476    1494       9    1470    1467    1497       9    1470    1473
    1476       9    1467    1470    1473       9    1467    1497    1494       9
    1455    1449    1458       4    1452    1449    1455       4    1452    1449
    1458       4    1446    1443    1461       6    1446    1449    1452       4
    1446    1449    1455       4    1446    1449    1458       4    1443    1446
    1449       7    1443    1461    1464       9    1440    1443    1446       6
    1440    1443    1461       9    1437    1434    1464       9    1437    1440
    1443       9    1434    1437    1440       9    1434    1464    1461       9
    1422    1416    1425       4    1419    1416    1422       4    1419    1416
    1425       4    1413    1410    1428       6    1413    1416    1419       4
    1413    1416    1422       4    1413    1416    1425       4    1410    1413
    1416       7    1410    1428    1431       9    1407    1410    1413       6
    1407    1410    1428       9    1404    1401    1431       9    1404    1407
    1410       9    1401    1404    1407       9    1401    1431    1428       9
    1389    1383    1392       4    1386    1383    1389       4    1386    1383
    1392       4    1380    1377    1395       6    1380    1383    1386       4
    1380    1383    1389       4    1380    1383    1392       4    1377    1380
    1383       7    1377    1395    1398       9    1374    1377    1380       6
    1374    1377    1395       9    1371    1368    1398       9    1371    1374
    1377       9    1368    1371    1374       9    1368    1398    1395       9
    1356    1350    1359       4    1353    1350    1356       4    1353    1350
    1359       4    1347    1344    1362       6    1347    1350    1353       4
    1347    1350    1356       4    1347    1350    1359       4    1344    1347
    1350       7    1344    1362    1365       9    1341    1344    1347       6
    1341    1344    1362       9    1338    1335    1365       9    1338    1341
    1344       9    1335    1338    1341       9    1335    1365    1362       9
    1323    1317    1326       4    1320    1317    1323       4    1320    1317
    1326       4    1314    1311    1329       6    1314    1317    1320       4
    1314    1317    1323       4    1314    1317    1326       4    1311    1314
    1317       7    1311    1329    1332       9    1308    1311    1314       6
    1308    1311    1329       9    1305    1302    1332       9    1305    1308
    1311       9    1302    1305    1308       9    1302    1332    1329       9
    1290    1284    1293       4    1287    1284    1290       4    1287    1284
    1293       4    1281    1278    1296       6    1281    1284    1287       4
    1281    1284    1290       4    1281    1284    1293       4    1278    1281
    1284       7    1278    1296    1299       9    1275    1278    1281       6
    1275    1278    1296       9    1272    1269    1299       9    1272    1275
    1278       9    1269    1272    1275       9    1269    1299    1296       9
    1257    1251    1260       4    1254    1251    1257       4    1254    1251
    1260       4    1248    1245    1263       6    1248    1251    1254       4
    1248    1251    1257       4    1248    1251    1260       4    1245    1248
    1251       7    1245    1263    1266       9    1242    1245    1248       6
    1242    1245    1263       9    1239    1236    1266       9    1239    1242
    1245       9    1236    1239    1242       9    1236    1266    1263       9
    1224    1218    1227       4    1221    1218    1224       4    1221    1218
    1227       4    1215    1212    1230       6    1215    1218    1221       4
    1215    1218    1224       4    1215    1218    1227       4    1212    1215
    1218       7    1212    1230    1233       9    1209    1212    1215       6
    1209    1212    1230       9    1206    1203    1233       9    1206    1209
    1212       9    1203    1206    1209       9    1203    1233    1230       9
    1200    1197    1203      11    1197    1203    1206       6    1197    1203
    1233       6    1194    1197    1200      13    1194    1197    1203      11
    1191    1188    1236      11    1191    1194    1197      13    1188    1191
    1194      13    1188    1236    1239       6    1188    1236    1266       6
    1185    1188    1191      13    1185    1188    1236      11    1182    1179
    1269      11    1182    1185    1188      13    1179    1182    1185      13
    1179    1269    1272       6    1179    1269    1299       6    1176    1179
    1182      13    1176    1179    1269      11    1173    1170    1302      11
    1173    1176    1179      13    1170    1173    1176      13    1170    1302
    1305       6    1170    1302    1332       6    1167    1170    1173      13
    1167    1170    1302      11    1164    1161    1335      11    1164    1167
    1170      13    1161    1164    1167      13    1161    1335    1338       6
    1161    1335    1365       6    1158    1161    1164      13    1158    1161
    1335      11    1155    1152    1368      11    1155    1158    1161      13
    1152    1155    1158      13    1152    1368    1371       6    1152    1368
    1398       6    1149    1152    1155      13    1149    1152    1368      11
    1146    1143    1401      11    1146    1149    1152      13    1143    1146
    1149      13    1143    1401    1404       6    1143    1401    1431       6
    1140    1143    1146      13    1140    1143    1401      11    1137    1134
    1434      11    1137    1140    1143      13    1134    1137    1140      13
    1134    1434    1437       6    1134    1434    1464       6    1131    1134
    1137      13    1131    1134    1434      11    1128    1125    1467      11
    1128    1131    1134      13    1125    1128    1131      13    1125    1467
    1470       6    1125    1467    1497       6    1122    1125    1128      13
    1122    1125    1467      11    1119    1116    1500      11    1119    1122
    1125      13    1116    1119    1122      13    1116    1500    1503       6
    1116    1500    1530       6    1113    1116    1119      13    1113    1116
    1500      11    1110    1107    1533      11    1110    1113    1116      13
    1107    1110    1113      13    1107    1533    1536       6    1107    1533
    1563       6    1104    1107    1110      13    1104    1107    1533      11
    1101    1098    1566      11    1101    1104    1107      13    1098    1101
    1104      13    1098    1566    1569       6    1098    1566    1596       6
    1095    1098    1101      13    1095    1098    1566      11    1092     624
    1599      11    1092    1095    1098      13    1080    1074    1083       4
    1077    1074    1080       4    1077    1074    1083       4    1071    1068
    1086       6    1071    1074    1077       4    1071    1074    1080       4
    1071    1074    1083       4    1068    1071    1074       7    1068    1086
    1089       9    1065    1068    1071       6    1065    1068    1086       9
    1062    1059    1089       9    1062    1065    1068       9    1059    1062
    1065       9    1059    1089    1086       9    1047    1041    1050       4
    1044    1041    1047       4    1044    1041    1050       4    1038    1035
    1053       6    1038    1041    1044       4    1038    1041    1047       4
    1038    1041    1050       4    1035    1038    1041       7    1035    1053
    1056       9    1032    1035    1038       6    1032    1035    1053       9
    1029    1026    1056       9    1029    1032    1035       9    1026    1029
    1032       9    1026    1056    1053       9    1014    1008    1017       4
    1011    1008    1014       4    1011    1008    1017       4    1005    1002
    1020       6    1005    1008    1011       4    1005    1008    1014       4
    1005    1008    1017       4    1002    1005    1008       7    1002    1020
    1023       9     999    1002    1005       6     999    1002    1020       9
     996     993    1023       9     996     999    1002       9     993     996
     999       9     993    1023    1020       9     981     975     984       4
     978     975     981       4     978     975     984       4     972     969
     987       6     972     975     978       4     972     975     981       4
     972     975     984       4     969     972     975       7     969     987
     990       9     966     969     972       6     966     969     987       9
     963     960     990       9     963     966     969       9     960     963
     966       9     960     990     987       9     948     942     951       4
     945     942     948       4     945     942     951       4     939     936
     954       6     939     942     945       4     939     942     948       4
     939     942     951       4     936     939     942       7     936     954
     957       9     933     936     939       6     933     936     954       9
     930     927     957       9     930     933     936       9     927     930
     933       9     927     957     954       9     915     909     918       4
     912     909     915       4     912     909     918       4     906     903
     921       6     906     909     912       4     906     909     915       4
     906     909     918       4     903     906     909       7     903     921
     924       9     900     903     906       6     900     903     921       9
     897     894     924       9     897     900     903       9     894     897
     900       9     894     924     921       9     882     876     885       4
     879     876     882       4     879     876     885       4     873     870
     888       6     873     876     879       4     873     876     882       4
     873     876     885       4     870     873     876       7     870     888
     891       9     867     870     873       6     867     870     888       9
     864     861     891       9     864     867     870       9     861     864
     867       9     861     891     888       9     849     843     852       4
     846     843     849       4     846     843     852       4     840     837
     855       6     840     843     846       4     840     843     849       4
     840     843     852       4     837     840     843       7     837     855
     858       9     834     837     840       6     834     837     855       9
     831     828     858       9     831     834     837       9     828     831
     834       9     828     858     855       9     816     810     819       4
     813     810     816       4     813     810     819       4     807     804
     822       6     807     810     813       4     807     810     816       4
     807     810     819       4     804     807     810       7     804     822
     825       9     801     804     807       6     801     804     822       9
     798     795     825       9     798     801     804       9     795     798
     801       9     795     825     822       9     783     777     786       4
     780     777     783       4     780     777     786       4     774     771
     789       6     774     777     780       4     774     777     783       4
     774     777     786       4     771     774     777       7     771     789
     792       9     768     771     774       6     768     771     789       9
     765     762     792       9     765     768     771       9     762     765
     768       9     762     792     789       9     750     744     753       4
     747     744     750       4     747     744     753       4     741     738
     756       6     741     744     747       4     741     744     750       4
     741     744     753       4     738     741     744       7     738     756
     759       9     735     738     741       6     735     738     756       9
     732     729     759       9     732     735     738       9     729     732
     735       9     729     759     756       9     726     723     729      11
     723     729     732       6     723     729     759       6     720     723
     726      13     720     723     729      11     717     714     762      11
     717     720     723      13     714     717     720      13     714     762
     765       6     714     762     792       6     711     714     717      13
     711     714     762      11     708     705     795      11     708     711
     714      13     705     708     711      13     705     795     798       6
     705     795     825       6     702     705     708      13     702     705
     795      11     699     696     828      11     699     702     705      13
     696     699     702      13     696     828     831       6     696     828
     858       6     693     696     699      13     693     696     828      11
     690     687     861      11     690     693     696      13     687     690
     693      13     687     861     864       6     687     861     891       6
     684     687     690      13     684     687     861      11     681     678
     894      11     681     684     687      13     678     681     684      13
     678     894     897       6     678     894     924       6     675     678
     681      13     675     678     894      11     672     669     927      11
     672     675     678      13     669     672     675      13     669     927
     930       6     669     927     957       6     666     669     672      13
     666     669     927      11     663     660     960      11     663     666
     669      13     660     663     666      13     660     960     963       6
     660     960     990       6     657     660     663      13     657     660
     960      11     654     651     993      11     654     657     660      13
     651     654     657      13     651     993     996       6     651     993
    1023       6     648     651     654      13     648     651     993      11
     645     642    1026      11     645     648     651      13     642     645
     648      13     642    1026    1029       6     642    1026    1056       6
     639     642     645      13     639     642    1026      11     636     633
    1059      11     636     639     642      13     633     636     639      13
     633    1059    1062       6     633    1059    1089       6     630     633
     636      13     630     633    1059      11     627     624    1092      13
     627     624    1599      11     627     630     633      13     624     621
    1632       6     624     627     630      13     624    1092    1095      13
     624    1599    1602       6     624    1599    1629       6     621     624
     627      11     621     624    1092      11     621     624    1599      14
     621    1632    1635       9     618     621     624       6     618     621
    1632       9     615     612    1635       9     615     618     621       9
     612     615     618       9     612    1635    1632       9     600     594
     603       4     597     594     600       4     597     594     603       4
     591     588     606       6     591     594     597       4     591     594
     600       4     591     594     603       4     588     591     594       7
     588     606     609       9     585     588     591       6     585     588
     606       9     582     579     609       9     582     585     588       9
     579     111     612      14     579     582     585       9     579     609
     606       9     567     561     570       4     564     561     567       4
     564     561     570       4     558     555     573       6     558     561
     564       4     558     561     567       4     558     561     570       4
     555     558     561       7     555     573     576       9     552     555
     558       6     552     555     573       9     549     546     576       9
     549     552     555       9     546     549     552       9     546     576
     573       9     534     528     537       4     531     528     534       4
     531     528     537       4     525     522     540       6     525     528
     531       4     525     528     534       4     525     528     537       4
     522     525     528       7     522     540     543       9     519     522
     525       6     519     522     540       9     516     513     543       9
     516     519     522       9     513     516     519       9     513     543
     540       9     501     495     504       4     498     495     501       4
     498     495     504       4     492     489     507       6     492     495
     498       4     492     495     501       4     492     495     504       4
     489     492     495       7     489     507     510       9     486     489
     492       6     486     489     507       9     483     480     510       9
     483     486     489       9     480     483     486       9     480     510
     507       9     468     462     471       4     465     462     468       4
     465     462     471       4     459     456     474       6     459     462
     465       4     459     462     468       4     459     462     471       4
     456     459     462       7     456     474     477       9     453     456
     459       6     453     456     474       9     450     447     477       9
     450     453     456       9     447     450     453       9     447     477
     474       9     435     429     438       4     432     429     435       4
     432     429     438       4     426     423     441       6     426     429
     432       4     426     429     435       4     426     429     438       4
     423     426     429       7     423     441     444       9     420     423
     426       6     420     423     441       9     417     414     444       9
     417     420     423       9     414     417     420       9     414     444
     441       9     402     396     405       4     399     396     402       4
     399     396     405       4     393     390     408       6     393     396
     399       4     393     396     402       4     393     396     405       4
     390     393     396       7     390     408     411       9     387     390
     393       6     387     390     408       9     384     381     411       9
     384     387     390       9     381     384     387       9     381     411
     408       9     369     363     372       4     366     363     369       4
     366     363     372       4     360     357     375       6     360     363
     366       4     360     363     369       4     360     363     372       4
     357     360     363       7     357     375     378       9     354     357
     360       6     354     357     375       9     351     348     378       9
     351     354     357       9     348     351     354       9     348     378
     375       9     336     330     339       4     333     330     336       4
     333     330     339       4     327     324     342       6     327     330
     333       4     327     330     336       4     327     330     339       4
     324     327     330       7     324     342     345       9     321     324
     327       6     321     324     342       9     318     315     345       9
     318     321     324       9     315     318     321       9     315     345
     342       9     303     297     306       4     300     297     303       4
     300     297     306       4     294     291     309       6     294     297
     300       4     294     297     303       4     294     297     306       4
     291     294     297       7     291     309     312       9     288     291
     294       6     288     291     309       9     285     282     312       9
     285     288     291       9     282     285     288       9     282     312
     309       9     270     264     273       4     267     264     270       4
     267     264     273       4     261     258     276       6     261     264
     267       4     261     264     270       4     261     264     273       4
     258     261     264       7     258     276     279       9     255     258
     261       6     255     258     276       9     252     249     279       9
     252     255     258       9     249     252     255       9     249     279
     276       9     237     231     240       4     234     231     237       4
     234     231     240       4     228     225     243       6     228     231
     234       4     228     231     237       4     228     231     240       4
     225     228     231       7     225     243     246       9     222     225
     228       6     222     225     243       9     219     216     246       9
     219     222     225       9     216     219     222       9     216     246
     243       9     213     210     216      11     210     216     219       6
     210     216     246       6     207     210     213      13     207     210
     216      11     204     201     249      11     204     207     210      13
     201     204     207      13     201     249     252       6     201     249
     279       6     198     201     204      13     198     201     249      11
     195     192     282      11     195     198     201      13     192     195
     198      13     192     282     285       6     192     282     312       6
     189     192     195      13     189     192     282      11     186     183
     315      11     186     189     192      13     183     186     189      13
     183     315     318       6     183     315     345       6     180     183
     186      13     180     183     315      11     177     174     348      11
     177     180     183      13     174     177     180      13     174     348
     351       6     174     348     378       6     171     174     177      13
     171     174     348      11     168     165     381      11     168     171
     174      13     165     168     171      13     165     381     384       6
     165     381     411       6     162     165     168      13     162     165
     381      11     159     156     414      11     159     162     165      13
     156     159     162      13     156     414     417       6     156     414
     444       6     153     156     159      13     153     156     414      11
     150     147     447      11     150     153     156      13     147     150
     153      13     147     447     450       6     147     447     477       6
     144     147     150      13     144     147     447      11     141     138
     480      11     141     144     147      13     138     141     144      13
     138     480     483       6     138     480     510       6     135     138
     141      13     135     138     480      11     132     129     513      11
     132     135     138      13     129     132     135      13     129     513
     516       6     129     513     543       6     126     129     132      13
     126     129     513      11     123     120     546      11     123     126
     129      13     120     123     126      13     120     546     549       6
     120     546     576       6     117     120     123      13     117     120
     546      11     114     111     579      11     114     111     612      11
     114     117     120      13     111     114     117      13     111     579
     582       6     111     579     609       6     111     612     615       6
     111     612    1635       6     108     111     114      13     108     111
     579      11     108     111     612      11     105     102    1638      11
     105     108     111      13     102     105     108      13     102    1638
    1641       6     102    1638    1668       6      99     102     105      13
      99     102    1638      11      96      93    1671      11      96      99
     102      13      93      96      99      13      93    1671    1674       6
      93    1671    1701       6      90      93      96      13      90      93
    1671      11      87      84    1704      11      87      90      93      13
      84      87      90      13      84    1704    1707       6      84    1704
    1734       6      81      84      87      13      81      84    1704      11
      78      75    1737      11      78      81      84      13      75      78
      81      13      75    1737    1740       6      75    1737    1767       6
      72      75      78      13      72      75    1737      11      69      66
    1770      11      69      72      75      13      66      69      72      13
      66    1770    1773       6      66    1770    1800       6      63      66
      69      13      63      66    1770      11      60      57    1803      11
      60      63      66      13      57      60      63      13      57    1803
    1806       6      57    1803    1833       6      54      57      60      13
      54      57    1803      11      51      48    1836      11      51      54
      57      13      48      51      54      13      48    1836    1839       6
      48    1836    1866       6      45      48      51      13      45      48
    1836      11      42      39    1869      11      42      45      48      13
      39      42      45      13      39    1869    1872       6      39    1869
    1899       6      36      39      42      13      36      39    1869      11
      33      30    1902      11      33      36      39      13      30      33
      36      13      30    1902    1905       6      30    1902    1932       6
      27      30      33      13      27      30    1902      11      24      21
    1935      11      24      27      30      13      21      24      27      13
      21    1935    1938       6      21    1935    1965       6      18      21
      24      13      18      21    1935      11      15      12    1968      11
      15      18      21      13      12      15      18      13      12    1968
    1971       6      12    1968    1998       6       9      12      15      13
       9      12    1968      11       6       3    2001      11       6       9
      12      13       3       6       9      13       3    2001    2004       6
       3    2001    2031       6       0       3       6      13       0       3
    2001      11
%FLAG DIHEDRALS_INC_HYDROGEN                                                    
%FORMAT(10I8)                                                                   
    4926    2028    2031    4929       1    4887    2004    2007    4890       1
    4881    1995    1998    4884       1    4842    1971    1974    4845       1
    4836    1962    1965    4839       1    4797    1938    1941    4800       1
    4791    1929    1932    4794       1    4752    1905    1908    4755       1
    4746    1896    1899    4749       1    4707    1872    1875    4710       1
    4701    1863    1866    4704       1    4662    1839    1842    4665       1
    4656    1830    1833    4659       1    4617    1806    1809    4620       1
    4611    1797    1800    4614       1    4572    1773    1776    4575       1
    4566    1764    1767    4569       1    4527    1740    1743    4530       1
    4521    1731    1734    4524       1    4482    1707    1710    4485       1
    4476    1698    1701    4479       1    4437    1674    1677    4440       1
    4431    1665    1668    4434       1    4392    1641    1644    4395       1
    4386    1632    1635    4389       1    4380    1626    1629    4383       1
    4341    1602    1605    4344       1    4335    1593    1596    4338       1
    4296    1569    1572    4299       1    4290    1560    1563    4293       1
    4251    1536    1539    4254       1    4245    1527    1530    4248       1
    4206    1503    1506    4209       1    4200    1494    1497    4203       1
    4161    1470    1473    4164       1    4155    1461    1464    4158       1
    4116    1437    1440    4119       1    4110    1428    1431    4113       1
    4071    1404    1407    4074       1    4065    1395    1398    4068       1
    4026    1371    1374    4029       1    4020    1362    1365    4023       1
    3981    1338    1341    3984       1    3975    1329    1332    3978       1
    3936    1305    1308    3939       1    3930    1296    1299    3933       1
    3891    1272    1275    3894       1    3885    1263    1266    3888       1
    3846    1239    1242    3849       1    3840    1230    1233    3843       1
    3801    1206    1209    3804       1    3789    1197    1200    3792       2
    3789    1197    1200    3795       2    3789    1197    1200    3798       2
    3786    1194    1197    3789       2    3783    1194    1197    3789       2
    3780    1191    1194    3783       2    3780    1191    1194    3786       2
    3777    1191    1194    3783       2    3777    1191    1194    3786       2
    3774    1188    1191    3777       2    3774    1188    1191    3780       2
    3771    1185    1188    3774       2    3768    1185    1188    3774       2
    3765    1182    1185    3768       2    3765    1182    1185    3771       2
    3762    1182    1185    3768       2    3762    1182    1185    3771       2
    3759    1179    1182    3762       2    3759    1179    1182    3765       2
    3756    1176    1179    3759       2    3753    1176    1179    3759       2
    3750    1173    1176    3753       2    3750    1173    1176    3756       2
    3747    1173    1176    3753       2    3747    1173    1176    3756       2
    3744    1170    1173    3747       2    3744    1170    1173    3750       2
    3741    1167    1170    3744       2    3738    1167    1170    3744       2
    3735    1164    1167    3738       2    3735    1164    1167    3741       2
    3732    1164    1167    3738       2    3732    1164    1167    3741       2
    3729    1161    1164    3732       2    3729    1161    1164    3735       2
    3726    1158    1161    3729       2    3723    1158    1161    3729       2
    3720    1155    1158    3723       2    3720    1155    1158    3726       2
    3717    1155    1158    3723       2    3717    1155    1158    3726       2
    3714    1152    1155    3717       2    3714    1152    1155    3720       2
    3711    1149    1152    3714       2    3708    1149    1152    3714       2
    3705    1146    1149    3708       2    3705    1146    1149    3711       2
    3702    1146    1149    3708       2    3702    1146    1149    3711       2
    3699    1143    1146    3702       2    3699    1143    1146    3705       2
    3696    1140    1143    3699       2    3693    1140    1143    3699       2
    3690    1137    1140    3693       2    3690    1137    1140    3696       2
    3687    1137    1140    3693       2    3687    1137    1140    3696       2
    3684    1134    1137    3687       2    3684    1134    1137    3690       2
    3681    1131    1134    3684       2    3678    1131    1134    3684       2
    3675    1128    1131    3678       2    3675    1128    1131    3681       2
    3672    1128    1131    3678       2    3672    1128    1131    3681       2
    3669    1125    1128    3672       2    3669    1125    1128    3675       2
    3666    1122    1125    3669       2    3663    1122    1125    3669       2
    3660    1119    1122    3663       2    3660    1119    1122    3666       2
    3657    1119    1122    3663       2    3657    1119    1122    3666       2
    3654    1116    1119    3657       2    3654    1116    1119    3660       2
    3651    1113    1116    3654       2    3648    1113    1116    3654       2
    3645    1110    1113    3648       2    3645    1110    1113    3651       2
    3642    1110    1113    3648       2    3642    1110    1113    3651       2
    3639    1107    1110    3642       2    3639    1107    1110    3645       2
    3636    1104    1107    3639       2    3633    1104    1107    3639       2
    3630    1101    1104    3633       2    3630    1101    1104    3636       2
    3627    1101    1104    3633       2    3627    1101    1104    3636       2
    3624    1098    1101    3627       2    3624    1098    1101    3630       2
    3621    1095    1098    3624       2    3618    1095    1098    3624       2
    3615    1092    1095    3618       2    3615    1092    1095    3621       2
    3612    1092    1095    3618       2    3612    1092    1095    3621       2
    3606    1086    1089    3609       1    3567    1062    1065    3570       1
    3561    1053    1056    3564       1    3522    1029    1032    3525       1
    3516    1020    1023    3519       1    3477     996     999    3480       1
    3471     987     990    3474       1    3432     963     966    3435       1
    3426     954     957    3429       1    3387     930     933    3390       1
    3381     921     924    3384       1    3342     897     900    3345       1
    3336     888     891    3339       1    3297     864     867    3300       1
    3291     855     858    3294       1    3252     831     834    3255       1
    3246     822     825    3249       1    3207     798     801    3210       1
    3201     789     792    3204       1    3162     765     768    3165       1
    3156     756     759    3159       1    3117     732     735    3120       1
    3105     723     726    3108       2    3105     723     726    3111       2
    3105     723     726    3114       2    3102     720     723    3105       2
    3099     720     723    3105       2    3096     717     720    3099       2
    3096     717     720    3102       2    3093     717     720    3099       2
    3093     717     720    3102       2    3090     714     717    3093       2
    3090     714     717    3096       2    3087     711     714    3090       2
    3084     711     714    3090       2    3081     708     711    3084       2
    3081     708     711    3087       2    3078     708     711    3084       2
    3078     708     711    3087       2    3075     705     708    3078       2
    3075     705     708    3081       2    3072     702     705    3075       2
    3069     702     705    3075       2    3066     699     702    3069       2
    3066     699     702    3072       2    3063     699     702    3069       2
    3063     699     702    3072       2    3060     696     699    3063       2
    3060     696     699    3066       2    3057     693     696    3060       2
    3054     693     696    3060       2    3051     690     693    3054       2
    3051     690     693    3057       2    3048     690     693    3054       2
    3048     690     693    3057       2    3045     687     690    3048       2
    3045     687     690    3051       2    3042     684     687    3045       2
    3039     684     687    3045       2    3036     681     684    3039       2
    3036     681     684    3042       2    3033     681     684    3039       2
    3033     681     684    3042       2    3030     678     681    3033       2
    3030     678     681    3036       2    3027     675     678    3030       2
    3024     675     678    3030       2    3021     672     675    3024       2
    3021     672     675    3027       2    3018     672     675    3024       2
    3018     672     675    3027       2    3015     669     672    3018       2
    3015     669     672    3021       2    3012     666     669    3015       2
    3009     666     669    3015       2    3006     663     666    3009       2
    3006     663     666    3012       2    3003     663     666    3009       2
    3003     663     666    3012       2    3000     660     663    3003       2
    3000     660     663    3006       2    2997     657     660    3000       2
    2994     657     660    3000       2    2991     654     657    2994       2
    2991     654     657    2997       2    2988     654     657    2994       2
    2988     654     657    2997       2    2985     651     654    2988       2
    2985     651     654    2991       2    2982     648     651    2985       2
    2979     648     651    2985       2    2976     645     648    2979       2
    2976     645     648    2982       2    2973     645     648    2979       2
    2973     645     648    2982       2    2970     642     645    2973       2
    2970     642     645    2976       2    2967     639     642    2970       2
    2964     639     642    2970       2    2961     636     639    2964       2
    2961     636     639    2967       2    2958     636     639    2964       2
    2958     636     639    2967       2    2955     633     636    2958       2
    2955     633     636    2961       2    2952     630     633    2955       2
    2949     630     633    2955       2    2946     627     630    2949       2
    2946     627     630    2952       2    2943     627     630    2949       2
    2943     627     630    2952       2    2937     615     618    2940       1
    2931     606     609    2934       1    2892     582     585    2895       1
    2886     573     576    2889       1    2847     549     552    2850       1
    2841     540     543    2844       1    2802     516     519    2805       1
    2796     507     510    2799       1    2757     483     486    2760       1
    2751     474     477    2754       1    2712     450     453    2715       1
    2706     441     444    2709       1    2667     417     420    2670       1
    2661     408     411    2664       1    2622     384     387    2625       1
    2616     375     378    2619       1    2577     351     354    2580       1
    2571     342     345    2574       1    2532     318     321    2535       1
    2526     309     312    2529       1    2487     285     288    2490       1
    2481     276     279    2484       1    2442     252     255    2445       1
    2436     243     246    2439       1    2397     219     222    2400       1
    2385     210     213    2388       2    2385     210     213    2391       2
    2385     210     213    2394       2    2382     207     210    2385       2
    2379     207     210    2385       2    2376     204     207    2379       2
    2376     204     207    2382       2    2373     204     207    2379       2
    2373     204     207    2382       2    2370     201     204    2373       2
    2370     201     204    2376       2    2367     198     201    2370       2
    2364     198     201    2370       2    2361     195     198    2364       2
    2361     195     198    2367       2    2358     195     198    2364       2
    2358     195     198    2367       2    2355     192     195    2358       2
    2355     192     195    2361       2    2352     189     192    2355       2
    2349     189     192    2355       2    2346     186     189    2349       2
    2346     186     189    2352       2    2343     186     189    2349       2
    2343     186     189    2352       2    2340     183     186    2343       2
    2340     183     186    2346       2    2337     180     183    2340       2
    2334     180     183    2340       2    2331     177     180    2334       2
    2331     177     180    2337       2    2328     177     180    2334       2
    2328     177     180    2337       2    2325     174     177    2328       2
    2325     174     177    2331       2    2322     171     174    2325       2
    2319     171     174    2325       2    2316     168     171    2319       2
    2316     168     171    2322       2    2313     168     171    2319       2
    2313     168     171    2322       2    2310     165     168    2313       2
    2310     165     168    2316       2    2307     162     165    2310       2
    2304     162     165    2310       2    2301     159     162    2304       2
    2301     159     162    2307       2    2298     159     162    2304       2
    2298     159     162    2307       2    2295     156     159    2298       2
    2295     156     159    2301       2    2292     153     156    2295       2
    2289     153     156    2295       2    2286     150     153    2289       2
    2286     150     153    2292       2    2283     150     153    2289       2
    2283     150     153    2292       2    2280     147     150    2283       2
    2280     147     150    2286       2    2277     144     147    2280       2
    2274     144     147    2280       2    2271     141     144    2274       2
    2271     141     144    2277       2    2268     141     144    2274       2
    2268     141     144    2277       2    2265     138     141    2268       2
    2265     138     141    2271       2    2262     135     138    2265       2
    2259     135     138    2265       2    2256     132     135    2259       2
    2256     132     135    2262       2    2253     132     135    2259       2
    2253     132     135    2262       2    2250     129     132    2253       2
    2250     129     132    2256       2    2247     126     129    2250       2
    2244     126     129    2250       2    2241     123     126    2244       2
    2241     123     126    2247       2    2238     123     126    2244       2
    2238     123     126    2247       2    2235     120     123    2238       2
    2235     120     123    2241       2    2232     117     120    2235       2
    2229     117     120    2235       2    2226     114     117    2229       2
    2226     114     117    2232       2    2223     114     117    2229       2
    2223     114     117    2232       2    2214     105     108    2217       2
    2214     105     108    2220       2    2211     105     108    2217       2
    2211     105     108    2220       2    2208     102     105    2211       2
    2208     102     105    2214       2    2205      99     102    2208       2
    2202      99     102    2208       2    2199      96      99    2202       2
    2199      96      99    2205       2    2196      96      99    2202       2
    2196      96      99    2205       2    2193      93      96    2196       2
    2193      93      96    2199       2    2190      90      93    2193       2
    2187      90      93    2193       2    2184      87      90    2187       2
    2184      87      90    2190       2    2181      87      90    2187       2
    2181      87      90    2190       2    2178      84      87    2181       2
    2178      84      87    2184       2    2175      81      84    2178       2
    2172      81      84    2178       2    2169      78      81    2172       2
    2169      78      81    2175       2    2166      78      81    2172       2
    2166      78      81    2175       2    2163      75      78    2166       2
    2163      75      78    2169       2    2160      72      75    2163       2
    2157      72      75    2163       2    2154      69      72    2157       2
    2154      69      72    2160       2    2151      69      72    2157       2
    2151      69      72    2160       2    2148      66      69    2151       2
    2148      66      69    2154       2    2145      63      66    2148       2
    2142      63      66    2148       2    2139      60      63    2142       2
    2139      60      63    2145       2    2136      60      63    2142       2
    2136      60      63    2145       2    2133      57      60    2136       2
    2133      57      60    2139       2    2130      54      57    2133       2
    2127      54      57    2133       2    2124      51      54    2127       2
    2124      51      54    2130       2    2121      51      54    2127       2
    2121      51      54    2130       2    2118      48      51    2121       2
    2118      48      51    2124       2    2115      45      48    2118       2
    2112      45      48    2118       2    2109      42      45    2112       2
    2109      42      45    2115       2    2106      42      45    2112       2
    2106      42      45    2115       2    2103      39      42    2106       2
    2103      39      42    2109       2    2100      36      39    2103       2
    2097      36      39    2103       2    2094      33      36    2097       2
    2094      33      36    2100       2    2091      33      36    2097       2
    2091      33      36    2100       2    2088      30      33    2091       2
    2088      30      33    2094       2    2085      27      30    2088       2
    2082      27      30    2088       2    2079      24      27    2082       2
    2079      24      27    2085       2    2076      24      27    2082       2
    2076      24      27    2085       2    2073      21      24    2076       2
    2073      21      24    2079       2    2070      18      21    2073       2
    2067      18      21    2073       2    2064      15      18    2067       2
    2064      15      18    2070       2    2061      15      18    2067       2
    2061      15      18    2070       2    2058      12      15    2061       2
    2058      12      15    2064       2    2055       9      12    2058       2
    2052       9      12    2058       2    2049       6       9    2052       2
    2049       6       9    2055       2    2046       6       9    2052       2
    2046       6       9    2055       2    2043       3       6    2046       2
    2043       3       6    2049       2    2040       0       3    2043       2
    2037       0       3    2043       2    2034       0       3    2043       2
    2031    2001       3    2043       3    2031    2001    2004    4887       1
    2028    2010    2007    4890       1    2028    2010    2013    4893       4
    2028    2010    2013    4896       4    2025    2016    2013    4893       5
    2025    2016    2013    4896       5    2025    2016    2019    4899       5
    2025    2016    2019    4902       5    2025    2016    2019    4905       5
    2025    2016    2022    4908       5    2025    2016    2022    4911       5
    2025    2016    2022    4914       5    2022    2016    2013    4893       5
    2022    2016    2013    4896       5    2022    2016    2019    4899       5
    2022    2016    2019    4902       5    2022    2016    2019    4905       5
    2022    2016    2025    4917       5    2022    2016    2025    4920       5
    2022    2016    2025    4923       5    2019    2016    2013    4893       5
    2019    2016    2013    4896       5    2019    2016    2022    4908       5
    2019    2016    2022    4911       5    2019    2016    2022    4914       5
    2019    2016    2025    4917       5    2019    2016    2025    4920       5
    2019    2016    2025    4923       5    2013    2010    2007    4890       1
    2013    2010    2028    4926       1    2013    2016    2019    4899       5
    2013    2016    2019    4902       5    2013    2016    2019    4905       5
    2013    2016    2022    4908       5    2013    2016    2022    4911       5
    2013    2016    2022    4914       5    2013    2016    2025    4917       5
    2013    2016    2025    4920       5    2013    2016    2025    4923       5
    2010    2007    2004    4887       1    2010    2028    2031    4929       1
    2007    2010    2013    4893       4    2007    2010    2013    4896       4
    2007    2010    2028    4926       1    2004    2001       3    2043       3
    2004    2001      -3    2043       4    2004    2001    2031    4929       1
    2034       0       3    2001       5    2037       0       3    2001       5
    2040       0       3    2001       5    2001       3       6    2046       5
    2001       3       6    2049       5    2001    2004    2007    4890       1
    2001    2031    2028    4926       1    1998    1968      12    2058       3
    1998    1968     -12    2058       4    1998    1968    1971    4842       1
    1995    1977    1974    4845       1    1995    1977    1980    4848       4
    1995    1977    1980    4851       4    1992    1983    1980    4848       5
    1992    1983    1980    4851       5    1992    1983    1986    4854       5
    1992    1983    1986    4857       5    1992    1983    1986    4860       5
    1992    1983    1989    4863       5    1992    1983    1989    4866       5
    1992    1983    1989    4869       5    1989    1983    1980    4848       5
    1989    1983    1980    4851       5    1989    1983    1986    4854       5
    1989    1983    1986    4857       5    1989    1983    1986    4860       5
    1989    1983    1992    4872       5    1989    1983    1992    4875       5
    1989    1983    1992    4878       5    1986    1983    1980    4848       5
    1986    1983    1980    4851       5    1986    1983    1989    4863       5
    1986    1983    1989    4866       5    1986    1983    1989    4869       5
    1986    1983    1992    4872       5    1986    1983    1992    4875       5
    1986    1983    1992    4878       5    1980    1977    1974    4845       1
    1980    1977    1995    4881       1    1980    1983    1986    4854       5
    1980    1983    1986    4857       5    1980    1983    1986    4860       5
    1980    1983    1989    4863       5    1980    1983    1989    4866       5
    1980    1983    1989    4869       5    1980    1983    1992    4872       5
    1980    1983    1992    4875       5    1980    1983    1992    4878       5
    1977    1974    1971    4842       1    1977    1995    1998    4884       1
    1974    1977    1980    4848       4    1974    1977    1980    4851       4
    1974    1977    1995    4881       1    1971    1968      12    2058       3
    1971    1968     -12    2058       4    1971    1968    1998    4884       1
    1968      12       9    2052       5    1968      12       9    2055       5
    1968      12      15    2061       5    1968      12      15    2064       5
    1968    1971    1974    4845       1    1968    1998    1995    4881       1
    1965    1935      21    2073       3    1965    1935     -21    2073       4
    1965    1935    1938    4797       1    1962    1944    1941    4800       1
    1962    1944    1947    4803       4    1962    1944    1947    4806       4
    1959    1950    1947    4803       5    1959    1950    1947    4806       5
    1959    1950    1953    4809       5    1959    1950    1953    4812       5
    1959    1950    1953    4815       5    1959    1950    1956    4818       5
    1959    1950    1956    4821       5    1959    1950    1956    4824       5
    1956    1950    1947    4803       5    1956    1950    1947    4806       5
    1956    1950    1953    4809       5    1956    1950    1953    4812       5
    1956    1950    1953    4815       5    1956    1950    1959    4827       5
    1956    1950    1959    4830       5    1956    1950    1959    4833       5
    1953    1950    1947    4803       5    1953    1950    1947    4806       5
    1953    1950    1956    4818       5    1953    1950    1956    4821       5
    1953    1950    1956    4824       5    1953    1950    1959    4827       5
    1953    1950    1959    4830       5    1953    1950    1959    4833       5
    1947    1944    1941    4800       1    1947    1944    1962    4836       1
    1947    1950    1953    4809       5    1947    1950    1953    4812       5
    1947    1950    1953    4815       5    1947    1950    1956    4818       5
    1947    1950    1956    4821       5    1947    1950    1956    4824       5
    1947    1950    1959    4827       5    1947    1950    1959    4830       5
    1947    1950    1959    4833       5    1944    1941    1938    4797       1
    1944    1962    1965    4839       1    1941    1944    1947    4803       4
    1941    1944    1947    4806       4    1941    1944    1962    4836       1
    1938    1935      21    2073       3    1938    1935     -21    2073       4
    1938    1935    1965    4839       1    1935      21      18    2067       5
    1935      21      18    2070       5    1935      21      24    2076       5
    1935      21      24    2079       5    1935    1938    1941    4800       1
    1935    1965    1962    4836       1    1932    1902      30    2088       3
    1932    1902     -30    2088       4    1932    1902    1905    4752       1
    1929    1911    1908    4755       1    1929    1911    1914    4758       4
    1929    1911    1914    4761       4    1926    1917    1914    4758       5
    1926    1917    1914    4761       5    1926    1917    1920    4764       5
    1926    1917    1920    4767       5    1926    1917    1920    4770       5
    1926    1917    1923    4773       5    1926    1917    1923    4776       5
    1926    1917    1923    4779       5    1923    1917    1914    4758       5
    1923    1917    1914    4761       5    1923    1917    1920    4764       5
    1923    1917    1920    4767       5    1923    1917    1920    4770       5
    1923    1917    1926    4782       5    1923    1917    1926    4785       5
    1923    1917    1926    4788       5    1920    1917    1914    4758       5
    1920    1917    1914    4761       5    1920    1917    1923    4773       5
    1920    1917    1923    4776       5    1920    1917    1923    4779       5
    1920    1917    1926    4782       5    1920    1917    1926    4785       5
    1920    1917    1926    4788       5    1914    1911    1908    4755       1
    1914    1911    1929    4791       1    1914    1917    1920    4764       5
    1914    1917    1920    4767       5    1914    1917    1920    4770       5
    1914    1917    1923    4773       5    1914    1917    1923    4776       5
    1914    1917    1923    4779       5    1914    1917    1926    4782       5
    1914    1917    1926    4785       5    1914    1917    1926    4788       5
    1911    1908    1905    4752       1    1911    1929    1932    4794       1
    1908    1911    1914    4758       4    1908    1911    1914    4761       4
    1908    1911    1929    4791       1    1905    1902      30    2088       3
    1905    1902     -30    2088       4    1905    1902    1932    4794       1
    1902      30      27    2082       5    1902      30      27    2085       5
    1902      30      33    2091       5    1902      30      33    2094       5
    1902    1905    1908    4755       1    1902    1932    1929    4791       1
    1899    1869      39    2103       3    1899    1869     -39    2103       4
    1899    1869    1872    4707       1    1896    1878    1875    4710       1
    1896    1878    1881    4713       4    1896    1878    1881    4716       4
    1893    1884    1881    4713       5    1893    1884    1881    4716       5
    1893    1884    1887    4719       5    1893    1884    1887    4722       5
    1893    1884    1887    4725       5    1893    1884    1890    4728       5
    1893    1884    1890    4731       5    1893    1884    1890    4734       5
    1890    1884    1881    4713       5    1890    1884    1881    4716       5
    1890    1884    1887    4719       5    1890    1884    1887    4722       5
    1890    1884    1887    4725       5    1890    1884    1893    4737       5
    1890    1884    1893    4740       5    1890    1884    1893    4743       5
    1887    1884    1881    4713       5    1887    1884    1881    4716       5
    1887    1884    1890    4728       5    1887    1884    1890    4731       5
    1887    1884    1890    4734       5    1887    1884    1893    4737       5
    1887    1884    1893    4740       5    1887    1884    1893    4743       5
    1881    1878    1875    4710       1    1881    1878    1896    4746       1
    1881    1884    1887    4719       5    1881    1884    1887    4722       5
    1881    1884    1887    4725       5    1881    1884    1890    4728       5
    1881    1884    1890    4731       5    1881    1884    1890    4734       5
    1881    1884    1893    4737       5    1881    1884    1893    4740       5
    1881    1884    1893    4743       5    1878    1875    1872    4707       1
    1878    1896    1899    4749       1    1875    1878    1881    4713       4
    1875    1878    1881    4716       4    1875    1878    1896    4746       1
    1872    1869      39    2103       3    1872    1869     -39    2103       4
    1872    1869    1899    4749       1    1869      39      36    2097       5
    1869      39      36    2100       5    1869      39      42    2106       5
    1869      39      42    2109       5    1869    1872    1875    4710       1
    1869    1899    1896    4746       1    1866    1836      48    2118       3
    1866    1836     -48    2118       4    1866    1836    1839    4662       1
    1863    1845    1842    4665       1    1863    1845    1848    4668       4
    1863    1845    1848    4671       4    1860    1851    1848    4668       5
    1860    1851    1848    4671       5    1860    1851    1854    4674       5
    1860    1851    1854    4677       5    1860    1851    1854    4680       5
    1860    1851    1857    4683       5    1860    1851    1857    4686       5
    1860    1851    1857    4689       5    1857    1851    1848    4668       5
    1857    1851    1848    4671       5    1857    1851    1854    4674       5
    1857    1851    1854    4677       5    1857    1851    1854    4680       5
    1857    1851    1860    4692       5    1857    1851    1860    4695       5
    1857    1851    1860    4698       5    1854    1851    1848    4668       5
    1854    1851    1848    4671       5    1854    1851    1857    4683       5
    1854    1851    1857    4686       5    1854    1851    1857    4689       5
    1854    1851    1860    4692       5    1854    1851    1860    4695       5
    1854    1851    1860    4698       5    1848    1845    1842    4665       1
    1848    1845    1863    4701       1    1848    1851    1854    4674       5
    1848    1851    1854    4677       5    1848    1851    1854    4680       5
    1848    1851    1857    4683       5    1848    1851    1857    4686       5
    1848    1851    1857    4689       5    1848    1851    1860    4692       5
    1848    1851    1860    4695       5    1848    1851    1860    4698       5
    1845    1842    1839    4662       1    1845    1863    1866    4704       1
    1842    1845    1848    4668       4    1842    1845    1848    4671       4
    1842    1845    1863    4701       1    1839    1836      48    2118       3
    1839    1836     -48    2118       4    1839    1836    1866    4704       1
    1836      48      45    2112       5    1836      48      45    2115       5
    1836      48      51    2121       5    1836      48      51    2124       5
    1836    1839    1842    4665       1    1836    1866    1863    4701       1
    1833    1803      57    2133       3    1833    1803     -57    2133       4
    1833    1803    1806    4617       1    1830    1812    1809    4620       1
    1830    1812    1815    4623       4    1830    1812    1815    4626       4
    1827    1818    1815    4623       5    1827    1818    1815    4626       5
    1827    1818    1821    4629       5    1827    1818    1821    4632       5
    1827    1818    1821    4635       5    1827    1818    1824    4638       5
    1827    1818    1824    4641       5    1827    1818    1824    4644       5
    1824    1818    1815    4623       5    1824    1818    1815    4626       5
    1824    1818    1821    4629       5    1824    1818    1821    4632       5
    1824    1818    1821    4635       5    1824    1818    1827    4647       5
    1824    1818    1827    4650       5    1824    1818    1827    4653       5
    1821    1818    1815    4623       5    1821    1818    1815    4626       5
    1821    1818    1824    4638       5    1821    1818    1824    4641       5
    1821    1818    1824    4644       5    1821    1818    1827    4647       5
    1821    1818    1827    4650       5    1821    1818    1827    4653       5
    1815    1812    1809    4620       1    1815    1812    1830    4656       1
    1815    1818    1821    4629       5    1815    1818    1821    4632       5
    1815    1818    1821    4635       5    1815    1818    1824    4638       5
    1815    1818    1824    4641       5    1815    1818    1824    4644       5
    1815    1818    1827    4647       5    1815    1818    1827    4650       5
    1815    1818    1827    4653       5    1812    1809    1806    4617       1
    1812    1830    1833    4659       1    1809    1812    1815    4623       4
    1809    1812    1815    4626       4    1809    1812    1830    4656       1
    1806    1803      57    2133       3    1806    1803     -57    2133       4
    1806    1803    1833    4659       1    1803      57      54    2127       5
    1803      57      54    2130       5    1803      57      60    2136       5
    1803      57      60    2139       5    1803    1806    1809    4620       1
    1803    1833    1830    4656       1    1800    1770      66    2148       3
    1800    1770     -66    2148       4    1800    1770    1773    4572       1
    1797    1779    1776    4575       1    1797    1779    1782    4578       4
    1797    1779    1782    4581       4    1794    1785    1782    4578       5
    1794    1785    1782    4581       5    1794    1785    1788    4584       5
    1794    1785    1788    4587       5    1794    1785    1788    4590       5
    1794    1785    1791    4593       5    1794    1785    1791    4596       5
    1794    1785    1791    4599       5    1791    1785    1782    4578       5
    1791    1785    1782    4581       5    1791    1785    1788    4584       5
    1791    1785    1788    4587       5    1791    1785    1788    4590       5
    1791    1785    1794    4602       5    1791    1785    1794    4605       5
    1791    1785    1794    4608       5    1788    1785    1782    4578       5
    1788    1785    1782    4581       5    1788    1785    1791    4593       5
    1788    1785    1791    4596       5    1788    1785    1791    4599       5
    1788    1785    1794    4602       5    1788    1785    1794    4605       5
    1788    1785    1794    4608       5    1782    1779    1776    4575       1
    1782    1779    1797    4611       1    1782    1785    1788    4584       5
    1782    1785    1788    4587       5    1782    1785    1788    4590       5
    1782    1785    1791    4593       5    1782    1785    1791    4596       5
    1782    1785    1791    4599       5    1782    1785    1794    4602       5
    1782    1785    1794    4605       5    1782    1785    1794    4608       5
    1779    1776    1773    4572       1    1779    1797    1800    4614       1
    1776    1779    1782    4578       4    1776    1779    1782    4581       4
    1776    1779    1797    4611       1    1773    1770      66    2148       3
    1773    1770     -66    2148       4    1773    1770    1800    4614       1
    1770      66      63    2142       5    1770      66      63    2145       5
    1770      66      69    2151       5    1770      66      69    2154       5
    1770    1773    1776    4575       1    1770    1800    1797    4611       1
    1767    1737      75    2163       3    1767    1737     -75    2163       4
    1767    1737    1740    4527       1    1764    1746    1743    4530       1
    1764    1746    1749    4533       4    1764    1746    1749    4536       4
    1761    1752    1749    4533       5    1761    1752    1749    4536       5
    1761    1752    1755    4539       5    1761    1752    1755    4542       5
    1761    1752    1755    4545       5    1761    1752    1758    4548       5
    1761    1752    1758    4551       5    1761    1752    1758    4554       5
    1758    1752    1749    4533       5    1758    1752    1749    4536       5
    1758    1752    1755    4539       5    1758    1752    1755    4542       5
    1758    1752    1755    4545       5    1758    1752    1761    4557       5
    1758    1752    1761    4560       5    1758    1752    1761    4563       5
    1755    1752    1749    4533       5    1755    1752    1749    4536       5
    1755    1752    1758    4548       5    1755    1752    1758    4551       5
    1755    1752    1758    4554       5    1755    1752    1761    4557       5
    1755    1752    1761    4560       5    1755    1752    1761    4563       5
    1749    1746    1743    4530       1    1749    1746    1764    4566       1
    1749    1752    1755    4539       5    1749    1752    1755    4542       5
    1749    1752    1755    4545       5    1749    1752    1758    4548       5
    1749    1752    1758    4551       5    1749    1752    1758    4554       5
    1749    1752    1761    4557       5    1749    1752    1761    4560       5
    1749    1752    1761    4563       5    1746    1743    1740    4527       1
    1746    1764    1767    4569       1    1743    1746    1749    4533       4
    1743    1746    1749    4536       4    1743    1746    1764    4566       1
    1740    1737      75    2163       3    1740    1737     -75    2163       4
    1740    1737    1767    4569       1    1737      75      72    2157       5
    1737      75      72    2160       5    1737      75      78    2166       5
    1737      75      78    2169       5    1737    1740    1743    4530       1
    1737    1767    1764    4566       1    1734    1704      84    2178       3
    1734    1704     -84    2178       4    1734    1704    1707    4482       1
    1731    1713    1710    4485       1    1731    1713    1716    4488       4
    1731    1713    1716    4491       4    1728    1719    1716    4488       5
    1728    1719    1716    4491       5    1728    1719    1722    4494       5
    1728    1719    1722    4497       5    1728    1719    1722    4500       5
    1728    1719    1725    4503       5    1728    1719    1725    4506       5
    1728    1719    1725    4509       5    1725    1719    1716    4488       5
    1725    1719    1716    4491       5    1725    1719    1722    4494       5
    1725    1719    1722    4497       5    1725    1719    1722    4500       5
    1725    1719    1728    4512       5    1725    1719    1728    4515       5
    1725    1719    1728    4518       5    1722    1719    1716    4488       5
    1722    1719    1716    4491       5    1722    1719    1725    4503       5
    1722    1719    1725    4506       5    1722    1719    1725    4509       5
    1722    1719    1728    4512       5    1722    1719    1728    4515       5
    1722    1719    1728    4518       5    1716    1713    1710    4485       1
    1716    1713    1731    4521       1    1716    1719    1722    4494       5
    1716    1719    1722    4497       5    1716    1719    1722    4500       5
    1716    1719    1725    4503       5    1716    1719    1725    4506       5
    1716    1719    1725    4509       5    1716    1719    1728    4512       5
    1716    1719    1728    4515       5    1716    1719    1728    4518       5
    1713    1710    1707    4482       1    1713    1731    1734    4524       1
    1710    1713    1716    4488       4    1710    1713    1716    4491       4
    1710    1713    1731    4521       1    1707    1704      84    2178       3
    1707    1704     -84    2178       4    1707    1704    1734    4524       1
    1704      84      81    2172       5    1704      84      81    2175       5
    1704      84      87    2181       5    1704      84      87    2184       5
    1704    1707    1710    4485       1    1704    1734    1731    4521       1
    1701    1671      93    2193       3    1701    1671     -93    2193       4
    1701    1671    1674    4437       1    1698    1680    1677    4440       1
    1698    1680    1683    4443       4    1698    1680    1683    4446       4
    1695    1686    1683    4443       5    1695    1686    1683    4446       5
    1695    1686    1689    4449       5    1695    1686    1689    4452       5
    1695    1686    1689    4455       5    1695    1686    1692    4458       5
    1695    1686    1692    4461       5    1695    1686    1692    4464       5
    1692    1686    1683    4443       5    1692    1686    1683    4446       5
    1692    1686    1689    4449       5    1692    1686    1689    4452       5
    1692    1686    1689    4455       5    1692    1686    1695    4467       5
    1692    1686    1695    4470       5    1692    1686    1695    4473       5
    1689    1686    1683    4443       5    1689    1686    1683    4446       5
    1689    1686    1692    4458       5    1689    1686    1692    4461       5
    1689    1686    1692    4464       5    1689    1686    1695    4467       5
    1689    1686    1695    4470       5    1689    1686    1695    4473       5
    1683    1680    1677    4440       1    1683    1680    1698    4476       1
    1683    1686    1689    4449       5    1683    1686    1689    4452       5
    1683    1686    1689    4455       5    1683    1686    1692    4458       5
    1683    1686    1692    4461       5    1683    1686    1692    4464       5
    1683    1686    1695    4467       5    1683    1686    1695    4470       5
    1683    1686    1695    4473       5    1680    1677    1674    4437       1
    1680    1698    1701    4479       1    1677    1680    1683    4443       4
    1677    1680    1683    4446       4    1677    1680    1698    4476       1
    1674    1671      93    2193       3    1674    1671     -93    2193       4
    1674    1671    1701    4479       1    1671      93      90    2187       5
    1671      93      90    2190       5    1671      93      96    2196       5
    1671      93      96    2199       5    1671    1674    1677    4440       1
    1671    1701    1698    4476       1    1668    1638     102    2208       3
    1668    1638    -102    2208       4    1668    1638    1641    4392       1
    1665    1647    1644    4395       1    1665    1647    1650    4398       4
    1665    1647    1650    4401       4    1662    1653    1650    4398       5
    1662    1653    1650    4401       5    1662    1653    1656    4404       5
    1662    1653    1656    4407       5    1662    1653    1656    4410       5
    1662    1653    1659    4413       5    1662    1653    1659    4416       5
    1662    1653    1659    4419       5    1659    1653    1650    4398       5
    1659    1653    1650    4401       5    1659    1653    1656    4404       5
    1659    1653    1656    4407       5    1659    1653    1656    4410       5
    1659    1653    1662    4422       5    1659    1653    1662    4425       5
    1659    1653    1662    4428       5    1656    1653    1650    4398       5
    1656    1653    1650    4401       5    1656    1653    1659    4413       5
    1656    1653    1659    4416       5    1656    1653    1659    4419       5
    1656    1653    1662    4422       5    1656    1653    1662    4425       5
    1656    1653    1662    4428       5    1650    1647    1644    4395       1
    1650    1647    1665    4431       1    1650    1653    1656    4404       5
    1650    1653    1656    4407       5    1650    1653    1656    4410       5
    1650    1653    1659    4413       5    1650    1653    1659    4416       5
    1650    1653    1659    4419       5    1650    1653    1662    4422       5
    1650    1653    1662    4425       5    1650    1653    1662    4428       5
    1647    1644    1641    4392       1    1647    1665    1668    4434       1
    1644    1647    1650    4398       4    1644    1647    1650    4401       4
    1644    1647    1665    4431       1    1641    1638     102    2208       3
    1641    1638    -102    2208       4    1641    1638    1668    4434       1
    1638     102      99    2202       5    1638     102      99    2205       5
    1638     102     105    2211       5    1638     102     105    2214       5
    1638    1641    1644    4395       1    1638    1668    1665    4431       1
    1635     612     615    2937       1    1632     621     618    2940       1
    1629    1599    1602    4341       1    1626    1608    1605    4344       1
    1626    1608    1611    4347       4    1626    1608    1611    4350       4
    1623    1614    1611    4347       5    1623    1614    1611    4350       5
    1623    1614    1617    4353       5    1623    1614    1617    4356       5
    1623    1614    1617    4359       5    1623    1614    1620    4362       5
    1623    1614    1620    4365       5    1623    1614    1620    4368       5
    1620    1614    1611    4347       5    1620    1614    1611    4350       5
    1620    1614    1617    4353       5    1620    1614    1617    4356       5
    1620    1614    1617    4359       5    1620    1614    1623    4371       5
    1620    1614    1623    4374       5    1620    1614    1623    4377       5
    1617    1614    1611    4347       5    1617    1614    1611    4350       5
    1617    1614    1620    4362       5    1617    1614    1620    4365       5
    1617    1614    1620    4368       5    1617    1614    1623    4371       5
    1617    1614    1623    4374       5    1617    1614    1623    4377       5
    1611    1608    1605    4344       1    1611    1608    1626    4380       1
    1611    1614    1617    4353       5    1611    1614    1617    4356       5
    1611    1614    1617    4359       5    1611    1614    1620    4362       5
    1611    1614    1620    4365       5    1611    1614    1620    4368       5
    1611    1614    1623    4371       5    1611    1614    1623    4374       5
    1611    1614    1623    4377       5    1608    1605    1602    4341       1
    1608    1626    1629    4383       1    1605    1608    1611    4347       4
    1605    1608    1611    4350       4    1605    1608    1626    4380       1
    1602    1599    1629    4383       1    1599     624     627    2943       5
    1599     624     627    2946       5    1599     624    1092    3612       5
    1599     624    1092    3615       5    1599    1602    1605    4344       1
    1599    1629    1626    4380       1    1596    1566    1098    3624       3
    1596    1566   -1098    3624       4    1596    1566    1569    4296       1
    1593    1575    1572    4299       1    1593    1575    1578    4302       4
    1593    1575    1578    4305       4    1590    1581    1578    4302       5
    1590    1581    1578    4305       5    1590    1581    1584    4308       5
    1590    1581    1584    4311       5    1590    1581    1584    4314       5
    1590    1581    1587    4317       5    1590    1581    1587    4320       5
    1590    1581    1587    4323       5    1587    1581    1578    4302       5
    1587    1581    1578    4305       5    1587    1581    1584    4308       5
    1587    1581    1584    4311       5    1587    1581    1584    4314       5
    1587    1581    1590    4326       5    1587    1581    1590    4329       5
    1587    1581    1590    4332       5    1584    1581    1578    4302       5
    1584    1581    1578    4305       5    1584    1581    1587    4317       5
    1584    1581    1587    4320       5    1584    1581    1587    4323       5
    1584    1581    1590    4326       5    1584    1581    1590    4329       5
    1584    1581    1590    4332       5    1578    1575    1572    4299       1
    1578    1575    1593    4335       1    1578    1581    1584    4308       5
    1578    1581    1584    4311       5    1578    1581    1584    4314       5
    1578    1581    1587    4317       5    1578    1581    1587    4320       5
    1578    1581    1587    4323       5    1578    1581    1590    4326       5
    1578    1581    1590    4329       5    1578    1581    1590    4332       5
    1575    1572    1569    4296       1    1575    1593    1596    4338       1
    1572    1575    1578    4302       4    1572    1575    1578    4305       4
    1572    1575    1593    4335       1    1569    1566    1098    3624       3
    1569    1566   -1098    3624       4    1569    1566    1596    4338       1
    1566    1098    1095    3618       5    1566    1098    1095    3621       5
    1566    1098    1101    3627       5    1566    1098    1101    3630       5
    1566    1569    1572    4299       1    1566    1596    1593    4335       1
    1563    1533    1107    3639       3    1563    1533   -1107    3639       4
    1563    1533    1536    4251       1    1560    1542    1539    4254       1
    1560    1542    1545    4257       4    1560    1542    1545    4260       4
    1557    1548    1545    4257       5    1557    1548    1545    4260       5
    1557    1548    1551    4263       5    1557    1548    1551    4266       5
    1557    1548    1551    4269       5    1557    1548    1554    4272       5
    1557    1548    1554    4275       5    1557    1548    1554    4278       5
    1554    1548    1545    4257       5    1554    1548    1545    4260       5
    1554    1548    1551    4263       5    1554    1548    1551    4266       5
    1554    1548    1551    4269       5    1554    1548    1557    4281       5
    1554    1548    1557    4284       5    1554    1548    1557    4287       5
    1551    1548    1545    4257       5    1551    1548    1545    4260       5
    1551    1548    1554    4272       5    1551    1548    1554    4275       5
    1551    1548    1554    4278       5    1551    1548    1557    4281       5
    1551    1548    1557    4284       5    1551    1548    1557    4287       5
    1545    1542    1539    4254       1    1545    1542    1560    4290       1
    1545    1548    1551    4263       5    1545    1548    1551    4266       5
    1545    1548    1551    4269       5    1545    1548    1554    4272       5
    1545    1548    1554    4275       5    1545    1548    1554    4278       5
    1545    1548    1557    4281       5    1545    1548    1557    4284       5
    1545    1548    1557    4287       5    1542    1539    1536    4251       1
    1542    1560    1563    4293       1    1539    1542    1545    4257       4
    1539    1542    1545    4260       4    1539    1542    1560    4290       1
    1536    1533    1107    3639       3    1536    1533   -1107    3639       4
    1536    1533    1563    4293       1    1533    1107    1104    3633       5
    1533    1107    1104    3636       5    1533    1107    1110    3642       5
    1533    1107    1110    3645       5    1533    1536    1539    4254       1
    1533    1563    1560    4290       1    1530    1500    1116    3654       3
    1530    1500   -1116    3654       4    1530    1500    1503    4206       1
    1527    1509    1506    4209       1    1527    1509    1512    4212       4
    1527    1509    1512    4215       4    1524    1515    1512    4212       5
    1524    1515    1512    4215       5    1524    1515    1518    4218       5
    1524    1515    1518    4221       5    1524    1515    1518    4224       5
    1524    1515    1521    4227       5    1524    1515    1521    4230       5
    1524    1515    1521    4233       5    1521    1515    1512    4212       5
    1521    1515    1512    4215       5    1521    1515    1518    4218       5
    1521    1515    1518    4221       5    1521    1515    1518    4224       5
    1521    1515    1524    4236       5    1521    1515    1524    4239       5
    1521    1515    1524    4242       5    1518    1515    1512    4212       5
    1518    1515    1512    4215       5    1518    1515    1521    4227       5
    1518    1515    1521    4230       5    1518    1515    1521    4233       5
    1518    1515    1524    4236       5    1518    1515    1524    4239       5
    1518    1515    1524    4242       5    1512    1509    1506    4209       1
    1512    1509    1527    4245       1    1512    1515    1518    4218       5
    1512    1515    1518    4221       5    1512    1515    1518    4224       5
    1512    1515    1521    4227       5    1512    1515    1521    4230       5
    1512    1515    1521    4233       5    1512    1515    1524    4236       5
    1512    1515    1524    4239       5    1512    1515    1524    4242       5
    1509    1506    1503    4206       1    1509    1527    1530    4248       1
    1506    1509    1512    4212       4    1506    1509    1512    4215       4
    1506    1509    1527    4245       1    1503    1500    1116    3654       3
    1503    1500   -1116    3654       4    1503    1500    1530    4248       1
    1500    1116    1113    3648       5    1500    1116    1113    3651       5
    1500    1116    1119    3657       5    1500    1116    1119    3660       5
    1500    1503    1506    4209       1    1500    1530    1527    4245       1
    1497    1467    1125    3669       3    1497    1467   -1125    3669       4
    1497    1467    1470    4161       1    1494    1476    1473    4164       1
    1494    1476    1479    4167       4    1494    1476    1479    4170       4
    1491    1482    1479    4167       5    1491    1482    1479    4170       5
    1491    1482    1485    4173       5    1491    1482    1485    4176       5
    1491    1482    1485    4179       5    1491    1482    1488    4182       5
    1491    1482    1488    4185       5    1491    1482    1488    4188       5
    1488    1482    1479    4167       5    1488    1482    1479    4170       5
    1488    1482    1485    4173       5    1488    1482    1485    4176       5
    1488    1482    1485    4179       5    1488    1482    1491    4191       5
    1488    1482    1491    4194       5    1488    1482    1491    4197       5
    1485    1482    1479    4167       5    1485    1482    1479    4170       5
    1485    1482    1488    4182       5    1485    1482    1488    4185       5
    1485    1482    1488    4188       5    1485    1482    1491    4191       5
    1485    1482    1491    4194       5    1485    1482    1491    4197       5
    1479    1476    1473    4164       1    1479    1476    1494    4200       1
    1479    1482    1485    4173       5    1479    1482    1485    4176       5
    1479    1482    1485    4179       5    1479    1482    1488    4182       5
    1479    1482    1488    4185       5    1479    1482    1488    4188       5
    1479    1482    1491    4191       5    1479    1482    1491    4194       5
    1479    1482    1491    4197       5    1476    1473    1470    4161       1
    1476    1494    1497    4203       1    1473    1476    1479    4167       4
    1473    1476    1479    4170       4    1473    1476    1494    4200       1
    1470    1467    1125    3669       3    1470    1467   -1125    3669       4
    1470    1467    1497    4203       1    1467    1125    1122    3663       5
    1467    1125    1122    3666       5    1467    1125    1128    3672       5
    1467    1125    1128    3675       5    1467    1470    1473    4164       1
    1467    1497    1494    4200       1    1464    1434    1134    3684       3
    1464    1434   -1134    3684       4    1464    1434    1437    4116       1
    1461    1443    1440    4119       1    1461    1443    1446    4122       4
    1461    1443    1446    4125       4    1458    1449    1446    4122       5
    1458    1449    1446    4125       5    1458    1449    1452    4128       5
    1458    1449    1452    4131       5    1458    1449    1452    4134       5
    1458    1449    1455    4137       5    1458    1449    1455    4140       5
    1458    1449    1455    4143       5    1455    1449    1446    4122       5
    1455    1449    1446    4125       5    1455    1449    1452    4128       5
    1455    1449    1452    4131       5    1455    1449    1452    4134       5
    1455    1449    1458    4146       5    1455    1449    1458    4149       5
    1455    1449    1458    4152       5    1452    1449    1446    4122       5
    1452    1449    1446    4125       5    1452    1449    1455    4137       5
    1452    1449    1455    4140       5    1452    1449    1455    4143       5
    1452    1449    1458    4146       5    1452    1449    1458    4149       5
    1452    1449    1458    4152       5    1446    1443    1440    4119       1
    1446    1443    1461    4155       1    1446    1449    1452    4128       5
    1446    1449    1452    4131       5    1446    1449    1452    4134       5
    1446    1449    1455    4137       5    1446    1449    1455    4140       5
    1446    1449    1455    4143       5    1446    1449    1458    4146       5
    1446    1449    1458    4149       5    1446    1449    1458    4152       5
    1443    1440    1437    4116       1    1443    1461    1464    4158       1
    1440    1443    1446    4122       4    1440    1443    1446    4125       4
    1440    1443    1461    4155       1    1437    1434    1134    3684       3
    1437    1434   -1134    3684       4    1437    1434    1464    4158       1
    1434    1134    1131    3678       5    1434    1134    1131    3681       5
    1434    1134    1137    3687       5    1434    1134    1137    3690       5
    1434    1437    1440    4119       1    1434    1464    1461    4155       1
    1431    1401    1143    3699       3    1431    1401   -1143    3699       4
    1431    1401    1404    4071       1    1428    1410    1407    4074       1
    1428    1410    1413    4077       4    1428    1410    1413    4080       4
    1425    1416    1413    4077       5    1425    1416    1413    4080       5
    1425    1416    1419    4083       5    1425    1416    1419    4086       5
    1425    1416    1419    4089       5    1425    1416    1422    4092       5
    1425    1416    1422    4095       5    1425    1416    1422    4098       5
    1422    1416    1413    4077       5    1422    1416    1413    4080       5
    1422    1416    1419    4083       5    1422    1416    1419    4086       5
    1422    1416    1419    4089       5    1422    1416    1425    4101       5
    1422    1416    1425    4104       5    1422    1416    1425    4107       5
    1419    1416    1413    4077       5    1419    1416    1413    4080       5
    1419    1416    1422    4092       5    1419    1416    1422    4095       5
    1419    1416    1422    4098       5    1419    1416    1425    4101       5
    1419    1416    1425    4104       5    1419    1416    1425    4107       5
    1413    1410    1407    4074       1    1413    1410    1428    4110       1
    1413    1416    1419    4083       5    1413    1416    1419    4086       5
    1413    1416    1419    4089       5    1413    1416    1422    4092       5
    1413    1416    1422    4095       5    1413    1416    1422    4098       5
    1413    1416    1425    4101       5    1413    1416    1425    4104       5
    1413    1416    1425    4107       5    1410    1407    1404    4071       1
    1410    1428    1431    4113       1    1407    1410    1413    4077       4
    1407    1410    1413    4080       4    1407    1410    1428    4110       1
    1404    1401    1143    3699       3    1404    1401   -1143    3699       4
    1404    1401    1431    4113       1    1401    1143    1140    3693       5
    1401    1143    1140    3696       5    1401    1143    1146    3702       5
    1401    1143    1146    3705       5    1401    1404    1407    4074       1
    1401    1431    1428    4110       1    1398    1368    1152    3714       3
    1398    1368   -1152    3714       4    1398    1368    1371    4026       1
    1395    1377    1374    4029       1    1395    1377    1380    4032       4
    1395    1377    1380    4035       4    1392    1383    1380    4032       5
    1392    1383    1380    4035       5    1392    1383    1386    4038       5
    1392    1383    1386    4041       5    1392    1383    1386    4044       5
    1392    1383    1389    4047       5    1392    1383    1389    4050       5
    1392    1383    1389    4053       5    1389    1383    1380    4032       5
    1389    1383    1380    4035       5    1389    1383    1386    4038       5
    1389    1383    1386    4041       5    1389    1383    1386    4044       5
    1389    1383    1392    4056       5    1389    1383    1392    4059       5
    1389    1383    1392    4062       5    1386    1383    1380    4032       5
    1386    1383    1380    4035       5    1386    1383    1389    4047       5
    1386    1383    1389    4050       5    1386    1383    1389    4053       5
    1386    1383    1392    4056       5    1386    1383    1392    4059       5
    1386    1383    1392    4062       5    1380    1377    1374    4029       1
    1380    1377    1395    4065       1    1380    1383    1386    4038       5
    1380    1383    1386    4041       5    1380    1383    1386    4044       5
    1380    1383    1389    4047       5    1380    1383    1389    4050       5
    1380    1383    1389    4053       5    1380    1383    1392    4056       5
    1380    1383    1392    4059       5    1380    1383    1392    4062       5
    1377    1374    1371    4026       1    1377    1395    1398    4068       1
    1374    1377    1380    4032       4    1374    1377    1380    4035       4
    1374    1377    1395    4065       1    1371    1368    1152    3714       3
    1371    1368   -1152    3714       4    1371    1368    1398    4068       1
    1368    1152    1149    3708       5    1368    1152    1149    3711       5
    1368    1152    1155    3717       5    1368    1152    1155    3720       5
    1368    1371    1374    4029       1    1368    1398    1395    4065       1
    1365    1335    1161    3729       3    1365    1335   -1161    3729       4
    1365    1335    1338    3981       1    1362    1344    1341    3984       1
    1362    1344    1347    3987       4    1362    1344    1347    3990       4
    1359    1350    1347    3987       5    1359    1350    1347    3990       5
    1359    1350    1353    3993       5    1359    1350    1353    3996       5
    1359    1350    1353    3999       5    1359    1350    1356    4002       5
    1359    1350    1356    4005       5    1359    1350    1356    4008       5
    1356    1350    1347    3987       5    1356    1350    1347    3990       5
    1356    1350    1353    3993       5    1356    1350    1353    3996       5
    1356    1350    1353    3999       5    1356    1350    1359    4011       5
    1356    1350    1359    4014       5    1356    1350    1359    4017       5
    1353    1350    1347    3987       5    1353    1350    1347    3990       5
    1353    1350    1356    4002       5    1353    1350    1356    4005       5
    1353    1350    1356    4008       5    1353    1350    1359    4011       5
    1353    1350    1359    4014       5    1353    1350    1359    4017       5
    1347    1344    1341    3984       1    1347    1344    1362    4020       1
    1347    1350    1353    3993       5    1347    1350    1353    3996       5
    1347    1350    1353    3999       5    1347    1350    1356    4002       5
    1347    1350    1356    4005       5    1347    1350    1356    4008       5
    1347    1350    1359    4011       5    1347    1350    1359    4014       5
    1347    1350    1359    4017       5    1344    1341    1338    3981       1
    1344    1362    1365    4023       1    1341    1344    1347    3987       4
    1341    1344    1347    3990       4    1341    1344    1362    4020       1
    1338    1335    1161    3729       3    1338    1335   -1161    3729       4
    1338    1335    1365    4023       1    1335    1161    1158    3723       5
    1335    1161    1158    3726       5    1335    1161    1164    3732       5
    1335    1161    1164    3735       5    1335    1338    1341    3984       1
    1335    1365    1362    4020       1    1332    1302    1170    3744       3
    1332    1302   -1170    3744       4    1332    1302    1305    3936       1
    1329    1311    1308    3939       1    1329    1311    1314    3942       4
    1329    1311    1314    3945       4    1326    1317    1314    3942       5
    1326    1317    1314    3945       5    1326    1317    1320    3948       5
    1326    1317    1320    3951       5    1326    1317    1320    3954       5
    1326    1317    1323    3957       5    1326    1317    1323    3960       5
    1326    1317    1323    3963       5    1323    1317    1314    3942       5
    1323    1317    1314    3945       5    1323    1317    1320    3948       5
    1323    1317    1320    3951       5    1323    1317    1320    3954       5
    1323    1317    1326    3966       5    1323    1317    1326    3969       5
    1323    1317    1326    3972       5    1320    1317    1314    3942       5
    1320    1317    1314    3945       5    1320    1317    1323    3957       5
    1320    1317    1323    3960       5    1320    1317    1323    3963       5
    1320    1317    1326    3966       5    1320    1317    1326    3969       5
    1320    1317    1326    3972       5    1314    1311    1308    3939       1
    1314    1311    1329    3975       1    1314    1317    1320    3948       5
    1314    1317    1320    3951       5    1314    1317    1320    3954       5
    1314    1317    1323    3957       5    1314    1317    1323    3960       5
    1314    1317    1323    3963       5    1314    1317    1326    3966       5
    1314    1317    1326    3969       5    1314    1317    1326    3972       5
    1311    1308    1305    3936       1    1311    1329    1332    3978       1
    1308    1311    1314    3942       4    1308    1311    1314    3945       4
    1308    1311    1329    3975       1    1305    1302    1170    3744       3
    1305    1302   -1170    3744       4    1305    1302    1332    3978       1
    1302    1170    1167    3738       5    1302    1170    1167    3741       5
    1302    1170    1173    3747       5    1302    1170    1173    3750       5
    1302    1305    1308    3939       1    1302    1332    1329    3975       1
    1299    1269    1179    3759       3    1299    1269   -1179    3759       4
    1299    1269    1272    3891       1    1296    1278    1275    3894       1
    1296    1278    1281    3897       4    1296    1278    1281    3900       4
    1293    1284    1281    3897       5    1293    1284    1281    3900       5
    1293    1284    1287    3903       5    1293    1284    1287    3906       5
    1293    1284    1287    3909       5    1293    1284    1290    3912       5
    1293    1284    1290    3915       5    1293    1284    1290    3918       5
    1290    1284    1281    3897       5    1290    1284    1281    3900       5
    1290    1284    1287    3903       5    1290    1284    1287    3906       5
    1290    1284    1287    3909       5    1290    1284    1293    3921       5
    1290    1284    1293    3924       5    1290    1284    1293    3927       5
    1287    1284    1281    3897       5    1287    1284    1281    3900       5
    1287    1284    1290    3912       5    1287    1284    1290    3915       5
    1287    1284    1290    3918       5    1287    1284    1293    3921       5
    1287    1284    1293    3924       5    1287    1284    1293    3927       5
    1281    1278    1275    3894       1    1281    1278    1296    3930       1
    1281    1284    1287    3903       5    1281    1284    1287    3906       5
    1281    1284    1287    3909       5    1281    1284    1290    3912       5
    1281    1284    1290    3915       5    1281    1284    1290    3918       5
    1281    1284    1293    3921       5    1281    1284    1293    3924       5
    1281    1284    1293    3927       5    1278    1275    1272    3891       1
    1278    1296    1299    3933       1    1275    1278    1281    3897       4
    1275    1278    1281    3900       4    1275    1278    1296    3930       1
    1272    1269    1179    3759       3    1272    1269   -1179    3759       4
    1272    1269    1299    3933       1    1269    1179    1176    3753       5
    1269    1179    1176    3756       5    1269    1179    1182    3762       5
    1269    1179    1182    3765       5    1269    1272    1275    3894       1
    1269    1299    1296    3930       1    1266    1236    1188    3774       3
    1266    1236   -1188    3774       4    1266    1236    1239    3846       1
    1263    1245    1242    3849       1    1263    1245    1248    3852       4
    1263    1245    1248    3855       4    1260    1251    1248    3852       5
    1260    1251    1248    3855       5    1260    1251    1254    3858       5
    1260    1251    1254    3861       5    1260    1251    1254    3864       5
    1260    1251    1257    3867       5    1260    1251    1257    3870       5
    1260    1251    1257    3873       5    1257    1251    1248    3852       5
    1257    1251    1248    3855       5    1257    1251    1254    3858       5
    1257    1251    1254    3861       5    1257    1251    1254    3864       5
    1257    1251    1260    3876       5    1257    1251    1260    3879       5
    1257    1251    1260    3882       5    1254    1251    1248    3852       5
    1254    1251    1248    3855       5    1254    1251    1257    3867       5
    1254    1251    1257    3870       5    1254    1251    1257    3873       5
    1254    1251    1260    3876       5    1254    1251    1260    3879       5
    1254    1251    1260    3882       5    1248    1245    1242    3849       1
    1248    1245    1263    3885       1    1248    1251    1254    3858       5
    1248    1251    1254    3861       5    1248    1251    1254    3864       5
    1248    1251    1257    3867       5    1248    1251    1257    3870       5
    1248    1251    1257    3873       5    1248    1251    1260    3876       5
    1248    1251    1260    3879       5    1248    1251    1260    3882       5
    1245    1242    1239    3846       1    1245    1263    1266    3888       1
    1242    1245    1248    3852       4    1242    1245    1248    3855       4
    1242    1245    1263    3885       1    1239    1236    1188    3774       3
    1239    1236   -1188    3774       4    1239    1236    1266    3888       1
    1236    1188    1185    3768       5    1236    1188    1185    3771       5
    1236    1188    1191    3777       5    1236    1188    1191    3780       5
    1236    1239    1242    3849       1    1236    1266    1263    3885       1
    1233    1203    1197    3789       3    1233    1203   -1197    3789       4
    1233    1203    1206    3801       1    1230    1212    1209    3804       1
    1230    1212    1215    3807       4    1230    1212    1215    3810       4
    1227    1218    1215    3807       5    1227    1218    1215    3810       5
    1227    1218    1221    3813       5    1227    1218    1221    3816       5
    1227    1218    1221    3819       5    1227    1218    1224    3822       5
    1227    1218    1224    3825       5    1227    1218    1224    3828       5
    1224    1218    1215    3807       5    1224    1218    1215    3810       5
    1224    1218    1221    3813       5    1224    1218    1221    3816       5
    1224    1218    1221    3819       5    1224    1218    1227    3831       5
    1224    1218    1227    3834       5    1224    1218    1227    3837       5
    1221    1218    1215    3807       5    1221    1218    1215    3810       5
    1221    1218    1224    3822       5    1221    1218    1224    3825       5
    1221    1218    1224    3828       5    1221    1218    1227    3831       5
    1221    1218    1227    3834       5    1221    1218    1227    3837       5
    1215    1212    1209    3804       1    1215    1212    1230    3840       1
    1215    1218    1221    3813       5    1215    1218    1221    3816       5
    1215    1218    1221    3819       5    1215    1218    1224    3822       5
    1215    1218    1224    3825       5    1215    1218    1224    3828       5
    1215    1218    1227    3831       5    1215    1218    1227    3834       5
    1215    1218    1227    3837       5    1212    1209    1206    3801       1
    1212    1230    1233    3843       1    1209    1212    1215    3807       4
    1209    1212    1215    3810       4    1209    1212    1230    3840       1
    1206    1203    1197    3789       3    1206    1203   -1197    3789       4
    1206    1203    1233    3843       1    1203    1197    1194    3783       5
    1203    1197    1194    3786       5    1203    1197    1200    3792       5
    1203    1197    1200    3795       5    1203    1197    1200    3798       5
    1203    1206    1209    3804       1    1203    1233    1230    3840       1
    1200    1197    1194    3783       9    1200    1197    1194    3786       9
    1197    1194    1191    3777       9    1197    1194    1191    3780       9
    1197    1203    1206    3801       1    1197    1203    1233    3843       1
    1194    1191    1188    3774       9    1194    1197    1200    3792       9
    1194    1197    1200    3795       9    1194    1197    1200    3798       9
    1191    1188    1185    3768       9    1191    1188    1185    3771       9
    1191    1194    1197    3789       9    1188    1185    1182    3762       9
    1188    1185    1182    3765       9    1188    1191    1194    3783       9
    1188    1191    1194    3786       9    1188    1236    1239    3846       1
    1188    1236    1266    3888       1    1185    1182    1179    3759       9
    1185    1188    1191    3777       9    1185    1188    1191    3780       9
    1182    1179    1176    3753       9    1182    1179    1176    3756       9
    1182    1185    1188    3774       9    1179    1176    1173    3747       9
    1179    1176    1173    3750       9    1179    1182    1185    3768       9
    1179    1182    1185    3771       9    1179    1269    1272    3891       1
    1179    1269    1299    3933       1    1176    1173    1170    3744       9
    1176    1179    1182    3762       9    1176    1179    1182    3765       9
    1173    1170    1167    3738       9    1173    1170    1167    3741       9
    1173    1176    1179    3759       9    1170    1167    1164    3732       9
    1170    1167    1164    3735       9    1170    1173    1176    3753       9
    1170    1173    1176    3756       9    1170    1302    1305    3936       1
    1170    1302    1332    3978       1    1167    1164    1161    3729       9
    1167    1170    1173    3747       9    1167    1170    1173    3750       9
    1164    1161    1158    3723       9    1164    1161    1158    3726       9
    1164    1167    1170    3744       9    1161    1158    1155    3717       9
    1161    1158    1155    3720       9    1161    1164    1167    3738       9
    1161    1164    1167    3741       9    1161    1335    1338    3981       1
    1161    1335    1365    4023       1    1158    1155    1152    3714       9
    1158    1161    1164    3732       9    1158    1161    1164    3735       9
    1155    1152    1149    3708       9    1155    1152    1149    3711       9
    1155    1158    1161    3729       9    1152    1149    1146    3702       9
    1152    1149    1146    3705       9    1152    1155    1158    3723       9
    1152    1155    1158    3726       9    1152    1368    1371    4026       1
    1152    1368    1398    4068       1    1149    1146    1143    3699       9
    1149    1152    1155    3717       9    1149    1152    1155    3720       9
    1146    1143    1140    3693       9    1146    1143    1140    3696       9
    1146    1149    1152    3714       9    1143    1140    1137    3687       9
    1143    1140    1137    3690       9    1143    1146    1149    3708       9
    1143    1146    1149    3711       9    1143    1401    1404    4071       1
    1143    1401    1431    4113       1    1140    1137    1134    3684       9
    1140    1143    1146    3702       9    1140    1143    1146    3705       9
    1137    1134    1131    3678       9    1137    1134    1131    3681       9
    1137    1140    1143    3699       9    1134    1131    1128    3672       9
    1134    1131    1128    3675       9    1134    1137    1140    3693       9
    1134    1137    1140    3696       9    1134    1434    1437    4116       1
    1134    1434    1464    4158       1    1131    1128    1125    3669       9
    1131    1134    1137    3687       9    1131    1134    1137    3690       9
    1128    1125    1122    3663       9    1128    1125    1122    3666       9
    1128    1131    1134    3684       9    1125    1122    1119    3657       9
    1125    1122    1119    3660       9    1125    1128    1131    3678       9
    1125    1128    1131    3681       9    1125    1467    1470    4161       1
    1125    1467    1497    4203       1    1122    1119    1116    3654       9
    1122    1125    1128    3672       9    1122    1125    1128    3675       9
    1119    1116    1113    3648       9    1119    1116    1113    3651       9
    1119    1122    1125    3669       9    1116    1113    1110    3642       9
    1116    1113    1110    3645       9    1116    1119    1122    3663       9
    1116    1119    1122    3666       9    1116    1500    1503    4206       1
    1116    1500    1530    4248       1    1113    1110    1107    3639       9
    1113    1116    1119    3657       9    1113    1116    1119    3660       9
    1110    1107    1104    3633       9    1110    1107    1104    3636       9
    1110    1113    1116    3654       9    1107    1104    1101    3627       9
    1107    1104    1101    3630       9    1107    1110    1113    3648       9
    1107    1110    1113    3651       9    1107    1533    1536    4251       1
    1107    1533    1563    4293       1    1104    1101    1098    3624       9
    1104    1107    1110    3642       9    1104    1107    1110    3645       9
    1101    1098    1095    3618       9    1101    1098    1095    3621       9
    1101    1104    1107    3639       9    1098    1095    1092    3612       9
    1098    1095    1092    3615       9    1098    1101    1104    3633       9
    1098    1101    1104    3636       9    1098    1566    1569    4296       1
    1098    1566    1596    4338       1    1095    1098    1101    3627       9
    1095    1098    1101    3630       9    1092     624     627    2943       9
    1092     624     627    2946       9    1092    1095    1098    3624       9
    1089    1059     633    2955       3    1089    1059    -633    2955       4
    1089    1059    1062    3567       1    1086    1068    1065    3570       1
    1086    1068    1071    3573       4    1086    1068    1071    3576       4
    1083    1074    1071    3573       5    1083    1074    1071    3576       5
    1083    1074    1077    3579       5    1083    1074    1077    3582       5
    1083    1074    1077    3585       5    1083    1074    1080    3588       5
    1083    1074    1080    3591       5    1083    1074    1080    3594       5
    1080    1074    1071    3573       5    1080    1074    1071    3576       5
    1080    1074    1077    3579       5    1080    1074    1077    3582       5
    1080    1074    1077    3585       5    1080    1074    1083    3597       5
    1080    1074    1083    3600       5    1080    1074    1083    3603       5
    1077    1074    1071    3573       5    1077    1074    1071    3576       5
    1077    1074    1080    3588       5    1077    1074    1080    3591       5
    1077    1074    1080    3594       5    1077    1074    1083    3597       5
    1077    1074    1083    3600       5    1077    1074    1083    3603       5
    1071    1068    1065    3570       1    1071    1068    1086    3606       1
    1071    1074    1077    3579       5    1071    1074    1077    3582       5
    1071    1074    1077    3585       5    1071    1074    1080    3588       5
    1071    1074    1080    3591       5    1071    1074    1080    3594       5
    1071    1074    1083    3597       5    1071    1074    1083    3600       5
    1071    1074    1083    3603       5    1068    1065    1062    3567       1
    1068    1086    1089    3609       1    1065    1068    1071    3573       4
    1065    1068    1071    3576       4    1065    1068    1086    3606       1
    1062    1059     633    2955       3    1062    1059    -633    2955       4
    1062    1059    1089    3609       1    1059     633     630    2949       5
    1059     633     630    2952       5    1059     633     636    2958       5
    1059     633     636    2961       5    1059    1062    1065    3570       1
    1059    1089    1086    3606       1    1056    1026     642    2970       3
    1056    1026    -642    2970       4    1056    1026    1029    3522       1
    1053    1035    1032    3525       1    1053    1035    1038    3528       4
    1053    1035    1038    3531       4    1050    1041    1038    3528       5
    1050    1041    1038    3531       5    1050    1041    1044    3534       5
    1050    1041    1044    3537       5    1050    1041    1044    3540       5
    1050    1041    1047    3543       5    1050    1041    1047    3546       5
    1050    1041    1047    3549       5    1047    1041    1038    3528       5
    1047    1041    1038    3531       5    1047    1041    1044    3534       5
    1047    1041    1044    3537       5    1047    1041    1044    3540       5
    1047    1041    1050    3552       5    1047    1041    1050    3555       5
    1047    1041    1050    3558       5    1044    1041    1038    3528       5
    1044    1041    1038    3531       5    1044    1041    1047    3543       5
    1044    1041    1047    3546       5    1044    1041    1047    3549       5
    1044    1041    1050    3552       5    1044    1041    1050    3555       5
    1044    1041    1050    3558       5    1038    1035    1032    3525       1
    1038    1035    1053    3561       1    1038    1041    1044    3534       5
    1038    1041    1044    3537       5    1038    1041    1044    3540       5
    1038    1041    1047    3543       5    1038    1041    1047    3546       5
    1038    1041    1047    3549       5    1038    1041    1050    3552       5
    1038    1041    1050    3555       5    1038    1041    1050    3558       5
    1035    1032    1029    3522       1    1035    1053    1056    3564       1
    1032    1035    1038    3528       4    1032    1035    1038    3531       4
    1032    1035    1053    3561       1    1029    1026     642    2970       3
    1029    1026    -642    2970       4    1029    1026    1056    3564       1
    1026     642     639    2964       5    1026     642     639    2967       5
    1026     642     645    2973       5    1026     642     645    2976       5
    1026    1029    1032    3525       1    1026    1056    1053    3561       1
    1023     993     651    2985       3    1023     993    -651    2985       4
    1023     993     996    3477       1    1020    1002     999    3480       1
    1020    1002    1005    3483       4    1020    1002    1005    3486       4
    1017    1008    1005    3483       5    1017    1008    1005    3486       5
    1017    1008    1011    3489       5    1017    1008    1011    3492       5
    1017    1008    1011    3495       5    1017    1008    1014    3498       5
    1017    1008    1014    3501       5    1017    1008    1014    3504       5
    1014    1008    1005    3483       5    1014    1008    1005    3486       5
    1014    1008    1011    3489       5    1014    1008    1011    3492       5
    1014    1008    1011    3495       5    1014    1008    1017    3507       5
    1014    1008    1017    3510       5    1014    1008    1017    3513       5
    1011    1008    1005    3483       5    1011    1008    1005    3486       5
    1011    1008    1014    3498       5    1011    1008    1014    3501       5
    1011    1008    1014    3504       5    1011    1008    1017    3507       5
    1011    1008    1017    3510       5    1011    1008    1017    3513       5
    1005    1002     999    3480       1    1005    1002    1020    3516       1
    1005    1008    1011    3489       5    1005    1008    1011    3492       5
    1005    1008    1011    3495       5    1005    1008    1014    3498       5
    1005    1008    1014    3501       5    1005    1008    1014    3504       5
    1005    1008    1017    3507       5    1005    1008    1017    3510       5
    1005    1008    1017    3513       5    1002     999     996    3477       1
    1002    1020    1023    3519       1     999    1002    1005    3483       4
     999    1002    1005    3486       4     999    1002    1020    3516       1
     996     993     651    2985       3     996     993    -651    2985       4
     996     993    1023    3519       1     993     651     648    2979       5
     993     651     648    2982       5     993     651     654    2988       5
     993     651     654    2991       5     993     996     999    3480       1
     993    1023    1020    3516       1     990     960     660    3000       3
     990     960    -660    3000       4     990     960     963    3432       1
     987     969     966    3435       1     987     969     972    3438       4
     987     969     972    3441       4     984     975     972    3438       5
     984     975     972    3441       5     984     975     978    3444       5
     984     975     978    3447       5     984     975     978    3450       5
     984     975     981    3453       5     984     975     981    3456       5
     984     975     981    3459       5     981     975     972    3438       5
     981     975     972    3441       5     981     975     978    3444       5
     981     975     978    3447       5     981     975     978    3450       5
     981     975     984    3462       5     981     975     984    3465       5
     981     975     984    3468       5     978     975     972    3438       5
     978     975     972    3441       5     978     975     981    3453       5
     978     975     981    3456       5     978     975     981    3459       5
     978     975     984    3462       5     978     975     984    3465       5
     978     975     984    3468       5     972     969     966    3435       1
     972     969     987    3471       1     972     975     978    3444       5
     972     975     978    3447       5     972     975     978    3450       5
     972     975     981    3453       5     972     975     981    3456       5
     972     975     981    3459       5     972     975     984    3462       5
     972     975     984    3465       5     972     975     984    3468       5
     969     966     963    3432       1     969     987     990    3474       1
     966     969     972    3438       4     966     969     972    3441       4
     966     969     987    3471       1     963     960     660    3000       3
     963     960    -660    3000       4     963     960     990    3474       1
     960     660     657    2994       5     960     660     657    2997       5
     960     660     663    3003       5     960     660     663    3006       5
     960     963     966    3435       1     960     990     987    3471       1
     957     927     669    3015       3     957     927    -669    3015       4
     957     927     930    3387       1     954     936     933    3390       1
     954     936     939    3393       4     954     936     939    3396       4
     951     942     939    3393       5     951     942     939    3396       5
     951     942     945    3399       5     951     942     945    3402       5
     951     942     945    3405       5     951     942     948    3408       5
     951     942     948    3411       5     951     942     948    3414       5
     948     942     939    3393       5     948     942     939    3396       5
     948     942     945    3399       5     948     942     945    3402       5
     948     942     945    3405       5     948     942     951    3417       5
     948     942     951    3420       5     948     942     951    3423       5
     945     942     939    3393       5     945     942     939    3396       5
     945     942     948    3408       5     945     942     948    3411       5
     945     942     948    3414       5     945     942     951    3417       5
     945     942     951    3420       5     945     942     951    3423       5
     939     936     933    3390       1     939     936     954    3426       1
     939     942     945    3399       5     939     942     945    3402       5
     939     942     945    3405       5     939     942     948    3408       5
     939     942     948    3411       5     939     942     948    3414       5
     939     942     951    3417       5     939     942     951    3420       5
     939     942     951    3423       5     936     933     930    3387       1
     936     954     957    3429       1     933     936     939    3393       4
     933     936     939    3396       4     933     936     954    3426       1
     930     927     669    3015       3     930     927    -669    3015       4
     930     927     957    3429       1     927     669     666    3009       5
     927     669     666    3012       5     927     669     672    3018       5
     927     669     672    3021       5     927     930     933    3390       1
     927     957     954    3426       1     924     894     678    3030       3
     924     894    -678    3030       4     924     894     897    3342       1
     921     903     900    3345       1     921     903     906    3348       4
     921     903     906    3351       4     918     909     906    3348       5
     918     909     906    3351       5     918     909     912    3354       5
     918     909     912    3357       5     918     909     912    3360       5
     918     909     915    3363       5     918     909     915    3366       5
     918     909     915    3369       5     915     909     906    3348       5
     915     909     906    3351       5     915     909     912    3354       5
     915     909     912    3357       5     915     909     912    3360       5
     915     909     918    3372       5     915     909     918    3375       5
     915     909     918    3378       5     912     909     906    3348       5
     912     909     906    3351       5     912     909     915    3363       5
     912     909     915    3366       5     912     909     915    3369       5
     912     909     918    3372       5     912     909     918    3375       5
     912     909     918    3378       5     906     903     900    3345       1
     906     903     921    3381       1     906     909     912    3354       5
     906     909     912    3357       5     906     909     912    3360       5
     906     909     915    3363       5     906     909     915    3366       5
     906     909     915    3369       5     906     909     918    3372       5
     906     909     918    3375       5     906     909     918    3378       5
     903     900     897    3342       1     903     921     924    3384       1
     900     903     906    3348       4     900     903     906    3351       4
     900     903     921    3381       1     897     894     678    3030       3
     897     894    -678    3030       4     897     894     924    3384       1
     894     678     675    3024       5     894     678     675    3027       5
     894     678     681    3033       5     894     678     681    3036       5
     894     897     900    3345       1     894     924     921    3381       1
     891     861     687    3045       3     891     861    -687    3045       4
     891     861     864    3297       1     888     870     867    3300       1
     888     870     873    3303       4     888     870     873    3306       4
     885     876     873    3303       5     885     876     873    3306       5
     885     876     879    3309       5     885     876     879    3312       5
     885     876     879    3315       5     885     876     882    3318       5
     885     876     882    3321       5     885     876     882    3324       5
     882     876     873    3303       5     882     876     873    3306       5
     882     876     879    3309       5     882     876     879    3312       5
     882     876     879    3315       5     882     876     885    3327       5
     882     876     885    3330       5     882     876     885    3333       5
     879     876     873    3303       5     879     876     873    3306       5
     879     876     882    3318       5     879     876     882    3321       5
     879     876     882    3324       5     879     876     885    3327       5
     879     876     885    3330       5     879     876     885    3333       5
     873     870     867    3300       1     873     870     888    3336       1
     873     876     879    3309       5     873     876     879    3312       5
     873     876     879    3315       5     873     876     882    3318       5
     873     876     882    3321       5     873     876     882    3324       5
     873     876     885    3327       5     873     876     885    3330       5
     873     876     885    3333       5     870     867     864    3297       1
     870     888     891    3339       1     867     870     873    3303       4
     867     870     873    3306       4     867     870     888    3336       1
     864     861     687    3045       3     864     861    -687    3045       4
     864     861     891    3339       1     861     687     684    3039       5
     861     687     684    3042       5     861     687     690    3048       5
     861     687     690    3051       5     861     864     867    3300       1
     861     891     888    3336       1     858     828     696    3060       3
     858     828    -696    3060       4     858     828     831    3252       1
     855     837     834    3255       1     855     837     840    3258       4
     855     837     840    3261       4     852     843     840    3258       5
     852     843     840    3261       5     852     843     846    3264       5
     852     843     846    3267       5     852     843     846    3270       5
     852     843     849    3273       5     852     843     849    3276       5
     852     843     849    3279       5     849     843     840    3258       5
     849     843     840    3261       5     849     843     846    3264       5
     849     843     846    3267       5     849     843     846    3270       5
     849     843     852    3282       5     849     843     852    3285       5
     849     843     852    3288       5     846     843     840    3258       5
     846     843     840    3261       5     846     843     849    3273       5
     846     843     849    3276       5     846     843     849    3279       5
     846     843     852    3282       5     846     843     852    3285       5
     846     843     852    3288       5     840     837     834    3255       1
     840     837     855    3291       1     840     843     846    3264       5
     840     843     846    3267       5     840     843     846    3270       5
     840     843     849    3273       5     840     843     849    3276       5
     840     843     849    3279       5     840     843     852    3282       5
     840     843     852    3285       5     840     843     852    3288       5
     837     834     831    3252       1     837     855     858    3294       1
     834     837     840    3258       4     834     837     840    3261       4
     834     837     855    3291       1     831     828     696    3060       3
     831     828    -696    3060       4     831     828     858    3294       1
     828     696     693    3054       5     828     696     693    3057       5
     828     696     699    3063       5     828     696     699    3066       5
     828     831     834    3255       1     828     858     855    3291       1
     825     795     705    3075       3     825     795    -705    3075       4
     825     795     798    3207       1     822     804     801    3210       1
     822     804     807    3213       4     822     804     807    3216       4
     819     810     807    3213       5     819     810     807    3216       5
     819     810     813    3219       5     819     810     813    3222       5
     819     810     813    3225       5     819     810     816    3228       5
     819     810     816    3231       5     819     810     816    3234       5
     816     810     807    3213       5     816     810     807    3216       5
     816     810     813    3219       5     816     810     813    3222       5
     816     810     813    3225       5     816     810     819    3237       5
     816     810     819    3240       5     816     810     819    3243       5
     813     810     807    3213       5     813     810     807    3216       5
     813     810     816    3228       5     813     810     816    3231       5
     813     810     816    3234       5     813     810     819    3237       5
     813     810     819    3240       5     813     810     819    3243       5
     807     804     801    3210       1     807     804     822    3246       1
     807     810     813    3219       5     807     810     813    3222       5
     807     810     813    3225       5     807     810     816    3228       5
     807     810     816    3231       5     807     810     816    3234       5
     807     810     819    3237       5     807     810     819    3240       5
     807     810     819    3243       5     804     801     798    3207       1
     804     822     825    3249       1     801     804     807    3213       4
     801     804     807    3216       4     801     804     822    3246       1
     798     795     705    3075       3     798     795    -705    3075       4
     798     795     825    3249       1     795     705     702    3069       5
     795     705     702    3072       5     795     705     708    3078       5
     795     705     708    3081       5     795     798     801    3210       1
     795     825     822    3246       1     792     762     714    3090       3
     792     762    -714    3090       4     792     762     765    3162       1
     789     771     768    3165       1     789     771     774    3168       4
     789     771     774    3171       4     786     777     774    3168       5
     786     777     774    3171       5     786     777     780    3174       5
     786     777     780    3177       5     786     777     780    3180       5
     786     777     783    3183       5     786     777     783    3186       5
     786     777     783    3189       5     783     777     774    3168       5
     783     777     774    3171       5     783     777     780    3174       5
     783     777     780    3177       5     783     777     780    3180       5
     783     777     786    3192       5     783     777     786    3195       5
     783     777     786    3198       5     780     777     774    3168       5
     780     777     774    3171       5     780     777     783    3183       5
     780     777     783    3186       5     780     777     783    3189       5
     780     777     786    3192       5     780     777     786    3195       5
     780     777     786    3198       5     774     771     768    3165       1
     774     771     789    3201       1     774     777     780    3174       5
     774     777     780    3177       5     774     777     780    3180       5
     774     777     783    3183       5     774     777     783    3186       5
     774     777     783    3189       5     774     777     786    3192       5
     774     777     786    3195       5     774     777     786    3198       5
     771     768     765    3162       1     771     789     792    3204       1
     768     771     774    3168       4     768     771     774    3171       4
     768     771     789    3201       1     765     762     714    3090       3
     765     762    -714    3090       4     765     762     792    3204       1
     762     714     711    3084       5     762     714     711    3087       5
     762     714     717    3093       5     762     714     717    3096       5
     762     765     768    3165       1     762     792     789    3201       1
     759     729     723    3105       3     759     729    -723    3105       4
     759     729     732    3117       1     756     738     735    3120       1
     756     738     741    3123       4     756     738     741    3126       4
     753     744     741    3123       5     753     744     741    3126       5
     753     744     747    3129       5     753     744     747    3132       5
     753     744     747    3135       5     753     744     750    3138       5
     753     744     750    3141       5     753     744     750    3144       5
     750     744     741    3123       5     750     744     741    3126       5
     750     744     747    3129       5     750     744     747    3132       5
     750     744     747    3135       5     750     744     753    3147       5
     750     744     753    3150       5     750     744     753    3153       5
     747     744     741    3123       5     747     744     741    3126       5
     747     744     750    3138       5     747     744     750    3141       5
     747     744     750    3144       5     747     744     753    3147       5
     747     744     753    3150       5     747     744     753    3153       5
     741     738     735    3120       1     741     738     756    3156       1
     741     744     747    3129       5     741     744     747    3132       5
     741     744     747    3135       5     741     744     750    3138       5
     741     744     750    3141       5     741     744     750    3144       5
     741     744     753    3147       5     741     744     753    3150       5
     741     744     753    3153       5     738     735     732    3117       1
     738     756     759    3159       1     735     738     741    3123       4
     735     738     741    3126       4     735     738     756    3156       1
     732     729     723    3105       3     732     729    -723    3105       4
     732     729     759    3159       1     729     723     720    3099       5
     729     723     720    3102       5     729     723     726    3108       5
     729     723     726    3111       5     729     723     726    3114       5
     729     732     735    3120       1     729     759     756    3156       1
     726     723     720    3099       9     726     723     720    3102       9
     723     720     717    3093       9     723     720     717    3096       9
     723     729     732    3117       1     723     729     759    3159       1
     720     717     714    3090       9     720     723     726    3108       9
     720     723     726    3111       9     720     723     726    3114       9
     717     714     711    3084       9     717     714     711    3087       9
     717     720     723    3105       9     714     711     708    3078       9
     714     711     708    3081       9     714     717     720    3099       9
     714     717     720    3102       9     714     762     765    3162       1
     714     762     792    3204       1     711     708     705    3075       9
     711     714     717    3093       9     711     714     717    3096       9
     708     705     702    3069       9     708     705     702    3072       9
     708     711     714    3090       9     705     702     699    3063       9
     705     702     699    3066       9     705     708     711    3084       9
     705     708     711    3087       9     705     795     798    3207       1
     705     795     825    3249       1     702     699     696    3060       9
     702     705     708    3078       9     702     705     708    3081       9
     699     696     693    3054       9     699     696     693    3057       9
     699     702     705    3075       9     696     693     690    3048       9
     696     693     690    3051       9     696     699     702    3069       9
     696     699     702    3072       9     696     828     831    3252       1
     696     828     858    3294       1     693     690     687    3045       9
     693     696     699    3063       9     693     696     699    3066       9
     690     687     684    3039       9     690     687     684    3042       9
     690     693     696    3060       9     687     684     681    3033       9
     687     684     681    3036       9     687     690     693    3054       9
     687     690     693    3057       9     687     861     864    3297       1
     687     861     891    3339       1     684     681     678    3030       9
     684     687     690    3048       9     684     687     690    3051       9
     681     678     675    3024       9     681     678     675    3027       9
     681     684     687    3045       9     678     675     672    3018       9
     678     675     672    3021       9     678     681     684    3039       9
     678     681     684    3042       9     678     894     897    3342       1
     678     894     924    3384       1     675     672     669    3015       9
     675     678     681    3033       9     675     678     681    3036       9
     672     669     666    3009       9     672     669     666    3012       9
     672     675     678    3030       9     669     666     663    3003       9
     669     666     663    3006       9     669     672     675    3024       9
     669     672     675    3027       9     669     927     930    3387       1
     669     927     957    3429       1     666     663     660    3000       9
     666     669     672    3018       9     666     669     672    3021       9
     663     660     657    2994       9     663     660     657    2997       9
     663     666     669    3015       9     660     657     654    2988       9
     660     657     654    2991       9     660     663     666    3009       9
     660     663     666    3012       9     660     960     963    3432       1
     660     960     990    3474       1     657     654     651    2985       9
     657     660     663    3003       9     657     660     663    3006       9
     654     651     648    2979       9     654     651     648    2982       9
     654     657     660    3000       9     651     648     645    2973       9
     651     648     645    2976       9     651     654     657    2994       9
     651     654     657    2997       9     651     993     996    3477       1
     651     993    1023    3519       1     648     645     642    2970       9
     648     651     654    2988       9     648     651     654    2991       9
     645     642     639    2964       9     645     642     639    2967       9
     645     648     651    2985       9     642     639     636    2958       9
     642     639     636    2961       9     642     645     648    2979       9
     642     645     648    2982       9     642    1026    1029    3522       1
     642    1026    1056    3564       1     639     636     633    2955       9
     639     642     645    2973       9     639     642     645    2976       9
     636     633     630    2949       9     636     633     630    2952       9
     636     639     642    2970       9     633     630     627    2943       9
     633     630     627    2946       9     633     636     639    2964       9
     633     636     639    2967       9     633    1059    1062    3567       1
     633    1059    1089    3609       1     630     633     636    2958       9
     630     633     636    2961       9     627     624    1092    3612       9
     627     624    1092    3615       9     627     630     633    2955       9
     624     621     618    2940       1     624     621    1632    4386       1
     624     627     630    2949       9     624     627     630    2952       9
     624    1092    1095    3618       9     624    1092    1095    3621       9
     624    1599    1602    4341       1     624    1599    1629    4383       1
     621     618     615    2937       1     621     624     627    2943       5
     621     624     627    2946       5     621     624    1092    3612       5
     621     624    1092    3615       5     621    1632    1635    4389       1
     618     621    1632    4386       1     615     612    1635    4389       1
     612     111     108    2217       5     612     111     108    2220       5
     612     111     114    2223       5     612     111     114    2226       5
     612     615     618    2940       1     612    1635    1632    4386       1
     609     579     582    2892       1     606     588     585    2895       1
     606     588     591    2898       4     606     588     591    2901       4
     603     594     591    2898       5     603     594     591    2901       5
     603     594     597    2904       5     603     594     597    2907       5
     603     594     597    2910       5     603     594     600    2913       5
     603     594     600    2916       5     603     594     600    2919       5
     600     594     591    2898       5     600     594     591    2901       5
     600     594     597    2904       5     600     594     597    2907       5
     600     594     597    2910       5     600     594     603    2922       5
     600     594     603    2925       5     600     594     603    2928       5
     597     594     591    2898       5     597     594     591    2901       5
     597     594     600    2913       5     597     594     600    2916       5
     597     594     600    2919       5     597     594     603    2922       5
     597     594     603    2925       5     597     594     603    2928       5
     591     588     585    2895       1     591     588     606    2931       1
     591     594     597    2904       5     591     594     597    2907       5
     591     594     597    2910       5     591     594     600    2913       5
     591     594     600    2916       5     591     594     600    2919       5
     591     594     603    2922       5     591     594     603    2925       5
     591     594     603    2928       5     588     585     582    2892       1
     588     606     609    2934       1     585     588     591    2898       4
     585     588     591    2901       4     585     588     606    2931       1
     582     579     609    2934       1     579     111     108    2217       5
     579     111     108    2220       5     579     111     114    2223       5
     579     111     114    2226       5     579     582     585    2895       1
     579     609     606    2931       1     576     546     120    2235       3
     576     546    -120    2235       4     576     546     549    2847       1
     573     555     552    2850       1     573     555     558    2853       4
     573     555     558    2856       4     570     561     558    2853       5
     570     561     558    2856       5     570     561     564    2859       5
     570     561     564    2862       5     570     561     564    2865       5
     570     561     567    2868       5     570     561     567    2871       5
     570     561     567    2874       5     567     561     558    2853       5
     567     561     558    2856       5     567     561     564    2859       5
     567     561     564    2862       5     567     561     564    2865       5
     567     561     570    2877       5     567     561     570    2880       5
     567     561     570    2883       5     564     561     558    2853       5
     564     561     558    2856       5     564     561     567    2868       5
     564     561     567    2871       5     564     561     567    2874       5
     564     561     570    2877       5     564     561     570    2880       5
     564     561     570    2883       5     558     555     552    2850       1
     558     555     573    2886       1     558     561     564    2859       5
     558     561     564    2862       5     558     561     564    2865       5
     558     561     567    2868       5     558     561     567    2871       5
     558     561     567    2874       5     558     561     570    2877       5
     558     561     570    2880       5     558     561     570    2883       5
     555     552     549    2847       1     555     573     576    2889       1
     552     555     558    2853       4     552     555     558    2856       4
     552     555     573    2886       1     549     546     120    2235       3
     549     546    -120    2235       4     549     546     576    2889       1
     546     120     117    2229       5     546     120     117    2232       5
     546     120     123    2238       5     546     120     123    2241       5
     546     549     552    2850       1     546     576     573    2886       1
     543     513     129    2250       3     543     513    -129    2250       4
     543     513     516    2802       1     540     522     519    2805       1
     540     522     525    2808       4     540     522     525    2811       4
     537     528     525    2808       5     537     528     525    2811       5
     537     528     531    2814       5     537     528     531    2817       5
     537     528     531    2820       5     537     528     534    2823       5
     537     528     534    2826       5     537     528     534    2829       5
     534     528     525    2808       5     534     528     525    2811       5
     534     528     531    2814       5     534     528     531    2817       5
     534     528     531    2820       5     534     528     537    2832       5
     534     528     537    2835       5     534     528     537    2838       5
     531     528     525    2808       5     531     528     525    2811       5
     531     528     534    2823       5     531     528     534    2826       5
     531     528     534    2829       5     531     528     537    2832       5
     531     528     537    2835       5     531     528     537    2838       5
     525     522     519    2805       1     525     522     540    2841       1
     525     528     531    2814       5     525     528     531    2817       5
     525     528     531    2820       5     525     528     534    2823       5
     525     528     534    2826       5     525     528     534    2829       5
     525     528     537    2832       5     525     528     537    2835       5
     525     528     537    2838       5     522     519     516    2802       1
     522     540     543    2844       1     519     522     525    2808       4
     519     522     525    2811       4     519     522     540    2841       1
     516     513     129    2250       3     516     513    -129    2250       4
     516     513     543    2844       1     513     129     126    2244       5
     513     129     126    2247       5     513     129     132    2253       5
     513     129     132    2256       5     513     516     519    2805       1
     513     543     540    2841       1     510     480     138    2265       3
     510     480    -138    2265       4     510     480     483    2757       1
     507     489     486    2760       1     507     489     492    2763       4
     507     489     492    2766       4     504     495     492    2763       5
     504     495     492    2766       5     504     495     498    2769       5
     504     495     498    2772       5     504     495     498    2775       5
     504     495     501    2778       5     504     495     501    2781       5
     504     495     501    2784       5     501     495     492    2763       5
     501     495     492    2766       5     501     495     498    2769       5
     501     495     498    2772       5     501     495     498    2775       5
     501     495     504    2787       5     501     495     504    2790       5
     501     495     504    2793       5     498     495     492    2763       5
     498     495     492    2766       5     498     495     501    2778       5
     498     495     501    2781       5     498     495     501    2784       5
     498     495     504    2787       5     498     495     504    2790       5
     498     495     504    2793       5     492     489     486    2760       1
     492     489     507    2796       1     492     495     498    2769       5
     492     495     498    2772       5     492     495     498    2775       5
     492     495     501    2778       5     492     495     501    2781       5
     492     495     501    2784       5     492     495     504    2787       5
     492     495     504    2790       5     492     495     504    2793       5
     489     486     483    2757       1     489     507     510    2799       1
     486     489     492    2763       4     486     489     492    2766       4
     486     489     507    2796       1     483     480     138    2265       3
     483     480    -138    2265       4     483     480     510    2799       1
     480     138     135    2259       5     480     138     135    2262       5
     480     138     141    2268       5     480     138     141    2271       5
     480     483     486    2760       1     480     510     507    2796       1
     477     447     147    2280       3     477     447    -147    2280       4
     477     447     450    2712       1     474     456     453    2715       1
     474     456     459    2718       4     474     456     459    2721       4
     471     462     459    2718       5     471     462     459    2721       5
     471     462     465    2724       5     471     462     465    2727       5
     471     462     465    2730       5     471     462     468    2733       5
     471     462     468    2736       5     471     462     468    2739       5
     468     462     459    2718       5     468     462     459    2721       5
     468     462     465    2724       5     468     462     465    2727       5
     468     462     465    2730       5     468     462     471    2742       5
     468     462     471    2745       5     468     462     471    2748       5
     465     462     459    2718       5     465     462     459    2721       5
     465     462     468    2733       5     465     462     468    2736       5
     465     462     468    2739       5     465     462     471    2742       5
     465     462     471    2745       5     465     462     471    2748       5
     459     456     453    2715       1     459     456     474    2751       1
     459     462     465    2724       5     459     462     465    2727       5
     459     462     465    2730       5     459     462     468    2733       5
     459     462     468    2736       5     459     462     468    2739       5
     459     462     471    2742       5     459     462     471    2745       5
     459     462     471    2748       5     456     453     450    2712       1
     456     474     477    2754       1     453     456     459    2718       4
     453     456     459    2721       4     453     456     474    2751       1
     450     447     147    2280       3     450     447    -147    2280       4
     450     447     477    2754       1     447     147     144    2274       5
     447     147     144    2277       5     447     147     150    2283       5
     447     147     150    2286       5     447     450     453    2715       1
     447     477     474    2751       1     444     414     156    2295       3
     444     414    -156    2295       4     444     414     417    2667       1
     441     423     420    2670       1     441     423     426    2673       4
     441     423     426    2676       4     438     429     426    2673       5
     438     429     426    2676       5     438     429     432    2679       5
     438     429     432    2682       5     438     429     432    2685       5
     438     429     435    2688       5     438     429     435    2691       5
     438     429     435    2694       5     435     429     426    2673       5
     435     429     426    2676       5     435     429     432    2679       5
     435     429     432    2682       5     435     429     432    2685       5
     435     429     438    2697       5     435     429     438    2700       5
     435     429     438    2703       5     432     429     426    2673       5
     432     429     426    2676       5     432     429     435    2688       5
     432     429     435    2691       5     432     429     435    2694       5
     432     429     438    2697       5     432     429     438    2700       5
     432     429     438    2703       5     426     423     420    2670       1
     426     423     441    2706       1     426     429     432    2679       5
     426     429     432    2682       5     426     429     432    2685       5
     426     429     435    2688       5     426     429     435    2691       5
     426     429     435    2694       5     426     429     438    2697       5
     426     429     438    2700       5     426     429     438    2703       5
     423     420     417    2667       1     423     441     444    2709       1
     420     423     426    2673       4     420     423     426    2676       4
     420     423     441    2706       1     417     414     156    2295       3
     417     414    -156    2295       4     417     414     444    2709       1
     414     156     153    2289       5     414     156     153    2292       5
     414     156     159    2298       5     414     156     159    2301       5
     414     417     420    2670       1     414     444     441    2706       1
     411     381     165    2310       3     411     381    -165    2310       4
     411     381     384    2622       1     408     390     387    2625       1
     408     390     393    2628       4     408     390     393    2631       4
     405     396     393    2628       5     405     396     393    2631       5
     405     396     399    2634       5     405     396     399    2637       5
     405     396     399    2640       5     405     396     402    2643       5
     405     396     402    2646       5     405     396     402    2649       5
     402     396     393    2628       5     402     396     393    2631       5
     402     396     399    2634       5     402     396     399    2637       5
     402     396     399    2640       5     402     396     405    2652       5
     402     396     405    2655       5     402     396     405    2658       5
     399     396     393    2628       5     399     396     393    2631       5
     399     396     402    2643       5     399     396     402    2646       5
     399     396     402    2649       5     399     396     405    2652       5
     399     396     405    2655       5     399     396     405    2658       5
     393     390     387    2625       1     393     390     408    2661       1
     393     396     399    2634       5     393     396     399    2637       5
     393     396     399    2640       5     393     396     402    2643       5
     393     396     402    2646       5     393     396     402    2649       5
     393     396     405    2652       5     393     396     405    2655       5
     393     396     405    2658       5     390     387     384    2622       1
     390     408     411    2664       1     387     390     393    2628       4
     387     390     393    2631       4     387     390     408    2661       1
     384     381     165    2310       3     384     381    -165    2310       4
     384     381     411    2664       1     381     165     162    2304       5
     381     165     162    2307       5     381     165     168    2313       5
     381     165     168    2316       5     381     384     387    2625       1
     381     411     408    2661       1     378     348     174    2325       3
     378     348    -174    2325       4     378     348     351    2577       1
     375     357     354    2580       1     375     357     360    2583       4
     375     357     360    2586       4     372     363     360    2583       5
     372     363     360    2586       5     372     363     366    2589       5
     372     363     366    2592       5     372     363     366    2595       5
     372     363     369    2598       5     372     363     369    2601       5
     372     363     369    2604       5     369     363     360    2583       5
     369     363     360    2586       5     369     363     366    2589       5
     369     363     366    2592       5     369     363     366    2595       5
     369     363     372    2607       5     369     363     372    2610       5
     369     363     372    2613       5     366     363     360    2583       5
     366     363     360    2586       5     366     363     369    2598       5
     366     363     369    2601       5     366     363     369    2604       5
     366     363     372    2607       5     366     363     372    2610       5
     366     363     372    2613       5     360     357     354    2580       1
     360     357     375    2616       1     360     363     366    2589       5
     360     363     366    2592       5     360     363     366    2595       5
     360     363     369    2598       5     360     363     369    2601       5
     360     363     369    2604       5     360     363     372    2607       5
     360     363     372    2610       5     360     363     372    2613       5
     357     354     351    2577       1     357     375     378    2619       1
     354     357     360    2583       4     354     357     360    2586       4
     354     357     375    2616       1     351     348     174    2325       3
     351     348    -174    2325       4     351     348     378    2619       1
     348     174     171    2319       5     348     174     171    2322       5
     348     174     177    2328       5     348     174     177    2331       5
     348     351     354    2580       1     348     378     375    2616       1
     345     315     183    2340       3     345     315    -183    2340       4
     345     315     318    2532       1     342     324     321    2535       1
     342     324     327    2538       4     342     324     327    2541       4
     339     330     327    2538       5     339     330     327    2541       5
     339     330     333    2544       5     339     330     333    2547       5
     339     330     333    2550       5     339     330     336    2553       5
     339     330     336    2556       5     339     330     336    2559       5
     336     330     327    2538       5     336     330     327    2541       5
     336     330     333    2544       5     336     330     333    2547       5
     336     330     333    2550       5     336     330     339    2562       5
     336     330     339    2565       5     336     330     339    2568       5
     333     330     327    2538       5     333     330     327    2541       5
     333     330     336    2553       5     333     330     336    2556       5
     333     330     336    2559       5     333     330     339    2562       5
     333     330     339    2565       5     333     330     339    2568       5
     327     324     321    2535       1     327     324     342    2571       1
     327     330     333    2544       5     327     330     333    2547       5
     327     330     333    2550       5     327     330     336    2553       5
     327     330     336    2556       5     327     330     336    2559       5
     327     330     339    2562       5     327     330     339    2565       5
     327     330     339    2568       5     324     321     318    2532       1
     324     342     345    2574       1     321     324     327    2538       4
     321     324     327    2541       4     321     324     342    2571       1
     318     315     183    2340       3     318     315    -183    2340       4
     318     315     345    2574       1     315     183     180    2334       5
     315     183     180    2337       5     315     183     186    2343       5
     315     183     186    2346       5     315     318     321    2535       1
     315     345     342    2571       1     312     282     192    2355       3
     312     282    -192    2355       4     312     282     285    2487       1
     309     291     288    2490       1     309     291     294    2493       4
     309     291     294    2496       4     306     297     294    2493       5
     306     297     294    2496       5     306     297     300    2499       5
     306     297     300    2502       5     306     297     300    2505       5
     306     297     303    2508       5     306     297     303    2511       5
     306     297     303    2514       5     303     297     294    2493       5
     303     297     294    2496       5     303     297     300    2499       5
     303     297     300    2502       5     303     297     300    2505       5
     303     297     306    2517       5     303     297     306    2520       5
     303     297     306    2523       5     300     297     294    2493       5
     300     297     294    2496       5     300     297     303    2508       5
     300     297     303    2511       5     300     297     303    2514       5
     300     297     306    2517       5     300     297     306    2520       5
     300     297     306    2523       5     294     291     288    2490       1
     294     291     309    2526       1     294     297     300    2499       5
     294     297     300    2502       5     294     297     300    2505       5
     294     297     303    2508       5     294     297     303    2511       5
     294     297     303    2514       5     294     297     306    2517       5
     294     297     306    2520       5     294     297     306    2523       5
     291     288     285    2487       1     291     309     312    2529       1
     288     291     294    2493       4     288     291     294    2496       4
     288     291     309    2526       1     285     282     192    2355       3
     285     282    -192    2355       4     285     282     312    2529       1
     282     192     189    2349       5     282     192     189    2352       5
     282     192     195    2358       5     282     192     195    2361       5
     282     285     288    2490       1     282     312     309    2526       1
     279     249     201    2370       3     279     249    -201    2370       4
     279     249     252    2442       1     276     258     255    2445       1
     276     258     261    2448       4     276     258     261    2451       4
     273     264     261    2448       5     273     264     261    2451       5
     273     264     267    2454       5     273     264     267    2457       5
     273     264     267    2460       5     273     264     270    2463       5
     273     264     270    2466       5     273     264     270    2469       5
     270     264     261    2448       5     270     264     261    2451       5
     270     264     267    2454       5     270     264     267    2457       5
     270     264     267    2460       5     270     264     273    2472       5
     270     264     273    2475       5     270     264     273    2478       5
     267     264     261    2448       5     267     264     261    2451       5
     267     264     270    2463       5     267     264     270    2466       5
     267     264     270    2469       5     267     264     273    2472       5
     267     264     273    2475       5     267     264     273    2478       5
     261     258     255    2445       1     261     258     276    2481       1
     261     264     267    2454       5     261     264     267    2457       5
     261     264     267    2460       5     261     264     270    2463       5
     261     264     270    2466       5     261     264     270    2469       5
     261     264     273    2472       5     261     264     273    2475       5
     261     264     273    2478       5     258     255     252    2442       1
     258     276     279    2484       1     255     258     261    2448       4
     255     258     261    2451       4     255     258     276    2481       1
     252     249     201    2370       3     252     249    -201    2370       4
     252     249     279    2484       1     249     201     198    2364       5
     249     201     198    2367       5     249     201     204    2373       5
     249     201     204    2376       5     249     252     255    2445       1
     249     279     276    2481       1     246     216     210    2385       3
     246     216    -210    2385       4     246     216     219    2397       1
     243     225     222    2400       1     243     225     228    2403       4
     243     225     228    2406       4     240     231     228    2403       5
     240     231     228    2406       5     240     231     234    2409       5
     240     231     234    2412       5     240     231     234    2415       5
     240     231     237    2418       5     240     231     237    2421       5
     240     231     237    2424       5     237     231     228    2403       5
     237     231     228    2406       5     237     231     234    2409       5
     237     231     234    2412       5     237     231     234    2415       5
     237     231     240    2427       5     237     231     240    2430       5
     237     231     240    2433       5     234     231     228    2403       5
     234     231     228    2406       5     234     231     237    2418       5
     234     231     237    2421       5     234     231     237    2424       5
     234     231     240    2427       5     234     231     240    2430       5
     234     231     240    2433       5     228     225     222    2400       1
     228     225     243    2436       1     228     231     234    2409       5
     228     231     234    2412       5     228     231     234    2415       5
     228     231     237    2418       5     228     231     237    2421       5
     228     231     237    2424       5     228     231     240    2427       5
     228     231     240    2430       5     228     231     240    2433       5
     225     222     219    2397       1     225     243     246    2439       1
     222     225     228    2403       4     222     225     228    2406       4
     222     225     243    2436       1     219     216     210    2385       3
     219     216    -210    2385       4     219     216     246    2439       1
     216     210     207    2379       5     216     210     207    2382       5
     216     210     213    2388       5     216     210     213    2391       5
     216     210     213    2394       5     216     219     222    2400       1
     216     246     243    2436       1     213     210     207    2379       9
     213     210     207    2382       9     210     207     204    2373       9
     210     207     204    2376       9     210     216     219    2397       1
     210     216     246    2439       1     207     204     201    2370       9
     207     210     213    2388       9     207     210     213    2391       9
     207     210     213    2394       9     204     201     198    2364       9
     204     201     198    2367       9     204     207     210    2385       9
     201     198     195    2358       9     201     198     195    2361       9
     201     204     207    2379       9     201     204     207    2382       9
     201     249     252    2442       1     201     249     279    2484       1
     198     195     192    2355       9     198     201     204    2373       9
     198     201     204    2376       9     195     192     189    2349       9
     195     192     189    2352       9     195     198     201    2370       9
     192     189     186    2343       9     192     189     186    2346       9
     192     195     198    2364       9     192     195     198    2367       9
     192     282     285    2487       1     192     282     312    2529       1
     189     186     183    2340       9     189     192     195    2358       9
     189     192     195    2361       9     186     183     180    2334       9
     186     183     180    2337       9     186     189     192    2355       9
     183     180     177    2328       9     183     180     177    2331       9
     183     186     189    2349       9     183     186     189    2352       9
     183     315     318    2532       1     183     315     345    2574       1
     180     177     174    2325       9     180     183     186    2343       9
     180     183     186    2346       9     177     174     171    2319       9
     177     174     171    2322       9     177     180     183    2340       9
     174     171     168    2313       9     174     171     168    2316       9
     174     177     180    2334       9     174     177     180    2337       9
     174     348     351    2577       1     174     348     378    2619       1
     171     168     165    2310       9     171     174     177    2328       9
     171     174     177    2331       9     168     165     162    2304       9
     168     165     162    2307       9     168     171     174    2325       9
     165     162     159    2298       9     165     162     159    2301       9
     165     168     171    2319       9     165     168     171    2322       9
     165     381     384    2622       1     165     381     411    2664       1
     162     159     156    2295       9     162     165     168    2313       9
     162     165     168    2316       9     159     156     153    2289       9
     159     156     153    2292       9     159     162     165    2310       9
     156     153     150    2283       9     156     153     150    2286       9
     156     159     162    2304       9     156     159     162    2307       9
     156     414     417    2667       1     156     414     444    2709       1
     153     150     147    2280       9     153     156     159    2298       9
     153     156     159    2301       9     150     147     144    2274       9
     150     147     144    2277       9     150     153     156    2295       9
     147     144     141    2268       9     147     144     141    2271       9
     147     150     153    2289       9     147     150     153    2292       9
     147     447     450    2712       1     147     447     477    2754       1
     144     141     138    2265       9     144     147     150    2283       9
     144     147     150    2286       9     141     138     135    2259       9
     141     138     135    2262       9     141     144     147    2280       9
     138     135     132    2253       9     138     135     132    2256       9
     138     141     144    2274       9     138     141     144    2277       9
     138     480     483    2757       1     138     480     510    2799       1
     135     132     129    2250       9     135     138     141    2268       9
     135     138     141    2271       9     132     129     126    2244       9
     132     129     126    2247       9     132     135     138    2265       9
     129     126     123    2238       9     129     126     123    2241       9
     129     132     135    2259       9     129     132     135    2262       9
     129     513     516    2802       1     129     513     543    2844       1
     126     123     120    2235       9     126     129     132    2253       9
     126     129     132    2256       9     123     120     117    2229       9
     123     120     117    2232       9     123     126     129    2250       9
     120     117     114    2223       9     120     117     114    2226       9
     120     123     126    2244       9     120     123     126    2247       9
     120     546     549    2847       1     120     546     576    2889       1
     117     120     123    2238       9     117     120     123    2241       9
     114     111     108    2217       9     114     111     108    2220       9
     114     117     120    2235       9     111     108     105    2211       9
     111     108     105    2214       9     111     114     117    2229       9
     111     114     117    2232       9     111     579     582    2892       1
     111     579     609    2934       1     111     612     615    2937       1
     111     612    1635    4389       1     108     105     102    2208       9
     108     111     114    2223       9     108     111     114    2226       9
     105     102      99    2202       9     105     102      99    2205       9
     102      99      96    2196       9     102      99      96    2199       9
     102     105     108    2217       9     102     105     108    2220       9
     102    1638    1641    4392       1     102    1638    1668    4434       1
      99      96      93    2193       9      99     102     105    2211       9
      99     102     105    2214       9      96      93      90    2187       9
      96      93      90    2190       9      96      99     102    2208       9
      93      90      87    2181       9      93      90      87    2184       9
      93      96      99    2202       9      93      96      99    2205       9
      93    1671    1674    4437       1      93    1671    1701    4479       1
      90      87      84    2178       9      90      93      96    2196       9
      90      93      96    2199       9      87      84      81    2172       9
      87      84      81    2175       9      87      90      93    2193       9
      84      81      78    2166       9      84      81      78    2169       9
      84      87      90    2187       9      84      87      90    2190       9
      84    1704    1707    4482       1      84    1704    1734    4524       1
      81      78      75    2163       9      81      84      87    2181       9
      81      84      87    2184       9      78      75      72    2157       9
      78      75      72    2160       9      78      81      84    2178       9
      75      72      69    2151       9      75      72      69    2154       9
      75      78      81    2172       9      75      78      81    2175       9
      75    1737    1740    4527       1      75    1737    1767    4569       1
      72      69      66    2148       9      72      75      78    2166       9
      72      75      78    2169       9      69      66      63    2142       9
      69      66      63    2145       9      69      72      75    2163       9
      66      63      60    2136       9      66      63      60    2139       9
      66      69      72    2157       9      66      69      72    2160       9
      66    1770    1773    4572       1      66    1770    1800    4614       1
      63      60      57    2133       9      63      66      69    2151       9
      63      66      69    2154       9      60      57      54    2127       9
      60      57      54    2130       9      60      63      66    2148       9
      57      54      51    2121       9      57      54      51    2124       9
      57      60      63    2142       9      57      60      63    2145       9
      57    1803    1806    4617       1      57    1803    1833    4659       1
      54      51      48    2118       9      54      57      60    2136       9
      54      57      60    2139       9      51      48      45    2112       9
      51      48      45    2115       9      51      54      57    2133       9
      48      45      42    2106       9      48      45      42    2109       9
      48      51      54    2127       9      48      51      54    2130       9
      48    1836    1839    4662       1      48    1836    1866    4704       1
      45      42      39    2103       9      45      48      51    2121       9
      45      48      51    2124       9      42      39      36    2097       9
      42      39      36    2100       9      42      45      48    2118       9
      39      36      33    2091       9      39      36      33    2094       9
      39      42      45    2112       9      39      42      45    2115       9
      39    1869    1872    4707       1      39    1869    1899    4749       1
      36      33      30    2088       9      36      39      42    2106       9
      36      39      42    2109       9      33      30      27    2082       9
      33      30      27    2085       9      33      36      39    2103       9
      30      27      24    2076       9      30      27      24    2079       9
      30      33      36    2097       9      30      33      36    2100       9
      30    1902    1905    4752       1      30    1902    1932    4794       1
      27      24      21    2073       9      27      30      33    2091       9
      27      30      33    2094       9      24      21      18    2067       9
      24      21      18    2070       9      24      27      30    2088       9
      21      18      15    2061       9      21      18      15    2064       9
      21      24      27    2082       9      21      24      27    2085       9
      21    1935    1938    4797       1      21    1935    1965    4839       1
      18      15      12    2058       9      18      21      24    2076       9
      18      21      24    2079       9      15      12       9    2052       9
      15      12       9    2055       9      15      18      21    2073       9
      12       9       6    2046       9      12       9       6    2049       9
      12      15      18    2067       9      12      15      18    2070       9
      12    1968    1971    4842       1      12    1968    1998    4884       1
       9       6       3    2043       9       9      12      15    2061       9
       9      12      15    2064       9    2034       0       3       6       9
    2037       0       3       6       9    2040       0       3       6       9
       6       9      12    2058       9       3       6       9    2052       9
       3       6       9    2055       9       3    2001    2004    4887       1
       3    2001    2031    4929       1       0       3       6    2046       9
       0       3       6    2049       9    2001    2028   -2031   -4929      12
    2010    2031   -2028   -4926      12    2004    2010   -2007   -4890      12
    2001    2007   -2004   -4887      12    1968    1995   -1998   -4884      12
    1977    1998   -1995   -4881      12    1971    1977   -1974   -4845      12
    1968    1974   -1971   -4842      12    1935    1962   -1965   -4839      12
    1944    1965   -1962   -4836      12    1938    1944   -1941   -4800      12
    1935    1941   -1938   -4797      12    1902    1929   -1932   -4794      12
    1911    1932   -1929   -4791      12    1905    1911   -1908   -4755      12
    1902    1908   -1905   -4752      12    1869    1896   -1899   -4749      12
    1878    1899   -1896   -4746      12    1872    1878   -1875   -4710      12
    1869    1875   -1872   -4707      12    1836    1863   -1866   -4704      12
    1845    1866   -1863   -4701      12    1839    1845   -1842   -4665      12
    1836    1842   -1839   -4662      12    1803    1830   -1833   -4659      12
    1812    1833   -1830   -4656      12    1806    1812   -1809   -4620      12
    1803    1809   -1806   -4617      12    1770    1797   -1800   -4614      12
    1779    1800   -1797   -4611      12    1773    1779   -1776   -4575      12
    1770    1776   -1773   -4572      12    1737    1764   -1767   -4569      12
    1746    1767   -1764   -4566      12    1740    1746   -1743   -4530      12
    1737    1743   -1740   -4527      12    1704    1731   -1734   -4524      12
    1713    1734   -1731   -4521      12    1707    1713   -1710   -4485      12
    1704    1710   -1707   -4482      12    1671    1698   -1701   -4479      12
    1680    1701   -1698   -4476      12    1674    1680   -1677   -4440      12
    1671    1677   -1674   -4437      12    1638    1665   -1668   -4434      12
    1647    1668   -1665   -4431      12    1641    1647   -1644   -4395      12
    1638    1644   -1641   -4392      12     612    1632   -1635   -4389      12
     621    1635   -1632   -4386      12    1599    1626   -1629   -4383      12
    1608    1629   -1626   -4380      12    1602    1608   -1605   -4344      12
    1599    1605   -1602   -4341      12    1566    1593   -1596   -4338      12
    1575    1596   -1593   -4335      12    1569    1575   -1572   -4299      12
    1566    1572   -1569   -4296      12    1533    1560   -1563   -4293      12
    1542    1563   -1560   -4290      12    1536    1542   -1539   -4254      12
    1533    1539   -1536   -4251      12    1500    1527   -1530   -4248      12
    1509    1530   -1527   -4245      12    1503    1509   -1506   -4209      12
    1500    1506   -1503   -4206      12    1467    1494   -1497   -4203      12
    1476    1497   -1494   -4200      12    1470    1476   -1473   -4164      12
    1467    1473   -1470   -4161      12    1434    1461   -1464   -4158      12
    1443    1464   -1461   -4155      12    1437    1443   -1440   -4119      12
    1434    1440   -1437   -4116      12    1401    1428   -1431   -4113      12
    1410    1431   -1428   -4110      12    1404    1410   -1407   -4074      12
    1401    1407   -1404   -4071      12    1368    1395   -1398   -4068      12
    1377    1398   -1395   -4065      12    1371    1377   -1374   -4029      12
    1368    1374   -1371   -4026      12    1335    1362   -1365   -4023      12
    1344    1365   -1362   -4020      12    1338    1344   -1341   -3984      12
    1335    1341   -1338   -3981      12    1302    1329   -1332   -3978      12
    1311    1332   -1329   -3975      12    1305    1311   -1308   -3939      12
    1302    1308   -1305   -3936      12    1269    1296   -1299   -3933      12
    1278    1299   -1296   -3930      12    1272    1278   -1275   -3894      12
    1269    1275   -1272   -3891      12    1236    1263   -1266   -3888      12
    1245    1266   -1263   -3885      12    1239    1245   -1242   -3849      12
    1236    1242   -1239   -3846      12    1203    1230   -1233   -3843      12
    1212    1233   -1230   -3840      12    1206    1212   -1209   -3804      12
    1203    1209   -1206   -3801      12    1059    1086   -1089   -3609      12
    1068    1089   -1086   -3606      12    1062    1068   -1065   -3570      12
    1059    1065   -1062   -3567      12    1026    1053   -1056   -3564      12
    1035    1056   -1053   -3561      12    1029    1035   -1032   -3525      12
    1026    1032   -1029   -3522      12     993    1020   -1023   -3519      12
    1002    1023   -1020   -3516      12     996    1002    -999   -3480      12
     993     999    -996   -3477      12     960     987    -990   -3474      12
     969     990    -987   -3471      12     963     969    -966   -3435      12
     960     966    -963   -3432      12     927     954    -957   -3429      12
     936     957    -954   -3426      12     930     936    -933   -3390      12
     927     933    -930   -3387      12     894     921    -924   -3384      12
     903     924    -921   -3381      12     897     903    -900   -3345      12
     894     900    -897   -3342      12     861     888    -891   -3339      12
     870     891    -888   -3336      12     864     870    -867   -3300      12
     861     867    -864   -3297      12     828     855    -858   -3294      12
     837     858    -855   -3291      12     831     837    -834   -3255      12
     828     834    -831   -3252      12     795     822    -825   -3249      12
     804     825    -822   -3246      12     798     804    -801   -3210      12
     795     801    -798   -3207      12     762     789    -792   -3204      12
     771     792    -789   -3201      12     765     771    -768   -3165      12
     762     768    -765   -3162      12     729     756    -759   -3159      12
     738     759    -756   -3156      12     732     738    -735   -3120      12
     729     735    -732   -3117      12     615     621    -618   -2940      12
     612     618    -615   -2937      12     579     606    -609   -2934      12
     588     609    -606   -2931      12     582     588    -585   -2895      12
     579     585    -582   -2892      12     546     573    -576   -2889      12
     555     576    -573   -2886      12     549     555    -552   -2850      12
     546     552    -549   -2847      12     513     540    -543   -2844      12
     522     543    -540   -2841      12     516     522    -519   -2805      12
     513     519    -516   -2802      12     480     507    -510   -2799      12
     489     510    -507   -2796      12     483     489    -486   -2760      12
     480     486    -483   -2757      12     447     474    -477   -2754      12
     456     477    -474   -2751      12     450     456    -453   -2715      12
     447     453    -450   -2712      12     414     441    -444   -2709      12
     423     444    -441   -2706      12     417     423    -420   -2670      12
     414     420    -417   -2667      12     381     408    -411   -2664      12
     390     411    -408   -2661      12     384     390    -387   -2625      12
     381     387    -384   -2622      12     348     375    -378   -2619      12
     357     378    -375   -2616      12     351     357    -354   -2580      12
     348     354    -351   -2577      12     315     342    -345   -2574      12
     324     345    -342   -2571      12     318     324    -321   -2535      12
     315     321    -318   -2532      12     282     309    -312   -2529      12
     291     312    -309   -2526      12     285     291    -288   -2490      12
     282     288    -285   -2487      12     249     276    -279   -2484      12
     258     279    -276   -2481      12     252     258    -255   -2445      12
     249     255    -252   -2442      12     216     243    -246   -2439      12
     225     246    -243   -2436      12     219     225    -222   -2400      12
     216     222    -219   -2397      12
%FLAG DIHEDRALS_WITHOUT_HYDROGEN                                                
%FORMAT(10I8)                                                                   
    2016    2013    2010    2028       4    2013    2010    2028    2031       1
    2010    2013    2016    2019       6    2010    2013   -2016    2019       7
    2010    2013    2016    2022       6    2010    2013   -2016    2022       7
    2010    2013    2016    2025       6    2010    2013   -2016    2025       7
    2007    2004    2001    2031       1    2007    2010    2013    2016       4
    2007    2010   -2028    2031       1    2004    2001    2031    2028       1
    2004    2007    2010    2013       1    2004    2007   -2010    2028       1
    2001    2004    2007    2010       1    2001    2031   -2028    2010       1
    1983    1980    1977    1995       4    1980    1977    1995    1998       1
    1977    1980    1983    1986       6    1977    1980   -1983    1986       7
    1977    1980    1983    1989       6    1977    1980   -1983    1989       7
    1977    1980    1983    1992       6    1977    1980   -1983    1992       7
    1974    1971    1968    1998       1    1974    1977    1980    1983       4
    1974    1977   -1995    1998       1    1971    1968    1998    1995       1
    1971    1974    1977    1980       1    1971    1974   -1977    1995       1
    1968    1971    1974    1977       1    1968    1998   -1995    1977       1
    1950    1947    1944    1962       4    1947    1944    1962    1965       1
    1944    1947    1950    1953       6    1944    1947   -1950    1953       7
    1944    1947    1950    1956       6    1944    1947   -1950    1956       7
    1944    1947    1950    1959       6    1944    1947   -1950    1959       7
    1941    1938    1935    1965       1    1941    1944    1947    1950       4
    1941    1944   -1962    1965       1    1938    1935    1965    1962       1
    1938    1941    1944    1947       1    1938    1941   -1944    1962       1
    1935    1938    1941    1944       1    1935    1965   -1962    1944       1
    1917    1914    1911    1929       4    1914    1911    1929    1932       1
    1911    1914    1917    1920       6    1911    1914   -1917    1920       7
    1911    1914    1917    1923       6    1911    1914   -1917    1923       7
    1911    1914    1917    1926       6    1911    1914   -1917    1926       7
    1908    1905    1902    1932       1    1908    1911    1914    1917       4
    1908    1911   -1929    1932       1    1905    1902    1932    1929       1
    1905    1908    1911    1914       1    1905    1908   -1911    1929       1
    1902    1905    1908    1911       1    1902    1932   -1929    1911       1
    1884    1881    1878    1896       4    1881    1878    1896    1899       1
    1878    1881    1884    1887       6    1878    1881   -1884    1887       7
    1878    1881    1884    1890       6    1878    1881   -1884    1890       7
    1878    1881    1884    1893       6    1878    1881   -1884    1893       7
    1875    1872    1869    1899       1    1875    1878    1881    1884       4
    1875    1878   -1896    1899       1    1872    1869    1899    1896       1
    1872    1875    1878    1881       1    1872    1875   -1878    1896       1
    1869    1872    1875    1878       1    1869    1899   -1896    1878       1
    1851    1848    1845    1863       4    1848    1845    1863    1866       1
    1845    1848    1851    1854       6    1845    1848   -1851    1854       7
    1845    1848    1851    1857       6    1845    1848   -1851    1857       7
    1845    1848    1851    1860       6    1845    1848   -1851    1860       7
    1842    1839    1836    1866       1    1842    1845    1848    1851       4
    1842    1845   -1863    1866       1    1839    1836    1866    1863       1
    1839    1842    1845    1848       1    1839    1842   -1845    1863       1
    1836    1839    1842    1845       1    1836    1866   -1863    1845       1
    1818    1815    1812    1830       4    1815    1812    1830    1833       1
    1812    1815    1818    1821       6    1812    1815   -1818    1821       7
    1812    1815    1818    1824       6    1812    1815   -1818    1824       7
    1812    1815    1818    1827       6    1812    1815   -1818    1827       7
    1809    1806    1803    1833       1    1809    1812    1815    1818       4
    1809    1812   -1830    1833       1    1806    1803    1833    1830       1
    1806    1809    1812    1815       1    1806    1809   -1812    1830       1
    1803    1806    1809    1812       1    1803    1833   -1830    1812       1
    1785    1782    1779    1797       4    1782    1779    1797    1800       1
    1779    1782    1785    1788       6    1779    1782   -1785    1788       7
    1779    1782    1785    1791       6    1779    1782   -1785    1791       7
    1779    1782    1785    1794       6    1779    1782   -1785    1794       7
    1776    1773    1770    1800       1    1776    1779    1782    1785       4
    1776    1779   -1797    1800       1    1773    1770    1800    1797       1
    1773    1776    1779    1782       1    1773    1776   -1779    1797       1
    1770    1773    1776    1779       1    1770    1800   -1797    1779       1
    1752    1749    1746    1764       4    1749    1746    1764    1767       1
    1746    1749    1752    1755       6    1746    1749   -1752    1755       7
    1746    1749    1752    1758       6    1746    1749   -1752    1758       7
    1746    1749    1752    1761       6    1746    1749   -1752    1761       7
    1743    1740    1737    1767       1    1743    1746    1749    1752       4
    1743    1746   -1764    1767       1    1740    1737    1767    1764       1
    1740    1743    1746    1749       1    1740    1743   -1746    1764       1
    1737    1740    1743    1746       1    1737    1767   -1764    1746       1
    1719    1716    1713    1731       4    1716    1713    1731    1734       1
    1713    1716    1719    1722       6    1713    1716   -1719    1722       7
    1713    1716    1719    1725       6    1713    1716   -1719    1725       7
    1713    1716    1719    1728       6    1713    1716   -1719    1728       7
    1710    1707    1704    1734       1    1710    1713    1716    1719       4
    1710    1713   -1731    1734       1    1707    1704    1734    1731       1
    1707    1710    1713    1716       1    1707    1710   -1713    1731       1
    1704    1707    1710    1713       1    1704    1734   -1731    1713       1
    1686    1683    1680    1698       4    1683    1680    1698    1701       1
    1680    1683    1686    1689       6    1680    1683   -1686    1689       7
    1680    1683    1686    1692       6    1680    1683   -1686    1692       7
    1680    1683    1686    1695       6    1680    1683   -1686    1695       7
    1677    1674    1671    1701       1    1677    1680    1683    1686       4
    1677    1680   -1698    1701       1    1674    1671    1701    1698       1
    1674    1677    1680    1683       1    1674    1677   -1680    1698       1
    1671    1674    1677    1680       1    1671    1701   -1698    1680       1
    1653    1650    1647    1665       4    1650    1647    1665    1668       1
    1647    1650    1653    1656       6    1647    1650   -1653    1656       7
    1647    1650    1653    1659       6    1647    1650   -1653    1659       7
    1647    1650    1653    1662       6    1647    1650   -1653    1662       7
    1644    1641    1638    1668       1    1644    1647    1650    1653       4
    1644    1647   -1665    1668       1    1641    1638    1668    1665       1
    1641    1644    1647    1650       1    1641    1644   -1647    1665       1
    1638    1641    1644    1647       1    1638    1668   -1665    1647       1
    1614    1611    1608    1626       4    1611    1608    1626    1629       1
    1608    1611    1614    1617       6    1608    1611   -1614    1617       7
    1608    1611    1614    1620       6    1608    1611   -1614    1620       7
    1608    1611    1614    1623       6    1608    1611   -1614    1623       7
    1605    1602    1599    1629       1    1605    1608    1611    1614       4
    1605    1608   -1626    1629       1    1602    1599    1629    1626       1
    1602    1605    1608    1611       1    1602    1605   -1608    1626       1
    1599     624     621    1632       8    1599    1602    1605    1608       1
    1599    1629   -1626    1608       1    1581    1578    1575    1593       4
    1578    1575    1593    1596       1    1575    1578    1581    1584       6
    1575    1578   -1581    1584       7    1575    1578    1581    1587       6
    1575    1578   -1581    1587       7    1575    1578    1581    1590       6
    1575    1578   -1581    1590       7    1572    1569    1566    1596       1
    1572    1575    1578    1581       4    1572    1575   -1593    1596       1
    1569    1566    1596    1593       1    1569    1572    1575    1578       1
    1569    1572   -1575    1593       1    1566    1569    1572    1575       1
    1566    1596   -1593    1575       1    1548    1545    1542    1560       4
    1545    1542    1560    1563       1    1542    1545    1548    1551       6
    1542    1545   -1548    1551       7    1542    1545    1548    1554       6
    1542    1545   -1548    1554       7    1542    1545    1548    1557       6
    1542    1545   -1548    1557       7    1539    1536    1533    1563       1
    1539    1542    1545    1548       4    1539    1542   -1560    1563       1
    1536    1533    1563    1560       1    1536    1539    1542    1545       1
    1536    1539   -1542    1560       1    1533    1536    1539    1542       1
    1533    1563   -1560    1542       1    1515    1512    1509    1527       4
    1512    1509    1527    1530       1    1509    1512    1515    1518       6
    1509    1512   -1515    1518       7    1509    1512    1515    1521       6
    1509    1512   -1515    1521       7    1509    1512    1515    1524       6
    1509    1512   -1515    1524       7    1506    1503    1500    1530       1
    1506    1509    1512    1515       4    1506    1509   -1527    1530       1
    1503    1500    1530    1527       1    1503    1506    1509    1512       1
    1503    1506   -1509    1527       1    1500    1503    1506    1509       1
    1500    1530   -1527    1509       1    1482    1479    1476    1494       4
    1479    1476    1494    1497       1    1476    1479    1482    1485       6
    1476    1479   -1482    1485       7    1476    1479    1482    1488       6
    1476    1479   -1482    1488       7    1476    1479    1482    1491       6
    1476    1479   -1482    1491       7    1473    1470    1467    1497       1
    1473    1476    1479    1482       4    1473    1476   -1494    1497       1
    1470    1467    1497    1494       1    1470    1473    1476    1479       1
    1470    1473   -1476    1494       1    1467    1470    1473    1476       1
    1467    1497   -1494    1476       1    1449    1446    1443    1461       4
    1446    1443    1461    1464       1    1443    1446    1449    1452       6
    1443    1446   -1449    1452       7    1443    1446    1449    1455       6
    1443    1446   -1449    1455       7    1443    1446    1449    1458       6
    1443    1446   -1449    1458       7    1440    1437    1434    1464       1
    1440    1443    1446    1449       4    1440    1443   -1461    1464       1
    1437    1434    1464    1461       1    1437    1440    1443    1446       1
    1437    1440   -1443    1461       1    1434    1437    1440    1443       1
    1434    1464   -1461    1443       1    1416    1413    1410    1428       4
    1413    1410    1428    1431       1    1410    1413    1416    1419       6
    1410    1413   -1416    1419       7    1410    1413    1416    1422       6
    1410    1413   -1416    1422       7    1410    1413    1416    1425       6
    1410    1413   -1416    1425       7    1407    1404    1401    1431       1
    1407    1410    1413    1416       4    1407    1410   -1428    1431       1
    1404    1401    1431    1428       1    1404    1407    1410    1413       1
    1404    1407   -1410    1428       1    1401    1404    1407    1410       1
    1401    1431   -1428    1410       1    1383    1380    1377    1395       4
    1380    1377    1395    1398       1    1377    1380    1383    1386       6
    1377    1380   -1383    1386       7    1377    1380    1383    1389       6
    1377    1380   -1383    1389       7    1377    1380    1383    1392       6
    1377    1380   -1383    1392       7    1374    1371    1368    1398       1
    1374    1377    1380    1383       4    1374    1377   -1395    1398       1
    1371    1368    1398    1395       1    1371    1374    1377    1380       1
    1371    1374   -1377    1395       1    1368    1371    1374    1377       1
    1368    1398   -1395    1377       1    1350    1347    1344    1362       4
    1347    1344    1362    1365       1    1344    1347    1350    1353       6
    1344    1347   -1350    1353       7    1344    1347    1350    1356       6
    1344    1347   -1350    1356       7    1344    1347    1350    1359       6
    1344    1347   -1350    1359       7    1341    1338    1335    1365       1
    1341    1344    1347    1350       4    1341    1344   -1362    1365       1
    1338    1335    1365    1362       1    1338    1341    1344    1347       1
    1338    1341   -1344    1362       1    1335    1338    1341    1344       1
    1335    1365   -1362    1344       1    1317    1314    1311    1329       4
    1314    1311    1329    1332       1    1311    1314    1317    1320       6
    1311    1314   -1317    1320       7    1311    1314    1317    1323       6
    1311    1314   -1317    1323       7    1311    1314    1317    1326       6
    1311    1314   -1317    1326       7    1308    1305    1302    1332       1
    1308    1311    1314    1317       4    1308    1311   -1329    1332       1
    1305    1302    1332    1329       1    1305    1308    1311    1314       1
    1305    1308   -1311    1329       1    1302    1305    1308    1311       1
    1302    1332   -1329    1311       1    1284    1281    1278    1296       4
    1281    1278    1296    1299       1    1278    1281    1284    1287       6
    1278    1281   -1284    1287       7    1278    1281    1284    1290       6
    1278    1281   -1284    1290       7    1278    1281    1284    1293       6
    1278    1281   -1284    1293       7    1275    1272    1269    1299       1
    1275    1278    1281    1284       4    1275    1278   -1296    1299       1
    1272    1269    1299    1296       1    1272    1275    1278    1281       1
    1272    1275   -1278    1296       1    1269    1272    1275    1278       1
    1269    1299   -1296    1278       1    1251    1248    1245    1263       4
    1248    1245    1263    1266       1    1245    1248    1251    1254       6
    1245    1248   -1251    1254       7    1245    1248    1251    1257       6
    1245    1248   -1251    1257       7    1245    1248    1251    1260       6
    1245    1248   -1251    1260       7    1242    1239    1236    1266       1
    1242    1245    1248    1251       4    1242    1245   -1263    1266       1
    1239    1236    1266    1263       1    1239    1242    1245    1248       1
    1239    1242   -1245    1263       1    1236    1239    1242    1245       1
    1236    1266   -1263    1245       1    1218    1215    1212    1230       4
    1215    1212    1230    1233       1    1212    1215    1218    1221       6
    1212    1215   -1218    1221       7    1212    1215    1218    1224       6
    1212    1215   -1218    1224       7    1212    1215    1218    1227       6
    1212    1215   -1218    1227       7    1209    1206    1203    1233       1
    1209    1212    1215    1218       4    1209    1212   -1230    1233       1
    1206    1203    1233    1230       1    1206    1209    1212    1215       1
    1206    1209   -1212    1230       1    1203    1206    1209    1212       1
    1203    1233   -1230    1212       1    1200    1197    1203    1206      10
    1200    1197    1203    1233      10    1197    1203    1206    1209       1
    1197    1203    1233    1230       1    1194    1191    1188    1236       5
    1194    1197    1203    1206      10    1194    1197    1203    1233      10
    1191    1188    1236    1239      10    1191    1188    1236    1266      10
    1191    1194    1197    1200      11    1191    1194    1197    1203       5
    1188    1191    1194    1197      11    1188    1236    1239    1242       1
    1188    1236    1266    1263       1    1185    1182    1179    1269       5
    1185    1188    1191    1194      11    1185    1188    1236    1239      10
    1185    1188    1236    1266      10    1182    1179    1269    1272      10
    1182    1179    1269    1299      10    1182    1185    1188    1191      11
    1182    1185    1188    1236       5    1179    1182    1185    1188      11
    1179    1269    1272    1275       1    1179    1269    1299    1296       1
    1176    1173    1170    1302       5    1176    1179    1182    1185      11
    1176    1179    1269    1272      10    1176    1179    1269    1299      10
    1173    1170    1302    1305      10    1173    1170    1302    1332      10
    1173    1176    1179    1182      11    1173    1176    1179    1269       5
    1170    1173    1176    1179      11    1170    1302    1305    1308       1
    1170    1302    1332    1329       1    1167    1164    1161    1335       5
    1167    1170    1173    1176      11    1167    1170    1302    1305      10
    1167    1170    1302    1332      10    1164    1161    1335    1338      10
    1164    1161    1335    1365      10    1164    1167    1170    1173      11
    1164    1167    1170    1302       5    1161    1164    1167    1170      11
    1161    1335    1338    1341       1    1161    1335    1365    1362       1
    1158    1155    1152    1368       5    1158    1161    1164    1167      11
    1158    1161    1335    1338      10    1158    1161    1335    1365      10
    1155    1152    1368    1371      10    1155    1152    1368    1398      10
    1155    1158    1161    1164      11    1155    1158    1161    1335       5
    1152    1155    1158    1161      11    1152    1368    1371    1374       1
    1152    1368    1398    1395       1    1149    1146    1143    1401       5
    1149    1152    1155    1158      11    1149    1152    1368    1371      10
    1149    1152    1368    1398      10    1146    1143    1401    1404      10
    1146    1143    1401    1431      10    1146    1149    1152    1155      11
    1146    1149    1152    1368       5    1143    1146    1149    1152      11
    1143    1401    1404    1407       1    1143    1401    1431    1428       1
    1140    1137    1134    1434       5    1140    1143    1146    1149      11
    1140    1143    1401    1404      10    1140    1143    1401    1431      10
    1137    1134    1434    1437      10    1137    1134    1434    1464      10
    1137    1140    1143    1146      11    1137    1140    1143    1401       5
    1134    1137    1140    1143      11    1134    1434    1437    1440       1
    1134    1434    1464    1461       1    1131    1128    1125    1467       5
    1131    1134    1137    1140      11    1131    1134    1434    1437      10
    1131    1134    1434    1464      10    1128    1125    1467    1470      10
    1128    1125    1467    1497      10    1128    1131    1134    1137      11
    1128    1131    1134    1434       5    1125    1128    1131    1134      11
    1125    1467    1470    1473       1    1125    1467    1497    1494       1
    1122    1119    1116    1500       5    1122    1125    1128    1131      11
    1122    1125    1467    1470      10    1122    1125    1467    1497      10
    1119    1116    1500    1503      10    1119    1116    1500    1530      10
    1119    1122    1125    1128      11    1119    1122    1125    1467       5
    1116    1119    1122    1125      11    1116    1500    1503    1506       1
    1116    1500    1530    1527       1    1113    1110    1107    1533       5
    1113    1116    1119    1122      11    1113    1116    1500    1503      10
    1113    1116    1500    1530      10    1110    1107    1533    1536      10
    1110    1107    1533    1563      10    1110    1113    1116    1119      11
    1110    1113    1116    1500       5    1107    1110    1113    1116      11
    1107    1533    1536    1539       1    1107    1533    1563    1560       1
    1104    1101    1098    1566       5    1104    1107    1110    1113      11
    1104    1107    1533    1536      10    1104    1107    1533    1563      10
    1101    1098    1566    1569      10    1101    1098    1566    1596      10
    1101    1104    1107    1110      11    1101    1104    1107    1533       5
    1098    1101    1104    1107      11    1098    1566    1569    1572       1
    1098    1566    1596    1593       1    1095    1092     624    1599       5
    1095    1098    1101    1104      11    1095    1098    1566    1569      10
    1095    1098    1566    1596      10    1092     624     621    1632      10
    1092     624    1599    1602      10    1092     624    1599    1629      10
    1092    1095    1098    1101      11    1092    1095    1098    1566       5
    1074    1071    1068    1086       4    1071    1068    1086    1089       1
    1068    1071    1074    1077       6    1068    1071   -1074    1077       7
    1068    1071    1074    1080       6    1068    1071   -1074    1080       7
    1068    1071    1074    1083       6    1068    1071   -1074    1083       7
    1065    1062    1059    1089       1    1065    1068    1071    1074       4
    1065    1068   -1086    1089       1    1062    1059    1089    1086       1
    1062    1065    1068    1071       1    1062    1065   -1068    1086       1
    1059    1062    1065    1068       1    1059    1089   -1086    1068       1
    1041    1038    1035    1053       4    1038    1035    1053    1056       1
    1035    1038    1041    1044       6    1035    1038   -1041    1044       7
    1035    1038    1041    1047       6    1035    1038   -1041    1047       7
    1035    1038    1041    1050       6    1035    1038   -1041    1050       7
    1032    1029    1026    1056       1    1032    1035    1038    1041       4
    1032    1035   -1053    1056       1    1029    1026    1056    1053       1
    1029    1032    1035    1038       1    1029    1032   -1035    1053       1
    1026    1029    1032    1035       1    1026    1056   -1053    1035       1
    1008    1005    1002    1020       4    1005    1002    1020    1023       1
    1002    1005    1008    1011       6    1002    1005   -1008    1011       7
    1002    1005    1008    1014       6    1002    1005   -1008    1014       7
    1002    1005    1008    1017       6    1002    1005   -1008    1017       7
     999     996     993    1023       1     999    1002    1005    1008       4
     999    1002   -1020    1023       1     996     993    1023    1020       1
     996     999    1002    1005       1     996     999   -1002    1020       1
     993     996     999    1002       1     993    1023   -1020    1002       1
     975     972     969     987       4     972     969     987     990       1
     969     972     975     978       6     969     972    -975     978       7
     969     972     975     981       6     969     972    -975     981       7
     969     972     975     984       6     969     972    -975     984       7
     966     963     960     990       1     966     969     972     975       4
     966     969    -987     990       1     963     960     990     987       1
     963     966     969     972       1     963     966    -969     987       1
     960     963     966     969       1     960     990    -987     969       1
     942     939     936     954       4     939     936     954     957       1
     936     939     942     945       6     936     939    -942     945       7
     936     939     942     948       6     936     939    -942     948       7
     936     939     942     951       6     936     939    -942     951       7
     933     930     927     957       1     933     936     939     942       4
     933     936    -954     957       1     930     927     957     954       1
     930     933     936     939       1     930     933    -936     954       1
     927     930     933     936       1     927     957    -954     936       1
     909     906     903     921       4     906     903     921     924       1
     903     906     909     912       6     903     906    -909     912       7
     903     906     909     915       6     903     906    -909     915       7
     903     906     909     918       6     903     906    -909     918       7
     900     897     894     924       1     900     903     906     909       4
     900     903    -921     924       1     897     894     924     921       1
     897     900     903     906       1     897     900    -903     921       1
     894     897     900     903       1     894     924    -921     903       1
     876     873     870     888       4     873     870     888     891       1
     870     873     876     879       6     870     873    -876     879       7
     870     873     876     882       6     870     873    -876     882       7
     870     873     876     885       6     870     873    -876     885       7
     867     864     861     891       1     867     870     873     876       4
     867     870    -888     891       1     864     861     891     888       1
     864     867     870     873       1     864     867    -870     888       1
     861     864     867     870       1     861     891    -888     870       1
     843     840     837     855       4     840     837     855     858       1
     837     840     843     846       6     837     840    -843     846       7
     837     840     843     849       6     837     840    -843     849       7
     837     840     843     852       6     837     840    -843     852       7
     834     831     828     858       1     834     837     840     843       4
     834     837    -855     858       1     831     828     858     855       1
     831     834     837     840       1     831     834    -837     855       1
     828     831     834     837       1     828     858    -855     837       1
     810     807     804     822       4     807     804     822     825       1
     804     807     810     813       6     804     807    -810     813       7
     804     807     810     816       6     804     807    -810     816       7
     804     807     810     819       6     804     807    -810     819       7
     801     798     795     825       1     801     804     807     810       4
     801     804    -822     825       1     798     795     825     822       1
     798     801     804     807       1     798     801    -804     822       1
     795     798     801     804       1     795     825    -822     804       1
     777     774     771     789       4     774     771     789     792       1
     771     774     777     780       6     771     774    -777     780       7
     771     774     777     783       6     771     774    -777     783       7
     771     774     777     786       6     771     774    -777     786       7
     768     765     762     792       1     768     771     774     777       4
     768     771    -789     792       1     765     762     792     789       1
     765     768     771     774       1     765     768    -771     789       1
     762     765     768     771       1     762     792    -789     771       1
     744     741     738     756       4     741     738     756     759       1
     738     741     744     747       6     738     741    -744     747       7
     738     741     744     750       6     738     741    -744     750       7
     738     741     744     753       6     738     741    -744     753       7
     735     732     729     759       1     735     738     741     744       4
     735     738    -756     759       1     732     729     759     756       1
     732     735     738     741       1     732     735    -738     756       1
     729     732     735     738       1     729     759    -756     738       1
     726     723     729     732      10     726     723     729     759      10
     723     729     732     735       1     723     729     759     756       1
     720     717     714     762       5     720     723     729     732      10
     720     723     729     759      10     717     714     762     765      10
     717     714     762     792      10     717     720     723     726      11
     717     720     723     729       5     714     717     720     723      11
     714     762     765     768       1     714     762     792     789       1
     711     708     705     795       5     711     714     717     720      11
     711     714     762     765      10     711     714     762     792      10
     708     705     795     798      10     708     705     795     825      10
     708     711     714     717      11     708     711     714     762       5
     705     708     711     714      11     705     795     798     801       1
     705     795     825     822       1     702     699     696     828       5
     702     705     708     711      11     702     705     795     798      10
     702     705     795     825      10     699     696     828     831      10
     699     696     828     858      10     699     702     705     708      11
     699     702     705     795       5     696     699     702     705      11
     696     828     831     834       1     696     828     858     855       1
     693     690     687     861       5     693     696     699     702      11
     693     696     828     831      10     693     696     828     858      10
     690     687     861     864      10     690     687     861     891      10
     690     693     696     699      11     690     693     696     828       5
     687     690     693     696      11     687     861     864     867       1
     687     861     891     888       1     684     681     678     894       5
     684     687     690     693      11     684     687     861     864      10
     684     687     861     891      10     681     678     894     897      10
     681     678     894     924      10     681     684     687     690      11
     681     684     687     861       5     678     681     684     687      11
     678     894     897     900       1     678     894     924     921       1
     675     672     669     927       5     675     678     681     684      11
     675     678     894     897      10     675     678     894     924      10
     672     669     927     930      10     672     669     927     957      10
     672     675     678     681      11     672     675     678     894       5
     669     672     675     678      11     669     927     930     933       1
     669     927     957     954       1     666     663     660     960       5
     666     669     672     675      11     666     669     927     930      10
     666     669     927     957      10     663     660     960     963      10
     663     660     960     990      10     663     666     669     672      11
     663     666     669     927       5     660     663     666     669      11
     660     960     963     966       1     660     960     990     987       1
     657     654     651     993       5     657     660     663     666      11
     657     660     960     963      10     657     660     960     990      10
     654     651     993     996      10     654     651     993    1023      10
     654     657     660     663      11     654     657     660     960       5
     651     654     657     660      11     651     993     996     999       1
     651     993    1023    1020       1     648     645     642    1026       5
     648     651     654     657      11     648     651     993     996      10
     648     651     993    1023      10     645     642    1026    1029      10
     645     642    1026    1056      10     645     648     651     654      11
     645     648     651     993       5     642     645     648     651      11
     642    1026    1029    1032       1     642    1026    1056    1053       1
     639     636     633    1059       5     639     642     645     648      11
     639     642    1026    1029      10     639     642    1026    1056      10
     636     633    1059    1062      10     636     633    1059    1089      10
     636     639     642     645      11     636     639     642    1026       5
     633     636     639     642      11     633    1059    1062    1065       1
     633    1059    1089    1086       1     630     627     624    1092      11
     630     627     624    1599       5     630     633     636     639      11
     630     633    1059    1062      10     630     633    1059    1089      10
     627     624     621    1632      10     627     624    1092    1095      11
     627     624    1599    1602      10     627     624    1599    1629      10
     627     630     633     636      11     627     630     633    1059       5
     624     621    1632    1635       1     624     627     630     633      11
     624    1092    1095    1098      11     624    1599    1602    1605       1
     624    1599    1629    1626       1     621     624     627     630       5
     621     624    1092    1095       5     621     624    1599    1602       8
     621     624    1599    1629       8     618     615     612    1635       1
     618     621     624     627      10     618     621     624    1092      10
     618     621     624    1599       8     618     621   -1632    1635       1
     615     612    1635    1632       1     615     618     621     624       1
     615     618    -621    1632       1     612     615     618     621       1
     612    1635   -1632     621       1     609     579     111     612       8
     594     591     588     606       4     591     588     606     609       1
     588     591     594     597       6     588     591    -594     597       7
     588     591     594     600       6     588     591    -594     600       7
     588     591     594     603       6     588     591    -594     603       7
     585     582     579     609       1     585     588     591     594       4
     585     588    -606     609       1     582     579     111     612       8
     582     579     609     606       1     582     585     588     591       1
     582     585    -588     606       1     579     111     612     615       8
     579     111     612    1635       8     579     582     585     588       1
     579     609    -606     588       1     561     558     555     573       4
     558     555     573     576       1     555     558     561     564       6
     555     558    -561     564       7     555     558     561     567       6
     555     558    -561     567       7     555     558     561     570       6
     555     558    -561     570       7     552     549     546     576       1
     552     555     558     561       4     552     555    -573     576       1
     549     546     576     573       1     549     552     555     558       1
     549     552    -555     573       1     546     549     552     555       1
     546     576    -573     555       1     528     525     522     540       4
     525     522     540     543       1     522     525     528     531       6
     522     525    -528     531       7     522     525     528     534       6
     522     525    -528     534       7     522     525     528     537       6
     522     525    -528     537       7     519     516     513     543       1
     519     522     525     528       4     519     522    -540     543       1
     516     513     543     540       1     516     519     522     525       1
     516     519    -522     540       1     513     516     519     522       1
     513     543    -540     522       1     495     492     489     507       4
     492     489     507     510       1     489     492     495     498       6
     489     492    -495     498       7     489     492     495     501       6
     489     492    -495     501       7     489     492     495     504       6
     489     492    -495     504       7     486     483     480     510       1
     486     489     492     495       4     486     489    -507     510       1
     483     480     510     507       1     483     486     489     492       1
     483     486    -489     507       1     480     483     486     489       1
     480     510    -507     489       1     462     459     456     474       4
     459     456     474     477       1     456     459     462     465       6
     456     459    -462     465       7     456     459     462     468       6
     456     459    -462     468       7     456     459     462     471       6
     456     459    -462     471       7     453     450     447     477       1
     453     456     459     462       4     453     456    -474     477       1
     450     447     477     474       1     450     453     456     459       1
     450     453    -456     474       1     447     450     453     456       1
     447     477    -474     456       1     429     426     423     441       4
     426     423     441     444       1     423     426     429     432       6
     423     426    -429     432       7     423     426     429     435       6
     423     426    -429     435       7     423     426     429     438       6
     423     426    -429     438       7     420     417     414     444       1
     420     423     426     429       4     420     423    -441     444       1
     417     414     444     441       1     417     420     423     426       1
     417     420    -423     441       1     414     417     420     423       1
     414     444    -441     423       1     396     393     390     408       4
     393     390     408     411       1     390     393     396     399       6
     390     393    -396     399       7     390     393     396     402       6
     390     393    -396     402       7     390     393     396     405       6
     390     393    -396     405       7     387     384     381     411       1
     387     390     393     396       4     387     390    -408     411       1
     384     381     411     408       1     384     387     390     393       1
     384     387    -390     408       1     381     384     387     390       1
     381     411    -408     390       1     363     360     357     375       4
     360     357     375     378       1     357     360     363     366       6
     357     360    -363     366       7     357     360     363     369       6
     357     360    -363     369       7     357     360     363     372       6
     357     360    -363     372       7     354     351     348     378       1
     354     357     360     363       4     354     357    -375     378       1
     351     348     378     375       1     351     354     357     360       1
     351     354    -357     375       1     348     351     354     357       1
     348     378    -375     357       1     330     327     324     342       4
     327     324     342     345       1     324     327     330     333       6
     324     327    -330     333       7     324     327     330     336       6
     324     327    -330     336       7     324     327     330     339       6
     324     327    -330     339       7     321     318     315     345       1
     321     324     327     330       4     321     324    -342     345       1
     318     315     345     342       1     318     321     324     327       1
     318     321    -324     342       1     315     318     321     324       1
     315     345    -342     324       1     297     294     291     309       4
     294     291     309     312       1     291     294     297     300       6
     291     294    -297     300       7     291     294     297     303       6
     291     294    -297     303       7     291     294     297     306       6
     291     294    -297     306       7     288     285     282     312       1
     288     291     294     297       4     288     291    -309     312       1
     285     282     312     309       1     285     288     291     294       1
     285     288    -291     309       1     282     285     288     291       1
     282     312    -309     291       1     264     261     258     276       4
     261     258     276     279       1     258     261     264     267       6
     258     261    -264     267       7     258     261     264     270       6
     258     261    -264     270       7     258     261     264     273       6
     258     261    -264     273       7     255     252     249     279       1
     255     258     261     264       4     255     258    -276     279       1
     252     249     279     276       1     252     255     258     261       1
     252     255    -258     276       1     249     252     255     258       1
     249     279    -276     258       1     231     228     225     243       4
     228     225     243     246       1     225     228     231     234       6
     225     228    -231     234       7     225     228     231     237       6
     225     228    -231     237       7     225     228     231     240       6
     225     228    -231     240       7     222     219     216     246       1
     222     225     228     231       4     222     225    -243     246       1
     219     216     246     243       1     219     222     225     228       1
     219     222    -225     243       1     216     219     222     225       1
     216     246    -243     225       1     213     210     216     219      10
     213     210     216     246      10     210     216     219     222       1
     210     216     246     243       1     207     204     201     249       5
     207     210     216     219      10     207     210     216     246      10
     204     201     249     252      10     204     201     249     279      10
     204     207     210     213      11     204     207     210     216       5
     201     204     207     210      11     201     249     252     255       1
     201     249     279     276       1     198     195     192     282       5
     198     201     204     207      11     198     201     249     252      10
     198     201     249     279      10     195     192     282     285      10
     195     192     282     312      10     195     198     201     204      11
     195     198     201     249       5     192     195     198     201      11
     192     282     285     288       1     192     282     312     309       1
     189     186     183     315       5     189     192     195     198      11
     189     192     282     285      10     189     192     282     312      10
     186     183     315     318      10     186     183     315     345      10
     186     189     192     195      11     186     189     192     282       5
     183     186     189     192      11     183     315     318     321       1
     183     315     345     342       1     180     177     174     348       5
     180     183     186     189      11     180     183     315     318      10
     180     183     315     345      10     177     174     348     351      10
     177     174     348     378      10     177     180     183     186      11
     177     180     183     315       5     174     177     180     183      11
     174     348     351     354       1     174     348     378     375       1
     171     168     165     381       5     171     174     177     180      11
     171     174     348     351      10     171     174     348     378      10
     168     165     381     384      10     168     165     381     411      10
     168     171     174     177      11     168     171     174     348       5
     165     168     171     174      11     165     381     384     387       1
     165     381     411     408       1     162     159     156     414       5
     162     165     168     171      11     162     165     381     384      10
     162     165     381     411      10     159     156     414     417      10
     159     156     414     444      10     159     162     165     168      11
     159     162     165     381       5     156     159     162     165      11
     156     414     417     420       1     156     414     444     441       1
     153     150     147     447       5     153     156     159     162      11
     153     156     414     417      10     153     156     414     444      10
     150     147     447     450      10     150     147     447     477      10
     150     153     156     159      11     150     153     156     414       5
     147     150     153     156      11     147     447     450     453       1
     147     447     477     474       1     144     141     138     480       5
     144     147     150     153      11     144     147     447     450      10
     144     147     447     477      10     141     138     480     483      10
     141     138     480     510      10     141     144     147     150      11
     141     144     147     447       5     138     141     144     147      11
     138     480     483     486       1     138     480     510     507       1
     135     132     129     513       5     135     138     141     144      11
     135     138     480     483      10     135     138     480     510      10
     132     129     513     516      10     132     129     513     543      10
     132     135     138     141      11     132     135     138     480       5
     129     132     135     138      11     129     513     516     519       1
     129     513     543     540       1     126     123     120     546       5
     126     129     132     135      11     126     129     513     516      10
     126     129     513     543      10     123     120     546     549      10
     123     120     546     576      10     123     126     129     132      11
     123     126     129     513       5     120     123     126     129      11
     120     546     549     552       1     120     546     576     573       1
     117     114     111     579       5     117     114     111     612       5
     117     120     123     126      11     117     120     546     549      10
     117     120     546     576      10     114     111     579     582      10
     114     111     579     609      10     114     111     612     615      10
     114     111     612    1635      10     114     117     120     123      11
     114     117     120     546       5     111     114     117     120      11
     111     579     582     585       1     111     579     609     606       1
     111     612     615     618       1     111     612    1635    1632       1
     108     105     102    1638       5     108     111     114     117      11
     108     111     579     582      10     108     111     579     609      10
     108     111     612     615      10     108     111     612    1635      10
     105     102    1638    1641      10     105     102    1638    1668      10
     105     108     111     114      11     105     108     111     579       5
     105     108     111     612       5     102     105     108     111      11
     102    1638    1641    1644       1     102    1638    1668    1665       1
      99      96      93    1671       5      99     102     105     108      11
      99     102    1638    1641      10      99     102    1638    1668      10
      96      93    1671    1674      10      96      93    1671    1701      10
      96      99     102     105      11      96      99     102    1638       5
      93      96      99     102      11      93    1671    1674    1677       1
      93    1671    1701    1698       1      90      87      84    1704       5
      90      93      96      99      11      90      93    1671    1674      10
      90      93    1671    1701      10      87      84    1704    1707      10
      87      84    1704    1734      10      87      90      93      96      11
      87      90      93    1671       5      84      87      90      93      11
      84    1704    1707    1710       1      84    1704    1734    1731       1
      81      78      75    1737       5      81      84      87      90      11
      81      84    1704    1707      10      81      84    1704    1734      10
      78      75    1737    1740      10      78      75    1737    1767      10
      78      81      84      87      11      78      81      84    1704       5
      75      78      81      84      11      75    1737    1740    1743       1
      75    1737    1767    1764       1      72      69      66    1770       5
      72      75      78      81      11      72      75    1737    1740      10
      72      75    1737    1767      10      69      66    1770    1773      10
      69      66    1770    1800      10      69      72      75      78      11
      69      72      75    1737       5      66      69      72      75      11
      66    1770    1773    1776       1      66    1770    1800    1797       1
      63      60      57    1803       5      63      66      69      72      11
      63      66    1770    1773      10      63      66    1770    1800      10
      60      57    1803    1806      10      60      57    1803    1833      10
      60      63      66      69      11      60      63      66    1770       5
      57      60      63      66      11      57    1803    1806    1809       1
      57    1803    1833    1830       1      54      51      48    1836       5
      54      57      60      63      11      54      57    1803    1806      10
      54      57    1803    1833      10      51      48    1836    1839      10
      51      48    1836    1866      10      51      54      57      60      11
      51      54      57    1803       5      48      51      54      57      11
      48    1836    1839    1842       1      48    1836    1866    1863       1
      45      42      39    1869       5      45      48      51      54      11
      45      48    1836    1839      10      45      48    1836    1866      10
      42      39    1869    1872      10      42      39    1869    1899      10
      42      45      48      51      11      42      45      48    1836       5
      39      42      45      48      11      39    1869    1872    1875       1
      39    1869    1899    1896       1      36      33      30    1902       5
      36      39      42      45      11      36      39    1869    1872      10
      36      39    1869    1899      10      33      30    1902    1905      10
      33      30    1902    1932      10      33      36      39      42      11
      33      36      39    1869       5      30      33      36      39      11
      30    1902    1905    1908       1      30    1902    1932    1929       1
      27      24      21    1935       5      27      30      33      36      11
      27      30    1902    1905      10      27      30    1902    1932      10
      24      21    1935    1938      10      24      21    1935    1965      10
      24      27      30      33      11      24      27      30    1902       5
      21      24      27      30      11      21    1935    1938    1941       1
      21    1935    1965    1962       1      18      15      12    1968       5
      18      21      24      27      11      18      21    1935    1938      10
      18      21    1935    1965      10      15      12    1968    1971      10
      15      12    1968    1998      10      15      18      21      24      11
      15      18      21    1935       5      12      15      18      21      11
      12    1968    1971    1974       1      12    1968    1998    1995       1
       9       6       3    2001       5       9      12      15      18      11
       9      12    1968    1971      10       9      12    1968    1998      10
       6       3    2001    2004      10       6       3    2001    2031      10
       6       9      12      15      11       6       9      12    1968       5
       3       6       9      12      11       3    2001    2004    2007       1
       3    2001    2031    2028       1       0       3       6       9      11
       0       3    2001    2004      10       0       3    2001    2031      10
    2007    2028   -2010   -2013      12       3    2004   -2001   -2031      12
    1980    1974   -1977   -1995      12      12    1971   -1968   -1998      12
    1947    1941   -1944   -1962      12      21    1938   -1935   -1965      12
    1914    1908   -1911   -1929      12      30    1905   -1902   -1932      12
    1881    1875   -1878   -1896      12      39    1872   -1869   -1899      12
    1848    1842   -1845   -1863      12      48    1839   -1836   -1866      12
    1815    1809   -1812   -1830      12      57    1806   -1803   -1833      12
    1782    1776   -1779   -1797      12      66    1773   -1770   -1800      12
    1749    1743   -1746   -1764      12      75    1740   -1737   -1767      12
    1716    1710   -1713   -1731      12      84    1707   -1704   -1734      12
    1683    1677   -1680   -1698      12      93    1674   -1671   -1701      12
    1650    1644   -1647   -1665      12     102    1641   -1638   -1668      12
    1611    1605   -1608   -1626      12     624    1602   -1599   -1629      12
    1578    1572   -1575   -1593      12    1098    1569   -1566   -1596      12
    1545    1539   -1542   -1560      12    1107    1536   -1533   -1563      12
    1512    1506   -1509   -1527      12    1116    1503   -1500   -1530      12
    1479    1473   -1476   -1494      12    1125    1470   -1467   -1497      12
    1446    1440   -1443   -1461      12    1134    1437   -1434   -1464      12
    1413    1407   -1410   -1428      12    1143    1404   -1401   -1431      12
    1380    1374   -1377   -1395      12    1152    1371   -1368   -1398      12
    1347    1341   -1344   -1362      12    1161    1338   -1335   -1365      12
    1314    1308   -1311   -1329      12    1170    1305   -1302   -1332      12
    1281    1275   -1278   -1296      12    1179    1272   -1269   -1299      12
    1248    1242   -1245   -1263      12    1188    1239   -1236   -1266      12
    1215    1209   -1212   -1230      12    1197    1206   -1203   -1233      12
    1071    1065   -1068   -1086      12     633    1062   -1059   -1089      12
    1038    1032   -1035   -1053      12     642    1029   -1026   -1056      12
    1005     999   -1002   -1020      12     651     996    -993   -1023      12
     972     966    -969    -987      12     660     963    -960    -990      12
     939     933    -936    -954      12     669     930    -927    -957      12
     906     900    -903    -921      12     678     897    -894    -924      12
     873     867    -870    -888      12     687     864    -861    -891      12
     840     834    -837    -855      12     696     831    -828    -858      12
     807     801    -804    -822      12     705     798    -795    -825      12
     774     768    -771    -789      12     714     765    -762    -792      12
     741     735    -738    -756      12     723     732    -729    -759      12
     624     618    -621   -1632      12     111     615    -612   -1635      12
     591     585    -588    -606      12     111     582    -579    -609      12
     558     552    -555    -573      12     120     549    -546    -576      12
     525     519    -522    -540      12     129     516    -513    -543      12
     492     486    -489    -507      12     138     483    -480    -510      12
     459     453    -456    -474      12     147     450    -447    -477      12
     426     420    -423    -441      12     156     417    -414    -444      12
     393     387    -390    -408      12     165     384    -381    -411      12
     360     354    -357    -375      12     174     351    -348    -378      12
     327     321    -324    -342      12     183     318    -315    -345      12
     294     288    -291    -309      12     192     285    -282    -312      12
     261     255    -258    -276      12     201     252    -249    -279      12
     228     222    -225    -243      12     210     219    -216    -246      12
%FLAG EXCLUDED_ATOMS_LIST                                                       
%FORMAT(10I8)                                                                   
       2       3       4     668     669     678     679     680     681     682
     683     684       3       4       5     668     669     670     677     678
     679     680     681     682     683     684     685     686    1630    1644
       4       5       6     657     668     669     678     679     680     681
     682     683     684     685     686     687       5       6       7     657
     658     667     668     682     683     684     685     686     687     688
     689       6       7       8     657     658     659     666     667     683
     684     685     686     687     688     689     690     691    1615    1629
       7       8       9     646     657     658     667     685     686     687
     688     689     690     691     692       8       9      10     646     647
     656     657     687     688     689     690     691     692     693     694
       9      10      11     646     647     648     655     656     688     689
     690     691     692     693     694     695     696    1600    1614      10
      11      12     635     646     647     656     690     691     692     693
     694     695     696     697      11      12      13     635     636     645
     646     692     693     694     695     696     697     698     699      12
      13      14     635     636     637     644     645     693     694     695
     696     697     698     699     700     701    1585    1599      13      14
      15     624     635     636     645     695     696     697     698     699
     700     701     702      14      15      16     624     625     634     635
     697     698     699     700     701     702     703     704      15      16
      17     624     625     626     633     634     698     699     700     701
     702     703     704     705     706    1570    1584      16      17      18
     613     624     625     634     700     701     702     703     704     705
     706     707      17      18      19     613     614     623     624     702
     703     704     705     706     707     708     709      18      19      20
     613     614     615     622     623     703     704     705     706     707
     708     709     710     711    1555    1569      19      20      21     602
     613     614     623     705     706     707     708     709     710     711
     712      20      21      22     602     603     612     613     707     708
     709     710     711     712     713     714      21      22      23     602
     603     604     611     612     708     709     710     711     712     713
     714     715     716    1540    1554      22      23      24     591     602
     603     612     710     711     712     713     714     715     716     717
      23      24      25     591     592     601     602     712     713     714
     715     716     717     718     719      24      25      26     591     592
     593     600     601     713     714     715     716     717     718     719
     720     721    1525    1539      25      26      27     580     591     592
     601     715     716     717     718     719     720     721     722      26
      27      28     580     581     590     591     717     718     719     720
     721     722     723     724      27      28      29     580     581     582
     589     590     718     719     720     721     722     723     724     725
     726    1510    1524      28      29      30     569     580     581     590
     720     721     722     723     724     725     726     727      29      30
      31     569     570     579     580     722     723     724     725     726
     727     728     729      30      31      32     569     570     571     578
     579     723     724     725     726     727     728     729     730     731
    1495    1509      31      32      33     558     569     570     579     725
     726     727     728     729     730     731     732      32      33      34
     558     559     568     569     727     728     729     730     731     732
     733     734      33      34      35     558     559     560     567     568
     728     729     730     731     732     733     734     735     736    1480
    1494      34      35      36     547     558     559     568     730     731
     732     733     734     735     736     737      35      36      37     547
     548     557     558     732     733     734     735     736     737     738
     739      36      37      38     547     548     549     556     557     733
     734     735     736     737     738     739     740     741    1465    1479
      37      38      39     194     205     547     548     557     735     736
     737     738     739     740     741      38      39      40     194     195
     204     205     206     546     547     737     738     739     740     741
     742     743      39      40      41     194     195     196     203     204
     205     206     207     545     546     738     739     740     741     742
     743     744     745     965     979     980    1464      40      41      42
     183     194     195     204     205     206     546     740     741     742
     743     744     745     746      41      42      43     183     184     193
     194     205     742     743     744     745     746     747     748      42
      43      44     183     184     185     192     193     742     743     744
     745     746     747     748     749     750     950     964      43      44
      45     172     183     184     193     744     745     746     747     748
     749     750     751      44      45      46     172     173     182     183
     746     747     748     749     750     751     752     753      45      46
      47     172     173     174     181     182     747     748     749     750
     751     752     753     754     755     935     949      46      47      48
     161     172     173     182     749     750     751     752     753     754
     755     756      47      48      49     161     162     171     172     751
     752     753     754     755     756     757     758      48      49      50
     161     162     163     170     171     752     753     754     755     756
     757     758     759     760     920     934      49      50      51     150
     161     162     171     754     755     756     757     758     759     760
     761      50      51      52     150     151     160     161     756     757
     758     759     760     761     762     763      51      52      53     150
     151     152     159     160     757     758     759     760     761     762
     763     764     765     905     919      52      53      54     139     150
     151     160     759     760     761     762     763     764     765     766
      53      54      55     139     140     149     150     761     762     763
     764     765     766     767     768      54      55      56     139     140
     141     148     149     762     763     764     765     766     767     768
     769     770     890     904      55      56      57     128     139     140
     149     764     765     766     767     768     769     770     771      56
      57      58     128     129     138     139     766     767     768     769
     770     771     772     773      57      58      59     128     129     130
     137     138     767     768     769     770     771     772     773     774
     775     875     889      58      59      60     117     128     129     138
     769     770     771     772     773     774     775     776      59      60
      61     117     118     127     128     771     772     773     774     775
     776     777     778      60      61      62     117     118     119     126
     127     772     773     774     775     776     777     778     779     780
     860     874      61      62      63     106     117     118     127     774
     775     776     777     778     779     780     781      62      63      64
     106     107     116     117     776     777     778     779     780     781
     782     783      63      64      65     106     107     108     115     116
     777     778     779     780     781     782     783     784     785     845
     859      64      65      66      95     106     107     116     779     780
     781     782     783     784     785     786      65      66      67      95
      96     105     106     781     782     783     784     785     786     787
     788      66      67      68      95      96      97     104     105     782
     783     784     785     786     787     788     789     790     830     844
      67      68      69      84      95      96     105     784     785     786
     787     788     789     790     791      68      69      70      84      85
      94      95     786     787     788     789     790     791     792     793
      69      70      71      84      85      86      93      94     787     788
     789     790     791     792     793     794     795     815     829      70
      71      72      73      84      85      94     789     790     791     792
     793     794     795     796      71      72      73      74      83      84
     791     792     793     794     795     796     797     798     799      72
      73      74      75      82      83     792     793     794     795     796
     797     798     799     800     814      73      74      83     794     795
     796     797     798     799      74      75      76      82      83     794
     795     796     797     798     799     800     801     813     814      75
      76      77      82      83     796     800     801     814      76      77
      78      82      83     800     801     802     803     813      77      78
      79      80      81      82      83     800     801     802     803     813
     814      78      79      80      81      82      83     801     802     803
     804     805     806     807     808     809     810     811     812     813
      79      80      81      82     802     803     804     805     806     807
     808     809     810     811     812      80      81     802     803     804
     805     806     807     808     809     810     811     812      81     802
     803     804     805     806     807     808     809     810     811     812
     802     803     804     805     806     807     808     809     810     811
     812      83     801     802     803     813     814     796     800     813
     814      85      86      87      93      94     789     790     791     792
     793     815     816     828     829      86      87      88      93      94
     791     815     816     829      87      88      89      93      94     815
     816     817     818     828      88      89      90      91      92      93
      94     815     816     817     818     828     829      89      90      91
      92      93      94     816     817     818     819     820     821     822
     823     824     825     826     827     828      90      91      92      93
     817     818     819     820     821     822     823     824     825     826
     827      91      92     817     818     819     820     821     822     823
     824     825     826     827      92     817     818     819     820     821
     822     823     824     825     826     827     817     818     819     820
     821     822     823     824     825     826     827      94     816     817
     818     828     829     791     815     828     829      96      97      98
     104     105     784     785     786     787     788     830     831     843
     844      97      98      99     104     105     786     830     831     844
      98      99     100     104     105     830     831     832     833     843
      99     100     101     102     103     104     105     830     831     832
     833     843     844     100     101     102     103     104     105     831
     832     833     834     835     836     837     838     839     840     841
     842     843     101     102     103     104     832     833     834     835
     836     837     838     839     840     841     842     102     103     832
     833     834     835     836     837     838     839     840     841     842
     103     832     833     834     835     836     837     838     839     840
     841     842     832     833     834     835     836     837     838     839
     840     841     842     105     831     832     833     843     844     786
     830     843     844     107     108     109     115     116     779     780
     781     782     783     845     846     858     859     108     109     110
     115     116     781     845     846     859     109     110     111     115
     116     845     846     847     848     858     110     111     112     113
     114     115     116     845     846     847     848     858     859     111
     112     113     114     115     116     846     847     848     849     850
     851     852     853     854     855     856     857     858     112     113
     114     115     847     848     849     850     851     852     853     854
     855     856     857     113     114     847     848     849     850     851
     852     853     854     855     856     857     114     847     848     849
     850     851     852     853     854     855     856     857     847     848
     849     850     851     852     853     854     855     856     857     116
     846     847     848     858     859     781     845     858     859     118
     119     120     126     127     774     775     776     777     778     860
     861     873     874     119     120     121     126     127     776     860
     861     874     120     121     122     126     127     860     861     862
     863     873     121     122     123     124     125     126     127     860
     861     862     863     873     874     122     123     124     125     126
     127     861     862     863     864     865     866     867     868     869
     870     871     872     873     123     124     125     126     862     863
     864     865     866     867     868     869     870     871     872     124
     125     862     863     864     865     866     867     868     869     870
     871     872     125     862     863     864     865     866     867     868
     869     870     871     872     862     863     864     865     866     867
     868     869     870     871     872     127     861     862     863     873
     874     776     860     873     874     129     130     131     137     138
     769     770     771     772     773     875     876     888     889     130
     131     132     137     138     771     875     876     889     131     132
     133     137     138     875     876     877     878     888     132     133
     134     135     136     137     138     875     876     877     878     888
     889     133     134     135     136     137     138     876     877     878
     879     880     881     882     883     884     885     886     887     888
     134     135     136     137     877     878     879     880     881     882
     883     884     885     886     887     135     136     877     878     879
     880     881     882     883     884     885     886     887     136     877
     878     879     880     881     882     883     884     885     886     887
     877     878     879     880     881     882     883     884     885     886
     887     138     876     877     878     888     889     771     875     888
     889     140     141     142     148     149     764     765     766     767
     768     890     891     903     904     141     142     143     148     149
     766     890     891     904     142     143     144     148     149     890
     891     892     893     903     143     144     145     146     147     148
     149     890     891     892     893     903     904     144     145     146
     147     148     149     891     892     893     894     895     896     897
     898     899     900     901     902     903     145     146     147     148
     892     893     894     895     896     897     898     899     900     901
     902     146     147     892     893     894     895     896     897     898
     899     900     901     902     147     892     893     894     895     896
     897     898     899     900     901     902     892     893     894     895
     896     897     898     899     900     901     902     149     891     892
     893     903     904     766     890     903     904     151     152     153
     159     160     759     760     761     762     763     905     906     918
     919     152     153     154     159     160     761     905     906     919
     153     154     155     159     160     905     906     907     908     918
     154     155     156     157     158     159     160     905     906     907
     908     918     919     155     156     157     158     159     160     906
     907     908     909     910     911     912     913     914     915     916
     917     918     156     157     158     159     907     908     909     910
     911     912     913     914     915     916     917     157     158     907
     908     909     910     911     912     913     914     915     916     917
     158     907     908     909     910     911     912     913     914     915
     916     917     907     908     909     910     911     912     913     914
     915     916     917     160     906     907     908     918     919     761
     905     918     919     162     163     164     170     171     754     755
     756     757     758     920     921     933     934     163     164     165
     170     171     756     920     921     934     164     165     166     170
     171     920     921     922     923     933     165     166     167     168
     169     170     171     920     921     922     923     933     934     166
     167     168     169     170     171     921     922     923     924     925
     926     927     928     929     930     931     932     933     167     168
     169     170     922     923     924     925     926     927     928     929
     930     931     932     168     169     922     923     924     925     926
     927     928     929     930     931     932     169     922     923     924
     925     926     927     928     929     930     931     932     922     923
     924     925     926     927     928     929     930     931     932     171
     921     922     923     933     934     756     920     933     934     173
     174     175     181     182     749     750     751     752     753     935
     936     948     949     174     175     176     181     182     751     935
     936     949     175     176     177     181     182     935     936     937
     938     948     176     177     178     179     180     181     182     935
     936     937     938     948     949     177     178     179     180     181
     182     936     937     938     939     940     941     942     943     944
     945     946     947     948     178     179     180     181     937     938
     939     940     941     942     943     944     945     946     947     179
     180     937     938     939     940     941     942     943     944     945
     946     947     180     937     938     939     940     941     942     943
     944     945     946     947     937     938     939     940     941     942
     943     944     945     946     947     182     936     937     938     948
     949     751     935     948     949     184     185     186     192     193
     744     745     746     747     748     950     951     963     964     185
     186     187     192     193     746     950     951     964     186     187
     188     192     193     950     951     952     953     963     187     188
     189     190     191     192     193     950     951     952     953     963
     964     188     189     190     191     192     193     951     952     953
     954     955     956     957     958     959     960     961     962     963
     189     190     191     192     952     953     954     955     956     957
     958     959     960     961     962     190     191     952     953     954
     955     956     957     958     959     960     961     962     191     952
     953     954     955     956     957     958     959     960     961     962
     952     953     954     955     956     957     958     959     960     961
     962     193     951     952     953     963     964     746     950     963
     964     195     196     197     203     204     205     206     546     740
     741     742     743     965     966     978     979     196     197     198
     203     204     205     965     966     979     197     198     199     203
     204     965     966     967     968     978     198     199     200     201
     202     203     204     965     966     967     968     978     979     199
     200     201     202     203     204     966     967     968     969     970
     971     972     973     974     975     976     977     978     200     201
     202     203     967     968     969     970     971     972     973     974
     975     976     977     201     202     967     968     969     970     971
     972     973     974     975     976     977     202     967     968     969
     970     971     972     973     974     975     976     977     967     968
     969     970     971     972     973     974     975     976     977     204
     966     967     968     978     979     205     965     978     979     206
     207     208     545     546     740     741     742     743     980     981
    1463    1464     207     208     209     545     546     980     981    1464
     208     209     210     365     534     545     546     980     981    1463
     209     210     211     365     366     534     535     544     545     546
     980     981     982     983    1205    1206    1463    1464     210     211
     212     365     366     367     534     535     536     543     544     545
     546     981     982     983     984     985    1205    1206    1207    1208
    1448    1462    1463     211     212     213     354     365     366     534
     535     544     545     982     983     984     985     986    1205    1206
     212     213     214     354     355     364     365     534     982     983
     984     985     986     987     988     213     214     215     354     355
     356     363     364     982     983     984     985     986     987     988
     989     990    1190    1204     214     215     216     343     354     355
     364     984     985     986     987     988     989     990     991     215
     216     217     343     344     353     354     986     987     988     989
     990     991     992     993     216     217     218     343     344     345
     352     353     987     988     989     990     991     992     993     994
     995    1175    1189     217     218     219     332     343     344     353
     989     990     991     992     993     994     995     996     218     219
     220     332     333     342     343     991     992     993     994     995
     996     997     998     219     220     221     332     333     334     341
     342     992     993     994     995     996     997     998     999    1000
    1160    1174     220     221     222     321     332     333     342     994
     995     996     997     998     999    1000    1001     221     222     223
     321     322     331     332     996     997     998     999    1000    1001
    1002    1003     222     223     224     321     322     323     330     331
     997     998     999    1000    1001    1002    1003    1004    1005    1145
    1159     223     224     225     310     321     322     331     999    1000
    1001    1002    1003    1004    1005    1006     224     225     226     310
     311     320     321    1001    1002    1003    1004    1005    1006    1007
    1008     225     226     227     310     311     312     319     320    1002
    1003    1004    1005    1006    1007    1008    1009    1010    1130    1144
     226     227     228     299     310     311     320    1004    1005    1006
    1007    1008    1009    1010    1011     227     228     229     299     300
     309     310    1006    1007    1008    1009    1010    1011    1012    1013
     228     229     230     299     300     301     308     309    1007    1008
    1009    1010    1011    1012    1013    1014    1015    1115    1129     229
     230     231     288     299     300     309    1009    1010    1011    1012
    1013    1014    1015    1016     230     231     232     288     289     298
     299    1011    1012    1013    1014    1015    1016    1017    1018     231
     232     233     288     289     290     297     298    1012    1013    1014
    1015    1016    1017    1018    1019    1020    1100    1114     232     233
     234     277     288     289     298    1014    1015    1016    1017    1018
    1019    1020    1021     233     234     235     277     278     287     288
    1016    1017    1018    1019    1020    1021    1022    1023     234     235
     236     277     278     279     286     287    1017    1018    1019    1020
    1021    1022    1023    1024    1025    1085    1099     235     236     237
     266     277     278     287    1019    1020    1021    1022    1023    1024
    1025    1026     236     237     238     266     267     276     277    1021
    1022    1023    1024    1025    1026    1027    1028     237     238     239
     266     267     268     275     276    1022    1023    1024    1025    1026
    1027    1028    1029    1030    1070    1084     238     239     240     255
     266     267     276    1024    1025    1026    1027    1028    1029    1030
    1031     239     240     241     255     256     265     266    1026    1027
    1028    1029    1030    1031    1032    1033     240     241     242     255
     256     257     264     265    1027    1028    1029    1030    1031    1032
    1033    1034    1035    1055    1069     241     242     243     244     255
     256     265    1029    1030    1031    1032    1033    1034    1035    1036
     242     243     244     245     254     255    1031    1032    1033    1034
    1035    1036    1037    1038    1039     243     244     245     246     253
     254    1032    1033    1034    1035    1036    1037    1038    1039    1040
    1054     244     245     254    1034    1035    1036    1037    1038    1039
     245     246     247     253     254    1034    1035    1036    1037    1038
    1039    1040    1041    1053    1054     246     247     248     253     254
    1036    1040    1041    1054     247     248     249     253     254    1040
    1041    1042    1043    1053     248     249     250     251     252     253
     254    1040    1041    1042    1043    1053    1054     249     250     251
     252     253     254    1041    1042    1043    1044    1045    1046    1047
    1048    1049    1050    1051    1052    1053     250     251     252     253
    1042    1043    1044    1045    1046    1047    1048    1049    1050    1051
    1052     251     252    1042    1043    1044    1045    1046    1047    1048
    1049    1050    1051    1052     252    1042    1043    1044    1045    1046
    1047    1048    1049    1050    1051    1052    1042    1043    1044    1045
    1046    1047    1048    1049    1050    1051    1052     254    1041    1042
    1043    1053    1054    1036    1040    1053    1054     256     257     258
     264     265    1029    1030    1031    1032    1033    1055    1056    1068
    1069     257     258     259     264     265    1031    1055    1056    1069
     258     259     260     264     265    1055    1056    1057    1058    1068
     259     260     261     262     263     264     265    1055    1056    1057
    1058    1068    1069     260     261     262     263     264     265    1056
    1057    1058    1059    1060    1061    1062    1063    1064    1065    1066
    1067    1068     261     262     263     264    1057    1058    1059    1060
    1061    1062    1063    1064    1065    1066    1067     262     263    1057
    1058    1059    1060    1061    1062    1063    1064    1065    1066    1067
     263    1057    1058    1059    1060    1061    1062    1063    1064    1065
    1066    1067    1057    1058    1059    1060    1061    1062    1063    1064
    1065    1066    1067     265    1056    1057    1058    1068    1069    1031
    1055    1068    1069     267     268     269     275     276    1024    1025
    1026    1027    1028    1070    1071    1083    1084     268     269     270
     275     276    1026    1070    1071    1084     269     270     271     275
     276    1070    1071    1072    1073    1083     270     271     272     273
     274     275     276    1070    1071    1072    1073    1083    1084     271
     272     273     274     275     276    1071    1072    1073    1074    1075
    1076    1077    1078    1079    1080    1081    1082    1083     272     273
     274     275    1072    1073    1074    1075    1076    1077    1078    1079
    1080    1081    1082     273     274    1072    1073    1074    1075    1076
    1077    1078    1079    1080    1081    1082     274    1072    1073    1074
    1075    1076    1077    1078    1079    1080    1081    1082    1072    1073
    1074    1075    1076    1077    1078    1079    1080    1081    1082     276
    1071    1072    1073    1083    1084    1026    1070    1083    1084     278
     279     280     286     287    1019    1020    1021    1022    1023    1085
    1086    1098    1099     279     280     281     286     287    1021    1085
    1086    1099     280     281     282     286     287    1085    1086    1087
    1088    1098     281     282     283     284     285     286     287    1085
    1086    1087    1088    1098    1099     282     283     284     285     286
     287    1086    1087    1088    1089    1090    1091    1092    1093    1094
    1095    1096    1097    1098     283     284     285     286    1087    1088
    1089    1090    1091    1092    1093    1094    1095    1096    1097     284
     285    1087    1088    1089    1090    1091    1092    1093    1094    1095
    1096    1097     285    1087    1088    1089    1090    1091    1092    1093
    1094    1095    1096    1097    1087    1088    1089    1090    1091    1092
    1093    1094    1095    1096    1097     287    1086    1087    1088    1098
    1099    1021    1085    1098    1099     289     290     291     297     298
    1014    1015    1016    1017    1018    1100    1101    1113    1114     290
     291     292     297     298    1016    1100    1101    1114     291     292
     293     297     298    1100    1101    1102    1103    1113     292     293
     294     295     296     297     298    1100    1101    1102    1103    1113
    1114     293     294     295     296     297     298    1101    1102    1103
    1104    1105    1106    1107    1108    1109    1110    1111    1112    1113
     294     295     296     297    1102    1103    1104    1105    1106    1107
    1108    1109    1110    1111    1112     295     296    1102    1103    1104
    1105    1106    1107    1108    1109    1110    1111    1112     296    1102
    1103    1104    1105    1106    1107    1108    1109    1110    1111    1112
    1102    1103    1104    1105    1106    1107    1108    1109    1110    1111
    1112     298    1101    1102    1103    1113    1114    1016    1100    1113
    1114     300     301     302     308     309    1009    1010    1011    1012
    1013    1115    1116    1128    1129     301     302     303     308     309
    1011    1115    1116    1129     302     303     304     308     309    1115
    1116    1117    1118    1128     303     304     305     306     307     308
     309    1115    1116    1117    1118    1128    1129     304     305     306
     307     308     309    1116    1117    1118    1119    1120    1121    1122
    1123    1124    1125    1126    1127    1128     305     306     307     308
    1117    1118    1119    1120    1121    1122    1123    1124    1125    1126
    1127     306     307    1117    1118    1119    1120    1121    1122    1123
    1124    1125    1126    1127     307    1117    1118    1119    1120    1121
    1122    1123    1124    1125    1126    1127    1117    1118    1119    1120
    1121    1122    1123    1124    1125    1126    1127     309    1116    1117
    1118    1128    1129    1011    1115    1128    1129     311     312     313
     319     320    1004    1005    1006    1007    1008    1130    1131    1143
    1144     312     313     314     319     320    1006    1130    1131    1144
     313     314     315     319     320    1130    1131    1132    1133    1143
     314     315     316     317     318     319     320    1130    1131    1132
    1133    1143    1144     315     316     317     318     319     320    1131
    1132    1133    1134    1135    1136    1137    1138    1139    1140    1141
    1142    1143     316     317     318     319    1132    1133    1134    1135
    1136    1137    1138    1139    1140    1141    1142     317     318    1132
    1133    1134    1135    1136    1137    1138    1139    1140    1141    1142
     318    1132    1133    1134    1135    1136    1137    1138    1139    1140
    1141    1142    1132    1133    1134    1135    1136    1137    1138    1139
    1140    1141    1142     320    1131    1132    1133    1143    1144    1006
    1130    1143    1144     322     323     324     330     331     999    1000
    1001    1002    1003    1145    1146    1158    1159     323     324     325
     330     331    1001    1145    1146    1159     324     325     326     330
     331    1145    1146    1147    1148    1158     325     326     327     328
     329     330     331    1145    1146    1147    1148    1158    1159     326
     327     328     329     330     331    1146    1147    1148    1149    1150
    1151    1152    1153    1154    1155    1156    1157    1158     327     328
     329     330    1147    1148    1149    1150    1151    1152    1153    1154
    1155    1156    1157     328     329    1147    1148    1149    1150    1151
    1152    1153    1154    1155    1156    1157     329    1147    1148    1149
    1150    1151    1152    1153    1154    1155    1156    1157    1147    1148
    1149    1150    1151    1152    1153    1154    1155    1156    1157     331
    1146    1147    1148    1158    1159    1001    1145    1158    1159     333
     334     335     341     342     994     995     996     997     998    1160
    1161    1173    1174     334     335     336     341     342     996    1160
    1161    1174     335     336     337     341     342    1160    1161    1162
    1163    1173     336     337     338     339     340     341     342    1160
    1161    1162    1163    1173    1174     337     338     339     340     341
     342    1161    1162    1163    1164    1165    1166    1167    1168    1169
    1170    1171    1172    1173     338     339     340     341    1162    1163
    1164    1165    1166    1167    1168    1169    1170    1171    1172     339
     340    1162    1163    1164    1165    1166    1167    1168    1169    1170
    1171    1172     340    1162    1163    1164    1165    1166    1167    1168
    1169    1170    1171    1172    1162    1163    1164    1165    1166    1167
    1168    1169    1170    1171    1172     342    1161    1162    1163    1173
    1174     996    1160    1173    1174     344     345     346     352     353
     989     990     991     992     993    1175    1176    1188    1189     345
     346     347     352     353     991    1175    1176    1189     346     347
     348     352     353    1175    1176    1177    1178    1188     347     348
     349     350     351     352     353    1175    1176    1177    1178    1188
    1189     348     349     350     351     352     353    1176    1177    1178
    1179    1180    1181    1182    1183    1184    1185    1186    1187    1188
     349     350     351     352    1177    1178    1179    1180    1181    1182
    1183    1184    1185    1186    1187     350     351    1177    1178    1179
    1180    1181    1182    1183    1184    1185    1186    1187     351    1177
    1178    1179    1180    1181    1182    1183    1184    1185    1186    1187
    1177    1178    1179    1180    1181    1182    1183    1184    1185    1186
    1187     353    1176    1177    1178    1188    1189     991    1175    1188
    1189     355     356     357     363     364     984     985     986     987
     988    1190    1191    1203    1204     356     357     358     363     364
     986    1190    1191    1204     357     358     359     363     364    1190
    1191    1192    1193    1203     358     359     360     361     362     363
     364    1190    1191    1192    1193    1203    1204     359     360     361
     362     363     364    1191    1192    1193    1194    1195    1196    1197
    1198    1199    1200    1201    1202    1203     360     361     362     363
    1192    1193    1194    1195    1196    1197    1198    1199    1200    1201
    1202     361     362    1192    1193    1194    1195    1196    1197    1198
    1199    1200    1201    1202     362    1192    1193    1194    1195    1196
    1197    1198    1199    1200    1201    1202    1192    1193    1194    1195
    1196    1197    1198    1199    1200    1201    1202     364    1191    1192
    1193    1203    1204     986    1190    1203    1204     366     367     368
     523     534     535     544     545     982     983    1205    1206    1207
    1208    1209     367     368     369     523     524     533     534    1205
    1206    1207    1208    1209    1210    1211     368     369     370     523
     524     525     532     533    1205    1206    1207    1208    1209    1210
    1211    1212    1213    1433    1447     369     370     371     512     523
     524     533    1207    1208    1209    1210    1211    1212    1213    1214
     370     371     372     512     513     522     523    1209    1210    1211
    1212    1213    1214    1215    1216     371     372     373     512     513
     514     521     522    1210    1211    1212    1213    1214    1215    1216
    1217    1218    1418    1432     372     373     374     501     512     513
     522    1212    1213    1214    1215    1216    1217    1218    1219     373
     374     375     501     502     511     512    1214    1215    1216    1217
    1218    1219    1220    1221     374     375     376     501     502     503
     510     511    1215    1216    1217    1218    1219    1220    1221    1222
    1223    1403    1417     375     376     377     490     501     502     511
    1217    1218    1219    1220    1221    1222    1223    1224     376     377
     378     490     491     500     501    1219    1220    1221    1222    1223
    1224    1225    1226     377     378     379     490     491     492     499
     500    1220    1221    1222    1223    1224    1225    1226    1227    1228
    1388    1402     378     379     380     479     490     491     500    1222
    1223    1224    1225    1226    1227    1228    1229     379     380     381
     479     480     489     490    1224    1225    1226    1227    1228    1229
    1230    1231     380     381     382     479     480     481     488     489
    1225    1226    1227    1228    1229    1230    1231    1232    1233    1373
    1387     381     382     383     468     479     480     489    1227    1228
    1229    1230    1231    1232    1233    1234     382     383     384     468
     469     478     479    1229    1230    1231    1232    1233    1234    1235
    1236     383     384     385     468     469     470     477     478    1230
    1231    1232    1233    1234    1235    1236    1237    1238    1358    1372
     384     385     386     457     468     469     478    1232    1233    1234
    1235    1236    1237    1238    1239     385     386     387     457     458
     467     468    1234    1235    1236    1237    1238    1239    1240    1241
     386     387     388     457     458     459     466     467    1235    1236
    1237    1238    1239    1240    1241    1242    1243    1343    1357     387
     388     389     446     457     458     467    1237    1238    1239    1240
    1241    1242    1243    1244     388     389     390     446     447     456
     457    1239    1240    1241    1242    1243    1244    1245    1246     389
     390     391     446     447     448     455     456    1240    1241    1242
    1243    1244    1245    1246    1247    1248    1328    1342     390     391
     392     435     446     447     456    1242    1243    1244    1245    1246
    1247    1248    1249     391     392     393     435     436     445     446
    1244    1245    1246    1247    1248    1249    1250    1251     392     393
     394     435     436     437     444     445    1245    1246    1247    1248
    1249    1250    1251    1252    1253    1313    1327     393     394     395
     424     435     436     445    1247    1248    1249    1250    1251    1252
    1253    1254     394     395     396     424     425     434     435    1249
    1250    1251    1252    1253    1254    1255    1256     395     396     397
     424     425     426     433     434    1250    1251    1252    1253    1254
    1255    1256    1257    1258    1298    1312     396     397     398     413
     424     425     434    1252    1253    1254    1255    1256    1257    1258
    1259     397     398     399     413     414     423     424    1254    1255
    1256    1257    1258    1259    1260    1261     398     399     400     413
     414     415     422     423    1255    1256    1257    1258    1259    1260
    1261    1262    1263    1283    1297     399     400     401     402     413
     414     423    1257    1258    1259    1260    1261    1262    1263    1264
     400     401     402     403     412     413    1259    1260    1261    1262
    1263    1264    1265    1266    1267     401     402     403     404     411
     412    1260    1261    1262    1263    1264    1265    1266    1267    1268
    1282     402     403     412    1262    1263    1264    1265    1266    1267
     403     404     405     411     412    1262    1263    1264    1265    1266
    1267    1268    1269    1281    1282     404     405     406     411     412
    1264    1268    1269    1282     405     406     407     411     412    1268
    1269    1270    1271    1281     406     407     408     409     410     411
     412    1268    1269    1270    1271    1281    1282     407     408     409
     410     411     412    1269    1270    1271    1272    1273    1274    1275
    1276    1277    1278    1279    1280    1281     408     409     410     411
    1270    1271    1272    1273    1274    1275    1276    1277    1278    1279
    1280     409     410    1270    1271    1272    1273    1274    1275    1276
    1277    1278    1279    1280     410    1270    1271    1272    1273    1274
    1275    1276    1277    1278    1279    1280    1270    1271    1272    1273
    1274    1275    1276    1277    1278    1279    1280     412    1269    1270
    1271    1281    1282    1264    1268    1281    1282     414     415     416
     422     423    1257    1258    1259    1260    1261    1283    1284    1296
    1297     415     416     417     422     423    1259    1283    1284    1297
     416     417     418     422     423    1283    1284    1285    1286    1296
     417     418     419     420     421     422     423    1283    1284    1285
    1286    1296    1297     418     419     420     421     422     423    1284
    1285    1286    1287    1288    1289    1290    1291    1292    1293    1294
    1295    1296     419     420     421     422    1285    1286    1287    1288
    1289    1290    1291    1292    1293    1294    1295     420     421    1285
    1286    1287    1288    1289    1290    1291    1292    1293    1294    1295
     421    1285    1286    1287    1288    1289    1290    1291    1292    1293
    1294    1295    1285    1286    1287    1288    1289    1290    1291    1292
    1293    1294    1295     423    1284    1285    1286    1296    1297    1259
    1283    1296    1297     425     426     427     433     434    1252    1253
    1254    1255    1256    1298    1299    1311    1312     426     427     428
     433     434    1254    1298    1299    1312     427     428     429     433
     434    1298    1299    1300    1301    1311     428     429     430     431
     432     433     434    1298    1299    1300    1301    1311    1312     429
     430     431     432     433     434    1299    1300    1301    1302    1303
    1304    1305    1306    1307    1308    1309    1310    1311     430     431
     432     433    1300    1301    1302    1303    1304    1305    1306    1307
    1308    1309    1310     431     432    1300    1301    1302    1303    1304
    1305    1306    1307    1308    1309    1310     432    1300    1301    1302
    1303    1304    1305    1306    1307    1308    1309    1310    1300    1301
    1302    1303    1304    1305    1306    1307    1308    1309    1310     434
    1299    1300    1301    1311    1312    1254    1298    1311    1312     436
     437     438     444     445    1247    1248    1249    1250    1251    1313
    1314    1326    1327     437     438     439     444     445    1249    1313
    1314    1327     438     439     440     444     445    1313    1314    1315
    1316    1326     439     440     441     442     443     444     445    1313
    1314    1315    1316    1326    1327     440     441     442     443     444
     445    1314    1315    1316    1317    1318    1319    1320    1321    1322
    1323    1324    1325    1326     441     442     443     444    1315    1316
    1317    1318    1319    1320    1321    1322    1323    1324    1325     442
     443    1315    1316    1317    1318    1319    1320    1321    1322    1323
    1324    1325     443    1315    1316    1317    1318    1319    1320    1321
    1322    1323    1324    1325    1315    1316    1317    1318    1319    1320
    1321    1322    1323    1324    1325     445    1314    1315    1316    1326
    1327    1249    1313    1326    1327     447     448     449     455     456
    1242    1243    1244    1245    1246    1328    1329    1341    1342     448
     449     450     455     456    1244    1328    1329    1342     449     450
     451     455     456    1328    1329    1330    1331    1341     450     451
     452     453     454     455     456    1328    1329    1330    1331    1341
    1342     451     452     453     454     455     456    1329    1330    1331
    1332    1333    1334    1335    1336    1337    1338    1339    1340    1341
     452     453     454     455    1330    1331    1332    1333    1334    1335
    1336    1337    1338    1339    1340     453     454    1330    1331    1332
    1333    1334    1335    1336    1337    1338    1339    1340     454    1330
    1331    1332    1333    1334    1335    1336    1337    1338    1339    1340
    1330    1331    1332    1333    1334    1335    1336    1337    1338    1339
    1340     456    1329    1330    1331    1341    1342    1244    1328    1341
    1342     458     459     460     466     467    1237    1238    1239    1240
    1241    1343    1344    1356    1357     459     460     461     466     467
    1239    1343    1344    1357     460     461     462     466     467    1343
    1344    1345    1346    1356     461     462     463     464     465     466
     467    1343    1344    1345    1346    1356    1357     462     463     464
     465     466     467    1344    1345    1346    1347    1348    1349    1350
    1351    1352    1353    1354    1355    1356     463     464     465     466
    1345    1346    1347    1348    1349    1350    1351    1352    1353    1354
    1355     464     465    1345    1346    1347    1348    1349    1350    1351
    1352    1353    1354    1355     465    1345    1346    1347    1348    1349
    1350    1351    1352    1353    1354    1355    1345    1346    1347    1348
    1349    1350    1351    1352    1353    1354    1355     467    1344    1345
    1346    1356    1357    1239    1343    1356    1357     469     470     471
     477     478    1232    1233    1234    1235    1236    1358    1359    1371
    1372     470     471     472     477     478    1234    1358    1359    1372
     471     472     473     477     478    1358    1359    1360    1361    1371
     472     473     474     475     476     477     478    1358    1359    1360
    1361    1371    1372     473     474     475     476     477     478    1359
    1360    1361    1362    1363    1364    1365    1366    1367    1368    1369
    1370    1371     474     475     476     477    1360    1361    1362    1363
    1364    1365    1366    1367    1368    1369    1370     475     476    1360
    1361    1362    1363    1364    1365    1366    1367    1368    1369    1370
     476    1360    1361    1362    1363    1364    1365    1366    1367    1368
    1369    1370    1360    1361    1362    1363    1364    1365    1366    1367
    1368    1369    1370     478    1359    1360    1361    1371    1372    1234
    1358    1371    1372     480     481     482     488     489    1227    1228
    1229    1230    1231    1373    1374    1386    1387     481     482     483
     488     489    1229    1373    1374    1387     482     483     484     488
     489    1373    1374    1375    1376    1386     483     484     485     486
     487     488     489    1373    1374    1375    1376    1386    1387     484
     485     486     487     488     489    1374    1375    1376    1377    1378
    1379    1380    1381    1382    1383    1384    1385    1386     485     486
     487     488    1375    1376    1377    1378    1379    1380    1381    1382
    1383    1384    1385     486     487    1375    1376    1377    1378    1379
    1380    1381    1382    1383    1384    1385     487    1375    1376    1377
    1378    1379    1380    1381    1382    1383    1384    1385    1375    1376
    1377    1378    1379    1380    1381    1382    1383    1384    1385     489
    1374    1375    1376    1386    1387    1229    1373    1386    1387     491
     492     493     499     500    1222    1223    1224    1225    1226    1388
    1389    1401    1402     492     493     494     499     500    1224    1388
    1389    1402     493     494     495     499     500    1388    1389    1390
    1391    1401     494     495     496     497     498     499     500    1388
    1389    1390    1391    1401    1402     495     496     497     498     499
     500    1389    1390    1391    1392    1393    1394    1395    1396    1397
    1398    1399    1400    1401     496     497     498     499    1390    1391
    1392    1393    1394    1395    1396    1397    1398    1399    1400     497
     498    1390    1391    1392    1393    1394    1395    1396    1397    1398
    1399    1400     498    1390    1391    1392    1393    1394    1395    1396
    1397    1398    1399    1400    1390    1391    1392    1393    1394    1395
    1396    1397    1398    1399    1400     500    1389    1390    1391    1401
    1402    1224    1388    1401    1402     502     503     504     510     511
    1217    1218    1219    1220    1221    1403    1404    1416    1417     503
     504     505     510     511    1219    1403    1404    1417     504     505
     506     510     511    1403    1404    1405    1406    1416     505     506
     507     508     509     510     511    1403    1404    1405    1406    1416
    1417     506     507     508     509     510     511    1404    1405    1406
    1407    1408    1409    1410    1411    1412    1413    1414    1415    1416
     507     508     509     510    1405    1406    1407    1408    1409    1410
    1411    1412    1413    1414    1415     508     509    1405    1406    1407
    1408    1409    1410    1411    1412    1413    1414    1415     509    1405
    1406    1407    1408    1409    1410    1411    1412    1413    1414    1415
    1405    1406    1407    1408    1409    1410    1411    1412    1413    1414
    1415     511    1404    1405    1406    1416    1417    1219    1403    1416
    1417     513     514     515     521     522    1212    1213    1214    1215
    1216    1418    1419    1431    1432     514     515     516     521     522
    1214    1418    1419    1432     515     516     517     521     522    1418
    1419    1420    1421    1431     516     517     518     519     520     521
     522    1418    1419    1420    1421    1431    1432     517     518     519
     520     521     522    1419    1420    1421    1422    1423    1424    1425
    1426    1427    1428    1429    1430    1431     518     519     520     521
    1420    1421    1422    1423    1424    1425    1426    1427    1428    1429
    1430     519     520    1420    1421    1422    1423    1424    1425    1426
    1427    1428    1429    1430     520    1420    1421    1422    1423    1424
    1425    1426    1427    1428    1429    1430    1420    1421    1422    1423
    1424    1425    1426    1427    1428    1429    1430     522    1419    1420
    1421    1431    1432    1214    1418    1431    1432     524     525     526
     532     533    1207    1208    1209    1210    1211    1433    1434    1446
    1447     525     526     527     532     533    1209    1433    1434    1447
     526     527     528     532     533    1433    1434    1435    1436    1446
     527     528     529     530     531     532     533    1433    1434    1435
    1436    1446    1447     528     529     530     531     532     533    1434
    1435    1436    1437    1438    1439    1440    1441    1442    1443    1444
    1445    1446     529     530     531     532    1435    1436    1437    1438
    1439    1440    1441    1442    1443    1444    1445     530     531    1435
    1436    1437    1438    1439    1440    1441    1442    1443    1444    1445
     531    1435    1436    1437    1438    1439    1440    1441    1442    1443
    1444    1445    1435    1436    1437    1438    1439    1440    1441    1442
    1443    1444    1445     533    1434    1435    1436    1446    1447    1209
    1433    1446    1447     535     536     537     543     544     545     982
     983    1205    1206    1448    1449    1461    1462     536     537     538
     543     544    1448    1449    1462     537     538     539     543     544
    1448    1449    1450    1451    1461     538     539     540     541     542
     543     544    1448    1449    1450    1451    1461    1462     539     540
     541     542     543     544    1449    1450    1451    1452    1453    1454
    1455    1456    1457    1458    1459    1460    1461     540     541     542
     543    1450    1451    1452    1453    1454    1455    1456    1457    1458
    1459    1460     541     542    1450    1451    1452    1453    1454    1455
    1456    1457    1458    1459    1460     542    1450    1451    1452    1453
    1454    1455    1456    1457    1458    1459    1460    1450    1451    1452
    1453    1454    1455    1456    1457    1458    1459    1460     544    1449
    1450    1451    1461    1462    1448    1461    1462     546     981    1463
    1464     980    1463    1464     548     549     550     556     557     735
     736     737     738     739    1465    1466    1478    1479     549     550
     551     556     557     737    1465    1466    1479     550     551     552
     556     557    1465    1466    1467    1468    1478     551     552     553
     554     555     556     557    1465    1466    1467    1468    1478    1479
     552     553     554     555     556     557    1466    1467    1468    1469
    1470    1471    1472    1473    1474    1475    1476    1477    1478     553
     554     555     556    1467    1468    1469    1470    1471    1472    1473
    1474    1475    1476    1477     554     555    1467    1468    1469    1470
    1471    1472    1473    1474    1475    1476    1477     555    1467    1468
    1469    1470    1471    1472    1473    1474    1475    1476    1477    1467
    1468    1469    1470    1471    1472    1473    1474    1475    1476    1477
     557    1466    1467    1468    1478    1479     737    1465    1478    1479
     559     560     561     567     568     730     731     732     733     734
    1480    1481    1493    1494     560     561     562     567     568     732
    1480    1481    1494     561     562     563     567     568    1480    1481
    1482    1483    1493     562     563     564     565     566     567     568
    1480    1481    1482    1483    1493    1494     563     564     565     566
     567     568    1481    1482    1483    1484    1485    1486    1487    1488
    1489    1490    1491    1492    1493     564     565     566     567    1482
    1483    1484    1485    1486    1487    1488    1489    1490    1491    1492
     565     566    1482    1483    1484    1485    1486    1487    1488    1489
    1490    1491    1492     566    1482    1483    1484    1485    1486    1487
    1488    1489    1490    1491    1492    1482    1483    1484    1485    1486
    1487    1488    1489    1490    1491    1492     568    1481    1482    1483
    1493    1494     732    1480    1493    1494     570     571     572     578
     579     725     726     727     728     729    1495    1496    1508    1509
     571     572     573     578     579     727    1495    1496    1509     572
     573     574     578     579    1495    1496    1497    1498    1508     573
     574     575     576     577     578     579    1495    1496    1497    1498
    1508    1509     574     575     576     577     578     579    1496    1497
    1498    1499    1500    1501    1502    1503    1504    1505    1506    1507
    1508     575     576     577     578    1497    1498    1499    1500    1501
    1502    1503    1504    1505    1506    1507     576     577    1497    1498
    1499    1500    1501    1502    1503    1504    1505    1506    1507     577
    1497    1498    1499    1500    1501    1502    1503    1504    1505    1506
    1507    1497    1498    1499    1500    1501    1502    1503    1504    1505
    1506    1507     579    1496    1497    1498    1508    1509     727    1495
    1508    1509     581     582     583     589     590     720     721     722
     723     724    1510    1511    1523    1524     582     583     584     589
     590     722    1510    1511    1524     583     584     585     589     590
    1510    1511    1512    1513    1523     584     585     586     587     588
     589     590    1510    1511    1512    1513    1523    1524     585     586
     587     588     589     590    1511    1512    1513    1514    1515    1516
    1517    1518    1519    1520    1521    1522    1523     586     587     588
     589    1512    1513    1514    1515    1516    1517    1518    1519    1520
    1521    1522     587     588    1512    1513    1514    1515    1516    1517
    1518    1519    1520    1521    1522     588    1512    1513    1514    1515
    1516    1517    1518    1519    1520    1521    1522    1512    1513    1514
    1515    1516    1517    1518    1519    1520    1521    1522     590    1511
    1512    1513    1523    1524     722    1510    1523    1524     592     593
     594     600     601     715     716     717     718     719    1525    1526
    1538    1539     593     594     595     600     601     717    1525    1526
    1539     594     595     596     600     601    1525    1526    1527    1528
    1538     595     596     597     598     599     600     601    1525    1526
    1527    1528    1538    1539     596     597     598     599     600     601
    1526    1527    1528    1529    1530    1531    1532    1533    1534    1535
    1536    1537    1538     597     598     599     600    1527    1528    1529
    1530    1531    1532    1533    1534    1535    1536    1537     598     599
    1527    1528    1529    1530    1531    1532    1533    1534    1535    1536
    1537     599    1527    1528    1529    1530    1531    1532    1533    1534
    1535    1536    1537    1527    1528    1529    1530    1531    1532    1533
    1534    1535    1536    1537     601    1526    1527    1528    1538    1539
     717    1525    1538    1539     603     604     605     611     612     710
     711     712     713     714    1540    1541    1553    1554     604     605
     606     611     612     712    1540    1541    1554     605     606     607
     611     612    1540    1541    1542    1543    1553     606     607     608
     609     610     611     612    1540    1541    1542    1543    1553    1554
     607     608     609     610     611     612    1541    1542    1543    1544
    1545    1546    1547    1548    1549    1550    1551    1552    1553     608
     609     610     611    1542    1543    1544    1545    1546    1547    1548
    1549    1550    1551    1552     609     610    1542    1543    1544    1545
    1546    1547    1548    1549    1550    1551    1552     610    1542    1543
    1544    1545    1546    1547    1548    1549    1550    1551    1552    1542
    1543    1544    1545    1546    1547    1548    1549    1550    1551    1552
     612    1541    1542    1543    1553    1554     712    1540    1553    1554
     614     615     616     622     623     705     706     707     708     709
    1555    1556    1568    1569     615     616     617     622     623     707
    1555    1556    1569     616     617     618     622     623    1555    1556
    1557    1558    1568     617     618     619     620     621     622     623
    1555    1556    1557    1558    1568    1569     618     619     620     621
     622     623    1556    1557    1558    1559    1560    1561    1562    1563
    1564    1565    1566    1567    1568     619     620     621     622    1557
    1558    1559    1560    1561    1562    1563    1564    1565    1566    1567
     620     621    1557    1558    1559    1560    1561    1562    1563    1564
    1565    1566    1567     621    1557    1558    1559    1560    1561    1562
    1563    1564    1565    1566    1567    1557    1558    1559    1560    1561
    1562    1563    1564    1565    1566    1567     623    1556    1557    1558
    1568    1569     707    1555    1568    1569     625     626     627     633
     634     700     701     702     703     704    1570    1571    1583    1584
     626     627     628     633     634     702    1570    1571    1584     627
     628     629     633     634    1570    1571    1572    1573    1583     628
     629     630     631     632     633     634    1570    1571    1572    1573
    1583    1584     629     630     631     632     633     634    1571    1572
    1573    1574    1575    1576    1577    1578    1579    1580    1581    1582
    1583     630     631     632     633    1572    1573    1574    1575    1576
    1577    1578    1579    1580    1581    1582     631     632    1572    1573
    1574    1575    1576    1577    1578    1579    1580    1581    1582     632
    1572    1573    1574    1575    1576    1577    1578    1579    1580    1581
    1582    1572    1573    1574    1575    1576    1577    1578    1579    1580
    1581    1582     634    1571    1572    1573    1583    1584     702    1570
    1583    1584     636     637     638     644     645     695     696     697
     698     699    1585    1586    1598    1599     637     638     639     644
     645     697    1585    1586    1599     638     639     640     644     645
    1585    1586    1587    1588    1598     639     640     641     642     643
     644     645    1585    1586    1587    1588    1598    1599     640     641
     642     643     644     645    1586    1587    1588    1589    1590    1591
    1592    1593    1594    1595    1596    1597    1598     641     642     643
     644    1587    1588    1589    1590    1591    1592    1593    1594    1595
    1596    1597     642     643    1587    1588    1589    1590    1591    1592
    1593    1594    1595    1596    1597     643    1587    1588    1589    1590
    1591    1592    1593    1594    1595    1596    1597    1587    1588    1589
    1590    1591    1592    1593    1594    1595    1596    1597     645    1586
    1587    1588    1598    1599     697    1585    1598    1599     647     648
     649     655     656     690     691     692     693     694    1600    1601
    1613    1614     648     649     650     655     656     692    1600    1601
    1614     649     650     651     655     656    1600    1601    1602    1603
    1613     650     651     652     653     654     655     656    1600    1601
    1602    1603    1613    1614     651     652     653     654     655     656
    1601    1602    1603    1604    1605    1606    1607    1608    1609    1610
    1611    1612    1613     652     653     654     655    1602    1603    1604
    1605    1606    1607    1608    1609    1610    1611    1612     653     654
    1602    1603    1604    1605    1606    1607    1608    1609    1610    1611
    1612     654    1602    1603    1604    1605    1606    1607    1608    1609
    1610    1611    1612    1602    1603    1604    1605    1606    1607    1608
    1609    1610    1611    1612     656    1601    1602    1603    1613    1614
     692    1600    1613    1614     658     659     660     666     667     685
     686     687     688     689    1615    1616    1628    1629     659     660
     661     666     667     687    1615    1616    1629     660     661     662
     666     667    1615    1616    1617    1618    1628     661     662     663
     664     665     666     667    1615    1616    1617    1618    1628    1629
     662     663     664     665     666     667    1616    1617    1618    1619
    1620    1621    1622    1623    1624    1625    1626    1627    1628     663
     664     665     666    1617    1618    1619    1620    1621    1622    1623
    1624    1625    1626    1627     664     665    1617    1618    1619    1620
    1621    1622    1623    1624    1625    1626    1627     665    1617    1618
    1619    1620    1621    1622    1623    1624    1625    1626    1627    1617
    1618    1619    1620    1621    1622    1623    1624    1625    1626    1627
     667    1616    1617    1618    1628    1629     687    1615    1628    1629
     669     670     671     677     678     679     680     681     682     683
     684    1630    1631    1643    1644     670     671     672     677     678
     682    1630    1631    1644     671     672     673     677     678    1630
    1631    1632    1633    1643     672     673     674     675     676     677
     678    1630    1631    1632    1633    1643    1644     673     674     675
     676     677     678    1631    1632    1633    1634    1635    1636    1637
    1638    1639    1640    1641    1642    1643     674     675     676     677
    1632    1633    1634    1635    1636    1637    1638    1639    1640    1641
    1642     675     676    1632    1633    1634    1635    1636    1637    1638
    1639    1640    1641    1642     676    1632    1633    1634    1635    1636
    1637    1638    1639    1640    1641    1642    1632    1633    1634    1635
    1636    1637    1638    1639    1640    1641    1642     678    1631    1632
    1633    1643    1644     682    1630    1643    1644     680     681     682
     681     682     682     683     684     684     685     686     685     686
     686     687     687     688     689     689     690     691     690     691
     691     692     692     693     694     694     695     696     695     696
     696     697     697     698     699     699     700     701     700     701
     701     702     702     703     704     704     705     706     705     706
     706     707     707     708     709     709     710     711     710     711
     711     712     712     713     714     714     715     716     715     716
     716     717     717     718     719     719     720     721     720     721
     721     722     722     723     724     724     725     726     725     726
     726     727     727     728     729     729     730     731     730     731
     731     732     732     733     734     734     735     736     735     736
     736     737     737     738     739     739     740     741     740     741
     741       0     743     744     745     744     745     745     746     746
     747     748     748     749     750     749     750     750     751     751
     752     753     753     754     755     754     755     755     756     756
     757     758     758     759     760     759     760     760     761     761
     762     763     763     764     765     764     765     765     766     766
     767     768     768     769     770     769     770     770     771     771
     772     773     773     774     775     774     775     775     776     776
     777     778     778     779     780     779     780     780     781     781
     782     783     783     784     785     784     785     785     786     786
     787     788     788     789     790     789     790     790     791     791
     792     793     793     794     795     794     795     795     796     796
     797     798     799     798     799     799       0     801       0     803
       0     805     806     806       0     808     809     809       0     811
     812     812       0     814       0     816       0     818       0     820
     821     821       0     823     824     824       0     826     827     827
       0     829       0     831       0     833       0     835     836     836
       0     838     839     839       0     841     842     842       0     844
       0     846       0     848       0     850     851     851       0     853
     854     854       0     856     857     857       0     859       0     861
       0     863       0     865     866     866       0     868     869     869
       0     871     872     872       0     874       0     876       0     878
       0     880     881     881       0     883     884     884       0     886
     887     887       0     889       0     891       0     893       0     895
     896     896       0     898     899     899       0     901     902     902
       0     904       0     906       0     908       0     910     911     911
       0     913     914     914       0     916     917     917       0     919
       0     921       0     923       0     925     926     926       0     928
     929     929       0     931     932     932       0     934       0     936
       0     938       0     940     941     941       0     943     944     944
       0     946     947     947       0     949       0     951       0     953
       0     955     956     956       0     958     959     959       0     961
     962     962       0     964       0     966       0     968       0     970
     971     971       0     973     974     974       0     976     977     977
       0     979       0     981       0     983     984     985     984     985
     985     986     986     987     988     988     989     990     989     990
     990     991     991     992     993     993     994     995     994     995
     995     996     996     997     998     998     999    1000     999    1000
    1000    1001    1001    1002    1003    1003    1004    1005    1004    1005
    1005    1006    1006    1007    1008    1008    1009    1010    1009    1010
    1010    1011    1011    1012    1013    1013    1014    1015    1014    1015
    1015    1016    1016    1017    1018    1018    1019    1020    1019    1020
    1020    1021    1021    1022    1023    1023    1024    1025    1024    1025
    1025    1026    1026    1027    1028    1028    1029    1030    1029    1030
    1030    1031    1031    1032    1033    1033    1034    1035    1034    1035
    1035    1036    1036    1037    1038    1039    1038    1039    1039       0
    1041       0    1043       0    1045    1046    1046       0    1048    1049
    1049       0    1051    1052    1052       0    1054       0    1056       0
    1058       0    1060    1061    1061       0    1063    1064    1064       0
    1066    1067    1067       0    1069       0    1071       0    1073       0
    1075    1076    1076       0    1078    1079    1079       0    1081    1082
    1082       0    1084       0    1086       0    1088       0    1090    1091
    1091       0    1093    1094    1094       0    1096    1097    1097       0
    1099       0    1101       0    1103       0    1105    1106    1106       0
    1108    1109    1109       0    1111    1112    1112       0    1114       0
    1116       0    1118       0    1120    1121    1121       0    1123    1124
    1124       0    1126    1127    1127       0    1129       0    1131       0
    1133       0    1135    1136    1136       0    1138    1139    1139       0
    1141    1142    1142       0    1144       0    1146       0    1148       0
    1150    1151    1151       0    1153    1154    1154       0    1156    1157
    1157       0    1159       0    1161       0    1163       0    1165    1166
    1166       0    1168    1169    1169       0    1171    1172    1172       0
    1174       0    1176       0    1178       0    1180    1181    1181       0
    1183    1184    1184       0    1186    1187    1187       0    1189       0
    1191       0    1193       0    1195    1196    1196       0    1198    1199
    1199       0    1201    1202    1202       0    1204       0    1206    1207
    1208    1207    1208    1208    1209    1209    1210    1211    1211    1212
    1213    1212    1213    1213    1214    1214    1215    1216    1216    1217
    1218    1217    1218    1218    1219    1219    1220    1221    1221    1222
    1223    1222    1223    1223    1224    1224    1225    1226    1226    1227
    1228    1227    1228    1228    1229    1229    1230    1231    1231    1232
    1233    1232    1233    1233    1234    1234    1235    1236    1236    1237
    1238    1237    1238    1238    1239    1239    1240    1241    1241    1242
    1243    1242    1243    1243    1244    1244    1245    1246    1246    1247
    1248    1247    1248    1248    1249    1249    1250    1251    1251    1252
    1253    1252    1253    1253    1254    1254    1255    1256    1256    1257
    1258    1257    1258    1258    1259    1259    1260    1261    1261    1262
    1263    1262    1263    1263    1264    1264    1265    1266    1267    1266
    1267    1267       0    1269       0    1271       0    1273    1274    1274
       0    1276    1277    1277       0    1279    1280    1280       0    1282
       0    1284       0    1286       0    1288    1289    1289       0    1291
    1292    1292       0    1294    1295    1295       0    1297       0    1299
       0    1301       0    1303    1304    1304       0    1306    1307    1307
       0    1309    1310    1310       0    1312       0    1314       0    1316
       0    1318    1319    1319       0    1321    1322    1322       0    1324
    1325    1325       0    1327       0    1329       0    1331       0    1333
    1334    1334       0    1336    1337    1337       0    1339    1340    1340
       0    1342       0    1344       0    1346       0    1348    1349    1349
       0    1351    1352    1352       0    1354    1355    1355       0    1357
       0    1359       0    1361       0    1363    1364    1364       0    1366
    1367    1367       0    1369    1370    1370       0    1372       0    1374
       0    1376       0    1378    1379    1379       0    1381    1382    1382
       0    1384    1385    1385       0    1387       0    1389       0    1391
       0    1393    1394    1394       0    1396    1397    1397       0    1399
    1400    1400       0    1402       0    1404       0    1406       0    1408
    1409    1409       0    1411    1412    1412       0    1414    1415    1415
       0    1417       0    1419       0    1421       0    1423    1424    1424
       0    1426    1427    1427       0    1429    1430    1430       0    1432
       0    1434       0    1436       0    1438    1439    1439       0    1441
    1442    1442       0    1444    1445    1445       0    1447       0    1449
       0    1451       0    1453    1454    1454       0    1456    1457    1457
       0    1459    1460    1460       0    1462       0    1464       0    1466
       0    1468       0    1470    1471    1471       0    1473    1474    1474
       0    1476    1477    1477       0    1479       0    1481       0    1483
       0    1485    1486    1486       0    1488    1489    1489       0    1491
    1492    1492       0    1494       0    1496       0    1498       0    1500
    1501    1501       0    1503    1504    1504       0    1506    1507    1507
       0    1509       0    1511       0    1513       0    1515    1516    1516
       0    1518    1519    1519       0    1521    1522    1522       0    1524
       0    1526       0    1528       0    1530    1531    1531       0    1533
    1534    1534       0    1536    1537    1537       0    1539       0    1541
       0    1543       0    1545    1546    1546       0    1548    1549    1549
       0    1551    1552    1552       0    1554       0    1556       0    1558
       0    1560    1561    1561       0    1563    1564    1564       0    1566
    1567    1567       0    1569       0    1571       0    1573       0    1575
    1576    1576       0    1578    1579    1579       0    1581    1582    1582
       0    1584       0    1586       0    1588       0    1590    1591    1591
       0    1593    1594    1594       0    1596    1597    1597       0    1599
       0    1601       0    1603       0    1605    1606    1606       0    1608
    1609    1609       0    1611    1612    1612       0    1614       0    1616
       0    1618       0    1620    1621    1621       0    1623    1624    1624
       0    1626    1627    1627       0    1629       0    1631       0    1633
       0    1635    1636    1636       0    1638    1639    1639       0    1641
    1642    1642       0    1644       0       0       0       0       0       0
       0       0       0       0       0       0       0       0       0       0
       0       0       0       0       0       0       0       0       0       0
       0       0       0       0       0       0       0       0       0       0
       0       0       0       0       0       0       0       0       0       0
       0       0       0    1694    1695    1695       0    1697    1698    1698
       0    1700    1701    1701       0    1703    1704    1704       0    1706
    1707    1707       0    1709    1710    1710       0    1712    1713    1713
       0    1715    1716    1716       0    1718    1719    1719       0    1721
    1722    1722       0    1724    1725    1725       0    1727    1728    1728
       0    1730    1731    1731       0    1733    1734    1734       0    1736
    1737    1737       0    1739    1740    1740       0    1742    1743    1743
       0    1745    1746    1746       0    1748    1749    1749       0    1751
    1752    1752       0    1754    1755    1755       0    1757    1758    1758
       0    1760    1761    1761       0    1763    1764    1764       0    1766
    1767    1767       0    1769    1770    1770       0    1772    1773    1773
       0    1775    1776    1776       0    1778    1779    1779       0    1781
    1782    1782       0    1784    1785    1785       0    1787    1788    1788
       0    1790    1791    1791       0    1793    1794    1794       0    1796
    1797    1797       0    1799    1800    1800       0    1802    1803    1803
       0    1805    1806    1806       0    1808    1809    1809       0    1811
    1812    1812       0    1814    1815    1815       0    1817    1818    1818
       0    1820    1821    1821       0    1823    1824    1824       0    1826
    1827    1827       0    1829    1830    1830       0    1832    1833    1833
       0    1835    1836    1836       0    1838    1839    1839       0    1841
    1842    1842       0    1844    1845    1845       0    1847    1848    1848
       0    1850    1851    1851       0    1853    1854    1854       0    1856
    1857    1857       0    1859    1860    1860       0    1862    1863    1863
       0    1865    1866    1866       0    1868    1869    1869       0    1871
    1872    1872       0    1874    1875    1875       0    1877    1878    1878
       0    1880    1881    1881       0    1883    1884    1884       0    1886
    1887    1887       0    1889    1890    1890       0    1892    1893    1893
       0    1895    1896    1896       0    1898    1899    1899       0    1901
    1902    1902       0    1904    1905    1905       0    1907    1908    1908
       0    1910    1911    1911       0    1913    1914    1914       0    1916
    1917    1917       0    1919    1920    1920       0    1922    1923    1923
       0    1925    1926    1926       0    1928    1929    1929       0    1931
    1932    1932       0    1934    1935    1935       0    1937    1938    1938
       0    1940    1941    1941       0    1943    1944    1944       0    1946
    1947    1947       0    1949    1950    1950       0    1952    1953    1953
       0    1955    1956    1956       0    1958    1959    1959       0    1961
    1962    1962       0    1964    1965    1965       0    1967    1968    1968
       0    1970    1971    1971       0    1973    1974    1974       0    1976
    1977    1977       0    1979    1980    1980       0    1982    1983    1983
       0    1985    1986    1986       0    1988    1989    1989       0    1991
    1992    1992       0    1994    1995    1995       0    1997    1998    1998
       0    2000    2001    2001       0    2003    2004    2004       0    2006
    2007    2007       0    2009    2010    2010       0    2012    2013    2013
       0    2015    2016    2016       0    2018    2019    2019       0    2021
    2022    2022       0    2024    2025    2025       0    2027    2028    2028
       0    2030    2031    2031       0    2033    2034    2034       0    2036
    2037    2037       0    2039    2040    2040       0    2042    2043    2043
       0    2045    2046    2046       0    2048    2049    2049       0    2051
    2052    2052       0    2054    2055    2055       0    2057    2058    2058
       0    2060    2061    2061       0    2063    2064    2064       0    2066
    2067    2067       0    2069    2070    2070       0    2072    2073    2073
       0    2075    2076    2076       0    2078    2079    2079       0    2081
    2082    2082       0    2084    2085    2085       0    2087    2088    2088
       0    2090    2091    2091       0    2093    2094    2094       0    2096
    2097    2097       0    2099    2100    2100       0    2102    2103    2103
       0    2105    2106    2106       0    2108    2109    2109       0    2111
    2112    2112       0    2114    2115    2115       0    2117    2118    2118
       0    2120    2121    2121       0    2123    2124    2124       0    2126
    2127    2127       0    2129    2130    2130       0    2132    2133    2133
       0    2135    2136    2136       0    2138    2139    2139       0    2141
    2142    2142       0    2144    2145    2145       0    2147    2148    2148
       0    2150    2151    2151       0    2153    2154    2154       0    2156
    2157    2157       0    2159    2160    2160       0    2162    2163    2163
       0    2165    2166    2166       0    2168    2169    2169       0    2171
    2172    2172       0    2174    2175    2175       0    2177    2178    2178
       0    2180    2181    2181       0    2183    2184    2184       0    2186
    2187    2187       0    2189    2190    2190       0    2192    2193    2193
       0    2195    2196    2196       0    2198    2199    2199       0    2201
    2202    2202       0    2204    2205    2205       0    2207    2208    2208
       0    2210    2211    2211       0    2213    2214    2214       0    2216
    2217    2217       0    2219    2220    2220       0    2222    2223    2223
       0    2225    2226    2226       0    2228    2229    2229       0    2231
    2232    2232       0    2234    2235    2235       0    2237    2238    2238
       0    2240    2241    2241       0    2243    2244    2244       0    2246
    2247    2247       0    2249    2250    2250       0    2252    2253    2253
       0    2255    2256    2256       0    2258    2259    2259       0    2261
    2262    2262       0    2264    2265    2265       0    2267    2268    2268
       0    2270    2271    2271       0    2273    2274    2274       0    2276
    2277    2277       0    2279    2280    2280       0    2282    2283    2283
       0    2285    2286    2286       0    2288    2289    2289       0    2291
    2292    2292       0    2294    2295    2295       0    2297    2298    2298
       0    2300    2301    2301       0    2303    2304    2304       0    2306
    2307    2307       0    2309    2310    2310       0    2312    2313    2313
       0    2315    2316    2316       0    2318    2319    2319       0    2321
    2322    2322       0    2324    2325    2325       0    2327    2328    2328
       0    2330    2331    2331       0    2333    2334    2334       0    2336
    2337    2337       0    2339    2340    2340       0    2342    2343    2343
       0    2345    2346    2346       0    2348    2349    2349       0    2351
    2352    2352       0    2354    2355    2355       0    2357    2358    2358
       0    2360    2361    2361       0    2363    2364    2364       0    2366
    2367    2367       0    2369    2370    2370       0    2372    2373    2373
       0    2375    2376    2376       0    2378    2379    2379       0    2381
    2382    2382       0    2384    2385    2385       0    2387    2388    2388
       0    2390    2391    2391       0    2393    2394    2394       0    2396
    2397    2397       0    2399    2400    2400       0    2402    2403    2403
       0    2405    2406    2406       0    2408    2409    2409       0    2411
    2412    2412       0    2414    2415    2415       0    2417    2418    2418
       0    2420    2421    2421       0    2423    2424    2424       0    2426
    2427    2427       0    2429    2430    2430       0    2432    2433    2433
       0    2435    2436    2436       0    2438    2439    2439       0    2441
    2442    2442       0    2444    2445    2445       0    2447    2448    2448
       0    2450    2451    2451       0    2453    2454    2454       0    2456
    2457    2457       0    2459    2460    2460       0    2462    2463    2463
       0    2465    2466    2466       0    2468    2469    2469       0    2471
    2472    2472       0    2474    2475    2475       0    2477    2478    2478
       0    2480    2481    2481       0    2483    2484    2484       0    2486
    2487    2487       0    2489    2490    2490       0    2492    2493    2493
       0    2495    2496    2496       0    2498    2499    2499       0    2501
    2502    2502       0    2504    2505    2505       0    2507    2508    2508
       0    2510    2511    2511       0    2513    2514    2514       0    2516
    2517    2517       0    2519    2520    2520       0    2522    2523    2523
       0    2525    2526    2526       0    2528    2529    2529       0    2531
    2532    2532       0    2534    2535    2535       0    2537    2538    2538
       0    2540    2541    2541       0    2543    2544    2544       0    2546
    2547    2547       0    2549    2550    2550       0    2552    2553    2553
       0    2555    2556    2556       0    2558    2559    2559       0    2561
    2562    2562       0    2564    2565    2565       0    2567    2568    2568
       0    2570    2571    2571       0    2573    2574    2574       0    2576
    2577    2577       0    2579    2580    2580       0    2582    2583    2583
       0    2585    2586    2586       0    2588    2589    2589       0    2591
    2592    2592       0    2594    2595    2595       0    2597    2598    2598
       0    2600    2601    2601       0    2603    2604    2604       0    2606
    2607    2607       0    2609    2610    2610       0    2612    2613    2613
       0    2615    2616    2616       0    2618    2619    2619       0    2621
    2622    2622       0    2624    2625    2625       0    2627    2628    2628
       0    2630    2631    2631       0    2633    2634    2634       0    2636
    2637    2637       0    2639    2640    2640       0    2642    2643    2643
       0    2645    2646    2646       0    2648    2649    2649       0    2651
    2652    2652       0    2654    2655    2655       0    2657    2658    2658
       0    2660    2661    2661       0    2663    2664    2664       0    2666
    2667    2667       0    2669    2670    2670       0    2672    2673    2673
       0    2675    2676    2676       0    2678    2679    2679       0    2681
    2682    2682       0    2684    2685    2685       0    2687    2688    2688
       0    2690    2691    2691       0    2693    2694    2694       0    2696
    2697    2697       0    2699    2700    2700       0    2702    2703    2703
       0    2705    2706    2706       0    2708    2709    2709       0    2711
    2712    2712       0    2714    2715    2715       0    2717    2718    2718
       0    2720    2721    2721       0    2723    2724    2724       0    2726
    2727    2727       0    2729    2730    2730       0    2732    2733    2733
       0    2735    2736    2736       0    2738    2739    2739       0    2741
    2742    2742       0    2744    2745    2745       0    2747    2748    2748
       0    2750    2751    2751       0    2753    2754    2754       0    2756
    2757    2757       0    2759    2760    2760       0    2762    2763    2763
       0    2765    2766    2766       0    2768    2769    2769       0    2771
    2772    2772       0    2774    2775    2775       0    2777    2778    2778
       0    2780    2781    2781       0    2783    2784    2784       0    2786
    2787    2787       0    2789    2790    2790       0    2792    2793    2793
       0    2795    2796    2796       0    2798    2799    2799       0    2801
    2802    2802       0    2804    2805    2805       0    2807    2808    2808
       0    2810    2811    2811       0    2813    2814    2814       0    2816
    2817    2817       0    2819    2820    2820       0    2822    2823    2823
       0    2825    2826    2826       0    2828    2829    2829       0    2831
    2832    2832       0    2834    2835    2835       0    2837    2838    2838
       0    2840    2841    2841       0    2843    2844    2844       0    2846
    2847    2847       0    2849    2850    2850       0    2852    2853    2853
       0    2855    2856    2856       0    2858    2859    2859       0    2861
    2862    2862       0    2864    2865    2865       0    2867    2868    2868
       0    2870    2871    2871       0    2873    2874    2874       0    2876
    2877    2877       0    2879    2880    2880       0    2882    2883    2883
       0    2885    2886    2886       0    2888    2889    2889       0    2891
    2892    2892       0    2894    2895    2895       0    2897    2898    2898
       0    2900    2901    2901       0    2903    2904    2904       0    2906
    2907    2907       0    2909    2910    2910       0    2912    2913    2913
       0    2915    2916    2916       0    2918    2919    2919       0    2921
    2922    2922       0    2924    2925    2925       0    2927    2928    2928
       0    2930    2931    2931       0    2933    2934    2934       0    2936
    2937    2937       0    2939    2940    2940       0    2942    2943    2943
       0    2945    2946    2946       0    2948    2949    2949       0    2951
    2952    2952       0    2954    2955    2955       0    2957    2958    2958
       0    2960    2961    2961       0    2963    2964    2964       0    2966
    2967    2967       0    2969    2970    2970       0    2972    2973    2973
       0    2975    2976    2976       0    2978    2979    2979       0    2981
    2982    2982       0    2984    2985    2985       0    2987    2988    2988
       0    2990    2991    2991       0    2993    2994    2994       0    2996
    2997    2997       0    2999    3000    3000       0    3002    3003    3003
       0    3005    3006    3006       0    3008    3009    3009       0    3011
    3012    3012       0    3014    3015    3015       0    3017    3018    3018
       0    3020    3021    3021       0    3023    3024    3024       0    3026
    3027    3027       0    3029    3030    3030       0    3032    3033    3033
       0    3035    3036    3036       0    3038    3039    3039       0    3041
    3042    3042       0    3044    3045    3045       0    3047    3048    3048
       0    3050    3051    3051       0    3053    3054    3054       0    3056
    3057    3057       0    3059    3060    3060       0    3062    3063    3063
       0    3065    3066    3066       0    3068    3069    3069       0    3071
    3072    3072       0    3074    3075    3075       0    3077    3078    3078
       0    3080    3081    3081       0    3083    3084    3084       0    3086
    3087    3087       0    3089    3090    3090       0    3092    3093    3093
       0    3095    3096    3096       0    3098    3099    3099       0    3101
    3102    3102       0    3104    3105    3105       0    3107    3108    3108
       0    3110    3111    3111       0    3113    3114    3114       0    3116
    3117    3117       0    3119    3120    3120       0    3122    3123    3123
       0    3125    3126    3126       0    3128    3129    3129       0    3131
    3132    3132       0    3134    3135    3135       0    3137    3138    3138
       0    3140    3141    3141       0    3143    3144    3144       0    3146
    3147    3147       0    3149    3150    3150       0    3152    3153    3153
       0    3155    3156    3156       0    3158    3159    3159       0    3161
    3162    3162       0    3164    3165    3165       0    3167    3168    3168
       0    3170    3171    3171       0    3173    3174    3174       0    3176
    3177    3177       0    3179    3180    3180       0    3182    3183    3183
       0    3185    3186    3186       0    3188    3189    3189       0    3191
    3192    3192       0    3194    3195    3195       0    3197    3198    3198
       0    3200    3201    3201       0    3203    3204    3204       0    3206
    3207    3207       0    3209    3210    3210       0    3212    3213    3213
       0    3215    3216    3216       0    3218    3219    3219       0    3221
    3222    3222       0    3224    3225    3225       0    3227    3228    3228
       0    3230    3231    3231       0    3233    3234    3234       0    3236
    3237    3237       0    3239    3240    3240       0    3242    3243    3243
       0    3245    3246    3246       0    3248    3249    3249       0    3251
    3252    3252       0    3254    3255    3255       0    3257    3258    3258
       0    3260    3261    3261       0    3263    3264    3264       0    3266
    3267    3267       0    3269    3270    3270       0    3272    3273    3273
       0    3275    3276    3276       0    3278    3279    3279       0    3281
    3282    3282       0    3284    3285    3285       0    3287    3288    3288
       0    3290    3291    3291       0    3293    3294    3294       0    3296
    3297    3297       0    3299    3300    3300       0    3302    3303    3303
       0    3305    3306    3306       0    3308    3309    3309       0    3311
    3312    3312       0    3314    3315    3315       0    3317    3318    3318
       0    3320    3321    3321       0    3323    3324    3324       0    3326
    3327    3327       0    3329    3330    3330       0    3332    3333    3333
       0    3335    3336    3336       0    3338    3339    3339       0    3341
    3342    3342       0    3344    3345    3345       0    3347    3348    3348
       0    3350    3351    3351       0    3353    3354    3354       0    3356
    3357    3357       0    3359    3360    3360       0    3362    3363    3363
       0    3365    3366    3366       0    3368    3369    3369       0    3371
    3372    3372       0    3374    3375    3375       0    3377    3378    3378
       0    3380    3381    3381       0    3383    3384    3384       0    3386
    3387    3387       0    3389    3390    3390       0    3392    3393    3393
       0    3395    3396    3396       0    3398    3399    3399       0    3401
    3402    3402       0    3404    3405    3405       0    3407    3408    3408
       0    3410    3411    3411       0    3413    3414    3414       0    3416
    3417    3417       0    3419    3420    3420       0    3422    3423    3423
       0    3425    3426    3426       0    3428    3429    3429       0    3431
    3432    3432       0    3434    3435    3435       0    3437    3438    3438
       0    3440    3441    3441       0    3443    3444    3444       0    3446
    3447    3447       0    3449    3450    3450       0    3452    3453    3453
       0    3455    3456    3456       0    3458    3459    3459       0    3461
    3462    3462       0    3464    3465    3465       0    3467    3468    3468
       0    3470    3471    3471       0    3473    3474    3474       0    3476
    3477    3477       0    3479    3480    3480       0    3482    3483    3483
       0    3485    3486    3486       0    3488    3489    3489       0    3491
    3492    3492       0    3494    3495    3495       0    3497    3498    3498
       0    3500    3501    3501       0    3503    3504    3504       0    3506
    3507    3507       0    3509    3510    3510       0    3512    3513    3513
       0    3515    3516    3516       0    3518    3519    3519       0    3521
    3522    3522       0    3524    3525    3525       0    3527    3528    3528
       0    3530    3531    3531       0    3533    3534    3534       0    3536
    3537    3537       0    3539    3540    3540       0    3542    3543    3543
       0    3545    3546    3546       0    3548    3549    3549       0    3551
    3552    3552       0    3554    3555    3555       0    3557    3558    3558
       0    3560    3561    3561       0    3563    3564    3564       0    3566
    3567    3567       0    3569    3570    3570       0    3572    3573    3573
       0    3575    3576    3576       0    3578    3579    3579       0    3581
    3582    3582       0    3584    3585    3585       0    3587    3588    3588
       0    3590    3591    3591       0    3593    3594    3594       0    3596
    3597    3597       0    3599    3600    3600       0    3602    3603    3603
       0    3605    3606    3606       0    3608    3609    3609       0    3611
    3612    3612       0    3614    3615    3615       0    3617    3618    3618
       0    3620    3621    3621       0    3623    3624    3624       0    3626
    3627    3627       0    3629    3630    3630       0    3632    3633    3633
       0    3635    3636    3636       0    3638    3639    3639       0    3641
    3642    3642       0    3644    3645    3645       0    3647    3648    3648
       0    3650    3651    3651       0    3653    3654    3654       0    3656
    3657    3657       0    3659    3660    3660       0    3662    3663    3663
       0    3665    3666    3666       0    3668    3669    3669       0    3671
    3672    3672       0    3674    3675    3675       0    3677    3678    3678
       0    3680    3681    3681       0    3683    3684    3684       0    3686
    3687    3687       0    3689    3690    3690       0    3692    3693    3693
       0    3695    3696    3696       0    3698    3699    3699       0    3701
    3702    3702       0    3704    3705    3705       0    3707    3708    3708
       0    3710    3711    3711       0    3713    3714    3714       0    3716
    3717    3717       0    3719    3720    3720       0    3722    3723    3723
       0    3725    3726    3726       0    3728    3729    3729       0    3731
    3732    3732       0    3734    3735    3735       0    3737    3738    3738
       0    3740    3741    3741       0    3743    3744    3744       0    3746
    3747    3747       0    3749    3750    3750       0    3752    3753    3753
       0    3755    3756    3756       0    3758    3759    3759       0    3761
    3762    3762       0    3764    3765    3765       0    3767    3768    3768
       0    3770    3771    3771       0    3773    3774    3774       0    3776
    3777    3777       0    3779    3780    3780       0    3782    3783    3783
       0    3785    3786    3786       0    3788    3789    3789       0    3791
    3792    3792       0    3794    3795    3795       0    3797    3798    3798
       0    3800    3801    3801       0    3803    3804    3804       0    3806
    3807    3807       0    3809    3810    3810       0    3812    3813    3813
       0    3815    3816    3816       0    3818    3819    3819       0    3821
    3822    3822       0    3824    3825    3825       0    3827    3828    3828
       0    3830    3831    3831       0    3833    3834    3834       0    3836
    3837    3837       0    3839    3840    3840       0    3842    3843    3843
       0    3845    3846    3846       0    3848    3849    3849       0    3851
    3852    3852       0    3854    3855    3855       0    3857    3858    3858
       0    3860    3861    3861       0    3863    3864    3864       0    3866
    3867    3867       0    3869    3870    3870       0    3872    3873    3873
       0    3875    3876    3876       0    3878    3879    3879       0    3881
    3882    3882       0    3884    3885    3885       0    3887    3888    3888
       0    3890    3891    3891       0    3893    3894    3894       0    3896
    3897    3897       0    3899    3900    3900       0    3902    3903    3903
       0    3905    3906    3906       0    3908    3909    3909       0    3911
    3912    3912       0    3914    3915    3915       0    3917    3918    3918
       0    3920    3921    3921       0    3923    3924    3924       0    3926
    3927    3927       0    3929    3930    3930       0    3932    3933    3933
       0    3935    3936    3936       0    3938    3939    3939       0    3941
    3942    3942       0    3944    3945    3945       0    3947    3948    3948
       0    3950    3951    3951       0    3953    3954    3954       0    3956
    3957    3957       0    3959    3960    3960       0    3962    3963    3963
       0    3965    3966    3966       0    3968    3969    3969       0    3971
    3972    3972       0    3974    3975    3975       0    3977    3978    3978
       0    3980    3981    3981       0    3983    3984    3984       0    3986
    3987    3987       0    3989    3990    3990       0    3992    3993    3993
       0    3995    3996    3996       0    3998    3999    3999       0    4001
    4002    4002       0    4004    4005    4005       0    4007    4008    4008
       0    4010    4011    4011       0    4013    4014    4014       0    4016
    4017    4017       0    4019    4020    4020       0    4022    4023    4023
       0    4025    4026    4026       0    4028    4029    4029       0    4031
    4032    4032       0    4034    4035    4035       0    4037    4038    4038
       0    4040    4041    4041       0    4043    4044    4044       0    4046
    4047    4047       0    4049    4050    4050       0    4052    4053    4053
       0    4055    4056    4056       0    4058    4059    4059       0    4061
    4062    4062       0    4064    4065    4065       0    4067    4068    4068
       0    4070    4071    4071       0    4073    4074    4074       0    4076
    4077    4077       0    4079    4080    4080       0    4082    4083    4083
       0    4085    4086    4086       0    4088    4089    4089       0    4091
    4092    4092       0    4094    4095    4095       0    4097    4098    4098
       0    4100    4101    4101       0    4103    4104    4104       0    4106
    4107    4107       0    4109    4110    4110       0    4112    4113    4113
       0    4115    4116    4116       0    4118    4119    4119       0    4121
    4122    4122       0    4124    4125    4125       0    4127    4128    4128
       0    4130    4131    4131       0    4133    4134    4134       0    4136
    4137    4137       0    4139    4140    4140       0    4142    4143    4143
       0    4145    4146    4146       0    4148    4149    4149       0    4151
    4152    4152       0    4154    4155    4155       0    4157    4158    4158
       0    4160    4161    4161       0    4163    4164    4164       0    4166
    4167    4167       0    4169    4170    4170       0    4172    4173    4173
       0    4175    4176    4176       0    4178    4179    4179       0    4181
    4182    4182       0    4184    4185    4185       0    4187    4188    4188
       0    4190    4191    4191       0    4193    4194    4194       0    4196
    4197    4197       0    4199    4200    4200       0    4202    4203    4203
       0    4205    4206    4206       0    4208    4209    4209       0    4211
    4212    4212       0    4214    4215    4215       0    4217    4218    4218
       0    4220    4221    4221       0    4223    4224    4224       0    4226
    4227    4227       0    4229    4230    4230       0    4232    4233    4233
       0    4235    4236    4236       0    4238    4239    4239       0    4241
    4242    4242       0    4244    4245    4245       0    4247    4248    4248
       0    4250    4251    4251       0    4253    4254    4254       0    4256
    4257    4257       0    4259    4260    4260       0    4262    4263    4263
       0    4265    4266    4266       0    4268    4269    4269       0    4271
    4272    4272       0    4274    4275    4275       0    4277    4278    4278
       0    4280    4281    4281       0    4283    4284    4284       0    4286
    4287    4287       0    4289    4290    4290       0    4292    4293    4293
       0    4295    4296    4296       0    4298    4299    4299       0    4301
    4302    4302       0    4304    4305    4305       0    4307    4308    4308
       0    4310    4311    4311       0    4313    4314    4314       0    4316
    4317    4317       0    4319    4320    4320       0    4322    4323    4323
       0    4325    4326    4326       0    4328    4329    4329       0    4331
    4332    4332       0    4334    4335    4335       0    4337    4338    4338
       0    4340    4341    4341       0    4343    4344    4344       0    4346
    4347    4347       0    4349    4350    4350       0    4352    4353    4353
       0    4355    4356    4356       0    4358    4359    4359       0    4361
    4362    4362       0    4364    4365    4365       0    4367    4368    4368
       0    4370    4371    4371       0    4373    4374    4374       0    4376
    4377    4377       0    4379    4380    4380       0    4382    4383    4383
       0    4385    4386    4386       0    4388    4389    4389       0    4391
    4392    4392       0    4394    4395    4395       0    4397    4398    4398
       0    4400    4401    4401       0    4403    4404    4404       0    4406
    4407    4407       0    4409    4410    4410       0    4412    4413    4413
       0    4415    4416    4416       0    4418    4419    4419       0    4421
    4422    4422       0    4424    4425    4425       0    4427    4428    4428
       0    4430    4431    4431       0    4433    4434    4434       0    4436
    4437    4437       0    4439    4440    4440       0    4442    4443    4443
       0    4445    4446    4446       0    4448    4449    4449       0    4451
    4452    4452       0    4454    4455    4455       0    4457    4458    4458
       0    4460    4461    4461       0    4463    4464    4464       0    4466
    4467    4467       0    4469    4470    4470       0    4472    4473    4473
       0    4475    4476    4476       0    4478    4479    4479       0    4481
    4482    4482       0    4484    4485    4485       0    4487    4488    4488
       0    4490    4491    4491       0    4493    4494    4494       0    4496
    4497    4497       0    4499    4500    4500       0    4502    4503    4503
       0    4505    4506    4506       0    4508    4509    4509       0    4511
    4512    4512       0    4514    4515    4515       0    4517    4518    4518
       0    4520    4521    4521       0    4523    4524    4524       0    4526
    4527    4527       0    4529    4530    4530       0    4532    4533    4533
       0    4535    4536    4536       0    4538    4539    4539       0    4541
    4542    4542       0    4544    4545    4545       0    4547    4548    4548
       0    4550    4551    4551       0    4553    4554    4554       0    4556
    4557    4557       0    4559    4560    4560       0    4562    4563    4563
       0    4565    4566    4566       0    4568    4569    4569       0    4571
    4572    4572       0    4574    4575    4575       0    4577    4578    4578
       0    4580    4581    4581       0    4583    4584    4584       0    4586
    4587    4587       0    4589    4590    4590       0    4592    4593    4593
       0    4595    4596    4596       0    4598    4599    4599       0    4601
    4602    4602       0    4604    4605    4605       0    4607    4608    4608
       0    4610    4611    4611       0    4613    4614    4614       0    4616
    4617    4617       0    4619    4620    4620       0    4622    4623    4623
       0    4625    4626    4626       0    4628    4629    4629       0    4631
    4632    4632       0    4634    4635    4635       0    4637    4638    4638
       0    4640    4641    4641       0    4643    4644    4644       0    4646
    4647    4647       0    4649    4650    4650       0    4652    4653    4653
       0    4655    4656    4656       0    4658    4659    4659       0    4661
    4662    4662       0    4664    4665    4665       0    4667    4668    4668
       0    4670    4671    4671       0    4673    4674    4674       0    4676
    4677    4677       0    4679    4680    4680       0    4682    4683    4683
       0    4685    4686    4686       0    4688    4689    4689       0    4691
    4692    4692       0    4694    4695    4695       0    4697    4698    4698
       0    4700    4701    4701       0    4703    4704    4704       0    4706
    4707    4707       0    4709    4710    4710       0    4712    4713    4713
       0    4715    4716    4716       0    4718    4719    4719       0    4721
    4722    4722       0    4724    4725    4725       0    4727    4728    4728
       0    4730    4731    4731       0    4733    4734    4734       0    4736
    4737    4737       0    4739    4740    4740       0    4742    4743    4743
       0    4745    4746    4746       0    4748    4749    4749       0    4751
    4752    4752       0    4754    4755    4755       0    4757    4758    4758
       0    4760    4761    4761       0    4763    4764    4764       0    4766
    4767    4767       0    4769    4770    4770       0    4772    4773    4773
       0    4775    4776    4776       0    4778    4779    4779       0    4781
    4782    4782       0    4784    4785    4785       0    4787    4788    4788
       0    4790    4791    4791       0    4793    4794    4794       0    4796
    4797    4797       0    4799    4800    4800       0    4802    4803    4803
       0    4805    4806    4806       0    4808    4809    4809       0    4811
    4812    4812       0    4814    4815    4815       0    4817    4818    4818
       0    4820    4821    4821       0    4823    4824    4824       0    4826
    4827    4827       0    4829    4830    4830       0    4832    4833    4833
       0    4835    4836    4836       0    4838    4839    4839       0    4841
    4842    4842       0    4844    4845    4845       0    4847    4848    4848
       0    4850    4851    4851       0    4853    4854    4854       0    4856
    4857    4857       0    4859    4860    4860       0    4862    4863    4863
       0    4865    4866    4866       0    4868    4869    4869       0    4871
    4872    4872       0    4874    4875    4875       0    4877    4878    4878
       0    4880    4881    4881       0    4883    4884    4884       0    4886
    4887    4887       0    4889    4890    4890       0    4892    4893    4893
       0    4895    4896    4896       0    4898    4899    4899       0    4901
    4902    4902       0    4904    4905    4905       0    4907    4908    4908
       0    4910    4911    4911       0    4913    4914    4914       0    4916
    4917    4917       0    4919    4920    4920       0    4922    4923    4923
       0    4925    4926    4926       0    4928    4929    4929       0    4931
    4932    4932       0    4934    4935    4935       0    4937    4938    4938
       0    4940    4941    4941       0    4943    4944    4944       0    4946
    4947    4947       0    4949    4950    4950       0    4952    4953    4953
       0    4955    4956    4956       0    4958    4959    4959       0    4961
    4962    4962       0    4964    4965    4965       0    4967    4968    4968
       0    4970    4971    4971       0    4973    4974    4974       0    4976
    4977    4977       0    4979    4980    4980       0    4982    4983    4983
       0    4985    4986    4986       0    4988    4989    4989       0    4991
    4992    4992       0    4994    4995    4995       0    4997    4998    4998
       0    5000    5001    5001       0    5003    5004    5004       0    5006
    5007    5007       0    5009    5010    5010       0    5012    5013    5013
       0    5015    5016    5016       0    5018    5019    5019       0    5021
    5022    5022       0    5024    5025    5025       0    5027    5028    5028
       0    5030    5031    5031       0    5033    5034    5034       0    5036
    5037    5037       0    5039    5040    5040       0    5042    5043    5043
       0    5045    5046    5046       0    5048    5049    5049       0    5051
    5052    5052       0    5054    5055    5055       0    5057    5058    5058
       0    5060    5061    5061       0    5063    5064    5064       0    5066
    5067    5067       0    5069    5070    5070       0    5072    5073    5073
       0    5075    5076    5076       0    5078    5079    5079       0    5081
    5082    5082       0    5084    5085    5085       0    5087    5088    5088
       0    5090    5091    5091       0    5093    5094    5094       0    5096
    5097    5097       0    5099    5100    5100       0    5102    5103    5103
       0    5105    5106    5106       0    5108    5109    5109       0    5111
    5112    5112       0    5114    5115    5115       0    5117    5118    5118
       0    5120    5121    5121       0    5123    5124    5124       0    5126
    5127    5127       0    5129    5130    5130       0    5132    5133    5133
       0    5135    5136    5136       0    5138    5139    5139       0    5141
    5142    5142       0    5144    5145    5145       0    5147    5148    5148
       0    5150    5151    5151       0    5153    5154    5154       0    5156
    5157    5157       0    5159    5160    5160       0    5162    5163    5163
       0    5165    5166    5166       0    5168    5169    5169       0    5171
    5172    5172       0    5174    5175    5175       0    5177    5178    5178
       0    5180    5181    5181       0    5183    5184    5184       0    5186
    5187    5187       0    5189    5190    5190       0    5192    5193    5193
       0    5195    5196    5196       0    5198    5199    5199       0    5201
    5202    5202       0    5204    5205    5205       0    5207    5208    5208
       0    5210    5211    5211       0    5213    5214    5214       0    5216
    5217    5217       0    5219    5220    5220       0    5222    5223    5223
       0    5225    5226    5226       0    5228    5229    5229       0    5231
    5232    5232       0    5234    5235    5235       0    5237    5238    5238
       0    5240    5241    5241       0    5243    5244    5244       0    5246
    5247    5247       0    5249    5250    5250       0    5252    5253    5253
       0    5255    5256    5256       0    5258    5259    5259       0    5261
    5262    5262       0    5264    5265    5265       0    5267    5268    5268
       0    5270    5271    5271       0    5273    5274    5274       0    5276
    5277    5277       0    5279    5280    5280       0    5282    5283    5283
       0    5285    5286    5286       0    5288    5289    5289       0    5291
    5292    5292       0    5294    5295    5295       0    5297    5298    5298
       0    5300    5301    5301       0    5303    5304    5304       0    5306
    5307    5307       0    5309    5310    5310       0    5312    5313    5313
       0    5315    5316    5316       0    5318    5319    5319       0    5321
    5322    5322       0    5324    5325    5325       0    5327    5328    5328
       0    5330    5331    5331       0    5333    5334    5334       0    5336
    5337    5337       0    5339    5340    5340       0    5342    5343    5343
       0    5345    5346    5346       0    5348    5349    5349       0    5351
    5352    5352       0    5354    5355    5355       0    5357    5358    5358
       0    5360    5361    5361       0    5363    5364    5364       0    5366
    5367    5367       0    5369    5370    5370       0    5372    5373    5373
       0    5375    5376    5376       0    5378    5379    5379       0    5381
    5382    5382       0    5384    5385    5385       0    5387    5388    5388
       0    5390    5391    5391       0    5393    5394    5394       0    5396
    5397    5397       0    5399    5400    5400       0    5402    5403    5403
       0    5405    5406    5406       0    5408    5409    5409       0    5411
    5412    5412       0    5414    5415    5415       0    5417    5418    5418
       0    5420    5421    5421       0    5423    5424    5424       0    5426
    5427    5427       0    5429    5430    5430       0    5432    5433    5433
       0    5435    5436    5436       0    5438    5439    5439       0    5441
    5442    5442       0    5444    5445    5445       0    5447    5448    5448
       0    5450    5451    5451       0    5453    5454    5454       0    5456
    5457    5457       0    5459    5460    5460       0    5462    5463    5463
       0    5465    5466    5466       0    5468    5469    5469       0    5471
    5472    5472       0    5474    5475    5475       0    5477    5478    5478
       0    5480    5481    5481       0    5483    5484    5484       0    5486
    5487    5487       0    5489    5490    5490       0    5492    5493    5493
       0    5495    5496    5496       0    5498    5499    5499       0    5501
    5502    5502       0    5504    5505    5505       0    5507    5508    5508
       0    5510    5511    5511       0    5513    5514    5514       0    5516
    5517    5517       0    5519    5520    5520       0    5522    5523    5523
       0    5525    5526    5526       0    5528    5529    5529       0    5531
    5532    5532       0    5534    5535    5535       0    5537    5538    5538
       0    5540    5541    5541       0    5543    5544    5544       0    5546
    5547    5547       0    5549    5550    5550       0    5552    5553    5553
       0    5555    5556    5556       0    5558    5559    5559       0    5561
    5562    5562       0    5564    5565    5565       0    5567    5568    5568
       0    5570    5571    5571       0    5573    5574    5574       0    5576
    5577    5577       0    5579    5580    5580       0    5582    5583    5583
       0    5585    5586    5586       0    5588    5589    5589       0    5591
    5592    5592       0    5594    5595    5595       0    5597    5598    5598
       0    5600    5601    5601       0    5603    5604    5604       0    5606
    5607    5607       0    5609    5610    5610       0    5612    5613    5613
       0    5615    5616    5616       0    5618    5619    5619       0    5621
    5622    5622       0    5624    5625    5625       0    5627    5628    5628
       0    5630    5631    5631       0    5633    5634    5634       0    5636
    5637    5637       0    5639    5640    5640       0    5642    5643    5643
       0    5645    5646    5646       0    5648    5649    5649       0    5651
    5652    5652       0    5654    5655    5655       0    5657    5658    5658
       0    5660    5661    5661       0    5663    5664    5664       0    5666
    5667    5667       0    5669    5670    5670       0    5672    5673    5673
       0    5675    5676    5676       0    5678    5679    5679       0    5681
    5682    5682       0    5684    5685    5685       0    5687    5688    5688
       0    5690    5691    5691       0    5693    5694    5694       0    5696
    5697    5697       0    5699    5700    5700       0    5702    5703    5703
       0    5705    5706    5706       0    5708    5709    5709       0    5711
    5712    5712       0    5714    5715    5715       0    5717    5718    5718
       0    5720    5721    5721       0    5723    5724    5724       0    5726
    5727    5727       0    5729    5730    5730       0    5732    5733    5733
       0    5735    5736    5736       0    5738    5739    5739       0    5741
    5742    5742       0    5744    5745    5745       0    5747    5748    5748
       0    5750    5751    5751       0    5753    5754    5754       0    5756
    5757    5757       0    5759    5760    5760       0    5762    5763    5763
       0    5765    5766    5766       0    5768    5769    5769       0    5771
    5772    5772       0    5774    5775    5775       0    5777    5778    5778
       0    5780    5781    5781       0    5783    5784    5784       0    5786
    5787    5787       0    5789    5790    5790       0    5792    5793    5793
       0    5795    5796    5796       0    5798    5799    5799       0    5801
    5802    5802       0    5804    5805    5805       0    5807    5808    5808
       0    5810    5811    5811       0    5813    5814    5814       0    5816
    5817    5817       0    5819    5820    5820       0    5822    5823    5823
       0    5825    5826    5826       0    5828    5829    5829       0    5831
    5832    5832       0    5834    5835    5835       0    5837    5838    5838
       0    5840    5841    5841       0    5843    5844    5844       0    5846
    5847    5847       0    5849    5850    5850       0    5852    5853    5853
       0    5855    5856    5856       0    5858    5859    5859       0    5861
    5862    5862       0    5864    5865    5865       0    5867    5868    5868
       0    5870    5871    5871       0    5873    5874    5874       0    5876
    5877    5877       0    5879    5880    5880       0    5882    5883    5883
       0    5885    5886    5886       0    5888    5889    5889       0    5891
    5892    5892       0    5894    5895    5895       0    5897    5898    5898
       0    5900    5901    5901       0    5903    5904    5904       0    5906
    5907    5907       0    5909    5910    5910       0    5912    5913    5913
       0    5915    5916    5916       0    5918    5919    5919       0    5921
    5922    5922       0    5924    5925    5925       0    5927    5928    5928
       0    5930    5931    5931       0    5933    5934    5934       0    5936
    5937    5937       0    5939    5940    5940       0    5942    5943    5943
       0    5945    5946    5946       0    5948    5949    5949       0    5951
    5952    5952       0    5954    5955    5955       0    5957    5958    5958
       0    5960    5961    5961       0    5963    5964    5964       0    5966
    5967    5967       0    5969    5970    5970       0    5972    5973    5973
       0    5975    5976    5976       0    5978    5979    5979       0    5981
    5982    5982       0    5984    5985    5985       0    5987    5988    5988
       0    5990    5991    5991       0    5993    5994    5994       0    5996
    5997    5997       0    5999    6000    6000       0    6002    6003    6003
       0    6005    6006    6006       0    6008    6009    6009       0    6011
    6012    6012       0    6014    6015    6015       0    6017    6018    6018
       0    6020    6021    6021       0    6023    6024    6024       0    6026
    6027    6027       0    6029    6030    6030       0    6032    6033    6033
       0    6035    6036    6036       0    6038    6039    6039       0    6041
    6042    6042       0    6044    6045    6045       0    6047    6048    6048
       0    6050    6051    6051       0    6053    6054    6054       0    6056
    6057    6057       0    6059    6060    6060       0    6062    6063    6063
       0    6065    6066    6066       0    6068    6069    6069       0    6071
    6072    6072       0    6074    6075    6075       0    6077    6078    6078
       0    6080    6081    6081       0    6083    6084    6084       0    6086
    6087    6087       0    6089    6090    6090       0    6092    6093    6093
       0    6095    6096    6096       0    6098    6099    6099       0    6101
    6102    6102       0    6104    6105    6105       0    6107    6108    6108
       0    6110    6111    6111       0    6113    6114    6114       0    6116
    6117    6117       0    6119    6120    6120       0    6122    6123    6123
       0    6125    6126    6126       0    6128    6129    6129       0    6131
    6132    6132       0    6134    6135    6135       0    6137    6138    6138
       0    6140    6141    6141       0    6143    6144    6144       0    6146
    6147    6147       0    6149    6150    6150       0    6152    6153    6153
       0    6155    6156    6156       0    6158    6159    6159       0    6161
    6162    6162       0    6164    6165    6165       0    6167    6168    6168
       0    6170    6171    6171       0    6173    6174    6174       0    6176
    6177    6177       0    6179    6180    6180       0    6182    6183    6183
       0    6185    6186    6186       0    6188    6189    6189       0    6191
    6192    6192       0    6194    6195    6195       0    6197    6198    6198
       0    6200    6201    6201       0    6203    6204    6204       0    6206
    6207    6207       0    6209    6210    6210       0    6212    6213    6213
       0    6215    6216    6216       0    6218    6219    6219       0    6221
    6222    6222       0    6224    6225    6225       0    6227    6228    6228
       0    6230    6231    6231       0    6233    6234    6234       0    6236
    6237    6237       0    6239    6240    6240       0    6242    6243    6243
       0    6245    6246    6246       0    6248    6249    6249       0    6251
    6252    6252       0    6254    6255    6255       0    6257    6258    6258
       0    6260    6261    6261       0    6263    6264    6264       0    6266
    6267    6267       0    6269    6270    6270       0    6272    6273    6273
       0    6275    6276    6276       0    6278    6279    6279       0    6281
    6282    6282       0    6284    6285    6285       0    6287    6288    6288
       0    6290    6291    6291       0    6293    6294    6294       0    6296
    6297    6297       0    6299    6300    6300       0    6302    6303    6303
       0    6305    6306    6306       0    6308    6309    6309       0    6311
    6312    6312       0    6314    6315    6315       0    6317    6318    6318
       0    6320    6321    6321       0    6323    6324    6324       0    6326
    6327    6327       0    6329    6330    6330       0    6332    6333    6333
       0    6335    6336    6336       0    6338    6339    6339       0    6341
    6342    6342       0    6344    6345    6345       0    6347    6348    6348
       0    6350    6351    6351       0    6353    6354    6354       0    6356
    6357    6357       0    6359    6360    6360       0    6362    6363    6363
       0    6365    6366    6366       0    6368    6369    6369       0    6371
    6372    6372       0    6374    6375    6375       0    6377    6378    6378
       0    6380    6381    6381       0    6383    6384    6384       0    6386
    6387    6387       0    6389    6390    6390       0    6392    6393    6393
       0    6395    6396    6396       0    6398    6399    6399       0    6401
    6402    6402       0    6404    6405    6405       0    6407    6408    6408
       0    6410    6411    6411       0    6413    6414    6414       0    6416
    6417    6417       0    6419    6420    6420       0    6422    6423    6423
       0    6425    6426    6426       0    6428    6429    6429       0    6431
    6432    6432       0    6434    6435    6435       0    6437    6438    6438
       0    6440    6441    6441       0    6443    6444    6444       0    6446
    6447    6447       0    6449    6450    6450       0    6452    6453    6453
       0    6455    6456    6456       0    6458    6459    6459       0    6461
    6462    6462       0    6464    6465    6465       0    6467    6468    6468
       0    6470    6471    6471       0    6473    6474    6474       0    6476
    6477    6477       0    6479    6480    6480       0    6482    6483    6483
       0    6485    6486    6486       0    6488    6489    6489       0    6491
    6492    6492       0    6494    6495    6495       0    6497    6498    6498
       0    6500    6501    6501       0    6503    6504    6504       0    6506
    6507    6507       0    6509    6510    6510       0    6512    6513    6513
       0    6515    6516    6516       0    6518    6519    6519       0    6521
    6522    6522       0    6524    6525    6525       0    6527    6528    6528
       0    6530    6531    6531       0    6533    6534    6534       0    6536
    6537    6537       0    6539    6540    6540       0    6542    6543    6543
       0    6545    6546    6546       0    6548    6549    6549       0    6551
    6552    6552       0    6554    6555    6555       0    6557    6558    6558
       0    6560    6561    6561       0    6563    6564    6564       0    6566
    6567    6567       0    6569    6570    6570       0    6572    6573    6573
       0    6575    6576    6576       0    6578    6579    6579       0    6581
    6582    6582       0    6584    6585    6585       0    6587    6588    6588
       0    6590    6591    6591       0    6593    6594    6594       0    6596
    6597    6597       0    6599    6600    6600       0    6602    6603    6603
       0    6605    6606    6606       0    6608    6609    6609       0    6611
    6612    6612       0    6614    6615    6615       0    6617    6618    6618
       0    6620    6621    6621       0    6623    6624    6624       0    6626
    6627    6627       0    6629    6630    6630       0    6632    6633    6633
       0    6635    6636    6636       0    6638    6639    6639       0    6641
    6642    6642       0    6644    6645    6645       0    6647    6648    6648
       0    6650    6651    6651       0    6653    6654    6654       0    6656
    6657    6657       0    6659    6660    6660       0    6662    6663    6663
       0    6665    6666    6666       0    6668    6669    6669       0    6671
    6672    6672       0    6674    6675    6675       0    6677    6678    6678
       0    6680    6681    6681       0    6683    6684    6684       0    6686
    6687    6687       0    6689    6690    6690       0    6692    6693    6693
       0    6695    6696    6696       0    6698    6699    6699       0    6701
    6702    6702       0    6704    6705    6705       0    6707    6708    6708
       0    6710    6711    6711       0    6713    6714    6714       0    6716
    6717    6717       0    6719    6720    6720       0    6722    6723    6723
       0    6725    6726    6726       0    6728    6729    6729       0    6731
    6732    6732       0    6734    6735    6735       0    6737    6738    6738
       0    6740    6741    6741       0    6743    6744    6744       0    6746
    6747    6747       0    6749    6750    6750       0    6752    6753    6753
       0    6755    6756    6756       0    6758    6759    6759       0    6761
    6762    6762       0    6764    6765    6765       0    6767    6768    6768
       0    6770    6771    6771       0    6773    6774    6774       0    6776
    6777    6777       0    6779    6780    6780       0    6782    6783    6783
       0    6785    6786    6786       0    6788    6789    6789       0    6791
    6792    6792       0    6794    6795    6795       0    6797    6798    6798
       0    6800    6801    6801       0    6803    6804    6804       0    6806
    6807    6807       0    6809    6810    6810       0    6812    6813    6813
       0    6815    6816    6816       0    6818    6819    6819       0    6821
    6822    6822       0    6824    6825    6825       0    6827    6828    6828
       0    6830    6831    6831       0    6833    6834    6834       0    6836
    6837    6837       0    6839    6840    6840       0    6842    6843    6843
       0    6845    6846    6846       0    6848    6849    6849       0    6851
    6852    6852       0    6854    6855    6855       0    6857    6858    6858
       0    6860    6861    6861       0    6863    6864    6864       0    6866
    6867    6867       0    6869    6870    6870       0    6872    6873    6873
       0    6875    6876    6876       0    6878    6879    6879       0    6881
    6882    6882       0    6884    6885    6885       0    6887    6888    6888
       0    6890    6891    6891       0    6893    6894    6894       0    6896
    6897    6897       0    6899    6900    6900       0    6902    6903    6903
       0    6905    6906    6906       0    6908    6909    6909       0    6911
    6912    6912       0    6914    6915    6915       0    6917    6918    6918
       0    6920    6921    6921       0    6923    6924    6924       0    6926
    6927    6927       0    6929    6930    6930       0    6932    6933    6933
       0    6935    6936    6936       0    6938    6939    6939       0    6941
    6942    6942       0    6944    6945    6945       0    6947    6948    6948
       0    6950    6951    6951       0    6953    6954    6954       0    6956
    6957    6957       0    6959    6960    6960       0    6962    6963    6963
       0    6965    6966    6966       0    6968    6969    6969       0    6971
    6972    6972       0    6974    6975    6975       0    6977    6978    6978
       0    6980    6981    6981       0    6983    6984    6984       0    6986
    6987    6987       0    6989    6990    6990       0    6992    6993    6993
       0    6995    6996    6996       0    6998    6999    6999       0    7001
    7002    7002       0    7004    7005    7005       0    7007    7008    7008
       0    7010    7011    7011       0    7013    7014    7014       0    7016
    7017    7017       0    7019    7020    7020       0    7022    7023    7023
       0    7025    7026    7026       0    7028    7029    7029       0    7031
    7032    7032       0    7034    7035    7035       0    7037    7038    7038
       0    7040    7041    7041       0    7043    7044    7044       0    7046
    7047    7047       0    7049    7050    7050       0    7052    7053    7053
       0    7055    7056    7056       0    7058    7059    7059       0    7061
    7062    7062       0    7064    7065    7065       0    7067    7068    7068
       0    7070    7071    7071       0    7073    7074    7074       0    7076
    7077    7077       0    7079    7080    7080       0    7082    7083    7083
       0    7085    7086    7086       0    7088    7089    7089       0    7091
    7092    7092       0    7094    7095    7095       0    7097    7098    7098
       0    7100    7101    7101       0    7103    7104    7104       0    7106
    7107    7107       0    7109    7110    7110       0    7112    7113    7113
       0    7115    7116    7116       0    7118    7119    7119       0    7121
    7122    7122       0    7124    7125    7125       0    7127    7128    7128
       0    7130    7131    7131       0    7133    7134    7134       0    7136
    7137    7137       0    7139    7140    7140       0    7142    7143    7143
       0    7145    7146    7146       0    7148    7149    7149       0    7151
    7152    7152       0    7154    7155    7155       0    7157    7158    7158
       0    7160    7161    7161       0    7163    7164    7164       0    7166
    7167    7167       0    7169    7170    7170       0    7172    7173    7173
       0    7175    7176    7176       0    7178    7179    7179       0    7181
    7182    7182       0    7184    7185    7185       0    7187    7188    7188
       0    7190    7191    7191       0    7193    7194    7194       0    7196
    7197    7197       0    7199    7200    7200       0    7202    7203    7203
       0    7205    7206    7206       0    7208    7209    7209       0    7211
    7212    7212       0    7214    7215    7215       0    7217    7218    7218
       0    7220    7221    7221       0    7223    7224    7224       0    7226
    7227    7227       0    7229    7230    7230       0    7232    7233    7233
       0    7235    7236    7236       0    7238    7239    7239       0    7241
    7242    7242       0    7244    7245    7245       0    7247    7248    7248
       0    7250    7251    7251       0    7253    7254    7254       0    7256
    7257    7257       0    7259    7260    7260       0    7262    7263    7263
       0    7265    7266    7266       0    7268    7269    7269       0    7271
    7272    7272       0    7274    7275    7275       0    7277    7278    7278
       0    7280    7281    7281       0    7283    7284    7284       0    7286
    7287    7287       0    7289    7290    7290       0    7292    7293    7293
       0    7295    7296    7296       0    7298    7299    7299       0    7301
    7302    7302       0    7304    7305    7305       0    7307    7308    7308
       0    7310    7311    7311       0    7313    7314    7314       0    7316
    7317    7317       0    7319    7320    7320       0    7322    7323    7323
       0    7325    7326    7326       0    7328    7329    7329       0    7331
    7332    7332       0    7334    7335    7335       0    7337    7338    7338
       0    7340    7341    7341       0    7343    7344    7344       0    7346
    7347    7347       0    7349    7350    7350       0    7352    7353    7353
       0    7355    7356    7356       0    7358    7359    7359       0    7361
    7362    7362       0    7364    7365    7365       0    7367    7368    7368
       0    7370    7371    7371       0    7373    7374    7374       0    7376
    7377    7377       0    7379    7380    7380       0    7382    7383    7383
       0    7385    7386    7386       0    7388    7389    7389       0    7391
    7392    7392       0    7394    7395    7395       0    7397    7398    7398
       0    7400    7401    7401       0    7403    7404    7404       0    7406
    7407    7407       0    7409    7410    7410       0    7412    7413    7413
       0    7415    7416    7416       0    7418    7419    7419       0    7421
    7422    7422       0    7424    7425    7425       0    7427    7428    7428
       0    7430    7431    7431       0    7433    7434    7434       0    7436
    7437    7437       0    7439    7440    7440       0    7442    7443    7443
       0    7445    7446    7446       0    7448    7449    7449       0    7451
    7452    7452       0    7454    7455    7455       0    7457    7458    7458
       0    7460    7461    7461       0    7463    7464    7464       0    7466
    7467    7467       0    7469    7470    7470       0    7472    7473    7473
       0    7475    7476    7476       0    7478    7479    7479       0    7481
    7482    7482       0    7484    7485    7485       0    7487    7488    7488
       0    7490    7491    7491       0    7493    7494    7494       0    7496
    7497    7497       0    7499    7500    7500       0    7502    7503    7503
       0    7505    7506    7506       0    7508    7509    7509       0    7511
    7512    7512       0    7514    7515    7515       0    7517    7518    7518
       0    7520    7521    7521       0    7523    7524    7524       0    7526
    7527    7527       0    7529    7530    7530       0    7532    7533    7533
       0    7535    7536    7536       0    7538    7539    7539       0    7541
    7542    7542       0    7544    7545    7545       0    7547    7548    7548
       0    7550    7551    7551       0    7553    7554    7554       0    7556
    7557    7557       0    7559    7560    7560       0    7562    7563    7563
       0    7565    7566    7566       0    7568    7569    7569       0    7571
    7572    7572       0    7574    7575    7575       0    7577    7578    7578
       0    7580    7581    7581       0    7583    7584    7584       0    7586
    7587    7587       0    7589    7590    7590       0    7592    7593    7593
       0    7595    7596    7596       0    7598    7599    7599       0    7601
    7602    7602       0    7604    7605    7605       0    7607    7608    7608
       0    7610    7611    7611       0    7613    7614    7614       0    7616
    7617    7617       0    7619    7620    7620       0    7622    7623    7623
       0    7625    7626    7626       0    7628    7629    7629       0    7631
    7632    7632       0    7634    7635    7635       0    7637    7638    7638
       0    7640    7641    7641       0    7643    7644    7644       0    7646
    7647    7647       0    7649    7650    7650       0    7652    7653    7653
       0    7655    7656    7656       0    7658    7659    7659       0    7661
    7662    7662       0    7664    7665    7665       0    7667    7668    7668
       0    7670    7671    7671       0    7673    7674    7674       0    7676
    7677    7677       0    7679    7680    7680       0    7682    7683    7683
       0    7685    7686    7686       0    7688    7689    7689       0    7691
    7692    7692       0    7694    7695    7695       0    7697    7698    7698
       0    7700    7701    7701       0    7703    7704    7704       0    7706
    7707    7707       0    7709    7710    7710       0    7712    7713    7713
       0    7715    7716    7716       0    7718    7719    7719       0    7721
    7722    7722       0    7724    7725    7725       0    7727    7728    7728
       0    7730    7731    7731       0    7733    7734    7734       0    7736
    7737    7737       0    7739    7740    7740       0    7742    7743    7743
       0    7745    7746    7746       0    7748    7749    7749       0    7751
    7752    7752       0    7754    7755    7755       0    7757    7758    7758
       0    7760    7761    7761       0    7763    7764    7764       0    7766
    7767    7767       0    7769    7770    7770       0    7772    7773    7773
       0    7775    7776    7776       0    7778    7779    7779       0    7781
    7782    7782       0    7784    7785    7785       0    7787    7788    7788
       0    7790    7791    7791       0    7793    7794    7794       0    7796
    7797    7797       0    7799    7800    7800       0    7802    7803    7803
       0    7805    7806    7806       0    7808    7809    7809       0    7811
    7812    7812       0    7814    7815    7815       0    7817    7818    7818
       0    7820    7821    7821       0    7823    7824    7824       0    7826
    7827    7827       0    7829    7830    7830       0    7832    7833    7833
       0    7835    7836    7836       0    7838    7839    7839       0    7841
    7842    7842       0    7844    7845    7845       0    7847    7848    7848
       0    7850    7851    7851       0    7853    7854    7854       0    7856
    7857    7857       0    7859    7860    7860       0    7862    7863    7863
       0    7865    7866    7866       0    7868    7869    7869       0    7871
    7872    7872       0    7874    7875    7875       0    7877    7878    7878
       0    7880    7881    7881       0    7883    7884    7884       0    7886
    7887    7887       0    7889    7890    7890       0    7892    7893    7893
       0    7895    7896    7896       0    7898    7899    7899       0    7901
    7902    7902       0    7904    7905    7905       0    7907    7908    7908
       0    7910    7911    7911       0    7913    7914    7914       0    7916
    7917    7917       0    7919    7920    7920       0    7922    7923    7923
       0    7925    7926    7926       0    7928    7929    7929       0    7931
    7932    7932       0    7934    7935    7935       0    7937    7938    7938
       0    7940    7941    7941       0    7943    7944    7944       0    7946
    7947    7947       0    7949    7950    7950       0    7952    7953    7953
       0    7955    7956    7956       0    7958    7959    7959       0    7961
    7962    7962       0    7964    7965    7965       0    7967    7968    7968
       0    7970    7971    7971       0    7973    7974    7974       0    7976
    7977    7977       0    7979    7980    7980       0    7982    7983    7983
       0    7985    7986    7986       0    7988    7989    7989       0    7991
    7992    7992       0    7994    7995    7995       0    7997    7998    7998
       0    8000    8001    8001       0    8003    8004    8004       0    8006
    8007    8007       0    8009    8010    8010       0    8012    8013    8013
       0    8015    8016    8016       0    8018    8019    8019       0    8021
    8022    8022       0    8024    8025    8025       0    8027    8028    8028
       0    8030    8031    8031       0    8033    8034    8034       0    8036
    8037    8037       0    8039    8040    8040       0    8042    8043    8043
       0    8045    8046    8046       0    8048    8049    8049       0    8051
    8052    8052       0    8054    8055    8055       0    8057    8058    8058
       0    8060    8061    8061       0    8063    8064    8064       0    8066
    8067    8067       0    8069    8070    8070       0    8072    8073    8073
       0    8075    8076    8076       0    8078    8079    8079       0    8081
    8082    8082       0    8084    8085    8085       0    8087    8088    8088
       0    8090    8091    8091       0    8093    8094    8094       0    8096
    8097    8097       0    8099    8100    8100       0    8102    8103    8103
       0    8105    8106    8106       0    8108    8109    8109       0    8111
    8112    8112       0    8114    8115    8115       0    8117    8118    8118
       0    8120    8121    8121       0    8123    8124    8124       0    8126
    8127    8127       0    8129    8130    8130       0    8132    8133    8133
       0    8135    8136    8136       0    8138    8139    8139       0    8141
    8142    8142       0    8144    8145    8145       0    8147    8148    8148
       0    8150    8151    8151       0    8153    8154    8154       0    8156
    8157    8157       0    8159    8160    8160       0    8162    8163    8163
       0    8165    8166    8166       0    8168    8169    8169       0    8171
    8172    8172       0    8174    8175    8175       0    8177    8178    8178
       0    8180    8181    8181       0    8183    8184    8184       0    8186
    8187    8187       0    8189    8190    8190       0    8192    8193    8193
       0    8195    8196    8196       0    8198    8199    8199       0    8201
    8202    8202       0    8204    8205    8205       0    8207    8208    8208
       0    8210    8211    8211       0    8213    8214    8214       0    8216
    8217    8217       0    8219    8220    8220       0    8222    8223    8223
       0    8225    8226    8226       0    8228    8229    8229       0    8231
    8232    8232       0    8234    8235    8235       0    8237    8238    8238
       0    8240    8241    8241       0    8243    8244    8244       0    8246
    8247    8247       0    8249    8250    8250       0    8252    8253    8253
       0    8255    8256    8256       0    8258    8259    8259       0    8261
    8262    8262       0    8264    8265    8265       0    8267    8268    8268
       0    8270    8271    8271       0    8273    8274    8274       0    8276
    8277    8277       0    8279    8280    8280       0    8282    8283    8283
       0    8285    8286    8286       0    8288    8289    8289       0    8291
    8292    8292       0    8294    8295    8295       0    8297    8298    8298
       0    8300    8301    8301       0    8303    8304    8304       0    8306
    8307    8307       0    8309    8310    8310       0    8312    8313    8313
       0    8315    8316    8316       0    8318    8319    8319       0    8321
    8322    8322       0    8324    8325    8325       0    8327    8328    8328
       0    8330    8331    8331       0    8333    8334    8334       0    8336
    8337    8337       0    8339    8340    8340       0    8342    8343    8343
       0    8345    8346    8346       0    8348    8349    8349       0    8351
    8352    8352       0    8354    8355    8355       0    8357    8358    8358
       0    8360    8361    8361       0    8363    8364    8364       0    8366
    8367    8367       0    8369    8370    8370       0    8372    8373    8373
       0    8375    8376    8376       0    8378    8379    8379       0    8381
    8382    8382       0    8384    8385    8385       0    8387    8388    8388
       0    8390    8391    8391       0    8393    8394    8394       0    8396
    8397    8397       0    8399    8400    8400       0    8402    8403    8403
       0    8405    8406    8406       0    8408    8409    8409       0    8411
    8412    8412       0    8414    8415    8415       0    8417    8418    8418
       0    8420    8421    8421       0    8423    8424    8424       0    8426
    8427    8427       0    8429    8430    8430       0    8432    8433    8433
       0    8435    8436    8436       0    8438    8439    8439       0    8441
    8442    8442       0    8444    8445    8445       0    8447    8448    8448
       0    8450    8451    8451       0    8453    8454    8454       0    8456
    8457    8457       0    8459    8460    8460       0    8462    8463    8463
       0    8465    8466    8466       0    8468    8469    8469       0    8471
    8472    8472       0    8474    8475    8475       0    8477    8478    8478
       0    8480    8481    8481       0    8483    8484    8484       0    8486
    8487    8487       0    8489    8490    8490       0    8492    8493    8493
       0    8495    8496    8496       0    8498    8499    8499       0    8501
    8502    8502       0    8504    8505    8505       0    8507    8508    8508
       0    8510    8511    8511       0    8513    8514    8514       0    8516
    8517    8517       0    8519    8520    8520       0    8522    8523    8523
       0    8525    8526    8526       0    8528    8529    8529       0    8531
    8532    8532       0    8534    8535    8535       0    8537    8538    8538
       0    8540    8541    8541       0    8543    8544    8544       0    8546
    8547    8547       0    8549    8550    8550       0    8552    8553    8553
       0    8555    8556    8556       0    8558    8559    8559       0    8561
    8562    8562       0    8564    8565    8565       0    8567    8568    8568
       0    8570    8571    8571       0    8573    8574    8574       0    8576
    8577    8577       0    8579    8580    8580       0    8582    8583    8583
       0    8585    8586    8586       0    8588    8589    8589       0    8591
    8592    8592       0    8594    8595    8595       0    8597    8598    8598
       0    8600    8601    8601       0    8603    8604    8604       0    8606
    8607    8607       0    8609    8610    8610       0    8612    8613    8613
       0    8615    8616    8616       0    8618    8619    8619       0    8621
    8622    8622       0    8624    8625    8625       0    8627    8628    8628
       0    8630    8631    8631       0    8633    8634    8634       0    8636
    8637    8637       0    8639    8640    8640       0    8642    8643    8643
       0    8645    8646    8646       0    8648    8649    8649       0    8651
    8652    8652       0    8654    8655    8655       0    8657    8658    8658
       0    8660    8661    8661       0    8663    8664    8664       0    8666
    8667    8667       0    8669    8670    8670       0    8672    8673    8673
       0    8675    8676    8676       0    8678    8679    8679       0    8681
    8682    8682       0    8684    8685    8685       0    8687    8688    8688
       0    8690    8691    8691       0    8693    8694    8694       0    8696
    8697    8697       0    8699    8700    8700       0    8702    8703    8703
       0    8705    8706    8706       0    8708    8709    8709       0    8711
    8712    8712       0    8714    8715    8715       0    8717    8718    8718
       0    8720    8721    8721       0    8723    8724    8724       0    8726
    8727    8727       0    8729    8730    8730       0    8732    8733    8733
       0    8735    8736    8736       0    8738    8739    8739       0    8741
    8742    8742       0    8744    8745    8745       0    8747    8748    8748
       0    8750    8751    8751       0    8753    8754    8754       0    8756
    8757    8757       0    8759    8760    8760       0    8762    8763    8763
       0    8765    8766    8766       0    8768    8769    8769       0    8771
    8772    8772       0    8774    8775    8775       0    8777    8778    8778
       0    8780    8781    8781       0    8783    8784    8784       0    8786
    8787    8787       0    8789    8790    8790       0    8792    8793    8793
       0    8795    8796    8796       0    8798    8799    8799       0    8801
    8802    8802       0    8804    8805    8805       0    8807    8808    8808
       0    8810    8811    8811       0    8813    8814    8814       0    8816
    8817    8817       0    8819    8820    8820       0    8822    8823    8823
       0    8825    8826    8826       0    8828    8829    8829       0    8831
    8832    8832       0    8834    8835    8835       0    8837    8838    8838
       0    8840    8841    8841       0    8843    8844    8844       0    8846
    8847    8847       0    8849    8850    8850       0    8852    8853    8853
       0    8855    8856    8856       0    8858    8859    8859       0    8861
    8862    8862       0    8864    8865    8865       0    8867    8868    8868
       0    8870    8871    8871       0    8873    8874    8874       0    8876
    8877    8877       0    8879    8880    8880       0    8882    8883    8883
       0    8885    8886    8886       0    8888    8889    8889       0    8891
    8892    8892       0    8894    8895    8895       0    8897    8898    8898
       0    8900    8901    8901       0    8903    8904    8904       0    8906
    8907    8907       0    8909    8910    8910       0    8912    8913    8913
       0    8915    8916    8916       0    8918    8919    8919       0    8921
    8922    8922       0    8924    8925    8925       0    8927    8928    8928
       0    8930    8931    8931       0    8933    8934    8934       0    8936
    8937    8937       0    8939    8940    8940       0    8942    8943    8943
       0    8945    8946    8946       0    8948    8949    8949       0    8951
    8952    8952       0    8954    8955    8955       0    8957    8958    8958
       0    8960    8961    8961       0    8963    8964    8964       0    8966
    8967    8967       0    8969    8970    8970       0    8972    8973    8973
       0    8975    8976    8976       0    8978    8979    8979       0    8981
    8982    8982       0    8984    8985    8985       0    8987    8988    8988
       0    8990    8991    8991       0    8993    8994    8994       0    8996
    8997    8997       0    8999    9000    9000       0    9002    9003    9003
       0    9005    9006    9006       0    9008    9009    9009       0    9011
    9012    9012       0    9014    9015    9015       0    9017    9018    9018
       0    9020    9021    9021       0    9023    9024    9024       0    9026
    9027    9027       0    9029    9030    9030       0    9032    9033    9033
       0    9035    9036    9036       0    9038    9039    9039       0    9041
    9042    9042       0    9044    9045    9045       0    9047    9048    9048
       0    9050    9051    9051       0    9053    9054    9054       0    9056
    9057    9057       0    9059    9060    9060       0    9062    9063    9063
       0    9065    9066    9066       0    9068    9069    9069       0    9071
    9072    9072       0    9074    9075    9075       0    9077    9078    9078
       0    9080    9081    9081       0    9083    9084    9084       0    9086
    9087    9087       0    9089    9090    9090       0    9092    9093    9093
       0    9095    9096    9096       0    9098    9099    9099       0    9101
    9102    9102       0    9104    9105    9105       0    9107    9108    9108
       0    9110    9111    9111       0    9113    9114    9114       0    9116
    9117    9117       0    9119    9120    9120       0    9122    9123    9123
       0    9125    9126    9126       0    9128    9129    9129       0    9131
    9132    9132       0    9134    9135    9135       0    9137    9138    9138
       0    9140    9141    9141       0    9143    9144    9144       0    9146
    9147    9147       0    9149    9150    9150       0    9152    9153    9153
       0    9155    9156    9156       0    9158    9159    9159       0    9161
    9162    9162       0    9164    9165    9165       0    9167    9168    9168
       0    9170    9171    9171       0    9173    9174    9174       0    9176
    9177    9177       0    9179    9180    9180       0    9182    9183    9183
       0    9185    9186    9186       0    9188    9189    9189       0    9191
    9192    9192       0    9194    9195    9195       0    9197    9198    9198
       0    9200    9201    9201       0    9203    9204    9204       0    9206
    9207    9207       0    9209    9210    9210       0    9212    9213    9213
       0    9215    9216    9216       0    9218    9219    9219       0    9221
    9222    9222       0    9224    9225    9225       0    9227    9228    9228
       0    9230    9231    9231       0    9233    9234    9234       0    9236
    9237    9237       0    9239    9240    9240       0    9242    9243    9243
       0    9245    9246    9246       0    9248    9249    9249       0    9251
    9252    9252       0    9254    9255    9255       0    9257    9258    9258
       0    9260    9261    9261       0    9263    9264    9264       0    9266
    9267    9267       0    9269    9270    9270       0    9272    9273    9273
       0    9275    9276    9276       0    9278    9279    9279       0    9281
    9282    9282       0    9284    9285    9285       0    9287    9288    9288
       0    9290    9291    9291       0    9293    9294    9294       0    9296
    9297    9297       0    9299    9300    9300       0    9302    9303    9303
       0    9305    9306    9306       0    9308    9309    9309       0    9311
    9312    9312       0    9314    9315    9315       0    9317    9318    9318
       0    9320    9321    9321       0    9323    9324    9324       0    9326
    9327    9327       0    9329    9330    9330       0    9332    9333    9333
       0    9335    9336    9336       0    9338    9339    9339       0    9341
    9342    9342       0    9344    9345    9345       0    9347    9348    9348
       0    9350    9351    9351       0    9353    9354    9354       0    9356
    9357    9357       0    9359    9360    9360       0    9362    9363    9363
       0    9365    9366    9366       0    9368    9369    9369       0    9371
    9372    9372       0    9374    9375    9375       0    9377    9378    9378
       0    9380    9381    9381       0    9383    9384    9384       0    9386
    9387    9387       0    9389    9390    9390       0    9392    9393    9393
       0    9395    9396    9396       0    9398    9399    9399       0    9401
    9402    9402       0    9404    9405    9405       0    9407    9408    9408
       0    9410    9411    9411       0    9413    9414    9414       0    9416
    9417    9417       0    9419    9420    9420       0    9422    9423    9423
       0    9425    9426    9426       0    9428    9429    9429       0    9431
    9432    9432       0    9434    9435    9435       0    9437    9438    9438
       0    9440    9441    9441       0    9443    9444    9444       0    9446
    9447    9447       0    9449    9450    9450       0    9452    9453    9453
       0    9455    9456    9456       0    9458    9459    9459       0    9461
    9462    9462       0    9464    9465    9465       0    9467    9468    9468
       0    9470    9471    9471       0    9473    9474    9474       0    9476
    9477    9477       0    9479    9480    9480       0    9482    9483    9483
       0    9485    9486    9486       0    9488    9489    9489       0    9491
    9492    9492       0    9494    9495    9495       0    9497    9498    9498
       0    9500    9501    9501       0    9503    9504    9504       0    9506
    9507    9507       0    9509    9510    9510       0    9512    9513    9513
       0    9515    9516    9516       0    9518    9519    9519       0    9521
    9522    9522       0    9524    9525    9525       0    9527    9528    9528
       0    9530    9531    9531       0    9533    9534    9534       0    9536
    9537    9537       0    9539    9540    9540       0    9542    9543    9543
       0    9545    9546    9546       0    9548    9549    9549       0    9551
    9552    9552       0    9554    9555    9555       0    9557    9558    9558
       0    9560    9561    9561       0    9563    9564    9564       0    9566
    9567    9567       0    9569    9570    9570       0    9572    9573    9573
       0    9575    9576    9576       0    9578    9579    9579       0    9581
    9582    9582       0    9584    9585    9585       0    9587    9588    9588
       0    9590    9591    9591       0    9593    9594    9594       0    9596
    9597    9597       0    9599    9600    9600       0    9602    9603    9603
       0    9605    9606    9606       0    9608    9609    9609       0    9611
    9612    9612       0    9614    9615    9615       0    9617    9618    9618
       0    9620    9621    9621       0    9623    9624    9624       0    9626
    9627    9627       0    9629    9630    9630       0    9632    9633    9633
       0    9635    9636    9636       0    9638    9639    9639       0    9641
    9642    9642       0    9644    9645    9645       0    9647    9648    9648
       0    9650    9651    9651       0    9653    9654    9654       0    9656
    9657    9657       0    9659    9660    9660       0    9662    9663    9663
       0    9665    9666    9666       0    9668    9669    9669       0    9671
    9672    9672       0    9674    9675    9675       0    9677    9678    9678
       0    9680    9681    9681       0    9683    9684    9684       0    9686
    9687    9687       0    9689    9690    9690       0    9692    9693    9693
       0    9695    9696    9696       0    9698    9699    9699       0    9701
    9702    9702       0    9704    9705    9705       0    9707    9708    9708
       0    9710    9711    9711       0    9713    9714    9714       0    9716
    9717    9717       0    9719    9720    9720       0    9722    9723    9723
       0    9725    9726    9726       0    9728    9729    9729       0    9731
    9732    9732       0    9734    9735    9735       0    9737    9738    9738
       0    9740    9741    9741       0    9743    9744    9744       0    9746
    9747    9747       0    9749    9750    9750       0    9752    9753    9753
       0    9755    9756    9756       0    9758    9759    9759       0    9761
    9762    9762       0    9764    9765    9765       0    9767    9768    9768
       0    9770    9771    9771       0    9773    9774    9774       0    9776
    9777    9777       0    9779    9780    9780       0    9782    9783    9783
       0    9785    9786    9786       0    9788    9789    9789       0    9791
    9792    9792       0    9794    9795    9795       0    9797    9798    9798
       0    9800    9801    9801       0    9803    9804    9804       0    9806
    9807    9807       0    9809    9810    9810       0    9812    9813    9813
       0    9815    9816    9816       0    9818    9819    9819       0    9821
    9822    9822       0    9824    9825    9825       0    9827    9828    9828
       0    9830    9831    9831       0    9833    9834    9834       0    9836
    9837    9837       0    9839    9840    9840       0    9842    9843    9843
       0    9845    9846    9846       0    9848    9849    9849       0    9851
    9852    9852       0    9854    9855    9855       0    9857    9858    9858
       0    9860    9861    9861       0    9863    9864    9864       0    9866
    9867    9867       0    9869    9870    9870       0    9872    9873    9873
       0    9875    9876    9876       0    9878    9879    9879       0    9881
    9882    9882       0    9884    9885    9885       0    9887    9888    9888
       0    9890    9891    9891       0    9893    9894    9894       0    9896
    9897    9897       0    9899    9900    9900       0    9902    9903    9903
       0    9905    9906    9906       0    9908    9909    9909       0    9911
    9912    9912       0    9914    9915    9915       0    9917    9918    9918
       0    9920    9921    9921       0    9923    9924    9924       0    9926
    9927    9927       0    9929    9930    9930       0    9932    9933    9933
       0    9935    9936    9936       0    9938    9939    9939       0    9941
    9942    9942       0    9944    9945    9945       0    9947    9948    9948
       0    9950    9951    9951       0    9953    9954    9954       0    9956
    9957    9957       0    9959    9960    9960       0    9962    9963    9963
       0    9965    9966    9966       0    9968    9969    9969       0    9971
    9972    9972       0    9974    9975    9975       0    9977    9978    9978
       0    9980    9981    9981       0    9983    9984    9984       0    9986
    9987    9987       0    9989    9990    9990       0    9992    9993    9993
       0    9995    9996    9996       0    9998    9999    9999       0   10001
   10002   10002       0   10004   10005   10005       0   10007   10008   10008
       0   10010   10011   10011       0   10013   10014   10014       0   10016
   10017   10017       0   10019   10020   10020       0   10022   10023   10023
       0   10025   10026   10026       0   10028   10029   10029       0   10031
   10032   10032       0   10034   10035   10035       0   10037   10038   10038
       0   10040   10041   10041       0   10043   10044   10044       0   10046
   10047   10047       0   10049   10050   10050       0   10052   10053   10053
       0   10055   10056   10056       0   10058   10059   10059       0   10061
   10062   10062       0   10064   10065   10065       0   10067   10068   10068
       0   10070   10071   10071       0   10073   10074   10074       0   10076
   10077   10077       0   10079   10080   10080       0   10082   10083   10083
       0   10085   10086   10086       0   10088   10089   10089       0   10091
   10092   10092       0   10094   10095   10095       0   10097   10098   10098
       0   10100   10101   10101       0   10103   10104   10104       0   10106
   10107   10107       0   10109   10110   10110       0   10112   10113   10113
       0   10115   10116   10116       0   10118   10119   10119       0   10121
   10122   10122       0   10124   10125   10125       0   10127   10128   10128
       0   10130   10131   10131       0   10133   10134   10134       0   10136
   10137   10137       0   10139   10140   10140       0   10142   10143   10143
       0   10145   10146   10146       0   10148   10149   10149       0   10151
   10152   10152       0   10154   10155   10155       0   10157   10158   10158
       0   10160   10161   10161       0   10163   10164   10164       0   10166
   10167   10167       0   10169   10170   10170       0   10172   10173   10173
       0   10175   10176   10176       0   10178   10179   10179       0   10181
   10182   10182       0   10184   10185   10185       0   10187   10188   10188
       0   10190   10191   10191       0   10193   10194   10194       0   10196
   10197   10197       0   10199   10200   10200       0   10202   10203   10203
       0   10205   10206   10206       0   10208   10209   10209       0   10211
   10212   10212       0   10214   10215   10215       0   10217   10218   10218
       0   10220   10221   10221       0   10223   10224   10224       0   10226
   10227   10227       0   10229   10230   10230       0   10232   10233   10233
       0   10235   10236   10236       0   10238   10239   10239       0   10241
   10242   10242       0   10244   10245   10245       0   10247   10248   10248
       0   10250   10251   10251       0   10253   10254   10254       0   10256
   10257   10257       0   10259   10260   10260       0   10262   10263   10263
       0   10265   10266   10266       0   10268   10269   10269       0   10271
   10272   10272       0   10274   10275   10275       0   10277   10278   10278
       0   10280   10281   10281       0   10283   10284   10284       0   10286
   10287   10287       0   10289   10290   10290       0   10292   10293   10293
       0   10295   10296   10296       0   10298   10299   10299       0   10301
   10302   10302       0   10304   10305   10305       0   10307   10308   10308
       0   10310   10311   10311       0   10313   10314   10314       0   10316
   10317   10317       0   10319   10320   10320       0   10322   10323   10323
       0   10325   10326   10326       0   10328   10329   10329       0   10331
   10332   10332       0   10334   10335   10335       0   10337   10338   10338
       0   10340   10341   10341       0   10343   10344   10344       0   10346
   10347   10347       0   10349   10350   10350       0   10352   10353   10353
       0   10355   10356   10356       0   10358   10359   10359       0   10361
   10362   10362       0   10364   10365   10365       0   10367   10368   10368
       0   10370   10371   10371       0   10373   10374   10374       0   10376
   10377   10377       0   10379   10380   10380       0   10382   10383   10383
       0   10385   10386   10386       0   10388   10389   10389       0   10391
   10392   10392       0   10394   10395   10395       0   10397   10398   10398
       0   10400   10401   10401       0   10403   10404   10404       0   10406
   10407   10407       0   10409   10410   10410       0   10412   10413   10413
       0   10415   10416   10416       0   10418   10419   10419       0   10421
   10422   10422       0   10424   10425   10425       0   10427   10428   10428
       0   10430   10431   10431       0   10433   10434   10434       0   10436
   10437   10437       0   10439   10440   10440       0   10442   10443   10443
       0   10445   10446   10446       0   10448   10449   10449       0   10451
   10452   10452       0   10454   10455   10455       0   10457   10458   10458
       0   10460   10461   10461       0   10463   10464   10464       0   10466
   10467   10467       0   10469   10470   10470       0   10472   10473   10473
       0   10475   10476   10476       0   10478   10479   10479       0   10481
   10482   10482       0   10484   10485   10485       0   10487   10488   10488
       0   10490   10491   10491       0   10493   10494   10494       0   10496
   10497   10497       0   10499   10500   10500       0   10502   10503   10503
       0   10505   10506   10506       0   10508   10509   10509       0   10511
   10512   10512       0   10514   10515   10515       0   10517   10518   10518
       0   10520   10521   10521       0   10523   10524   10524       0   10526
   10527   10527       0   10529   10530   10530       0   10532   10533   10533
       0   10535   10536   10536       0   10538   10539   10539       0   10541
   10542   10542       0   10544   10545   10545       0   10547   10548   10548
       0   10550   10551   10551       0   10553   10554   10554       0   10556
   10557   10557       0   10559   10560   10560       0   10562   10563   10563
       0   10565   10566   10566       0   10568   10569   10569       0   10571
   10572   10572       0   10574   10575   10575       0   10577   10578   10578
       0   10580   10581   10581       0   10583   10584   10584       0   10586
   10587   10587       0   10589   10590   10590       0   10592   10593   10593
       0   10595   10596   10596       0   10598   10599   10599       0   10601
   10602   10602       0   10604   10605   10605       0   10607   10608   10608
       0   10610   10611   10611       0   10613   10614   10614       0   10616
   10617   10617       0   10619   10620   10620       0   10622   10623   10623
       0   10625   10626   10626       0   10628   10629   10629       0   10631
   10632   10632       0   10634   10635   10635       0   10637   10638   10638
       0   10640   10641   10641       0   10643   10644   10644       0   10646
   10647   10647       0   10649   10650   10650       0   10652   10653   10653
       0   10655   10656   10656       0   10658   10659   10659       0   10661
   10662   10662       0   10664   10665   10665       0   10667   10668   10668
       0   10670   10671   10671       0   10673   10674   10674       0   10676
   10677   10677       0   10679   10680   10680       0   10682   10683   10683
       0   10685   10686   10686       0   10688   10689   10689       0   10691
   10692   10692       0   10694   10695   10695       0   10697   10698   10698
       0   10700   10701   10701       0   10703   10704   10704       0   10706
   10707   10707       0   10709   10710   10710       0   10712   10713   10713
       0   10715   10716   10716       0   10718   10719   10719       0   10721
   10722   10722       0   10724   10725   10725       0   10727   10728   10728
       0   10730   10731   10731       0   10733   10734   10734       0   10736
   10737   10737       0   10739   10740   10740       0   10742   10743   10743
       0   10745   10746   10746       0   10748   10749   10749       0   10751
   10752   10752       0   10754   10755   10755       0   10757   10758   10758
       0   10760   10761   10761       0   10763   10764   10764       0   10766
   10767   10767       0   10769   10770   10770       0   10772   10773   10773
       0   10775   10776   10776       0   10778   10779   10779       0   10781
   10782   10782       0   10784   10785   10785       0   10787   10788   10788
       0   10790   10791   10791       0   10793   10794   10794       0   10796
   10797   10797       0   10799   10800   10800       0   10802   10803   10803
       0   10805   10806   10806       0   10808   10809   10809       0   10811
   10812   10812       0   10814   10815   10815       0   10817   10818   10818
       0   10820   10821   10821       0   10823   10824   10824       0   10826
   10827   10827       0   10829   10830   10830       0   10832   10833   10833
       0   10835   10836   10836       0   10838   10839   10839       0   10841
   10842   10842       0   10844   10845   10845       0   10847   10848   10848
       0   10850   10851   10851       0   10853   10854   10854       0   10856
   10857   10857       0   10859   10860   10860       0   10862   10863   10863
       0   10865   10866   10866       0   10868   10869   10869       0   10871
   10872   10872       0   10874   10875   10875       0   10877   10878   10878
       0   10880   10881   10881       0   10883   10884   10884       0   10886
   10887   10887       0   10889   10890   10890       0   10892   10893   10893
       0   10895   10896   10896       0   10898   10899   10899       0   10901
   10902   10902       0   10904   10905   10905       0   10907   10908   10908
       0   10910   10911   10911       0   10913   10914   10914       0   10916
   10917   10917       0   10919   10920   10920       0   10922   10923   10923
       0   10925   10926   10926       0   10928   10929   10929       0   10931
   10932   10932       0   10934   10935   10935       0   10937   10938   10938
       0   10940   10941   10941       0   10943   10944   10944       0   10946
   10947   10947       0   10949   10950   10950       0   10952   10953   10953
       0   10955   10956   10956       0   10958   10959   10959       0   10961
   10962   10962       0   10964   10965   10965       0   10967   10968   10968
       0   10970   10971   10971       0   10973   10974   10974       0   10976
   10977   10977       0   10979   10980   10980       0   10982   10983   10983
       0   10985   10986   10986       0   10988   10989   10989       0   10991
   10992   10992       0   10994   10995   10995       0   10997   10998   10998
       0   11000   11001   11001       0   11003   11004   11004       0   11006
   11007   11007       0   11009   11010   11010       0   11012   11013   11013
       0   11015   11016   11016       0   11018   11019   11019       0   11021
   11022   11022       0   11024   11025   11025       0   11027   11028   11028
       0   11030   11031   11031       0   11033   11034   11034       0   11036
   11037   11037       0   11039   11040   11040       0   11042   11043   11043
       0   11045   11046   11046       0   11048   11049   11049       0   11051
   11052   11052       0   11054   11055   11055       0   11057   11058   11058
       0   11060   11061   11061       0   11063   11064   11064       0   11066
   11067   11067       0   11069   11070   11070       0   11072   11073   11073
       0   11075   11076   11076       0   11078   11079   11079       0   11081
   11082   11082       0   11084   11085   11085       0   11087   11088   11088
       0   11090   11091   11091       0   11093   11094   11094       0   11096
   11097   11097       0   11099   11100   11100       0   11102   11103   11103
       0   11105   11106   11106       0   11108   11109   11109       0   11111
   11112   11112       0   11114   11115   11115       0   11117   11118   11118
       0   11120   11121   11121       0   11123   11124   11124       0   11126
   11127   11127       0   11129   11130   11130       0   11132   11133   11133
       0   11135   11136   11136       0   11138   11139   11139       0   11141
   11142   11142       0   11144   11145   11145       0   11147   11148   11148
       0   11150   11151   11151       0   11153   11154   11154       0   11156
   11157   11157       0   11159   11160   11160       0   11162   11163   11163
       0   11165   11166   11166       0   11168   11169   11169       0   11171
   11172   11172       0   11174   11175   11175       0   11177   11178   11178
       0   11180   11181   11181       0   11183   11184   11184       0   11186
   11187   11187       0   11189   11190   11190       0   11192   11193   11193
       0   11195   11196   11196       0   11198   11199   11199       0   11201
   11202   11202       0   11204   11205   11205       0   11207   11208   11208
       0   11210   11211   11211       0   11213   11214   11214       0   11216
   11217   11217       0   11219   11220   11220       0   11222   11223   11223
       0   11225   11226   11226       0   11228   11229   11229       0   11231
   11232   11232       0   11234   11235   11235       0   11237   11238   11238
       0   11240   11241   11241       0   11243   11244   11244       0   11246
   11247   11247       0   11249   11250   11250       0   11252   11253   11253
       0   11255   11256   11256       0   11258   11259   11259       0   11261
   11262   11262       0   11264   11265   11265       0   11267   11268   11268
       0   11270   11271   11271       0   11273   11274   11274       0   11276
   11277   11277       0   11279   11280   11280       0   11282   11283   11283
       0   11285   11286   11286       0   11288   11289   11289       0   11291
   11292   11292       0   11294   11295   11295       0   11297   11298   11298
       0   11300   11301   11301       0   11303   11304   11304       0   11306
   11307   11307       0   11309   11310   11310       0   11312   11313   11313
       0   11315   11316   11316       0   11318   11319   11319       0   11321
   11322   11322       0   11324   11325   11325       0   11327   11328   11328
       0   11330   11331   11331       0   11333   11334   11334       0   11336
   11337   11337       0   11339   11340   11340       0   11342   11343   11343
       0   11345   11346   11346       0   11348   11349   11349       0   11351
   11352   11352       0   11354   11355   11355       0   11357   11358   11358
       0   11360   11361   11361       0   11363   11364   11364       0   11366
   11367   11367       0   11369   11370   11370       0   11372   11373   11373
       0   11375   11376   11376       0   11378   11379   11379       0   11381
   11382   11382       0   11384   11385   11385       0   11387   11388   11388
       0   11390   11391   11391       0   11393   11394   11394       0   11396
   11397   11397       0   11399   11400   11400       0   11402   11403   11403
       0   11405   11406   11406       0   11408   11409   11409       0   11411
   11412   11412       0   11414   11415   11415       0   11417   11418   11418
       0   11420   11421   11421       0   11423   11424   11424       0   11426
   11427   11427       0   11429   11430   11430       0   11432   11433   11433
       0   11435   11436   11436       0   11438   11439   11439       0   11441
   11442   11442       0   11444   11445   11445       0   11447   11448   11448
       0   11450   11451   11451       0   11453   11454   11454       0   11456
   11457   11457       0   11459   11460   11460       0   11462   11463   11463
       0   11465   11466   11466       0   11468   11469   11469       0   11471
   11472   11472       0   11474   11475   11475       0   11477   11478   11478
       0   11480   11481   11481       0   11483   11484   11484       0   11486
   11487   11487       0   11489   11490   11490       0   11492   11493   11493
       0   11495   11496   11496       0   11498   11499   11499       0   11501
   11502   11502       0   11504   11505   11505       0   11507   11508   11508
       0   11510   11511   11511       0   11513   11514   11514       0   11516
   11517   11517       0   11519   11520   11520       0   11522   11523   11523
       0   11525   11526   11526       0   11528   11529   11529       0   11531
   11532   11532       0   11534   11535   11535       0   11537   11538   11538
       0   11540   11541   11541       0   11543   11544   11544       0   11546
   11547   11547       0   11549   11550   11550       0   11552   11553   11553
       0   11555   11556   11556       0   11558   11559   11559       0   11561
   11562   11562       0   11564   11565   11565       0   11567   11568   11568
       0   11570   11571   11571       0   11573   11574   11574       0   11576
   11577   11577       0   11579   11580   11580       0   11582   11583   11583
       0   11585   11586   11586       0   11588   11589   11589       0   11591
   11592   11592       0   11594   11595   11595       0   11597   11598   11598
       0   11600   11601   11601       0   11603   11604   11604       0   11606
   11607   11607       0   11609   11610   11610       0   11612   11613   11613
       0   11615   11616   11616       0   11618   11619   11619       0   11621
   11622   11622       0   11624   11625   11625       0   11627   11628   11628
       0   11630   11631   11631       0   11633   11634   11634       0   11636
   11637   11637       0   11639   11640   11640       0   11642   11643   11643
       0   11645   11646   11646       0   11648   11649   11649       0   11651
   11652   11652       0   11654   11655   11655       0   11657   11658   11658
       0   11660   11661   11661       0   11663   11664   11664       0   11666
   11667   11667       0   11669   11670   11670       0   11672   11673   11673
       0   11675   11676   11676       0   11678   11679   11679       0   11681
   11682   11682       0   11684   11685   11685       0   11687   11688   11688
       0   11690   11691   11691       0   11693   11694   11694       0   11696
   11697   11697       0   11699   11700   11700       0   11702   11703   11703
       0   11705   11706   11706       0   11708   11709   11709       0   11711
   11712   11712       0   11714   11715   11715       0   11717   11718   11718
       0   11720   11721   11721       0   11723   11724   11724       0   11726
   11727   11727       0   11729   11730   11730       0   11732   11733   11733
       0   11735   11736   11736       0   11738   11739   11739       0   11741
   11742   11742       0   11744   11745   11745       0   11747   11748   11748
       0   11750   11751   11751       0   11753   11754   11754       0   11756
   11757   11757       0   11759   11760   11760       0   11762   11763   11763
       0   11765   11766   11766       0   11768   11769   11769       0   11771
   11772   11772       0   11774   11775   11775       0   11777   11778   11778
       0   11780   11781   11781       0   11783   11784   11784       0   11786
   11787   11787       0   11789   11790   11790       0   11792   11793   11793
       0   11795   11796   11796       0   11798   11799   11799       0   11801
   11802   11802       0   11804   11805   11805       0   11807   11808   11808
       0   11810   11811   11811       0   11813   11814   11814       0   11816
   11817   11817       0   11819   11820   11820       0   11822   11823   11823
       0   11825   11826   11826       0   11828   11829   11829       0   11831
   11832   11832       0   11834   11835   11835       0   11837   11838   11838
       0   11840   11841   11841       0   11843   11844   11844       0   11846
   11847   11847       0   11849   11850   11850       0   11852   11853   11853
       0   11855   11856   11856       0   11858   11859   11859       0   11861
   11862   11862       0   11864   11865   11865       0   11867   11868   11868
       0   11870   11871   11871       0   11873   11874   11874       0   11876
   11877   11877       0   11879   11880   11880       0   11882   11883   11883
       0   11885   11886   11886       0   11888   11889   11889       0   11891
   11892   11892       0   11894   11895   11895       0   11897   11898   11898
       0   11900   11901   11901       0   11903   11904   11904       0   11906
   11907   11907       0   11909   11910   11910       0   11912   11913   11913
       0   11915   11916   11916       0   11918   11919   11919       0   11921
   11922   11922       0   11924   11925   11925       0   11927   11928   11928
       0   11930   11931   11931       0   11933   11934   11934       0   11936
   11937   11937       0   11939   11940   11940       0   11942   11943   11943
       0   11945   11946   11946       0   11948   11949   11949       0   11951
   11952   11952       0   11954   11955   11955       0   11957   11958   11958
       0   11960   11961   11961       0   11963   11964   11964       0   11966
   11967   11967       0   11969   11970   11970       0   11972   11973   11973
       0   11975   11976   11976       0   11978   11979   11979       0   11981
   11982   11982       0   11984   11985   11985       0   11987   11988   11988
       0   11990   11991   11991       0   11993   11994   11994       0   11996
   11997   11997       0   11999   12000   12000       0   12002   12003   12003
       0   12005   12006   12006       0   12008   12009   12009       0   12011
   12012   12012       0   12014   12015   12015       0   12017   12018   12018
       0   12020   12021   12021       0   12023   12024   12024       0   12026
   12027   12027       0   12029   12030   12030       0   12032   12033   12033
       0   12035   12036   12036       0   12038   12039   12039       0   12041
   12042   12042       0   12044   12045   12045       0   12047   12048   12048
       0   12050   12051   12051       0   12053   12054   12054       0   12056
   12057   12057       0   12059   12060   12060       0   12062   12063   12063
       0   12065   12066   12066       0   12068   12069   12069       0   12071
   12072   12072       0   12074   12075   12075       0   12077   12078   12078
       0   12080   12081   12081       0   12083   12084   12084       0   12086
   12087   12087       0   12089   12090   12090       0   12092   12093   12093
       0   12095   12096   12096       0   12098   12099   12099       0   12101
   12102   12102       0   12104   12105   12105       0   12107   12108   12108
       0   12110   12111   12111       0   12113   12114   12114       0   12116
   12117   12117       0   12119   12120   12120       0   12122   12123   12123
       0   12125   12126   12126       0   12128   12129   12129       0   12131
   12132   12132       0   12134   12135   12135       0   12137   12138   12138
       0   12140   12141   12141       0   12143   12144   12144       0   12146
   12147   12147       0   12149   12150   12150       0   12152   12153   12153
       0   12155   12156   12156       0   12158   12159   12159       0   12161
   12162   12162       0   12164   12165   12165       0   12167   12168   12168
       0   12170   12171   12171       0   12173   12174   12174       0   12176
   12177   12177       0   12179   12180   12180       0   12182   12183   12183
       0   12185   12186   12186       0   12188   12189   12189       0   12191
   12192   12192       0   12194   12195   12195       0   12197   12198   12198
       0   12200   12201   12201       0   12203   12204   12204       0   12206
   12207   12207       0   12209   12210   12210       0   12212   12213   12213
       0   12215   12216   12216       0   12218   12219   12219       0   12221
   12222   12222       0   12224   12225   12225       0   12227   12228   12228
       0   12230   12231   12231       0   12233   12234   12234       0   12236
   12237   12237       0   12239   12240   12240       0   12242   12243   12243
       0   12245   12246   12246       0   12248   12249   12249       0   12251
   12252   12252       0   12254   12255   12255       0   12257   12258   12258
       0   12260   12261   12261       0   12263   12264   12264       0   12266
   12267   12267       0   12269   12270   12270       0   12272   12273   12273
       0   12275   12276   12276       0   12278   12279   12279       0   12281
   12282   12282       0   12284   12285   12285       0   12287   12288   12288
       0   12290   12291   12291       0   12293   12294   12294       0   12296
   12297   12297       0   12299   12300   12300       0   12302   12303   12303
       0   12305   12306   12306       0   12308   12309   12309       0   12311
   12312   12312       0   12314   12315   12315       0   12317   12318   12318
       0   12320   12321   12321       0   12323   12324   12324       0   12326
   12327   12327       0   12329   12330   12330       0   12332   12333   12333
       0   12335   12336   12336       0   12338   12339   12339       0   12341
   12342   12342       0   12344   12345   12345       0   12347   12348   12348
       0   12350   12351   12351       0   12353   12354   12354       0   12356
   12357   12357       0   12359   12360   12360       0   12362   12363   12363
       0   12365   12366   12366       0   12368   12369   12369       0   12371
   12372   12372       0   12374   12375   12375       0   12377   12378   12378
       0   12380   12381   12381       0   12383   12384   12384       0   12386
   12387   12387       0   12389   12390   12390       0   12392   12393   12393
       0   12395   12396   12396       0   12398   12399   12399       0   12401
   12402   12402       0   12404   12405   12405       0   12407   12408   12408
       0   12410   12411   12411       0   12413   12414   12414       0   12416
   12417   12417       0   12419   12420   12420       0   12422   12423   12423
       0   12425   12426   12426       0   12428   12429   12429       0   12431
   12432   12432       0   12434   12435   12435       0   12437   12438   12438
       0   12440   12441   12441       0   12443   12444   12444       0   12446
   12447   12447       0   12449   12450   12450       0   12452   12453   12453
       0   12455   12456   12456       0   12458   12459   12459       0   12461
   12462   12462       0   12464   12465   12465       0   12467   12468   12468
       0   12470   12471   12471       0   12473   12474   12474       0   12476
   12477   12477       0   12479   12480   12480       0   12482   12483   12483
       0   12485   12486   12486       0   12488   12489   12489       0   12491
   12492   12492       0   12494   12495   12495       0   12497   12498   12498
       0   12500   12501   12501       0   12503   12504   12504       0   12506
   12507   12507       0   12509   12510   12510       0   12512   12513   12513
       0   12515   12516   12516       0   12518   12519   12519       0   12521
   12522   12522       0   12524   12525   12525       0   12527   12528   12528
       0   12530   12531   12531       0   12533   12534   12534       0   12536
   12537   12537       0   12539   12540   12540       0   12542   12543   12543
       0   12545   12546   12546       0   12548   12549   12549       0   12551
   12552   12552       0   12554   12555   12555       0   12557   12558   12558
       0   12560   12561   12561       0   12563   12564   12564       0   12566
   12567   12567       0   12569   12570   12570       0   12572   12573   12573
       0   12575   12576   12576       0   12578   12579   12579       0   12581
   12582   12582       0   12584   12585   12585       0   12587   12588   12588
       0   12590   12591   12591       0   12593   12594   12594       0   12596
   12597   12597       0   12599   12600   12600       0   12602   12603   12603
       0   12605   12606   12606       0   12608   12609   12609       0   12611
   12612   12612       0   12614   12615   12615       0   12617   12618   12618
       0   12620   12621   12621       0   12623   12624   12624       0   12626
   12627   12627       0   12629   12630   12630       0   12632   12633   12633
       0   12635   12636   12636       0   12638   12639   12639       0   12641
   12642   12642       0   12644   12645   12645       0   12647   12648   12648
       0   12650   12651   12651       0   12653   12654   12654       0   12656
   12657   12657       0   12659   12660   12660       0   12662   12663   12663
       0   12665   12666   12666       0   12668   12669   12669       0   12671
   12672   12672       0   12674   12675   12675       0   12677   12678   12678
       0   12680   12681   12681       0   12683   12684   12684       0   12686
   12687   12687       0   12689   12690   12690       0   12692   12693   12693
       0   12695   12696   12696       0   12698   12699   12699       0   12701
   12702   12702       0   12704   12705   12705       0   12707   12708   12708
       0   12710   12711   12711       0   12713   12714   12714       0   12716
   12717   12717       0   12719   12720   12720       0   12722   12723   12723
       0   12725   12726   12726       0   12728   12729   12729       0   12731
   12732   12732       0   12734   12735   12735       0   12737   12738   12738
       0   12740   12741   12741       0   12743   12744   12744       0   12746
   12747   12747       0   12749   12750   12750       0   12752   12753   12753
       0   12755   12756   12756       0   12758   12759   12759       0   12761
   12762   12762       0   12764   12765   12765       0   12767   12768   12768
       0   12770   12771   12771       0   12773   12774   12774       0   12776
   12777   12777       0   12779   12780   12780       0   12782   12783   12783
       0   12785   12786   12786       0   12788   12789   12789       0   12791
   12792   12792       0   12794   12795   12795       0   12797   12798   12798
       0   12800   12801   12801       0   12803   12804   12804       0   12806
   12807   12807       0   12809   12810   12810       0   12812   12813   12813
       0   12815   12816   12816       0   12818   12819   12819       0   12821
   12822   12822       0   12824   12825   12825       0   12827   12828   12828
       0   12830   12831   12831       0   12833   12834   12834       0   12836
   12837   12837       0   12839   12840   12840       0   12842   12843   12843
       0   12845   12846   12846       0   12848   12849   12849       0   12851
   12852   12852       0   12854   12855   12855       0   12857   12858   12858
       0   12860   12861   12861       0   12863   12864   12864       0   12866
   12867   12867       0   12869   12870   12870       0   12872   12873   12873
       0   12875   12876   12876       0   12878   12879   12879       0   12881
   12882   12882       0   12884   12885   12885       0   12887   12888   12888
       0   12890   12891   12891       0   12893   12894   12894       0   12896
   12897   12897       0   12899   12900   12900       0   12902   12903   12903
       0   12905   12906   12906       0   12908   12909   12909       0   12911
   12912   12912       0   12914   12915   12915       0   12917   12918   12918
       0   12920   12921   12921       0   12923   12924   12924       0   12926
   12927   12927       0   12929   12930   12930       0   12932   12933   12933
       0   12935   12936   12936       0   12938   12939   12939       0   12941
   12942   12942       0   12944   12945   12945       0   12947   12948   12948
       0   12950   12951   12951       0   12953   12954   12954       0   12956
   12957   12957       0   12959   12960   12960       0   12962   12963   12963
       0   12965   12966   12966       0   12968   12969   12969       0   12971
   12972   12972       0   12974   12975   12975       0   12977   12978   12978
       0   12980   12981   12981       0   12983   12984   12984       0   12986
   12987   12987       0   12989   12990   12990       0   12992   12993   12993
       0   12995   12996   12996       0   12998   12999   12999       0   13001
   13002   13002       0   13004   13005   13005       0   13007   13008   13008
       0   13010   13011   13011       0   13013   13014   13014       0   13016
   13017   13017       0   13019   13020   13020       0   13022   13023   13023
       0   13025   13026   13026       0   13028   13029   13029       0   13031
   13032   13032       0   13034   13035   13035       0   13037   13038   13038
       0   13040   13041   13041       0   13043   13044   13044       0   13046
   13047   13047       0   13049   13050   13050       0   13052   13053   13053
       0   13055   13056   13056       0   13058   13059   13059       0   13061
   13062   13062       0   13064   13065   13065       0   13067   13068   13068
       0   13070   13071   13071       0   13073   13074   13074       0   13076
   13077   13077       0   13079   13080   13080       0   13082   13083   13083
       0   13085   13086   13086       0   13088   13089   13089       0   13091
   13092   13092       0   13094   13095   13095       0   13097   13098   13098
       0   13100   13101   13101       0   13103   13104   13104       0   13106
   13107   13107       0   13109   13110   13110       0   13112   13113   13113
       0   13115   13116   13116       0   13118   13119   13119       0   13121
   13122   13122       0   13124   13125   13125       0   13127   13128   13128
       0   13130   13131   13131       0   13133   13134   13134       0   13136
   13137   13137       0   13139   13140   13140       0   13142   13143   13143
       0   13145   13146   13146       0   13148   13149   13149       0   13151
   13152   13152       0   13154   13155   13155       0   13157   13158   13158
       0   13160   13161   13161       0   13163   13164   13164       0   13166
   13167   13167       0   13169   13170   13170       0   13172   13173   13173
       0   13175   13176   13176       0   13178   13179   13179       0   13181
   13182   13182       0   13184   13185   13185       0   13187   13188   13188
       0   13190   13191   13191       0   13193   13194   13194       0   13196
   13197   13197       0   13199   13200   13200       0   13202   13203   13203
       0   13205   13206   13206       0   13208   13209   13209       0   13211
   13212   13212       0   13214   13215   13215       0   13217   13218   13218
       0   13220   13221   13221       0   13223   13224   13224       0   13226
   13227   13227       0   13229   13230   13230       0   13232   13233   13233
       0   13235   13236   13236       0   13238   13239   13239       0   13241
   13242   13242       0   13244   13245   13245       0   13247   13248   13248
       0   13250   13251   13251       0   13253   13254   13254       0   13256
   13257   13257       0   13259   13260   13260       0   13262   13263   13263
       0   13265   13266   13266       0   13268   13269   13269       0   13271
   13272   13272       0   13274   13275   13275       0   13277   13278   13278
       0   13280   13281   13281       0   13283   13284   13284       0   13286
   13287   13287       0   13289   13290   13290       0   13292   13293   13293
       0   13295   13296   13296       0   13298   13299   13299       0   13301
   13302   13302       0   13304   13305   13305       0   13307   13308   13308
       0   13310   13311   13311       0   13313   13314   13314       0   13316
   13317   13317       0   13319   13320   13320       0   13322   13323   13323
       0   13325   13326   13326       0   13328   13329   13329       0   13331
   13332   13332       0   13334   13335   13335       0   13337   13338   13338
       0   13340   13341   13341       0   13343   13344   13344       0   13346
   13347   13347       0   13349   13350   13350       0   13352   13353   13353
       0   13355   13356   13356       0   13358   13359   13359       0   13361
   13362   13362       0   13364   13365   13365       0   13367   13368   13368
       0   13370   13371   13371       0   13373   13374   13374       0   13376
   13377   13377       0   13379   13380   13380       0   13382   13383   13383
       0   13385   13386   13386       0   13388   13389   13389       0   13391
   13392   13392       0   13394   13395   13395       0   13397   13398   13398
       0   13400   13401   13401       0   13403   13404   13404       0   13406
   13407   13407       0   13409   13410   13410       0   13412   13413   13413
       0   13415   13416   13416       0   13418   13419   13419       0   13421
   13422   13422       0   13424   13425   13425       0   13427   13428   13428
       0   13430   13431   13431       0   13433   13434   13434       0   13436
   13437   13437       0   13439   13440   13440       0   13442   13443   13443
       0   13445   13446   13446       0   13448   13449   13449       0   13451
   13452   13452       0   13454   13455   13455       0   13457   13458   13458
       0   13460   13461   13461       0   13463   13464   13464       0   13466
   13467   13467       0   13469   13470   13470       0   13472   13473   13473
       0   13475   13476   13476       0   13478   13479   13479       0   13481
   13482   13482       0   13484   13485   13485       0   13487   13488   13488
       0   13490   13491   13491       0   13493   13494   13494       0   13496
   13497   13497       0   13499   13500   13500       0   13502   13503   13503
       0   13505   13506   13506       0   13508   13509   13509       0   13511
   13512   13512       0   13514   13515   13515       0   13517   13518   13518
       0   13520   13521   13521       0   13523   13524   13524       0   13526
   13527   13527       0   13529   13530   13530       0   13532   13533   13533
       0   13535   13536   13536       0   13538   13539   13539       0   13541
   13542   13542       0   13544   13545   13545       0   13547   13548   13548
       0   13550   13551   13551       0   13553   13554   13554       0   13556
   13557   13557       0   13559   13560   13560       0   13562   13563   13563
       0   13565   13566   13566       0   13568   13569   13569       0   13571
   13572   13572       0   13574   13575   13575       0   13577   13578   13578
       0   13580   13581   13581       0   13583   13584   13584       0   13586
   13587   13587       0   13589   13590   13590       0   13592   13593   13593
       0   13595   13596   13596       0   13598   13599   13599       0   13601
   13602   13602       0   13604   13605   13605       0   13607   13608   13608
       0   13610   13611   13611       0   13613   13614   13614       0   13616
   13617   13617       0   13619   13620   13620       0   13622   13623   13623
       0   13625   13626   13626       0   13628   13629   13629       0   13631
   13632   13632       0   13634   13635   13635       0   13637   13638   13638
       0   13640   13641   13641       0   13643   13644   13644       0   13646
   13647   13647       0   13649   13650   13650       0   13652   13653   13653
       0   13655   13656   13656       0   13658   13659   13659       0   13661
   13662   13662       0   13664   13665   13665       0   13667   13668   13668
       0   13670   13671   13671       0   13673   13674   13674       0   13676
   13677   13677       0   13679   13680   13680       0   13682   13683   13683
       0   13685   13686   13686       0   13688   13689   13689       0   13691
   13692   13692       0   13694   13695   13695       0   13697   13698   13698
       0   13700   13701   13701       0   13703   13704   13704       0   13706
   13707   13707       0   13709   13710   13710       0   13712   13713   13713
       0   13715   13716   13716       0   13718   13719   13719       0   13721
   13722   13722       0   13724   13725   13725       0   13727   13728   13728
       0   13730   13731   13731       0   13733   13734   13734       0   13736
   13737   13737       0   13739   13740   13740       0   13742   13743   13743
       0   13745   13746   13746       0   13748   13749   13749       0   13751
   13752   13752       0   13754   13755   13755       0   13757   13758   13758
       0   13760   13761   13761       0   13763   13764   13764       0   13766
   13767   13767       0   13769   13770   13770       0   13772   13773   13773
       0   13775   13776   13776       0   13778   13779   13779       0   13781
   13782   13782       0   13784   13785   13785       0   13787   13788   13788
       0   13790   13791   13791       0   13793   13794   13794       0   13796
   13797   13797       0   13799   13800   13800       0   13802   13803   13803
       0   13805   13806   13806       0   13808   13809   13809       0   13811
   13812   13812       0   13814   13815   13815       0   13817   13818   13818
       0   13820   13821   13821       0   13823   13824   13824       0   13826
   13827   13827       0   13829   13830   13830       0   13832   13833   13833
       0   13835   13836   13836       0   13838   13839   13839       0   13841
   13842   13842       0   13844   13845   13845       0   13847   13848   13848
       0   13850   13851   13851       0   13853   13854   13854       0   13856
   13857   13857       0   13859   13860   13860       0   13862   13863   13863
       0   13865   13866   13866       0   13868   13869   13869       0   13871
   13872   13872       0   13874   13875   13875       0   13877   13878   13878
       0   13880   13881   13881       0   13883   13884   13884       0   13886
   13887   13887       0   13889   13890   13890       0   13892   13893   13893
       0   13895   13896   13896       0   13898   13899   13899       0   13901
   13902   13902       0   13904   13905   13905       0   13907   13908   13908
       0   13910   13911   13911       0   13913   13914   13914       0   13916
   13917   13917       0   13919   13920   13920       0   13922   13923   13923
       0   13925   13926   13926       0   13928   13929   13929       0   13931
   13932   13932       0   13934   13935   13935       0   13937   13938   13938
       0   13940   13941   13941       0   13943   13944   13944       0   13946
   13947   13947       0   13949   13950   13950       0   13952   13953   13953
       0   13955   13956   13956       0   13958   13959   13959       0   13961
   13962   13962       0   13964   13965   13965       0   13967   13968   13968
       0   13970   13971   13971       0   13973   13974   13974       0   13976
   13977   13977       0   13979   13980   13980       0   13982   13983   13983
       0   13985   13986   13986       0   13988   13989   13989       0   13991
   13992   13992       0   13994   13995   13995       0   13997   13998   13998
       0   14000   14001   14001       0   14003   14004   14004       0   14006
   14007   14007       0   14009   14010   14010       0   14012   14013   14013
       0   14015   14016   14016       0   14018   14019   14019       0   14021
   14022   14022       0   14024   14025   14025       0   14027   14028   14028
       0   14030   14031   14031       0   14033   14034   14034       0   14036
   14037   14037       0   14039   14040   14040       0   14042   14043   14043
       0   14045   14046   14046       0   14048   14049   14049       0   14051
   14052   14052       0   14054   14055   14055       0   14057   14058   14058
       0   14060   14061   14061       0   14063   14064   14064       0   14066
   14067   14067       0   14069   14070   14070       0   14072   14073   14073
       0   14075   14076   14076       0   14078   14079   14079       0   14081
   14082   14082       0   14084   14085   14085       0   14087   14088   14088
       0   14090   14091   14091       0   14093   14094   14094       0   14096
   14097   14097       0   14099   14100   14100       0   14102   14103   14103
       0   14105   14106   14106       0   14108   14109   14109       0   14111
   14112   14112       0   14114   14115   14115       0   14117   14118   14118
       0   14120   14121   14121       0   14123   14124   14124       0   14126
   14127   14127       0   14129   14130   14130       0   14132   14133   14133
       0   14135   14136   14136       0   14138   14139   14139       0   14141
   14142   14142       0   14144   14145   14145       0   14147   14148   14148
       0   14150   14151   14151       0   14153   14154   14154       0   14156
   14157   14157       0   14159   14160   14160       0   14162   14163   14163
       0   14165   14166   14166       0   14168   14169   14169       0   14171
   14172   14172       0   14174   14175   14175       0   14177   14178   14178
       0   14180   14181   14181       0   14183   14184   14184       0   14186
   14187   14187       0   14189   14190   14190       0   14192   14193   14193
       0   14195   14196   14196       0   14198   14199   14199       0   14201
   14202   14202       0   14204   14205   14205       0   14207   14208   14208
       0   14210   14211   14211       0   14213   14214   14214       0   14216
   14217   14217       0   14219   14220   14220       0   14222   14223   14223
       0   14225   14226   14226       0   14228   14229   14229       0   14231
   14232   14232       0   14234   14235   14235       0   14237   14238   14238
       0   14240   14241   14241       0   14243   14244   14244       0   14246
   14247   14247       0   14249   14250   14250       0   14252   14253   14253
       0   14255   14256   14256       0   14258   14259   14259       0   14261
   14262   14262       0   14264   14265   14265       0   14267   14268   14268
       0   14270   14271   14271       0   14273   14274   14274       0   14276
   14277   14277       0   14279   14280   14280       0   14282   14283   14283
       0   14285   14286   14286       0   14288   14289   14289       0   14291
   14292   14292       0   14294   14295   14295       0   14297   14298   14298
       0   14300   14301   14301       0   14303   14304   14304       0   14306
   14307   14307       0   14309   14310   14310       0   14312   14313   14313
       0   14315   14316   14316       0   14318   14319   14319       0   14321
   14322   14322       0   14324   14325   14325       0   14327   14328   14328
       0   14330   14331   14331       0   14333   14334   14334       0   14336
   14337   14337       0   14339   14340   14340       0   14342   14343   14343
       0   14345   14346   14346       0   14348   14349   14349       0   14351
   14352   14352       0   14354   14355   14355       0   14357   14358   14358
       0   14360   14361   14361       0   14363   14364   14364       0   14366
   14367   14367       0   14369   14370   14370       0   14372   14373   14373
       0   14375   14376   14376       0   14378   14379   14379       0   14381
   14382   14382       0   14384   14385   14385       0   14387   14388   14388
       0   14390   14391   14391       0   14393   14394   14394       0   14396
   14397   14397       0   14399   14400   14400       0   14402   14403   14403
       0   14405   14406   14406       0   14408   14409   14409       0   14411
   14412   14412       0   14414   14415   14415       0   14417   14418   14418
       0   14420   14421   14421       0   14423   14424   14424       0   14426
   14427   14427       0   14429   14430   14430       0   14432   14433   14433
       0   14435   14436   14436       0   14438   14439   14439       0   14441
   14442   14442       0   14444   14445   14445       0   14447   14448   14448
       0   14450   14451   14451       0   14453   14454   14454       0   14456
   14457   14457       0   14459   14460   14460       0   14462   14463   14463
       0   14465   14466   14466       0   14468   14469   14469       0   14471
   14472   14472       0   14474   14475   14475       0   14477   14478   14478
       0   14480   14481   14481       0   14483   14484   14484       0   14486
   14487   14487       0   14489   14490   14490       0   14492   14493   14493
       0   14495   14496   14496       0   14498   14499   14499       0   14501
   14502   14502       0   14504   14505   14505       0   14507   14508   14508
       0   14510   14511   14511       0   14513   14514   14514       0   14516
   14517   14517       0   14519   14520   14520       0   14522   14523   14523
       0   14525   14526   14526       0   14528   14529   14529       0   14531
   14532   14532       0   14534   14535   14535       0   14537   14538   14538
       0   14540   14541   14541       0   14543   14544   14544       0   14546
   14547   14547       0   14549   14550   14550       0   14552   14553   14553
       0   14555   14556   14556       0   14558   14559   14559       0   14561
   14562   14562       0   14564   14565   14565       0   14567   14568   14568
       0   14570   14571   14571       0   14573   14574   14574       0   14576
   14577   14577       0   14579   14580   14580       0   14582   14583   14583
       0   14585   14586   14586       0   14588   14589   14589       0   14591
   14592   14592       0   14594   14595   14595       0   14597   14598   14598
       0   14600   14601   14601       0   14603   14604   14604       0   14606
   14607   14607       0   14609   14610   14610       0   14612   14613   14613
       0   14615   14616   14616       0   14618   14619   14619       0   14621
   14622   14622       0   14624   14625   14625       0   14627   14628   14628
       0   14630   14631   14631       0   14633   14634   14634       0   14636
   14637   14637       0   14639   14640   14640       0   14642   14643   14643
       0   14645   14646   14646       0   14648   14649   14649       0   14651
   14652   14652       0   14654   14655   14655       0   14657   14658   14658
       0   14660   14661   14661       0   14663   14664   14664       0   14666
   14667   14667       0   14669   14670   14670       0   14672   14673   14673
       0   14675   14676   14676       0   14678   14679   14679       0   14681
   14682   14682       0   14684   14685   14685       0   14687   14688   14688
       0   14690   14691   14691       0   14693   14694   14694       0   14696
   14697   14697       0   14699   14700   14700       0   14702   14703   14703
       0   14705   14706   14706       0   14708   14709   14709       0   14711
   14712   14712       0   14714   14715   14715       0   14717   14718   14718
       0   14720   14721   14721       0   14723   14724   14724       0   14726
   14727   14727       0   14729   14730   14730       0   14732   14733   14733
       0   14735   14736   14736       0   14738   14739   14739       0   14741
   14742   14742       0   14744   14745   14745       0   14747   14748   14748
       0   14750   14751   14751       0   14753   14754   14754       0   14756
   14757   14757       0   14759   14760   14760       0   14762   14763   14763
       0   14765   14766   14766       0   14768   14769   14769       0   14771
   14772   14772       0   14774   14775   14775       0   14777   14778   14778
       0   14780   14781   14781       0   14783   14784   14784       0   14786
   14787   14787       0   14789   14790   14790       0   14792   14793   14793
       0   14795   14796   14796       0   14798   14799   14799       0   14801
   14802   14802       0   14804   14805   14805       0   14807   14808   14808
       0   14810   14811   14811       0   14813   14814   14814       0   14816
   14817   14817       0   14819   14820   14820       0   14822   14823   14823
       0   14825   14826   14826       0   14828   14829   14829       0   14831
   14832   14832       0   14834   14835   14835       0   14837   14838   14838
       0   14840   14841   14841       0   14843   14844   14844       0   14846
   14847   14847       0   14849   14850   14850       0   14852   14853   14853
       0   14855   14856   14856       0   14858   14859   14859       0   14861
   14862   14862       0   14864   14865   14865       0   14867   14868   14868
       0   14870   14871   14871       0   14873   14874   14874       0   14876
   14877   14877       0   14879   14880   14880       0   14882   14883   14883
       0   14885   14886   14886       0   14888   14889   14889       0   14891
   14892   14892       0   14894   14895   14895       0   14897   14898   14898
       0   14900   14901   14901       0   14903   14904   14904       0   14906
   14907   14907       0   14909   14910   14910       0   14912   14913   14913
       0   14915   14916   14916       0   14918   14919   14919       0   14921
   14922   14922       0   14924   14925   14925       0   14927   14928   14928
       0   14930   14931   14931       0   14933   14934   14934       0   14936
   14937   14937       0   14939   14940   14940       0   14942   14943   14943
       0   14945   14946   14946       0   14948   14949   14949       0   14951
   14952   14952       0   14954   14955   14955       0   14957   14958   14958
       0   14960   14961   14961       0   14963   14964   14964       0   14966
   14967   14967       0   14969   14970   14970       0   14972   14973   14973
       0   14975   14976   14976       0   14978   14979   14979       0   14981
   14982   14982       0   14984   14985   14985       0   14987   14988   14988
       0   14990   14991   14991       0   14993   14994   14994       0   14996
   14997   14997       0   14999   15000   15000       0   15002   15003   15003
       0   15005   15006   15006       0   15008   15009   15009       0   15011
   15012   15012       0   15014   15015   15015       0   15017   15018   15018
       0   15020   15021   15021       0   15023   15024   15024       0   15026
   15027   15027       0   15029   15030   15030       0   15032   15033   15033
       0   15035   15036   15036       0   15038   15039   15039       0   15041
   15042   15042       0   15044   15045   15045       0   15047   15048   15048
       0   15050   15051   15051       0   15053   15054   15054       0   15056
   15057   15057       0   15059   15060   15060       0   15062   15063   15063
       0   15065   15066   15066       0   15068   15069   15069       0   15071
   15072   15072       0   15074   15075   15075       0   15077   15078   15078
       0   15080   15081   15081       0   15083   15084   15084       0   15086
   15087   15087       0   15089   15090   15090       0   15092   15093   15093
       0   15095   15096   15096       0   15098   15099   15099       0   15101
   15102   15102       0   15104   15105   15105       0   15107   15108   15108
       0   15110   15111   15111       0   15113   15114   15114       0   15116
   15117   15117       0   15119   15120   15120       0   15122   15123   15123
       0   15125   15126   15126       0   15128   15129   15129       0   15131
   15132   15132       0   15134   15135   15135       0   15137   15138   15138
       0   15140   15141   15141       0   15143   15144   15144       0   15146
   15147   15147       0   15149   15150   15150       0   15152   15153   15153
       0   15155   15156   15156       0   15158   15159   15159       0   15161
   15162   15162       0   15164   15165   15165       0   15167   15168   15168
       0   15170   15171   15171       0   15173   15174   15174       0   15176
   15177   15177       0   15179   15180   15180       0   15182   15183   15183
       0   15185   15186   15186       0   15188   15189   15189       0   15191
   15192   15192       0   15194   15195   15195       0   15197   15198   15198
       0   15200   15201   15201       0   15203   15204   15204       0   15206
   15207   15207       0   15209   15210   15210       0   15212   15213   15213
       0   15215   15216   15216       0   15218   15219   15219       0   15221
   15222   15222       0   15224   15225   15225       0   15227   15228   15228
       0   15230   15231   15231       0   15233   15234   15234       0   15236
   15237   15237       0   15239   15240   15240       0   15242   15243   15243
       0   15245   15246   15246       0   15248   15249   15249       0   15251
   15252   15252       0   15254   15255   15255       0   15257   15258   15258
       0   15260   15261   15261       0   15263   15264   15264       0   15266
   15267   15267       0   15269   15270   15270       0   15272   15273   15273
       0   15275   15276   15276       0   15278   15279   15279       0   15281
   15282   15282       0   15284   15285   15285       0   15287   15288   15288
       0   15290   15291   15291       0   15293   15294   15294       0   15296
   15297   15297       0   15299   15300   15300       0   15302   15303   15303
       0   15305   15306   15306       0   15308   15309   15309       0   15311
   15312   15312       0   15314   15315   15315       0   15317   15318   15318
       0   15320   15321   15321       0   15323   15324   15324       0   15326
   15327   15327       0   15329   15330   15330       0   15332   15333   15333
       0   15335   15336   15336       0   15338   15339   15339       0   15341
   15342   15342       0   15344   15345   15345       0   15347   15348   15348
       0   15350   15351   15351       0   15353   15354   15354       0   15356
   15357   15357       0   15359   15360   15360       0   15362   15363   15363
       0   15365   15366   15366       0   15368   15369   15369       0   15371
   15372   15372       0   15374   15375   15375       0   15377   15378   15378
       0   15380   15381   15381       0   15383   15384   15384       0   15386
   15387   15387       0   15389   15390   15390       0   15392   15393   15393
       0   15395   15396   15396       0   15398   15399   15399       0   15401
   15402   15402       0   15404   15405   15405       0   15407   15408   15408
       0   15410   15411   15411       0   15413   15414   15414       0   15416
   15417   15417       0   15419   15420   15420       0   15422   15423   15423
       0   15425   15426   15426       0   15428   15429   15429       0   15431
   15432   15432       0   15434   15435   15435       0   15437   15438   15438
       0   15440   15441   15441       0   15443   15444   15444       0   15446
   15447   15447       0   15449   15450   15450       0   15452   15453   15453
       0   15455   15456   15456       0   15458   15459   15459       0   15461
   15462   15462       0   15464   15465   15465       0   15467   15468   15468
       0   15470   15471   15471       0   15473   15474   15474       0   15476
   15477   15477       0   15479   15480   15480       0   15482   15483   15483
       0   15485   15486   15486       0   15488   15489   15489       0   15491
   15492   15492       0   15494   15495   15495       0   15497   15498   15498
       0   15500   15501   15501       0   15503   15504   15504       0   15506
   15507   15507       0   15509   15510   15510       0   15512   15513   15513
       0   15515   15516   15516       0   15518   15519   15519       0   15521
   15522   15522       0   15524   15525   15525       0   15527   15528   15528
       0   15530   15531   15531       0   15533   15534   15534       0   15536
   15537   15537       0   15539   15540   15540       0   15542   15543   15543
       0   15545   15546   15546       0   15548   15549   15549       0   15551
   15552   15552       0   15554   15555   15555       0   15557   15558   15558
       0   15560   15561   15561       0   15563   15564   15564       0   15566
   15567   15567       0   15569   15570   15570       0   15572   15573   15573
       0   15575   15576   15576       0   15578   15579   15579       0   15581
   15582   15582       0   15584   15585   15585       0   15587   15588   15588
       0   15590   15591   15591       0   15593   15594   15594       0   15596
   15597   15597       0   15599   15600   15600       0   15602   15603   15603
       0   15605   15606   15606       0   15608   15609   15609       0   15611
   15612   15612       0   15614   15615   15615       0   15617   15618   15618
       0   15620   15621   15621       0   15623   15624   15624       0   15626
   15627   15627       0   15629   15630   15630       0   15632   15633   15633
       0   15635   15636   15636       0   15638   15639   15639       0   15641
   15642   15642       0   15644   15645   15645       0   15647   15648   15648
       0   15650   15651   15651       0   15653   15654   15654       0   15656
   15657   15657       0   15659   15660   15660       0   15662   15663   15663
       0   15665   15666   15666       0   15668   15669   15669       0   15671
   15672   15672       0   15674   15675   15675       0   15677   15678   15678
       0   15680   15681   15681       0   15683   15684   15684       0   15686
   15687   15687       0   15689   15690   15690       0   15692   15693   15693
       0   15695   15696   15696       0   15698   15699   15699       0   15701
   15702   15702       0   15704   15705   15705       0   15707   15708   15708
       0   15710   15711   15711       0   15713   15714   15714       0   15716
   15717   15717       0   15719   15720   15720       0   15722   15723   15723
       0   15725   15726   15726       0   15728   15729   15729       0   15731
   15732   15732       0   15734   15735   15735       0   15737   15738   15738
       0   15740   15741   15741       0   15743   15744   15744       0   15746
   15747   15747       0   15749   15750   15750       0   15752   15753   15753
       0   15755   15756   15756       0   15758   15759   15759       0   15761
   15762   15762       0   15764   15765   15765       0   15767   15768   15768
       0   15770   15771   15771       0   15773   15774   15774       0   15776
   15777   15777       0   15779   15780   15780       0   15782   15783   15783
       0   15785   15786   15786       0   15788   15789   15789       0   15791
   15792   15792       0   15794   15795   15795       0   15797   15798   15798
       0   15800   15801   15801       0   15803   15804   15804       0   15806
   15807   15807       0   15809   15810   15810       0   15812   15813   15813
       0   15815   15816   15816       0   15818   15819   15819       0   15821
   15822   15822       0   15824   15825   15825       0   15827   15828   15828
       0   15830   15831   15831       0   15833   15834   15834       0   15836
   15837   15837       0   15839   15840   15840       0   15842   15843   15843
       0   15845   15846   15846       0   15848   15849   15849       0   15851
   15852   15852       0   15854   15855   15855       0   15857   15858   15858
       0   15860   15861   15861       0   15863   15864   15864       0   15866
   15867   15867       0   15869   15870   15870       0   15872   15873   15873
       0   15875   15876   15876       0   15878   15879   15879       0   15881
   15882   15882       0   15884   15885   15885       0   15887   15888   15888
       0   15890   15891   15891       0   15893   15894   15894       0   15896
   15897   15897       0   15899   15900   15900       0   15902   15903   15903
       0   15905   15906   15906       0   15908   15909   15909       0   15911
   15912   15912       0   15914   15915   15915       0   15917   15918   15918
       0   15920   15921   15921       0   15923   15924   15924       0   15926
   15927   15927       0   15929   15930   15930       0   15932   15933   15933
       0   15935   15936   15936       0   15938   15939   15939       0   15941
   15942   15942       0   15944   15945   15945       0   15947   15948   15948
       0   15950   15951   15951       0   15953   15954   15954       0   15956
   15957   15957       0   15959   15960   15960       0   15962   15963   15963
       0   15965   15966   15966       0   15968   15969   15969       0   15971
   15972   15972       0   15974   15975   15975       0   15977   15978   15978
       0   15980   15981   15981       0   15983   15984   15984       0   15986
   15987   15987       0   15989   15990   15990       0   15992   15993   15993
       0   15995   15996   15996       0   15998   15999   15999       0   16001
   16002   16002       0   16004   16005   16005       0   16007   16008   16008
       0   16010   16011   16011       0   16013   16014   16014       0   16016
   16017   16017       0   16019   16020   16020       0   16022   16023   16023
       0   16025   16026   16026       0   16028   16029   16029       0   16031
   16032   16032       0   16034   16035   16035       0   16037   16038   16038
       0   16040   16041   16041       0   16043   16044   16044       0   16046
   16047   16047       0   16049   16050   16050       0   16052   16053   16053
       0   16055   16056   16056       0   16058   16059   16059       0   16061
   16062   16062       0   16064   16065   16065       0   16067   16068   16068
       0   16070   16071   16071       0   16073   16074   16074       0   16076
   16077   16077       0   16079   16080   16080       0   16082   16083   16083
       0   16085   16086   16086       0   16088   16089   16089       0   16091
   16092   16092       0   16094   16095   16095       0   16097   16098   16098
       0   16100   16101   16101       0   16103   16104   16104       0   16106
   16107   16107       0   16109   16110   16110       0   16112   16113   16113
       0   16115   16116   16116       0   16118   16119   16119       0   16121
   16122   16122       0   16124   16125   16125       0   16127   16128   16128
       0   16130   16131   16131       0   16133   16134   16134       0   16136
   16137   16137       0   16139   16140   16140       0   16142   16143   16143
       0   16145   16146   16146       0   16148   16149   16149       0   16151
   16152   16152       0   16154   16155   16155       0   16157   16158   16158
       0   16160   16161   16161       0   16163   16164   16164       0   16166
   16167   16167       0   16169   16170   16170       0   16172   16173   16173
       0   16175   16176   16176       0   16178   16179   16179       0   16181
   16182   16182       0   16184   16185   16185       0   16187   16188   16188
       0   16190   16191   16191       0   16193   16194   16194       0   16196
   16197   16197       0   16199   16200   16200       0   16202   16203   16203
       0   16205   16206   16206       0   16208   16209   16209       0   16211
   16212   16212       0   16214   16215   16215       0   16217   16218   16218
       0   16220   16221   16221       0   16223   16224   16224       0   16226
   16227   16227       0   16229   16230   16230       0   16232   16233   16233
       0   16235   16236   16236       0   16238   16239   16239       0   16241
   16242   16242       0   16244   16245   16245       0   16247   16248   16248
       0   16250   16251   16251       0   16253   16254   16254       0   16256
   16257   16257       0   16259   16260   16260       0   16262   16263   16263
       0   16265   16266   16266       0   16268   16269   16269       0   16271
   16272   16272       0   16274   16275   16275       0   16277   16278   16278
       0   16280   16281   16281       0   16283   16284   16284       0   16286
   16287   16287       0   16289   16290   16290       0   16292   16293   16293
       0   16295   16296   16296       0   16298   16299   16299       0   16301
   16302   16302       0   16304   16305   16305       0   16307   16308   16308
       0   16310   16311   16311       0   16313   16314   16314       0   16316
   16317   16317       0   16319   16320   16320       0   16322   16323   16323
       0   16325   16326   16326       0   16328   16329   16329       0   16331
   16332   16332       0   16334   16335   16335       0   16337   16338   16338
       0   16340   16341   16341       0   16343   16344   16344       0   16346
   16347   16347       0   16349   16350   16350       0   16352   16353   16353
       0   16355   16356   16356       0   16358   16359   16359       0   16361
   16362   16362       0   16364   16365   16365       0   16367   16368   16368
       0   16370   16371   16371       0   16373   16374   16374       0   16376
   16377   16377       0   16379   16380   16380       0   16382   16383   16383
       0   16385   16386   16386       0   16388   16389   16389       0   16391
   16392   16392       0   16394   16395   16395       0   16397   16398   16398
       0   16400   16401   16401       0   16403   16404   16404       0   16406
   16407   16407       0   16409   16410   16410       0   16412   16413   16413
       0   16415   16416   16416       0   16418   16419   16419       0   16421
   16422   16422       0   16424   16425   16425       0   16427   16428   16428
       0   16430   16431   16431       0   16433   16434   16434       0   16436
   16437   16437       0   16439   16440   16440       0   16442   16443   16443
       0   16445   16446   16446       0   16448   16449   16449       0   16451
   16452   16452       0   16454   16455   16455       0   16457   16458   16458
       0   16460   16461   16461       0   16463   16464   16464       0   16466
   16467   16467       0   16469   16470   16470       0   16472   16473   16473
       0   16475   16476   16476       0   16478   16479   16479       0   16481
   16482   16482       0   16484   16485   16485       0   16487   16488   16488
       0   16490   16491   16491       0   16493   16494   16494       0   16496
   16497   16497       0   16499   16500   16500       0   16502   16503   16503
       0   16505   16506   16506       0   16508   16509   16509       0   16511
   16512   16512       0   16514   16515   16515       0   16517   16518   16518
       0   16520   16521   16521       0   16523   16524   16524       0   16526
   16527   16527       0   16529   16530   16530       0   16532   16533   16533
       0   16535   16536   16536       0   16538   16539   16539       0   16541
   16542   16542       0   16544   16545   16545       0   16547   16548   16548
       0   16550   16551   16551       0   16553   16554   16554       0   16556
   16557   16557       0   16559   16560   16560       0   16562   16563   16563
       0   16565   16566   16566       0   16568   16569   16569       0   16571
   16572   16572       0   16574   16575   16575       0   16577   16578   16578
       0   16580   16581   16581       0   16583   16584   16584       0   16586
   16587   16587       0   16589   16590   16590       0   16592   16593   16593
       0   16595   16596   16596       0   16598   16599   16599       0   16601
   16602   16602       0   16604   16605   16605       0   16607   16608   16608
       0   16610   16611   16611       0   16613   16614   16614       0   16616
   16617   16617       0   16619   16620   16620       0   16622   16623   16623
       0   16625   16626   16626       0   16628   16629   16629       0   16631
   16632   16632       0   16634   16635   16635       0   16637   16638   16638
       0   16640   16641   16641       0   16643   16644   16644       0   16646
   16647   16647       0   16649   16650   16650       0   16652   16653   16653
       0   16655   16656   16656       0   16658   16659   16659       0   16661
   16662   16662       0   16664   16665   16665       0   16667   16668   16668
       0   16670   16671   16671       0   16673   16674   16674       0   16676
   16677   16677       0   16679   16680   16680       0   16682   16683   16683
       0   16685   16686   16686       0   16688   16689   16689       0   16691
   16692   16692       0   16694   16695   16695       0   16697   16698   16698
       0   16700   16701   16701       0   16703   16704   16704       0   16706
   16707   16707       0   16709   16710   16710       0   16712   16713   16713
       0   16715   16716   16716       0   16718   16719   16719       0   16721
   16722   16722       0   16724   16725   16725       0   16727   16728   16728
       0   16730   16731   16731       0   16733   16734   16734       0   16736
   16737   16737       0   16739   16740   16740       0   16742   16743   16743
       0   16745   16746   16746       0   16748   16749   16749       0   16751
   16752   16752       0   16754   16755   16755       0   16757   16758   16758
       0   16760   16761   16761       0   16763   16764   16764       0   16766
   16767   16767       0   16769   16770   16770       0   16772   16773   16773
       0   16775   16776   16776       0   16778   16779   16779       0   16781
   16782   16782       0   16784   16785   16785       0   16787   16788   16788
       0   16790   16791   16791       0   16793   16794   16794       0   16796
   16797   16797       0   16799   16800   16800       0   16802   16803   16803
       0   16805   16806   16806       0   16808   16809   16809       0   16811
   16812   16812       0   16814   16815   16815       0   16817   16818   16818
       0   16820   16821   16821       0   16823   16824   16824       0   16826
   16827   16827       0   16829   16830   16830       0   16832   16833   16833
       0   16835   16836   16836       0   16838   16839   16839       0   16841
   16842   16842       0   16844   16845   16845       0   16847   16848   16848
       0   16850   16851   16851       0   16853   16854   16854       0   16856
   16857   16857       0   16859   16860   16860       0   16862   16863   16863
       0   16865   16866   16866       0   16868   16869   16869       0   16871
   16872   16872       0   16874   16875   16875       0   16877   16878   16878
       0   16880   16881   16881       0   16883   16884   16884       0   16886
   16887   16887       0   16889   16890   16890       0   16892   16893   16893
       0   16895   16896   16896       0   16898   16899   16899       0   16901
   16902   16902       0   16904   16905   16905       0   16907   16908   16908
       0   16910   16911   16911       0   16913   16914   16914       0   16916
   16917   16917       0   16919   16920   16920       0   16922   16923   16923
       0   16925   16926   16926       0   16928   16929   16929       0   16931
   16932   16932       0   16934   16935   16935       0   16937   16938   16938
       0   16940   16941   16941       0   16943   16944   16944       0   16946
   16947   16947       0   16949   16950   16950       0   16952   16953   16953
       0   16955   16956   16956       0   16958   16959   16959       0   16961
   16962   16962       0   16964   16965   16965       0   16967   16968   16968
       0   16970   16971   16971       0   16973   16974   16974       0   16976
   16977   16977       0   16979   16980   16980       0   16982   16983   16983
       0   16985   16986   16986       0   16988   16989   16989       0   16991
   16992   16992       0   16994   16995   16995       0   16997   16998   16998
       0   17000   17001   17001       0   17003   17004   17004       0   17006
   17007   17007       0   17009   17010   17010       0   17012   17013   17013
       0   17015   17016   17016       0   17018   17019   17019       0   17021
   17022   17022       0   17024   17025   17025       0   17027   17028   17028
       0   17030   17031   17031       0   17033   17034   17034       0   17036
   17037   17037       0   17039   17040   17040       0   17042   17043   17043
       0   17045   17046   17046       0   17048   17049   17049       0   17051
   17052   17052       0   17054   17055   17055       0   17057   17058   17058
       0   17060   17061   17061       0   17063   17064   17064       0   17066
   17067   17067       0   17069   17070   17070       0   17072   17073   17073
       0   17075   17076   17076       0   17078   17079   17079       0   17081
   17082   17082       0   17084   17085   17085       0   17087   17088   17088
       0   17090   17091   17091       0   17093   17094   17094       0   17096
   17097   17097       0   17099   17100   17100       0   17102   17103   17103
       0   17105   17106   17106       0   17108   17109   17109       0   17111
   17112   17112       0   17114   17115   17115       0   17117   17118   17118
       0   17120   17121   17121       0   17123   17124   17124       0   17126
   17127   17127       0   17129   17130   17130       0   17132   17133   17133
       0   17135   17136   17136       0   17138   17139   17139       0   17141
   17142   17142       0   17144   17145   17145       0   17147   17148   17148
       0   17150   17151   17151       0   17153   17154   17154       0   17156
   17157   17157       0   17159   17160   17160       0   17162   17163   17163
       0   17165   17166   17166       0   17168   17169   17169       0   17171
   17172   17172       0   17174   17175   17175       0   17177   17178   17178
       0   17180   17181   17181       0   17183   17184   17184       0   17186
   17187   17187       0   17189   17190   17190       0   17192   17193   17193
       0   17195   17196   17196       0   17198   17199   17199       0   17201
   17202   17202       0   17204   17205   17205       0   17207   17208   17208
       0   17210   17211   17211       0   17213   17214   17214       0   17216
   17217   17217       0   17219   17220   17220       0   17222   17223   17223
       0   17225   17226   17226       0   17228   17229   17229       0   17231
   17232   17232       0   17234   17235   17235       0   17237   17238   17238
       0   17240   17241   17241       0   17243   17244   17244       0   17246
   17247   17247       0   17249   17250   17250       0   17252   17253   17253
       0   17255   17256   17256       0   17258   17259   17259       0   17261
   17262   17262       0   17264   17265   17265       0   17267   17268   17268
       0   17270   17271   17271       0   17273   17274   17274       0   17276
   17277   17277       0   17279   17280   17280       0   17282   17283   17283
       0   17285   17286   17286       0   17288   17289   17289       0   17291
   17292   17292       0   17294   17295   17295       0   17297   17298   17298
       0   17300   17301   17301       0   17303   17304   17304       0   17306
   17307   17307       0   17309   17310   17310       0   17312   17313   17313
       0   17315   17316   17316       0   17318   17319   17319       0   17321
   17322   17322       0   17324   17325   17325       0   17327   17328   17328
       0   17330   17331   17331       0   17333   17334   17334       0   17336
   17337   17337       0   17339   17340   17340       0   17342   17343   17343
       0   17345   17346   17346       0   17348   17349   17349       0   17351
   17352   17352       0   17354   17355   17355       0   17357   17358   17358
       0   17360   17361   17361       0   17363   17364   17364       0   17366
   17367   17367       0   17369   17370   17370       0   17372   17373   17373
       0   17375   17376   17376       0   17378   17379   17379       0   17381
   17382   17382       0   17384   17385   17385       0   17387   17388   17388
       0   17390   17391   17391       0   17393   17394   17394       0   17396
   17397   17397       0   17399   17400   17400       0   17402   17403   17403
       0   17405   17406   17406       0   17408   17409   17409       0   17411
   17412   17412       0   17414   17415   17415       0   17417   17418   17418
       0   17420   17421   17421       0   17423   17424   17424       0   17426
   17427   17427       0   17429   17430   17430       0   17432   17433   17433
       0   17435   17436   17436       0   17438   17439   17439       0   17441
   17442   17442       0   17444   17445   17445       0   17447   17448   17448
       0   17450   17451   17451       0   17453   17454   17454       0   17456
   17457   17457       0   17459   17460   17460       0   17462   17463   17463
       0   17465   17466   17466       0   17468   17469   17469       0   17471
   17472   17472       0   17474   17475   17475       0   17477   17478   17478
       0   17480   17481   17481       0   17483   17484   17484       0   17486
   17487   17487       0   17489   17490   17490       0   17492   17493   17493
       0   17495   17496   17496       0   17498   17499   17499       0   17501
   17502   17502       0   17504   17505   17505       0   17507   17508   17508
       0   17510   17511   17511       0   17513   17514   17514       0   17516
   17517   17517       0   17519   17520   17520       0   17522   17523   17523
       0   17525   17526   17526       0   17528   17529   17529       0   17531
   17532   17532       0   17534   17535   17535       0   17537   17538   17538
       0   17540   17541   17541       0   17543   17544   17544       0   17546
   17547   17547       0   17549   17550   17550       0   17552   17553   17553
       0   17555   17556   17556       0   17558   17559   17559       0   17561
   17562   17562       0   17564   17565   17565       0   17567   17568   17568
       0   17570   17571   17571       0   17573   17574   17574       0   17576
   17577   17577       0   17579   17580   17580       0   17582   17583   17583
       0   17585   17586   17586       0   17588   17589   17589       0   17591
   17592   17592       0   17594   17595   17595       0   17597   17598   17598
       0   17600   17601   17601       0   17603   17604   17604       0   17606
   17607   17607       0   17609   17610   17610       0   17612   17613   17613
       0   17615   17616   17616       0   17618   17619   17619       0   17621
   17622   17622       0   17624   17625   17625       0   17627   17628   17628
       0   17630   17631   17631       0   17633   17634   17634       0   17636
   17637   17637       0   17639   17640   17640       0   17642   17643   17643
       0   17645   17646   17646       0   17648   17649   17649       0   17651
   17652   17652       0   17654   17655   17655       0   17657   17658   17658
       0   17660   17661   17661       0   17663   17664   17664       0   17666
   17667   17667       0   17669   17670   17670       0   17672   17673   17673
       0   17675   17676   17676       0   17678   17679   17679       0   17681
   17682   17682       0   17684   17685   17685       0   17687   17688   17688
       0   17690   17691   17691       0   17693   17694   17694       0   17696
   17697   17697       0   17699   17700   17700       0   17702   17703   17703
       0   17705   17706   17706       0   17708   17709   17709       0   17711
   17712   17712       0   17714   17715   17715       0   17717   17718   17718
       0   17720   17721   17721       0   17723   17724   17724       0   17726
   17727   17727       0   17729   17730   17730       0   17732   17733   17733
       0   17735   17736   17736       0   17738   17739   17739       0   17741
   17742   17742       0   17744   17745   17745       0   17747   17748   17748
       0   17750   17751   17751       0   17753   17754   17754       0   17756
   17757   17757       0   17759   17760   17760       0   17762   17763   17763
       0   17765   17766   17766       0   17768   17769   17769       0   17771
   17772   17772       0   17774   17775   17775       0   17777   17778   17778
       0   17780   17781   17781       0   17783   17784   17784       0   17786
   17787   17787       0   17789   17790   17790       0   17792   17793   17793
       0   17795   17796   17796       0   17798   17799   17799       0   17801
   17802   17802       0   17804   17805   17805       0   17807   17808   17808
       0   17810   17811   17811       0   17813   17814   17814       0   17816
   17817   17817       0   17819   17820   17820       0   17822   17823   17823
       0   17825   17826   17826       0   17828   17829   17829       0   17831
   17832   17832       0   17834   17835   17835       0   17837   17838   17838
       0   17840   17841   17841       0   17843   17844   17844       0   17846
   17847   17847       0   17849   17850   17850       0   17852   17853   17853
       0   17855   17856   17856       0   17858   17859   17859       0   17861
   17862   17862       0   17864   17865   17865       0   17867   17868   17868
       0   17870   17871   17871       0   17873   17874   17874       0   17876
   17877   17877       0   17879   17880   17880       0   17882   17883   17883
       0   17885   17886   17886       0   17888   17889   17889       0   17891
   17892   17892       0   17894   17895   17895       0   17897   17898   17898
       0   17900   17901   17901       0   17903   17904   17904       0   17906
   17907   17907       0   17909   17910   17910       0   17912   17913   17913
       0   17915   17916   17916       0   17918   17919   17919       0   17921
   17922   17922       0   17924   17925   17925       0   17927   17928   17928
       0   17930   17931   17931       0   17933   17934   17934       0   17936
   17937   17937       0   17939   17940   17940       0   17942   17943   17943
       0   17945   17946   17946       0   17948   17949   17949       0   17951
   17952   17952       0   17954   17955   17955       0   17957   17958   17958
       0   17960   17961   17961       0   17963   17964   17964       0   17966
   17967   17967       0   17969   17970   17970       0   17972   17973   17973
       0   17975   17976   17976       0   17978   17979   17979       0   17981
   17982   17982       0   17984   17985   17985       0   17987   17988   17988
       0   17990   17991   17991       0   17993   17994   17994       0   17996
   17997   17997       0   17999   18000   18000       0   18002   18003   18003
       0   18005   18006   18006       0   18008   18009   18009       0   18011
   18012   18012       0   18014   18015   18015       0   18017   18018   18018
       0   18020   18021   18021       0   18023   18024   18024       0   18026
   18027   18027       0   18029   18030   18030       0   18032   18033   18033
       0   18035   18036   18036       0   18038   18039   18039       0   18041
   18042   18042       0   18044   18045   18045       0   18047   18048   18048
       0   18050   18051   18051       0   18053   18054   18054       0   18056
   18057   18057       0   18059   18060   18060       0   18062   18063   18063
       0   18065   18066   18066       0   18068   18069   18069       0   18071
   18072   18072       0   18074   18075   18075       0   18077   18078   18078
       0   18080   18081   18081       0   18083   18084   18084       0   18086
   18087   18087       0   18089   18090   18090       0   18092   18093   18093
       0   18095   18096   18096       0   18098   18099   18099       0   18101
   18102   18102       0   18104   18105   18105       0   18107   18108   18108
       0   18110   18111   18111       0   18113   18114   18114       0   18116
   18117   18117       0   18119   18120   18120       0   18122   18123   18123
       0   18125   18126   18126       0   18128   18129   18129       0   18131
   18132   18132       0   18134   18135   18135       0   18137   18138   18138
       0   18140   18141   18141       0   18143   18144   18144       0   18146
   18147   18147       0   18149   18150   18150       0   18152   18153   18153
       0   18155   18156   18156       0   18158   18159   18159       0   18161
   18162   18162       0   18164   18165   18165       0   18167   18168   18168
       0   18170   18171   18171       0   18173   18174   18174       0   18176
   18177   18177       0   18179   18180   18180       0   18182   18183   18183
       0   18185   18186   18186       0   18188   18189   18189       0   18191
   18192   18192       0   18194   18195   18195       0   18197   18198   18198
       0   18200   18201   18201       0   18203   18204   18204       0   18206
   18207   18207       0   18209   18210   18210       0   18212   18213   18213
       0   18215   18216   18216       0   18218   18219   18219       0   18221
   18222   18222       0   18224   18225   18225       0   18227   18228   18228
       0   18230   18231   18231       0   18233   18234   18234       0   18236
   18237   18237       0   18239   18240   18240       0   18242   18243   18243
       0   18245   18246   18246       0   18248   18249   18249       0   18251
   18252   18252       0   18254   18255   18255       0   18257   18258   18258
       0   18260   18261   18261       0   18263   18264   18264       0   18266
   18267   18267       0   18269   18270   18270       0   18272   18273   18273
       0   18275   18276   18276       0   18278   18279   18279       0   18281
   18282   18282       0   18284   18285   18285       0   18287   18288   18288
       0   18290   18291   18291       0   18293   18294   18294       0   18296
   18297   18297       0   18299   18300   18300       0   18302   18303   18303
       0   18305   18306   18306       0   18308   18309   18309       0   18311
   18312   18312       0   18314   18315   18315       0   18317   18318   18318
       0   18320   18321   18321       0   18323   18324   18324       0   18326
   18327   18327       0   18329   18330   18330       0   18332   18333   18333
       0   18335   18336   18336       0   18338   18339   18339       0   18341
   18342   18342       0   18344   18345   18345       0   18347   18348   18348
       0   18350   18351   18351       0   18353   18354   18354       0   18356
   18357   18357       0   18359   18360   18360       0   18362   18363   18363
       0   18365   18366   18366       0   18368   18369   18369       0   18371
   18372   18372       0   18374   18375   18375       0   18377   18378   18378
       0   18380   18381   18381       0   18383   18384   18384       0   18386
   18387   18387       0   18389   18390   18390       0   18392   18393   18393
       0   18395   18396   18396       0   18398   18399   18399       0   18401
   18402   18402       0   18404   18405   18405       0   18407   18408   18408
       0   18410   18411   18411       0   18413   18414   18414       0   18416
   18417   18417       0   18419   18420   18420       0   18422   18423   18423
       0   18425   18426   18426       0   18428   18429   18429       0   18431
   18432   18432       0   18434   18435   18435       0   18437   18438   18438
       0   18440   18441   18441       0   18443   18444   18444       0   18446
   18447   18447       0   18449   18450   18450       0   18452   18453   18453
       0   18455   18456   18456       0   18458   18459   18459       0   18461
   18462   18462       0   18464   18465   18465       0   18467   18468   18468
       0   18470   18471   18471       0   18473   18474   18474       0   18476
   18477   18477       0   18479   18480   18480       0   18482   18483   18483
       0   18485   18486   18486       0   18488   18489   18489       0   18491
   18492   18492       0   18494   18495   18495       0   18497   18498   18498
       0   18500   18501   18501       0   18503   18504   18504       0   18506
   18507   18507       0   18509   18510   18510       0   18512   18513   18513
       0   18515   18516   18516       0   18518   18519   18519       0   18521
   18522   18522       0   18524   18525   18525       0   18527   18528   18528
       0   18530   18531   18531       0   18533   18534   18534       0   18536
   18537   18537       0   18539   18540   18540       0   18542   18543   18543
       0   18545   18546   18546       0   18548   18549   18549       0   18551
   18552   18552       0   18554   18555   18555       0   18557   18558   18558
       0   18560   18561   18561       0   18563   18564   18564       0   18566
   18567   18567       0   18569   18570   18570       0   18572   18573   18573
       0   18575   18576   18576       0   18578   18579   18579       0   18581
   18582   18582       0   18584   18585   18585       0   18587   18588   18588
       0   18590   18591   18591       0   18593   18594   18594       0   18596
   18597   18597       0   18599   18600   18600       0   18602   18603   18603
       0   18605   18606   18606       0   18608   18609   18609       0   18611
   18612   18612       0   18614   18615   18615       0   18617   18618   18618
       0   18620   18621   18621       0   18623   18624   18624       0   18626
   18627   18627       0   18629   18630   18630       0   18632   18633   18633
       0   18635   18636   18636       0   18638   18639   18639       0   18641
   18642   18642       0   18644   18645   18645       0   18647   18648   18648
       0   18650   18651   18651       0   18653   18654   18654       0   18656
   18657   18657       0   18659   18660   18660       0   18662   18663   18663
       0   18665   18666   18666       0   18668   18669   18669       0   18671
   18672   18672       0   18674   18675   18675       0   18677   18678   18678
       0   18680   18681   18681       0   18683   18684   18684       0   18686
   18687   18687       0   18689   18690   18690       0   18692   18693   18693
       0   18695   18696   18696       0   18698   18699   18699       0   18701
   18702   18702       0   18704   18705   18705       0   18707   18708   18708
       0   18710   18711   18711       0   18713   18714   18714       0   18716
   18717   18717       0   18719   18720   18720       0   18722   18723   18723
       0   18725   18726   18726       0   18728   18729   18729       0   18731
   18732   18732       0   18734   18735   18735       0   18737   18738   18738
       0   18740   18741   18741       0   18743   18744   18744       0   18746
   18747   18747       0   18749   18750   18750       0   18752   18753   18753
       0   18755   18756   18756       0   18758   18759   18759       0   18761
   18762   18762       0   18764   18765   18765       0   18767   18768   18768
       0   18770   18771   18771       0   18773   18774   18774       0   18776
   18777   18777       0   18779   18780   18780       0   18782   18783   18783
       0   18785   18786   18786       0   18788   18789   18789       0   18791
   18792   18792       0   18794   18795   18795       0   18797   18798   18798
       0   18800   18801   18801       0   18803   18804   18804       0   18806
   18807   18807       0   18809   18810   18810       0   18812   18813   18813
       0   18815   18816   18816       0   18818   18819   18819       0   18821
   18822   18822       0   18824   18825   18825       0   18827   18828   18828
       0   18830   18831   18831       0   18833   18834   18834       0   18836
   18837   18837       0   18839   18840   18840       0   18842   18843   18843
       0   18845   18846   18846       0   18848   18849   18849       0   18851
   18852   18852       0   18854   18855   18855       0   18857   18858   18858
       0   18860   18861   18861       0   18863   18864   18864       0   18866
   18867   18867       0   18869   18870   18870       0   18872   18873   18873
       0   18875   18876   18876       0   18878   18879   18879       0   18881
   18882   18882       0   18884   18885   18885       0   18887   18888   18888
       0   18890   18891   18891       0   18893   18894   18894       0   18896
   18897   18897       0   18899   18900   18900       0   18902   18903   18903
       0   18905   18906   18906       0   18908   18909   18909       0   18911
   18912   18912       0   18914   18915   18915       0   18917   18918   18918
       0   18920   18921   18921       0   18923   18924   18924       0   18926
   18927   18927       0   18929   18930   18930       0   18932   18933   18933
       0   18935   18936   18936       0   18938   18939   18939       0   18941
   18942   18942       0   18944   18945   18945       0   18947   18948   18948
       0   18950   18951   18951       0   18953   18954   18954       0   18956
   18957   18957       0   18959   18960   18960       0   18962   18963   18963
       0   18965   18966   18966       0   18968   18969   18969       0   18971
   18972   18972       0   18974   18975   18975       0   18977   18978   18978
       0   18980   18981   18981       0   18983   18984   18984       0   18986
   18987   18987       0   18989   18990   18990       0   18992   18993   18993
       0   18995   18996   18996       0   18998   18999   18999       0   19001
   19002   19002       0   19004   19005   19005       0   19007   19008   19008
       0   19010   19011   19011       0   19013   19014   19014       0   19016
   19017   19017       0   19019   19020   19020       0   19022   19023   19023
       0   19025   19026   19026       0   19028   19029   19029       0   19031
   19032   19032       0   19034   19035   19035       0   19037   19038   19038
       0   19040   19041   19041       0   19043   19044   19044       0   19046
   19047   19047       0   19049   19050   19050       0   19052   19053   19053
       0   19055   19056   19056       0   19058   19059   19059       0   19061
   19062   19062       0   19064   19065   19065       0   19067   19068   19068
       0   19070   19071   19071       0   19073   19074   19074       0   19076
   19077   19077       0   19079   19080   19080       0   19082   19083   19083
       0   19085   19086   19086       0   19088   19089   19089       0   19091
   19092   19092       0   19094   19095   19095       0   19097   19098   19098
       0   19100   19101   19101       0   19103   19104   19104       0   19106
   19107   19107       0   19109   19110   19110       0   19112   19113   19113
       0   19115   19116   19116       0   19118   19119   19119       0   19121
   19122   19122       0   19124   19125   19125       0   19127   19128   19128
       0   19130   19131   19131       0   19133   19134   19134       0   19136
   19137   19137       0   19139   19140   19140       0   19142   19143   19143
       0   19145   19146   19146       0   19148   19149   19149       0   19151
   19152   19152       0   19154   19155   19155       0   19157   19158   19158
       0   19160   19161   19161       0   19163   19164   19164       0   19166
   19167   19167       0   19169   19170   19170       0   19172   19173   19173
       0   19175   19176   19176       0   19178   19179   19179       0   19181
   19182   19182       0   19184   19185   19185       0   19187   19188   19188
       0   19190   19191   19191       0   19193   19194   19194       0   19196
   19197   19197       0   19199   19200   19200       0   19202   19203   19203
       0   19205   19206   19206       0   19208   19209   19209       0   19211
   19212   19212       0   19214   19215   19215       0   19217   19218   19218
       0   19220   19221   19221       0   19223   19224   19224       0   19226
   19227   19227       0   19229   19230   19230       0   19232   19233   19233
       0   19235   19236   19236       0   19238   19239   19239       0   19241
   19242   19242       0   19244   19245   19245       0   19247   19248   19248
       0   19250   19251   19251       0   19253   19254   19254       0   19256
   19257   19257       0   19259   19260   19260       0   19262   19263   19263
       0   19265   19266   19266       0   19268   19269   19269       0   19271
   19272   19272       0   19274   19275   19275       0   19277   19278   19278
       0   19280   19281   19281       0   19283   19284   19284       0   19286
   19287   19287       0   19289   19290   19290       0   19292   19293   19293
       0   19295   19296   19296       0   19298   19299   19299       0   19301
   19302   19302       0   19304   19305   19305       0   19307   19308   19308
       0   19310   19311   19311       0   19313   19314   19314       0   19316
   19317   19317       0   19319   19320   19320       0   19322   19323   19323
       0   19325   19326   19326       0   19328   19329   19329       0   19331
   19332   19332       0   19334   19335   19335       0   19337   19338   19338
       0   19340   19341   19341       0   19343   19344   19344       0   19346
   19347   19347       0   19349   19350   19350       0   19352   19353   19353
       0   19355   19356   19356       0   19358   19359   19359       0   19361
   19362   19362       0   19364   19365   19365       0   19367   19368   19368
       0   19370   19371   19371       0   19373   19374   19374       0   19376
   19377   19377       0   19379   19380   19380       0   19382   19383   19383
       0   19385   19386   19386       0   19388   19389   19389       0   19391
   19392   19392       0   19394   19395   19395       0   19397   19398   19398
       0   19400   19401   19401       0   19403   19404   19404       0   19406
   19407   19407       0   19409   19410   19410       0   19412   19413   19413
       0   19415   19416   19416       0   19418   19419   19419       0   19421
   19422   19422       0   19424   19425   19425       0   19427   19428   19428
       0   19430   19431   19431       0   19433   19434   19434       0   19436
   19437   19437       0   19439   19440   19440       0   19442   19443   19443
       0   19445   19446   19446       0   19448   19449   19449       0   19451
   19452   19452       0   19454   19455   19455       0   19457   19458   19458
       0   19460   19461   19461       0   19463   19464   19464       0   19466
   19467   19467       0   19469   19470   19470       0   19472   19473   19473
       0   19475   19476   19476       0   19478   19479   19479       0   19481
   19482   19482       0   19484   19485   19485       0   19487   19488   19488
       0   19490   19491   19491       0   19493   19494   19494       0   19496
   19497   19497       0   19499   19500   19500       0   19502   19503   19503
       0   19505   19506   19506       0   19508   19509   19509       0   19511
   19512   19512       0   19514   19515   19515       0   19517   19518   19518
       0   19520   19521   19521       0   19523   19524   19524       0   19526
   19527   19527       0   19529   19530   19530       0   19532   19533   19533
       0   19535   19536   19536       0   19538   19539   19539       0   19541
   19542   19542       0   19544   19545   19545       0   19547   19548   19548
       0   19550   19551   19551       0   19553   19554   19554       0   19556
   19557   19557       0   19559   19560   19560       0   19562   19563   19563
       0   19565   19566   19566       0   19568   19569   19569       0   19571
   19572   19572       0   19574   19575   19575       0   19577   19578   19578
       0   19580   19581   19581       0   19583   19584   19584       0   19586
   19587   19587       0   19589   19590   19590       0   19592   19593   19593
       0   19595   19596   19596       0   19598   19599   19599       0   19601
   19602   19602       0   19604   19605   19605       0   19607   19608   19608
       0   19610   19611   19611       0   19613   19614   19614       0   19616
   19617   19617       0   19619   19620   19620       0   19622   19623   19623
       0   19625   19626   19626       0   19628   19629   19629       0   19631
   19632   19632       0   19634   19635   19635       0   19637   19638   19638
       0   19640   19641   19641       0   19643   19644   19644       0   19646
   19647   19647       0   19649   19650   19650       0   19652   19653   19653
       0   19655   19656   19656       0   19658   19659   19659       0   19661
   19662   19662       0   19664   19665   19665       0   19667   19668   19668
       0   19670   19671   19671       0   19673   19674   19674       0   19676
   19677   19677       0   19679   19680   19680       0   19682   19683   19683
       0   19685   19686   19686       0   19688   19689   19689       0   19691
   19692   19692       0   19694   19695   19695       0   19697   19698   19698
       0   19700   19701   19701       0   19703   19704   19704       0   19706
   19707   19707       0   19709   19710   19710       0   19712   19713   19713
       0   19715   19716   19716       0   19718   19719   19719       0   19721
   19722   19722       0   19724   19725   19725       0   19727   19728   19728
       0   19730   19731   19731       0   19733   19734   19734       0   19736
   19737   19737       0   19739   19740   19740       0   19742   19743   19743
       0   19745   19746   19746       0   19748   19749   19749       0   19751
   19752   19752       0   19754   19755   19755       0   19757   19758   19758
       0   19760   19761   19761       0   19763   19764   19764       0   19766
   19767   19767       0   19769   19770   19770       0   19772   19773   19773
       0   19775   19776   19776       0   19778   19779   19779       0   19781
   19782   19782       0   19784   19785   19785       0   19787   19788   19788
       0   19790   19791   19791       0   19793   19794   19794       0   19796
   19797   19797       0   19799   19800   19800       0   19802   19803   19803
       0   19805   19806   19806       0   19808   19809   19809       0   19811
   19812   19812       0   19814   19815   19815       0   19817   19818   19818
       0   19820   19821   19821       0   19823   19824   19824       0   19826
   19827   19827       0   19829   19830   19830       0   19832   19833   19833
       0   19835   19836   19836       0   19838   19839   19839       0   19841
   19842   19842       0   19844   19845   19845       0   19847   19848   19848
       0   19850   19851   19851       0   19853   19854   19854       0   19856
   19857   19857       0   19859   19860   19860       0   19862   19863   19863
       0   19865   19866   19866       0   19868   19869   19869       0   19871
   19872   19872       0   19874   19875   19875       0   19877   19878   19878
       0   19880   19881   19881       0   19883   19884   19884       0   19886
   19887   19887       0   19889   19890   19890       0   19892   19893   19893
       0   19895   19896   19896       0   19898   19899   19899       0   19901
   19902   19902       0   19904   19905   19905       0   19907   19908   19908
       0   19910   19911   19911       0   19913   19914   19914       0   19916
   19917   19917       0   19919   19920   19920       0   19922   19923   19923
       0   19925   19926   19926       0   19928   19929   19929       0   19931
   19932   19932       0   19934   19935   19935       0   19937   19938   19938
       0   19940   19941   19941       0   19943   19944   19944       0   19946
   19947   19947       0   19949   19950   19950       0   19952   19953   19953
       0   19955   19956   19956       0   19958   19959   19959       0   19961
   19962   19962       0   19964   19965   19965       0   19967   19968   19968
       0   19970   19971   19971       0   19973   19974   19974       0   19976
   19977   19977       0   19979   19980   19980       0   19982   19983   19983
       0   19985   19986   19986       0   19988   19989   19989       0   19991
   19992   19992       0   19994   19995   19995       0   19997   19998   19998
       0   20000   20001   20001       0   20003   20004   20004       0   20006
   20007   20007       0   20009   20010   20010       0   20012   20013   20013
       0   20015   20016   20016       0   20018   20019   20019       0   20021
   20022   20022       0   20024   20025   20025       0   20027   20028   20028
       0   20030   20031   20031       0   20033   20034   20034       0   20036
   20037   20037       0   20039   20040   20040       0   20042   20043   20043
       0   20045   20046   20046       0   20048   20049   20049       0   20051
   20052   20052       0   20054   20055   20055       0   20057   20058   20058
       0   20060   20061   20061       0   20063   20064   20064       0   20066
   20067   20067       0   20069   20070   20070       0   20072   20073   20073
       0   20075   20076   20076       0   20078   20079   20079       0   20081
   20082   20082       0   20084   20085   20085       0   20087   20088   20088
       0   20090   20091   20091       0   20093   20094   20094       0   20096
   20097   20097       0   20099   20100   20100       0   20102   20103   20103
       0   20105   20106   20106       0   20108   20109   20109       0   20111
   20112   20112       0   20114   20115   20115       0   20117   20118   20118
       0   20120   20121   20121       0   20123   20124   20124       0   20126
   20127   20127       0   20129   20130   20130       0   20132   20133   20133
       0   20135   20136   20136       0   20138   20139   20139       0   20141
   20142   20142       0   20144   20145   20145       0   20147   20148   20148
       0   20150   20151   20151       0   20153   20154   20154       0   20156
   20157   20157       0   20159   20160   20160       0   20162   20163   20163
       0   20165   20166   20166       0   20168   20169   20169       0   20171
   20172   20172       0   20174   20175   20175       0   20177   20178   20178
       0   20180   20181   20181       0   20183   20184   20184       0   20186
   20187   20187       0   20189   20190   20190       0   20192   20193   20193
       0   20195   20196   20196       0   20198   20199   20199       0   20201
   20202   20202       0   20204   20205   20205       0   20207   20208   20208
       0   20210   20211   20211       0   20213   20214   20214       0   20216
   20217   20217       0   20219   20220   20220       0   20222   20223   20223
       0   20225   20226   20226       0   20228   20229   20229       0   20231
   20232   20232       0   20234   20235   20235       0   20237   20238   20238
       0   20240   20241   20241       0   20243   20244   20244       0   20246
   20247   20247       0   20249   20250   20250       0   20252   20253   20253
       0   20255   20256   20256       0   20258   20259   20259       0   20261
   20262   20262       0   20264   20265   20265       0   20267   20268   20268
       0   20270   20271   20271       0   20273   20274   20274       0   20276
   20277   20277       0   20279   20280   20280       0   20282   20283   20283
       0   20285   20286   20286       0   20288   20289   20289       0   20291
   20292   20292       0   20294   20295   20295       0   20297   20298   20298
       0   20300   20301   20301       0   20303   20304   20304       0   20306
   20307   20307       0   20309   20310   20310       0   20312   20313   20313
       0   20315   20316   20316       0   20318   20319   20319       0   20321
   20322   20322       0   20324   20325   20325       0   20327   20328   20328
       0   20330   20331   20331       0   20333   20334   20334       0   20336
   20337   20337       0   20339   20340   20340       0   20342   20343   20343
       0   20345   20346   20346       0   20348   20349   20349       0   20351
   20352   20352       0   20354   20355   20355       0   20357   20358   20358
       0   20360   20361   20361       0   20363   20364   20364       0   20366
   20367   20367       0   20369   20370   20370       0   20372   20373   20373
       0   20375   20376   20376       0   20378   20379   20379       0   20381
   20382   20382       0   20384   20385   20385       0   20387   20388   20388
       0   20390   20391   20391       0   20393   20394   20394       0   20396
   20397   20397       0   20399   20400   20400       0   20402   20403   20403
       0   20405   20406   20406       0   20408   20409   20409       0   20411
   20412   20412       0   20414   20415   20415       0   20417   20418   20418
       0   20420   20421   20421       0   20423   20424   20424       0   20426
   20427   20427       0   20429   20430   20430       0   20432   20433   20433
       0   20435   20436   20436       0   20438   20439   20439       0   20441
   20442   20442       0   20444   20445   20445       0   20447   20448   20448
       0   20450   20451   20451       0   20453   20454   20454       0   20456
   20457   20457       0   20459   20460   20460       0   20462   20463   20463
       0   20465   20466   20466       0   20468   20469   20469       0   20471
   20472   20472       0   20474   20475   20475       0   20477   20478   20478
       0   20480   20481   20481       0   20483   20484   20484       0   20486
   20487   20487       0   20489   20490   20490       0   20492   20493   20493
       0   20495   20496   20496       0   20498   20499   20499       0   20501
   20502   20502       0   20504   20505   20505       0   20507   20508   20508
       0   20510   20511   20511       0   20513   20514   20514       0   20516
   20517   20517       0   20519   20520   20520       0   20522   20523   20523
       0   20525   20526   20526       0   20528   20529   20529       0   20531
   20532   20532       0   20534   20535   20535       0   20537   20538   20538
       0   20540   20541   20541       0   20543   20544   20544       0   20546
   20547   20547       0   20549   20550   20550       0   20552   20553   20553
       0   20555   20556   20556       0   20558   20559   20559       0   20561
   20562   20562       0   20564   20565   20565       0   20567   20568   20568
       0   20570   20571   20571       0   20573   20574   20574       0   20576
   20577   20577       0   20579   20580   20580       0   20582   20583   20583
       0   20585   20586   20586       0   20588   20589   20589       0   20591
   20592   20592       0   20594   20595   20595       0   20597   20598   20598
       0   20600   20601   20601       0   20603   20604   20604       0   20606
   20607   20607       0   20609   20610   20610       0   20612   20613   20613
       0   20615   20616   20616       0   20618   20619   20619       0   20621
   20622   20622       0   20624   20625   20625       0   20627   20628   20628
       0   20630   20631   20631       0   20633   20634   20634       0   20636
   20637   20637       0   20639   20640   20640       0   20642   20643   20643
       0   20645   20646   20646       0   20648   20649   20649       0   20651
   20652   20652       0   20654   20655   20655       0   20657   20658   20658
       0   20660   20661   20661       0   20663   20664   20664       0   20666
   20667   20667       0   20669   20670   20670       0   20672   20673   20673
       0   20675   20676   20676       0   20678   20679   20679       0   20681
   20682   20682       0   20684   20685   20685       0   20687   20688   20688
       0   20690   20691   20691       0   20693   20694   20694       0   20696
   20697   20697       0   20699   20700   20700       0   20702   20703   20703
       0   20705   20706   20706       0   20708   20709   20709       0   20711
   20712   20712       0   20714   20715   20715       0   20717   20718   20718
       0   20720   20721   20721       0   20723   20724   20724       0   20726
   20727   20727       0   20729   20730   20730       0   20732   20733   20733
       0   20735   20736   20736       0   20738   20739   20739       0   20741
   20742   20742       0   20744   20745   20745       0   20747   20748   20748
       0   20750   20751   20751       0   20753   20754   20754       0   20756
   20757   20757       0   20759   20760   20760       0   20762   20763   20763
       0   20765   20766   20766       0   20768   20769   20769       0   20771
   20772   20772       0   20774   20775   20775       0   20777   20778   20778
       0   20780   20781   20781       0   20783   20784   20784       0   20786
   20787   20787       0   20789   20790   20790       0   20792   20793   20793
       0   20795   20796   20796       0   20798   20799   20799       0   20801
   20802   20802       0   20804   20805   20805       0   20807   20808   20808
       0   20810   20811   20811       0   20813   20814   20814       0   20816
   20817   20817       0   20819   20820   20820       0   20822   20823   20823
       0   20825   20826   20826       0   20828   20829   20829       0   20831
   20832   20832       0   20834   20835   20835       0   20837   20838   20838
       0   20840   20841   20841       0   20843   20844   20844       0   20846
   20847   20847       0   20849   20850   20850       0   20852   20853   20853
       0   20855   20856   20856       0   20858   20859   20859       0   20861
   20862   20862       0   20864   20865   20865       0   20867   20868   20868
       0   20870   20871   20871       0   20873   20874   20874       0   20876
   20877   20877       0   20879   20880   20880       0   20882   20883   20883
       0   20885   20886   20886       0   20888   20889   20889       0   20891
   20892   20892       0   20894   20895   20895       0   20897   20898   20898
       0   20900   20901   20901       0   20903   20904   20904       0   20906
   20907   20907       0   20909   20910   20910       0   20912   20913   20913
       0   20915   20916   20916       0   20918   20919   20919       0   20921
   20922   20922       0   20924   20925   20925       0   20927   20928   20928
       0   20930   20931   20931       0   20933   20934   20934       0   20936
   20937   20937       0   20939   20940   20940       0   20942   20943   20943
       0   20945   20946   20946       0   20948   20949   20949       0   20951
   20952   20952       0   20954   20955   20955       0   20957   20958   20958
       0   20960   20961   20961       0   20963   20964   20964       0   20966
   20967   20967       0   20969   20970   20970       0   20972   20973   20973
       0   20975   20976   20976       0   20978   20979   20979       0   20981
   20982   20982       0   20984   20985   20985       0   20987   20988   20988
       0   20990   20991   20991       0   20993   20994   20994       0   20996
   20997   20997       0   20999   21000   21000       0   21002   21003   21003
       0   21005   21006   21006       0   21008   21009   21009       0   21011
   21012   21012       0   21014   21015   21015       0   21017   21018   21018
       0   21020   21021   21021       0   21023   21024   21024       0   21026
   21027   21027       0   21029   21030   21030       0   21032   21033   21033
       0   21035   21036   21036       0   21038   21039   21039       0   21041
   21042   21042       0   21044   21045   21045       0   21047   21048   21048
       0   21050   21051   21051       0   21053   21054   21054       0   21056
   21057   21057       0   21059   21060   21060       0   21062   21063   21063
       0   21065   21066   21066       0   21068   21069   21069       0   21071
   21072   21072       0   21074   21075   21075       0   21077   21078   21078
       0   21080   21081   21081       0   21083   21084   21084       0   21086
   21087   21087       0   21089   21090   21090       0   21092   21093   21093
       0   21095   21096   21096       0   21098   21099   21099       0   21101
   21102   21102       0   21104   21105   21105       0   21107   21108   21108
       0   21110   21111   21111       0   21113   21114   21114       0   21116
   21117   21117       0   21119   21120   21120       0   21122   21123   21123
       0   21125   21126   21126       0   21128   21129   21129       0   21131
   21132   21132       0   21134   21135   21135       0   21137   21138   21138
       0   21140   21141   21141       0   21143   21144   21144       0   21146
   21147   21147       0   21149   21150   21150       0   21152   21153   21153
       0   21155   21156   21156       0   21158   21159   21159       0   21161
   21162   21162       0   21164   21165   21165       0   21167   21168   21168
       0   21170   21171   21171       0   21173   21174   21174       0   21176
   21177   21177       0   21179   21180   21180       0   21182   21183   21183
       0   21185   21186   21186       0   21188   21189   21189       0   21191
   21192   21192       0   21194   21195   21195       0   21197   21198   21198
       0   21200   21201   21201       0   21203   21204   21204       0   21206
   21207   21207       0   21209   21210   21210       0   21212   21213   21213
       0   21215   21216   21216       0   21218   21219   21219       0   21221
   21222   21222       0   21224   21225   21225       0   21227   21228   21228
       0   21230   21231   21231       0   21233   21234   21234       0   21236
   21237   21237       0   21239   21240   21240       0   21242   21243   21243
       0   21245   21246   21246       0   21248   21249   21249       0   21251
   21252   21252       0   21254   21255   21255       0   21257   21258   21258
       0   21260   21261   21261       0   21263   21264   21264       0   21266
   21267   21267       0   21269   21270   21270       0   21272   21273   21273
       0   21275   21276   21276       0   21278   21279   21279       0   21281
   21282   21282       0   21284   21285   21285       0   21287   21288   21288
       0   21290   21291   21291       0   21293   21294   21294       0   21296
   21297   21297       0   21299   21300   21300       0   21302   21303   21303
       0   21305   21306   21306       0   21308   21309   21309       0   21311
   21312   21312       0   21314   21315   21315       0   21317   21318   21318
       0   21320   21321   21321       0   21323   21324   21324       0   21326
   21327   21327       0   21329   21330   21330       0   21332   21333   21333
       0   21335   21336   21336       0   21338   21339   21339       0   21341
   21342   21342       0   21344   21345   21345       0   21347   21348   21348
       0   21350   21351   21351       0   21353   21354   21354       0   21356
   21357   21357       0   21359   21360   21360       0   21362   21363   21363
       0   21365   21366   21366       0   21368   21369   21369       0   21371
   21372   21372       0   21374   21375   21375       0   21377   21378   21378
       0   21380   21381   21381       0   21383   21384   21384       0   21386
   21387   21387       0   21389   21390   21390       0   21392   21393   21393
       0   21395   21396   21396       0   21398   21399   21399       0   21401
   21402   21402       0   21404   21405   21405       0   21407   21408   21408
       0   21410   21411   21411       0   21413   21414   21414       0   21416
   21417   21417       0   21419   21420   21420       0   21422   21423   21423
       0   21425   21426   21426       0   21428   21429   21429       0   21431
   21432   21432       0   21434   21435   21435       0   21437   21438   21438
       0   21440   21441   21441       0   21443   21444   21444       0   21446
   21447   21447       0   21449   21450   21450       0   21452   21453   21453
       0   21455   21456   21456       0   21458   21459   21459       0   21461
   21462   21462       0   21464   21465   21465       0   21467   21468   21468
       0   21470   21471   21471       0   21473   21474   21474       0   21476
   21477   21477       0   21479   21480   21480       0   21482   21483   21483
       0   21485   21486   21486       0   21488   21489   21489       0   21491
   21492   21492       0   21494   21495   21495       0   21497   21498   21498
       0   21500   21501   21501       0   21503   21504   21504       0   21506
   21507   21507       0   21509   21510   21510       0   21512   21513   21513
       0   21515   21516   21516       0   21518   21519   21519       0   21521
   21522   21522       0   21524   21525   21525       0   21527   21528   21528
       0   21530   21531   21531       0   21533   21534   21534       0   21536
   21537   21537       0   21539   21540   21540       0   21542   21543   21543
       0   21545   21546   21546       0   21548   21549   21549       0   21551
   21552   21552       0   21554   21555   21555       0   21557   21558   21558
       0   21560   21561   21561       0   21563   21564   21564       0   21566
   21567   21567       0   21569   21570   21570       0   21572   21573   21573
       0   21575   21576   21576       0   21578   21579   21579       0   21581
   21582   21582       0   21584   21585   21585       0   21587   21588   21588
       0   21590   21591   21591       0   21593   21594   21594       0   21596
   21597   21597       0   21599   21600   21600       0   21602   21603   21603
       0   21605   21606   21606       0   21608   21609   21609       0   21611
   21612   21612       0   21614   21615   21615       0   21617   21618   21618
       0   21620   21621   21621       0   21623   21624   21624       0   21626
   21627   21627       0   21629   21630   21630       0   21632   21633   21633
       0   21635   21636   21636       0   21638   21639   21639       0   21641
   21642   21642       0   21644   21645   21645       0   21647   21648   21648
       0   21650   21651   21651       0   21653   21654   21654       0   21656
   21657   21657       0   21659   21660   21660       0   21662   21663   21663
       0   21665   21666   21666       0   21668   21669   21669       0   21671
   21672   21672       0   21674   21675   21675       0   21677   21678   21678
       0   21680   21681   21681       0   21683   21684   21684       0   21686
   21687   21687       0   21689   21690   21690       0   21692   21693   21693
       0   21695   21696   21696       0   21698   21699   21699       0   21701
   21702   21702       0   21704   21705   21705       0   21707   21708   21708
       0   21710   21711   21711       0   21713   21714   21714       0   21716
   21717   21717       0   21719   21720   21720       0   21722   21723   21723
       0   21725   21726   21726       0   21728   21729   21729       0   21731
   21732   21732       0   21734   21735   21735       0   21737   21738   21738
       0   21740   21741   21741       0   21743   21744   21744       0   21746
   21747   21747       0   21749   21750   21750       0   21752   21753   21753
       0   21755   21756   21756       0   21758   21759   21759       0   21761
   21762   21762       0   21764   21765   21765       0   21767   21768   21768
       0   21770   21771   21771       0   21773   21774   21774       0   21776
   21777   21777       0   21779   21780   21780       0   21782   21783   21783
       0   21785   21786   21786       0   21788   21789   21789       0   21791
   21792   21792       0   21794   21795   21795       0   21797   21798   21798
       0   21800   21801   21801       0   21803   21804   21804       0   21806
   21807   21807       0   21809   21810   21810       0   21812   21813   21813
       0   21815   21816   21816       0   21818   21819   21819       0   21821
   21822   21822       0   21824   21825   21825       0   21827   21828   21828
       0   21830   21831   21831       0   21833   21834   21834       0   21836
   21837   21837       0   21839   21840   21840       0   21842   21843   21843
       0   21845   21846   21846       0   21848   21849   21849       0   21851
   21852   21852       0   21854   21855   21855       0   21857   21858   21858
       0   21860   21861   21861       0   21863   21864   21864       0   21866
   21867   21867       0   21869   21870   21870       0   21872   21873   21873
       0   21875   21876   21876       0   21878   21879   21879       0   21881
   21882   21882       0   21884   21885   21885       0   21887   21888   21888
       0   21890   21891   21891       0   21893   21894   21894       0   21896
   21897   21897       0   21899   21900   21900       0   21902   21903   21903
       0   21905   21906   21906       0   21908   21909   21909       0   21911
   21912   21912       0   21914   21915   21915       0   21917   21918   21918
       0   21920   21921   21921       0   21923   21924   21924       0   21926
   21927   21927       0   21929   21930   21930       0   21932   21933   21933
       0   21935   21936   21936       0   21938   21939   21939       0   21941
   21942   21942       0   21944   21945   21945       0   21947   21948   21948
       0   21950   21951   21951       0   21953   21954   21954       0   21956
   21957   21957       0   21959   21960   21960       0   21962   21963   21963
       0   21965   21966   21966       0   21968   21969   21969       0   21971
   21972   21972       0   21974   21975   21975       0   21977   21978   21978
       0   21980   21981   21981       0   21983   21984   21984       0   21986
   21987   21987       0   21989   21990   21990       0   21992   21993   21993
       0   21995   21996   21996       0   21998   21999   21999       0   22001
   22002   22002       0   22004   22005   22005       0   22007   22008   22008
       0   22010   22011   22011       0   22013   22014   22014       0   22016
   22017   22017       0   22019   22020   22020       0   22022   22023   22023
       0   22025   22026   22026       0   22028   22029   22029       0   22031
   22032   22032       0   22034   22035   22035       0   22037   22038   22038
       0   22040   22041   22041       0   22043   22044   22044       0   22046
   22047   22047       0   22049   22050   22050       0   22052   22053   22053
       0   22055   22056   22056       0   22058   22059   22059       0   22061
   22062   22062       0   22064   22065   22065       0   22067   22068   22068
       0   22070   22071   22071       0   22073   22074   22074       0   22076
   22077   22077       0   22079   22080   22080       0   22082   22083   22083
       0   22085   22086   22086       0   22088   22089   22089       0   22091
   22092   22092       0   22094   22095   22095       0   22097   22098   22098
       0   22100   22101   22101       0   22103   22104   22104       0   22106
   22107   22107       0   22109   22110   22110       0   22112   22113   22113
       0   22115   22116   22116       0   22118   22119   22119       0   22121
   22122   22122       0   22124   22125   22125       0   22127   22128   22128
       0   22130   22131   22131       0   22133   22134   22134       0   22136
   22137   22137       0   22139   22140   22140       0   22142   22143   22143
       0   22145   22146   22146       0   22148   22149   22149       0   22151
   22152   22152       0   22154   22155   22155       0   22157   22158   22158
       0   22160   22161   22161       0   22163   22164   22164       0   22166
   22167   22167       0   22169   22170   22170       0   22172   22173   22173
       0   22175   22176   22176       0   22178   22179   22179       0   22181
   22182   22182       0   22184   22185   22185       0   22187   22188   22188
       0   22190   22191   22191       0   22193   22194   22194       0   22196
   22197   22197       0   22199   22200   22200       0   22202   22203   22203
       0   22205   22206   22206       0   22208   22209   22209       0   22211
   22212   22212       0   22214   22215   22215       0   22217   22218   22218
       0   22220   22221   22221       0   22223   22224   22224       0   22226
   22227   22227       0   22229   22230   22230       0   22232   22233   22233
       0   22235   22236   22236       0   22238   22239   22239       0   22241
   22242   22242       0   22244   22245   22245       0   22247   22248   22248
       0   22250   22251   22251       0   22253   22254   22254       0   22256
   22257   22257       0   22259   22260   22260       0   22262   22263   22263
       0   22265   22266   22266       0   22268   22269   22269       0   22271
   22272   22272       0   22274   22275   22275       0   22277   22278   22278
       0   22280   22281   22281       0   22283   22284   22284       0   22286
   22287   22287       0   22289   22290   22290       0   22292   22293   22293
       0   22295   22296   22296       0   22298   22299   22299       0   22301
   22302   22302       0   22304   22305   22305       0   22307   22308   22308
       0   22310   22311   22311       0   22313   22314   22314       0   22316
   22317   22317       0   22319   22320   22320       0   22322   22323   22323
       0   22325   22326   22326       0   22328   22329   22329       0   22331
   22332   22332       0   22334   22335   22335       0   22337   22338   22338
       0   22340   22341   22341       0   22343   22344   22344       0   22346
   22347   22347       0   22349   22350   22350       0   22352   22353   22353
       0   22355   22356   22356       0   22358   22359   22359       0   22361
   22362   22362       0   22364   22365   22365       0   22367   22368   22368
       0   22370   22371   22371       0   22373   22374   22374       0   22376
   22377   22377       0   22379   22380   22380       0   22382   22383   22383
       0   22385   22386   22386       0   22388   22389   22389       0   22391
   22392   22392       0   22394   22395   22395       0   22397   22398   22398
       0   22400   22401   22401       0   22403   22404   22404       0   22406
   22407   22407       0   22409   22410   22410       0   22412   22413   22413
       0   22415   22416   22416       0   22418   22419   22419       0   22421
   22422   22422       0   22424   22425   22425       0   22427   22428   22428
       0   22430   22431   22431       0   22433   22434   22434       0   22436
   22437   22437       0   22439   22440   22440       0   22442   22443   22443
       0   22445   22446   22446       0   22448   22449   22449       0   22451
   22452   22452       0   22454   22455   22455       0   22457   22458   22458
       0   22460   22461   22461       0   22463   22464   22464       0   22466
   22467   22467       0   22469   22470   22470       0   22472   22473   22473
       0   22475   22476   22476       0   22478   22479   22479       0   22481
   22482   22482       0   22484   22485   22485       0   22487   22488   22488
       0   22490   22491   22491       0   22493   22494   22494       0   22496
   22497   22497       0   22499   22500   22500       0   22502   22503   22503
       0   22505   22506   22506       0   22508   22509   22509       0   22511
   22512   22512       0   22514   22515   22515       0   22517   22518   22518
       0   22520   22521   22521       0   22523   22524   22524       0   22526
   22527   22527       0   22529   22530   22530       0   22532   22533   22533
       0   22535   22536   22536       0   22538   22539   22539       0   22541
   22542   22542       0   22544   22545   22545       0   22547   22548   22548
       0   22550   22551   22551       0   22553   22554   22554       0   22556
   22557   22557       0   22559   22560   22560       0   22562   22563   22563
       0   22565   22566   22566       0   22568   22569   22569       0   22571
   22572   22572       0   22574   22575   22575       0   22577   22578   22578
       0   22580   22581   22581       0   22583   22584   22584       0   22586
   22587   22587       0   22589   22590   22590       0   22592   22593   22593
       0   22595   22596   22596       0   22598   22599   22599       0   22601
   22602   22602       0   22604   22605   22605       0   22607   22608   22608
       0   22610   22611   22611       0   22613   22614   22614       0   22616
   22617   22617       0   22619   22620   22620       0   22622   22623   22623
       0   22625   22626   22626       0   22628   22629   22629       0   22631
   22632   22632       0   22634   22635   22635       0   22637   22638   22638
       0   22640   22641   22641       0   22643   22644   22644       0   22646
   22647   22647       0   22649   22650   22650       0   22652   22653   22653
       0   22655   22656   22656       0   22658   22659   22659       0   22661
   22662   22662       0   22664   22665   22665       0   22667   22668   22668
       0   22670   22671   22671       0   22673   22674   22674       0   22676
   22677   22677       0   22679   22680   22680       0   22682   22683   22683
       0   22685   22686   22686       0   22688   22689   22689       0   22691
   22692   22692       0   22694   22695   22695       0   22697   22698   22698
       0   22700   22701   22701       0   22703   22704   22704       0   22706
   22707   22707       0   22709   22710   22710       0   22712   22713   22713
       0   22715   22716   22716       0   22718   22719   22719       0   22721
   22722   22722       0   22724   22725   22725       0   22727   22728   22728
       0   22730   22731   22731       0   22733   22734   22734       0   22736
   22737   22737       0   22739   22740   22740       0   22742   22743   22743
       0   22745   22746   22746       0   22748   22749   22749       0   22751
   22752   22752       0   22754   22755   22755       0   22757   22758   22758
       0   22760   22761   22761       0   22763   22764   22764       0   22766
   22767   22767       0   22769   22770   22770       0   22772   22773   22773
       0   22775   22776   22776       0   22778   22779   22779       0   22781
   22782   22782       0   22784   22785   22785       0   22787   22788   22788
       0   22790   22791   22791       0   22793   22794   22794       0   22796
   22797   22797       0   22799   22800   22800       0   22802   22803   22803
       0   22805   22806   22806       0   22808   22809   22809       0   22811
   22812   22812       0   22814   22815   22815       0   22817   22818   22818
       0   22820   22821   22821       0   22823   22824   22824       0   22826
   22827   22827       0   22829   22830   22830       0   22832   22833   22833
       0   22835   22836   22836       0   22838   22839   22839       0   22841
   22842   22842       0   22844   22845   22845       0   22847   22848   22848
       0   22850   22851   22851       0   22853   22854   22854       0   22856
   22857   22857       0   22859   22860   22860       0   22862   22863   22863
       0   22865   22866   22866       0   22868   22869   22869       0   22871
   22872   22872       0   22874   22875   22875       0   22877   22878   22878
       0   22880   22881   22881       0   22883   22884   22884       0   22886
   22887   22887       0   22889   22890   22890       0   22892   22893   22893
       0   22895   22896   22896       0   22898   22899   22899       0   22901
   22902   22902       0   22904   22905   22905       0   22907   22908   22908
       0   22910   22911   22911       0   22913   22914   22914       0   22916
   22917   22917       0   22919   22920   22920       0   22922   22923   22923
       0   22925   22926   22926       0   22928   22929   22929       0   22931
   22932   22932       0   22934   22935   22935       0   22937   22938   22938
       0   22940   22941   22941       0   22943   22944   22944       0   22946
   22947   22947       0   22949   22950   22950       0   22952   22953   22953
       0   22955   22956   22956       0   22958   22959   22959       0   22961
   22962   22962       0   22964   22965   22965       0   22967   22968   22968
       0   22970   22971   22971       0   22973   22974   22974       0   22976
   22977   22977       0   22979   22980   22980       0   22982   22983   22983
       0   22985   22986   22986       0   22988   22989   22989       0   22991
   22992   22992       0   22994   22995   22995       0   22997   22998   22998
       0   23000   23001   23001       0   23003   23004   23004       0   23006
   23007   23007       0   23009   23010   23010       0   23012   23013   23013
       0   23015   23016   23016       0   23018   23019   23019       0   23021
   23022   23022       0   23024   23025   23025       0   23027   23028   23028
       0   23030   23031   23031       0   23033   23034   23034       0   23036
   23037   23037       0   23039   23040   23040       0   23042   23043   23043
       0   23045   23046   23046       0   23048   23049   23049       0   23051
   23052   23052       0   23054   23055   23055       0   23057   23058   23058
       0   23060   23061   23061       0   23063   23064   23064       0   23066
   23067   23067       0   23069   23070   23070       0   23072   23073   23073
       0   23075   23076   23076       0   23078   23079   23079       0   23081
   23082   23082       0   23084   23085   23085       0   23087   23088   23088
       0   23090   23091   23091       0   23093   23094   23094       0   23096
   23097   23097       0   23099   23100   23100       0   23102   23103   23103
       0   23105   23106   23106       0   23108   23109   23109       0   23111
   23112   23112       0   23114   23115   23115       0   23117   23118   23118
       0   23120   23121   23121       0   23123   23124   23124       0   23126
   23127   23127       0   23129   23130   23130       0   23132   23133   23133
       0   23135   23136   23136       0   23138   23139   23139       0   23141
   23142   23142       0   23144   23145   23145       0   23147   23148   23148
       0   23150   23151   23151       0   23153   23154   23154       0   23156
   23157   23157       0   23159   23160   23160       0   23162   23163   23163
       0   23165   23166   23166       0   23168   23169   23169       0   23171
   23172   23172       0   23174   23175   23175       0   23177   23178   23178
       0   23180   23181   23181       0   23183   23184   23184       0   23186
   23187   23187       0   23189   23190   23190       0   23192   23193   23193
       0   23195   23196   23196       0   23198   23199   23199       0   23201
   23202   23202       0   23204   23205   23205       0   23207   23208   23208
       0   23210   23211   23211       0   23213   23214   23214       0   23216
   23217   23217       0   23219   23220   23220       0   23222   23223   23223
       0   23225   23226   23226       0   23228   23229   23229       0   23231
   23232   23232       0   23234   23235   23235       0   23237   23238   23238
       0   23240   23241   23241       0   23243   23244   23244       0   23246
   23247   23247       0   23249   23250   23250       0   23252   23253   23253
       0   23255   23256   23256       0   23258   23259   23259       0   23261
   23262   23262       0   23264   23265   23265       0   23267   23268   23268
       0   23270   23271   23271       0   23273   23274   23274       0   23276
   23277   23277       0   23279   23280   23280       0   23282   23283   23283
       0   23285   23286   23286       0   23288   23289   23289       0   23291
   23292   23292       0   23294   23295   23295       0   23297   23298   23298
       0   23300   23301   23301       0   23303   23304   23304       0   23306
   23307   23307       0   23309   23310   23310       0   23312   23313   23313
       0   23315   23316   23316       0   23318   23319   23319       0   23321
   23322   23322       0   23324   23325   23325       0   23327   23328   23328
       0   23330   23331   23331       0   23333   23334   23334       0   23336
   23337   23337       0   23339   23340   23340       0   23342   23343   23343
       0   23345   23346   23346       0   23348   23349   23349       0   23351
   23352   23352       0   23354   23355   23355       0   23357   23358   23358
       0   23360   23361   23361       0   23363   23364   23364       0   23366
   23367   23367       0   23369   23370   23370       0   23372   23373   23373
       0   23375   23376   23376       0   23378   23379   23379       0   23381
   23382   23382       0   23384   23385   23385       0   23387   23388   23388
       0   23390   23391   23391       0   23393   23394   23394       0   23396
   23397   23397       0   23399   23400   23400       0   23402   23403   23403
       0   23405   23406   23406       0   23408   23409   23409       0   23411
   23412   23412       0   23414   23415   23415       0   23417   23418   23418
       0   23420   23421   23421       0   23423   23424   23424       0   23426
   23427   23427       0   23429   23430   23430       0   23432   23433   23433
       0   23435   23436   23436       0   23438   23439   23439       0   23441
   23442   23442       0   23444   23445   23445       0   23447   23448   23448
       0   23450   23451   23451       0   23453   23454   23454       0   23456
   23457   23457       0   23459   23460   23460       0   23462   23463   23463
       0   23465   23466   23466       0   23468   23469   23469       0   23471
   23472   23472       0   23474   23475   23475       0   23477   23478   23478
       0   23480   23481   23481       0   23483   23484   23484       0   23486
   23487   23487       0   23489   23490   23490       0   23492   23493   23493
       0   23495   23496   23496       0   23498   23499   23499       0   23501
   23502   23502       0   23504   23505   23505       0   23507   23508   23508
       0   23510   23511   23511       0   23513   23514   23514       0   23516
   23517   23517       0   23519   23520   23520       0   23522   23523   23523
       0   23525   23526   23526       0   23528   23529   23529       0   23531
   23532   23532       0   23534   23535   23535       0   23537   23538   23538
       0   23540   23541   23541       0   23543   23544   23544       0   23546
   23547   23547       0   23549   23550   23550       0   23552   23553   23553
       0   23555   23556   23556       0   23558   23559   23559       0   23561
   23562   23562       0   23564   23565   23565       0   23567   23568   23568
       0   23570   23571   23571       0   23573   23574   23574       0   23576
   23577   23577       0   23579   23580   23580       0   23582   23583   23583
       0   23585   23586   23586       0   23588   23589   23589       0   23591
   23592   23592       0   23594   23595   23595       0   23597   23598   23598
       0   23600   23601   23601       0   23603   23604   23604       0   23606
   23607   23607       0   23609   23610   23610       0   23612   23613   23613
       0   23615   23616   23616       0   23618   23619   23619       0   23621
   23622   23622       0   23624   23625   23625       0   23627   23628   23628
       0   23630   23631   23631       0   23633   23634   23634       0   23636
   23637   23637       0   23639   23640   23640       0   23642   23643   23643
       0   23645   23646   23646       0   23648   23649   23649       0   23651
   23652   23652       0   23654   23655   23655       0   23657   23658   23658
       0   23660   23661   23661       0   23663   23664   23664       0   23666
   23667   23667       0   23669   23670   23670       0   23672   23673   23673
       0   23675   23676   23676       0   23678   23679   23679       0   23681
   23682   23682       0   23684   23685   23685       0   23687   23688   23688
       0   23690   23691   23691       0   23693   23694   23694       0   23696
   23697   23697       0   23699   23700   23700       0   23702   23703   23703
       0   23705   23706   23706       0   23708   23709   23709       0   23711
   23712   23712       0   23714   23715   23715       0   23717   23718   23718
       0   23720   23721   23721       0   23723   23724   23724       0   23726
   23727   23727       0   23729   23730   23730       0   23732   23733   23733
       0   23735   23736   23736       0   23738   23739   23739       0   23741
   23742   23742       0   23744   23745   23745       0   23747   23748   23748
       0   23750   23751   23751       0   23753   23754   23754       0   23756
   23757   23757       0   23759   23760   23760       0   23762   23763   23763
       0   23765   23766   23766       0   23768   23769   23769       0   23771
   23772   23772       0   23774   23775   23775       0   23777   23778   23778
       0   23780   23781   23781       0   23783   23784   23784       0   23786
   23787   23787       0   23789   23790   23790       0   23792   23793   23793
       0   23795   23796   23796       0   23798   23799   23799       0   23801
   23802   23802       0   23804   23805   23805       0   23807   23808   23808
       0   23810   23811   23811       0   23813   23814   23814       0   23816
   23817   23817       0   23819   23820   23820       0   23822   23823   23823
       0   23825   23826   23826       0   23828   23829   23829       0   23831
   23832   23832       0   23834   23835   23835       0   23837   23838   23838
       0   23840   23841   23841       0   23843   23844   23844       0   23846
   23847   23847       0   23849   23850   23850       0   23852   23853   23853
       0   23855   23856   23856       0   23858   23859   23859       0   23861
   23862   23862       0   23864   23865   23865       0   23867   23868   23868
       0   23870   23871   23871       0   23873   23874   23874       0   23876
   23877   23877       0   23879   23880   23880       0   23882   23883   23883
       0   23885   23886   23886       0   23888   23889   23889       0   23891
   23892   23892       0   23894   23895   23895       0   23897   23898   23898
       0   23900   23901   23901       0   23903   23904   23904       0   23906
   23907   23907       0   23909   23910   23910       0   23912   23913   23913
       0   23915   23916   23916       0   23918   23919   23919       0   23921
   23922   23922       0   23924   23925   23925       0   23927   23928   23928
       0   23930   23931   23931       0   23933   23934   23934       0   23936
   23937   23937       0   23939   23940   23940       0   23942   23943   23943
       0   23945   23946   23946       0   23948   23949   23949       0   23951
   23952   23952       0   23954   23955   23955       0   23957   23958   23958
       0   23960   23961   23961       0   23963   23964   23964       0   23966
   23967   23967       0   23969   23970   23970       0   23972   23973   23973
       0   23975   23976   23976       0   23978   23979   23979       0   23981
   23982   23982       0   23984   23985   23985       0   23987   23988   23988
       0   23990   23991   23991       0   23993   23994   23994       0   23996
   23997   23997       0   23999   24000   24000       0   24002   24003   24003
       0   24005   24006   24006       0   24008   24009   24009       0   24011
   24012   24012       0   24014   24015   24015       0   24017   24018   24018
       0   24020   24021   24021       0   24023   24024   24024       0   24026
   24027   24027       0   24029   24030   24030       0   24032   24033   24033
       0   24035   24036   24036       0   24038   24039   24039       0   24041
   24042   24042       0   24044   24045   24045       0   24047   24048   24048
       0   24050   24051   24051       0   24053   24054   24054       0   24056
   24057   24057       0   24059   24060   24060       0   24062   24063   24063
       0   24065   24066   24066       0   24068   24069   24069       0   24071
   24072   24072       0   24074   24075   24075       0   24077   24078   24078
       0   24080   24081   24081       0   24083   24084   24084       0   24086
   24087   24087       0   24089   24090   24090       0   24092   24093   24093
       0   24095   24096   24096       0   24098   24099   24099       0   24101
   24102   24102       0   24104   24105   24105       0   24107   24108   24108
       0   24110   24111   24111       0   24113   24114   24114       0   24116
   24117   24117       0   24119   24120   24120       0   24122   24123   24123
       0   24125   24126   24126       0   24128   24129   24129       0   24131
   24132   24132       0   24134   24135   24135       0   24137   24138   24138
       0   24140   24141   24141       0   24143   24144   24144       0   24146
   24147   24147       0   24149   24150   24150       0   24152   24153   24153
       0   24155   24156   24156       0   24158   24159   24159       0   24161
   24162   24162       0   24164   24165   24165       0   24167   24168   24168
       0   24170   24171   24171       0   24173   24174   24174       0   24176
   24177   24177       0   24179   24180   24180       0   24182   24183   24183
       0   24185   24186   24186       0   24188   24189   24189       0   24191
   24192   24192       0   24194   24195   24195       0   24197   24198   24198
       0   24200   24201   24201       0   24203   24204   24204       0   24206
   24207   24207       0   24209   24210   24210       0   24212   24213   24213
       0   24215   24216   24216       0   24218   24219   24219       0   24221
   24222   24222       0   24224   24225   24225       0   24227   24228   24228
       0   24230   24231   24231       0   24233   24234   24234       0   24236
   24237   24237       0   24239   24240   24240       0   24242   24243   24243
       0   24245   24246   24246       0   24248   24249   24249       0   24251
   24252   24252       0   24254   24255   24255       0   24257   24258   24258
       0   24260   24261   24261       0   24263   24264   24264       0   24266
   24267   24267       0   24269   24270   24270       0   24272   24273   24273
       0   24275   24276   24276       0   24278   24279   24279       0   24281
   24282   24282       0   24284   24285   24285       0   24287   24288   24288
       0   24290   24291   24291       0   24293   24294   24294       0   24296
   24297   24297       0   24299   24300   24300       0   24302   24303   24303
       0   24305   24306   24306       0   24308   24309   24309       0   24311
   24312   24312       0   24314   24315   24315       0   24317   24318   24318
       0   24320   24321   24321       0   24323   24324   24324       0   24326
   24327   24327       0   24329   24330   24330       0   24332   24333   24333
       0   24335   24336   24336       0   24338   24339   24339       0   24341
   24342   24342       0   24344   24345   24345       0   24347   24348   24348
       0   24350   24351   24351       0   24353   24354   24354       0   24356
   24357   24357       0   24359   24360   24360       0   24362   24363   24363
       0   24365   24366   24366       0   24368   24369   24369       0   24371
   24372   24372       0   24374   24375   24375       0   24377   24378   24378
       0   24380   24381   24381       0   24383   24384   24384       0   24386
   24387   24387       0   24389   24390   24390       0   24392   24393   24393
       0   24395   24396   24396       0   24398   24399   24399       0   24401
   24402   24402       0   24404   24405   24405       0   24407   24408   24408
       0   24410   24411   24411       0   24413   24414   24414       0   24416
   24417   24417       0   24419   24420   24420       0   24422   24423   24423
       0   24425   24426   24426       0   24428   24429   24429       0   24431
   24432   24432       0   24434   24435   24435       0   24437   24438   24438
       0   24440   24441   24441       0   24443   24444   24444       0   24446
   24447   24447       0   24449   24450   24450       0   24452   24453   24453
       0   24455   24456   24456       0   24458   24459   24459       0   24461
   24462   24462       0   24464   24465   24465       0   24467   24468   24468
       0   24470   24471   24471       0   24473   24474   24474       0   24476
   24477   24477       0   24479   24480   24480       0   24482   24483   24483
       0   24485   24486   24486       0   24488   24489   24489       0   24491
   24492   24492       0   24494   24495   24495       0   24497   24498   24498
       0   24500   24501   24501       0   24503   24504   24504       0   24506
   24507   24507       0   24509   24510   24510       0   24512   24513   24513
       0   24515   24516   24516       0   24518   24519   24519       0   24521
   24522   24522       0   24524   24525   24525       0   24527   24528   24528
       0   24530   24531   24531       0   24533   24534   24534       0   24536
   24537   24537       0   24539   24540   24540       0   24542   24543   24543
       0   24545   24546   24546       0   24548   24549   24549       0   24551
   24552   24552       0   24554   24555   24555       0   24557   24558   24558
       0   24560   24561   24561       0   24563   24564   24564       0   24566
   24567   24567       0   24569   24570   24570       0   24572   24573   24573
       0   24575   24576   24576       0   24578   24579   24579       0   24581
   24582   24582       0   24584   24585   24585       0   24587   24588   24588
       0   24590   24591   24591       0   24593   24594   24594       0   24596
   24597   24597       0   24599   24600   24600       0   24602   24603   24603
       0   24605   24606   24606       0   24608   24609   24609       0   24611
   24612   24612       0   24614   24615   24615       0   24617   24618   24618
       0   24620   24621   24621       0   24623   24624   24624       0   24626
   24627   24627       0   24629   24630   24630       0   24632   24633   24633
       0   24635   24636   24636       0   24638   24639   24639       0   24641
   24642   24642       0   24644   24645   24645       0   24647   24648   24648
       0   24650   24651   24651       0   24653   24654   24654       0   24656
   24657   24657       0   24659   24660   24660       0   24662   24663   24663
       0   24665   24666   24666       0   24668   24669   24669       0   24671
   24672   24672       0   24674   24675   24675       0   24677   24678   24678
       0   24680   24681   24681       0   24683   24684   24684       0   24686
   24687   24687       0   24689   24690   24690       0   24692   24693   24693
       0   24695   24696   24696       0   24698   24699   24699       0   24701
   24702   24702       0   24704   24705   24705       0   24707   24708   24708
       0   24710   24711   24711       0   24713   24714   24714       0   24716
   24717   24717       0   24719   24720   24720       0   24722   24723   24723
       0   24725   24726   24726       0   24728   24729   24729       0   24731
   24732   24732       0   24734   24735   24735       0   24737   24738   24738
       0   24740   24741   24741       0   24743   24744   24744       0   24746
   24747   24747       0   24749   24750   24750       0   24752   24753   24753
       0   24755   24756   24756       0   24758   24759   24759       0   24761
   24762   24762       0   24764   24765   24765       0   24767   24768   24768
       0   24770   24771   24771       0   24773   24774   24774       0   24776
   24777   24777       0   24779   24780   24780       0   24782   24783   24783
       0   24785   24786   24786       0   24788   24789   24789       0   24791
   24792   24792       0   24794   24795   24795       0   24797   24798   24798
       0   24800   24801   24801       0   24803   24804   24804       0   24806
   24807   24807       0   24809   24810   24810       0   24812   24813   24813
       0   24815   24816   24816       0   24818   24819   24819       0   24821
   24822   24822       0   24824   24825   24825       0   24827   24828   24828
       0   24830   24831   24831       0   24833   24834   24834       0   24836
   24837   24837       0   24839   24840   24840       0   24842   24843   24843
       0   24845   24846   24846       0   24848   24849   24849       0   24851
   24852   24852       0   24854   24855   24855       0   24857   24858   24858
       0   24860   24861   24861       0   24863   24864   24864       0   24866
   24867   24867       0   24869   24870   24870       0   24872   24873   24873
       0   24875   24876   24876       0   24878   24879   24879       0   24881
   24882   24882       0   24884   24885   24885       0   24887   24888   24888
       0   24890   24891   24891       0   24893   24894   24894       0   24896
   24897   24897       0   24899   24900   24900       0   24902   24903   24903
       0   24905   24906   24906       0   24908   24909   24909       0   24911
   24912   24912       0   24914   24915   24915       0   24917   24918   24918
       0   24920   24921   24921       0   24923   24924   24924       0   24926
   24927   24927       0   24929   24930   24930       0   24932   24933   24933
       0   24935   24936   24936       0   24938   24939   24939       0   24941
   24942   24942       0   24944   24945   24945       0   24947   24948   24948
       0   24950   24951   24951       0   24953   24954   24954       0   24956
   24957   24957       0   24959   24960   24960       0   24962   24963   24963
       0   24965   24966   24966       0   24968   24969   24969       0   24971
   24972   24972       0   24974   24975   24975       0   24977   24978   24978
       0   24980   24981   24981       0   24983   24984   24984       0   24986
   24987   24987       0   24989   24990   24990       0   24992   24993   24993
       0   24995   24996   24996       0   24998   24999   24999       0   25001
   25002   25002       0   25004   25005   25005       0   25007   25008   25008
       0   25010   25011   25011       0   25013   25014   25014       0   25016
   25017   25017       0   25019   25020   25020       0   25022   25023   25023
       0   25025   25026   25026       0   25028   25029   25029       0   25031
   25032   25032       0   25034   25035   25035       0   25037   25038   25038
       0   25040   25041   25041       0   25043   25044   25044       0   25046
   25047   25047       0   25049   25050   25050       0   25052   25053   25053
       0   25055   25056   25056       0   25058   25059   25059       0   25061
   25062   25062       0   25064   25065   25065       0   25067   25068   25068
       0   25070   25071   25071       0   25073   25074   25074       0   25076
   25077   25077       0   25079   25080   25080       0   25082   25083   25083
       0   25085   25086   25086       0   25088   25089   25089       0   25091
   25092   25092       0   25094   25095   25095       0   25097   25098   25098
       0   25100   25101   25101       0   25103   25104   25104       0   25106
   25107   25107       0   25109   25110   25110       0   25112   25113   25113
       0   25115   25116   25116       0   25118   25119   25119       0   25121
   25122   25122       0   25124   25125   25125       0   25127   25128   25128
       0   25130   25131   25131       0   25133   25134   25134       0   25136
   25137   25137       0   25139   25140   25140       0   25142   25143   25143
       0   25145   25146   25146       0   25148   25149   25149       0   25151
   25152   25152       0   25154   25155   25155       0   25157   25158   25158
       0   25160   25161   25161       0   25163   25164   25164       0   25166
   25167   25167       0   25169   25170   25170       0   25172   25173   25173
       0   25175   25176   25176       0   25178   25179   25179       0   25181
   25182   25182       0   25184   25185   25185       0   25187   25188   25188
       0   25190   25191   25191       0   25193   25194   25194       0   25196
   25197   25197       0   25199   25200   25200       0   25202   25203   25203
       0   25205   25206   25206       0   25208   25209   25209       0   25211
   25212   25212       0   25214   25215   25215       0   25217   25218   25218
       0   25220   25221   25221       0   25223   25224   25224       0   25226
   25227   25227       0   25229   25230   25230       0   25232   25233   25233
       0   25235   25236   25236       0   25238   25239   25239       0   25241
   25242   25242       0   25244   25245   25245       0   25247   25248   25248
       0   25250   25251   25251       0   25253   25254   25254       0   25256
   25257   25257       0   25259   25260   25260       0   25262   25263   25263
       0   25265   25266   25266       0   25268   25269   25269       0   25271
   25272   25272       0   25274   25275   25275       0   25277   25278   25278
       0   25280   25281   25281       0   25283   25284   25284       0   25286
   25287   25287       0   25289   25290   25290       0   25292   25293   25293
       0   25295   25296   25296       0   25298   25299   25299       0   25301
   25302   25302       0   25304   25305   25305       0   25307   25308   25308
       0   25310   25311   25311       0   25313   25314   25314       0   25316
   25317   25317       0   25319   25320   25320       0   25322   25323   25323
       0   25325   25326   25326       0   25328   25329   25329       0   25331
   25332   25332       0   25334   25335   25335       0   25337   25338   25338
       0   25340   25341   25341       0   25343   25344   25344       0   25346
   25347   25347       0   25349   25350   25350       0   25352   25353   25353
       0   25355   25356   25356       0   25358   25359   25359       0   25361
   25362   25362       0   25364   25365   25365       0   25367   25368   25368
       0   25370   25371   25371       0   25373   25374   25374       0   25376
   25377   25377       0   25379   25380   25380       0   25382   25383   25383
       0   25385   25386   25386       0   25388   25389   25389       0   25391
   25392   25392       0   25394   25395   25395       0   25397   25398   25398
       0   25400   25401   25401       0   25403   25404   25404       0   25406
   25407   25407       0   25409   25410   25410       0   25412   25413   25413
       0   25415   25416   25416       0   25418   25419   25419       0   25421
   25422   25422       0   25424   25425   25425       0   25427   25428   25428
       0   25430   25431   25431       0   25433   25434   25434       0   25436
   25437   25437       0   25439   25440   25440       0   25442   25443   25443
       0   25445   25446   25446       0   25448   25449   25449       0   25451
   25452   25452       0   25454   25455   25455       0   25457   25458   25458
       0   25460   25461   25461       0   25463   25464   25464       0   25466
   25467   25467       0   25469   25470   25470       0   25472   25473   25473
       0   25475   25476   25476       0   25478   25479   25479       0   25481
   25482   25482       0   25484   25485   25485       0   25487   25488   25488
       0   25490   25491   25491       0   25493   25494   25494       0   25496
   25497   25497       0   25499   25500   25500       0   25502   25503   25503
       0   25505   25506   25506       0   25508   25509   25509       0   25511
   25512   25512       0   25514   25515   25515       0   25517   25518   25518
       0   25520   25521   25521       0   25523   25524   25524       0   25526
   25527   25527       0   25529   25530   25530       0   25532   25533   25533
       0   25535   25536   25536       0   25538   25539   25539       0   25541
   25542   25542       0   25544   25545   25545       0   25547   25548   25548
       0   25550   25551   25551       0   25553   25554   25554       0   25556
   25557   25557       0   25559   25560   25560       0   25562   25563   25563
       0   25565   25566   25566       0   25568   25569   25569       0   25571
   25572   25572       0   25574   25575   25575       0   25577   25578   25578
       0   25580   25581   25581       0   25583   25584   25584       0   25586
   25587   25587       0   25589   25590   25590       0   25592   25593   25593
       0   25595   25596   25596       0   25598   25599   25599       0   25601
   25602   25602       0   25604   25605   25605       0   25607   25608   25608
       0   25610   25611   25611       0   25613   25614   25614       0   25616
   25617   25617       0   25619   25620   25620       0   25622   25623   25623
       0   25625   25626   25626       0   25628   25629   25629       0   25631
   25632   25632       0   25634   25635   25635       0   25637   25638   25638
       0   25640   25641   25641       0   25643   25644   25644       0   25646
   25647   25647       0   25649   25650   25650       0   25652   25653   25653
       0   25655   25656   25656       0   25658   25659   25659       0   25661
   25662   25662       0   25664   25665   25665       0   25667   25668   25668
       0   25670   25671   25671       0   25673   25674   25674       0   25676
   25677   25677       0   25679   25680   25680       0   25682   25683   25683
       0   25685   25686   25686       0   25688   25689   25689       0   25691
   25692   25692       0   25694   25695   25695       0   25697   25698   25698
       0   25700   25701   25701       0   25703   25704   25704       0   25706
   25707   25707       0   25709   25710   25710       0   25712   25713   25713
       0   25715   25716   25716       0   25718   25719   25719       0   25721
   25722   25722       0   25724   25725   25725       0   25727   25728   25728
       0   25730   25731   25731       0   25733   25734   25734       0   25736
   25737   25737       0   25739   25740   25740       0   25742   25743   25743
       0   25745   25746   25746       0   25748   25749   25749       0   25751
   25752   25752       0   25754   25755   25755       0   25757   25758   25758
       0   25760   25761   25761       0   25763   25764   25764       0   25766
   25767   25767       0   25769   25770   25770       0   25772   25773   25773
       0   25775   25776   25776       0   25778   25779   25779       0   25781
   25782   25782       0   25784   25785   25785       0   25787   25788   25788
       0   25790   25791   25791       0   25793   25794   25794       0   25796
   25797   25797       0   25799   25800   25800       0   25802   25803   25803
       0   25805   25806   25806       0   25808   25809   25809       0   25811
   25812   25812       0   25814   25815   25815       0   25817   25818   25818
       0   25820   25821   25821       0   25823   25824   25824       0   25826
   25827   25827       0   25829   25830   25830       0   25832   25833   25833
       0   25835   25836   25836       0   25838   25839   25839       0   25841
   25842   25842       0   25844   25845   25845       0   25847   25848   25848
       0   25850   25851   25851       0   25853   25854   25854       0   25856
   25857   25857       0   25859   25860   25860       0   25862   25863   25863
       0   25865   25866   25866       0   25868   25869   25869       0   25871
   25872   25872       0   25874   25875   25875       0   25877   25878   25878
       0   25880   25881   25881       0   25883   25884   25884       0   25886
   25887   25887       0   25889   25890   25890       0   25892   25893   25893
       0   25895   25896   25896       0   25898   25899   25899       0   25901
   25902   25902       0   25904   25905   25905       0   25907   25908   25908
       0   25910   25911   25911       0   25913   25914   25914       0   25916
   25917   25917       0   25919   25920   25920       0   25922   25923   25923
       0   25925   25926   25926       0   25928   25929   25929       0   25931
   25932   25932       0   25934   25935   25935       0   25937   25938   25938
       0   25940   25941   25941       0   25943   25944   25944       0   25946
   25947   25947       0   25949   25950   25950       0   25952   25953   25953
       0   25955   25956   25956       0   25958   25959   25959       0   25961
   25962   25962       0   25964   25965   25965       0   25967   25968   25968
       0   25970   25971   25971       0   25973   25974   25974       0   25976
   25977   25977       0   25979   25980   25980       0   25982   25983   25983
       0   25985   25986   25986       0   25988   25989   25989       0   25991
   25992   25992       0   25994   25995   25995       0   25997   25998   25998
       0   26000   26001   26001       0   26003   26004   26004       0   26006
   26007   26007       0   26009   26010   26010       0   26012   26013   26013
       0   26015   26016   26016       0   26018   26019   26019       0   26021
   26022   26022       0   26024   26025   26025       0   26027   26028   26028
       0   26030   26031   26031       0   26033   26034   26034       0   26036
   26037   26037       0   26039   26040   26040       0   26042   26043   26043
       0   26045   26046   26046       0   26048   26049   26049       0   26051
   26052   26052       0   26054   26055   26055       0   26057   26058   26058
       0   26060   26061   26061       0   26063   26064   26064       0   26066
   26067   26067       0   26069   26070   26070       0   26072   26073   26073
       0   26075   26076   26076       0   26078   26079   26079       0   26081
   26082   26082       0   26084   26085   26085       0   26087   26088   26088
       0   26090   26091   26091       0   26093   26094   26094       0   26096
   26097   26097       0   26099   26100   26100       0   26102   26103   26103
       0   26105   26106   26106       0   26108   26109   26109       0   26111
   26112   26112       0   26114   26115   26115       0   26117   26118   26118
       0   26120   26121   26121       0   26123   26124   26124       0   26126
   26127   26127       0   26129   26130   26130       0   26132   26133   26133
       0   26135   26136   26136       0   26138   26139   26139       0   26141
   26142   26142       0   26144   26145   26145       0   26147   26148   26148
       0   26150   26151   26151       0   26153   26154   26154       0   26156
   26157   26157       0   26159   26160   26160       0   26162   26163   26163
       0   26165   26166   26166       0   26168   26169   26169       0   26171
   26172   26172       0   26174   26175   26175       0   26177   26178   26178
       0   26180   26181   26181       0   26183   26184   26184       0   26186
   26187   26187       0   26189   26190   26190       0   26192   26193   26193
       0   26195   26196   26196       0   26198   26199   26199       0   26201
   26202   26202       0   26204   26205   26205       0   26207   26208   26208
       0   26210   26211   26211       0   26213   26214   26214       0   26216
   26217   26217       0   26219   26220   26220       0   26222   26223   26223
       0   26225   26226   26226       0   26228   26229   26229       0   26231
   26232   26232       0   26234   26235   26235       0   26237   26238   26238
       0   26240   26241   26241       0   26243   26244   26244       0   26246
   26247   26247       0   26249   26250   26250       0   26252   26253   26253
       0   26255   26256   26256       0   26258   26259   26259       0   26261
   26262   26262       0   26264   26265   26265       0   26267   26268   26268
       0   26270   26271   26271       0   26273   26274   26274       0   26276
   26277   26277       0   26279   26280   26280       0   26282   26283   26283
       0   26285   26286   26286       0   26288   26289   26289       0   26291
   26292   26292       0   26294   26295   26295       0   26297   26298   26298
       0   26300   26301   26301       0   26303   26304   26304       0   26306
   26307   26307       0   26309   26310   26310       0   26312   26313   26313
       0   26315   26316   26316       0   26318   26319   26319       0   26321
   26322   26322       0   26324   26325   26325       0   26327   26328   26328
       0   26330   26331   26331       0   26333   26334   26334       0   26336
   26337   26337       0   26339   26340   26340       0   26342   26343   26343
       0   26345   26346   26346       0   26348   26349   26349       0   26351
   26352   26352       0   26354   26355   26355       0   26357   26358   26358
       0   26360   26361   26361       0   26363   26364   26364       0   26366
   26367   26367       0   26369   26370   26370       0   26372   26373   26373
       0   26375   26376   26376       0   26378   26379   26379       0   26381
   26382   26382       0   26384   26385   26385       0   26387   26388   26388
       0   26390   26391   26391       0   26393   26394   26394       0   26396
   26397   26397       0   26399   26400   26400       0   26402   26403   26403
       0   26405   26406   26406       0   26408   26409   26409       0   26411
   26412   26412       0   26414   26415   26415       0   26417   26418   26418
       0   26420   26421   26421       0   26423   26424   26424       0   26426
   26427   26427       0   26429   26430   26430       0   26432   26433   26433
       0   26435   26436   26436       0   26438   26439   26439       0   26441
   26442   26442       0   26444   26445   26445       0   26447   26448   26448
       0   26450   26451   26451       0   26453   26454   26454       0   26456
   26457   26457       0   26459   26460   26460       0   26462   26463   26463
       0   26465   26466   26466       0   26468   26469   26469       0   26471
   26472   26472       0   26474   26475   26475       0   26477   26478   26478
       0   26480   26481   26481       0   26483   26484   26484       0   26486
   26487   26487       0   26489   26490   26490       0   26492   26493   26493
       0   26495   26496   26496       0   26498   26499   26499       0   26501
   26502   26502       0   26504   26505   26505       0   26507   26508   26508
       0   26510   26511   26511       0   26513   26514   26514       0   26516
   26517   26517       0   26519   26520   26520       0   26522   26523   26523
       0   26525   26526   26526       0   26528   26529   26529       0   26531
   26532   26532       0   26534   26535   26535       0   26537   26538   26538
       0   26540   26541   26541       0   26543   26544   26544       0   26546
   26547   26547       0   26549   26550   26550       0   26552   26553   26553
       0   26555   26556   26556       0   26558   26559   26559       0   26561
   26562   26562       0   26564   26565   26565       0   26567   26568   26568
       0   26570   26571   26571       0   26573   26574   26574       0   26576
   26577   26577       0   26579   26580   26580       0   26582   26583   26583
       0   26585   26586   26586       0   26588   26589   26589       0   26591
   26592   26592       0   26594   26595   26595       0   26597   26598   26598
       0   26600   26601   26601       0   26603   26604   26604       0   26606
   26607   26607       0   26609   26610   26610       0   26612   26613   26613
       0   26615   26616   26616       0   26618   26619   26619       0   26621
   26622   26622       0   26624   26625   26625       0   26627   26628   26628
       0   26630   26631   26631       0   26633   26634   26634       0   26636
   26637   26637       0   26639   26640   26640       0   26642   26643   26643
       0   26645   26646   26646       0   26648   26649   26649       0   26651
   26652   26652       0   26654   26655   26655       0   26657   26658   26658
       0   26660   26661   26661       0   26663   26664   26664       0   26666
   26667   26667       0   26669   26670   26670       0   26672   26673   26673
       0   26675   26676   26676       0   26678   26679   26679       0   26681
   26682   26682       0   26684   26685   26685       0   26687   26688   26688
       0   26690   26691   26691       0   26693   26694   26694       0   26696
   26697   26697       0   26699   26700   26700       0   26702   26703   26703
       0   26705   26706   26706       0   26708   26709   26709       0   26711
   26712   26712       0   26714   26715   26715       0   26717   26718   26718
       0   26720   26721   26721       0   26723   26724   26724       0   26726
   26727   26727       0   26729   26730   26730       0   26732   26733   26733
       0   26735   26736   26736       0   26738   26739   26739       0   26741
   26742   26742       0   26744   26745   26745       0   26747   26748   26748
       0   26750   26751   26751       0   26753   26754   26754       0   26756
   26757   26757       0   26759   26760   26760       0   26762   26763   26763
       0   26765   26766   26766       0   26768   26769   26769       0   26771
   26772   26772       0   26774   26775   26775       0   26777   26778   26778
       0   26780   26781   26781       0   26783   26784   26784       0   26786
   26787   26787       0   26789   26790   26790       0   26792   26793   26793
       0   26795   26796   26796       0   26798   26799   26799       0   26801
   26802   26802       0   26804   26805   26805       0   26807   26808   26808
       0   26810   26811   26811       0   26813   26814   26814       0   26816
   26817   26817       0   26819   26820   26820       0   26822   26823   26823
       0   26825   26826   26826       0   26828   26829   26829       0   26831
   26832   26832       0   26834   26835   26835       0   26837   26838   26838
       0   26840   26841   26841       0   26843   26844   26844       0   26846
   26847   26847       0   26849   26850   26850       0   26852   26853   26853
       0   26855   26856   26856       0   26858   26859   26859       0   26861
   26862   26862       0   26864   26865   26865       0   26867   26868   26868
       0   26870   26871   26871       0   26873   26874   26874       0   26876
   26877   26877       0   26879   26880   26880       0   26882   26883   26883
       0   26885   26886   26886       0   26888   26889   26889       0   26891
   26892   26892       0   26894   26895   26895       0   26897   26898   26898
       0   26900   26901   26901       0   26903   26904   26904       0   26906
   26907   26907       0   26909   26910   26910       0   26912   26913   26913
       0   26915   26916   26916       0   26918   26919   26919       0   26921
   26922   26922       0   26924   26925   26925       0   26927   26928   26928
       0   26930   26931   26931       0   26933   26934   26934       0   26936
   26937   26937       0   26939   26940   26940       0   26942   26943   26943
       0   26945   26946   26946       0   26948   26949   26949       0   26951
   26952   26952       0   26954   26955   26955       0   26957   26958   26958
       0   26960   26961   26961       0   26963   26964   26964       0   26966
   26967   26967       0   26969   26970   26970       0   26972   26973   26973
       0   26975   26976   26976       0   26978   26979   26979       0   26981
   26982   26982       0   26984   26985   26985       0   26987   26988   26988
       0   26990   26991   26991       0   26993   26994   26994       0   26996
   26997   26997       0   26999   27000   27000       0   27002   27003   27003
       0   27005   27006   27006       0   27008   27009   27009       0   27011
   27012   27012       0   27014   27015   27015       0   27017   27018   27018
       0   27020   27021   27021       0   27023   27024   27024       0   27026
   27027   27027       0   27029   27030   27030       0   27032   27033   27033
       0   27035   27036   27036       0   27038   27039   27039       0   27041
   27042   27042       0   27044   27045   27045       0   27047   27048   27048
       0   27050   27051   27051       0   27053   27054   27054       0   27056
   27057   27057       0   27059   27060   27060       0   27062   27063   27063
       0   27065   27066   27066       0   27068   27069   27069       0   27071
   27072   27072       0   27074   27075   27075       0   27077   27078   27078
       0   27080   27081   27081       0   27083   27084   27084       0   27086
   27087   27087       0   27089   27090   27090       0   27092   27093   27093
       0   27095   27096   27096       0   27098   27099   27099       0   27101
   27102   27102       0   27104   27105   27105       0   27107   27108   27108
       0   27110   27111   27111       0   27113   27114   27114       0   27116
   27117   27117       0   27119   27120   27120       0   27122   27123   27123
       0   27125   27126   27126       0   27128   27129   27129       0   27131
   27132   27132       0   27134   27135   27135       0   27137   27138   27138
       0   27140   27141   27141       0   27143   27144   27144       0   27146
   27147   27147       0   27149   27150   27150       0   27152   27153   27153
       0   27155   27156   27156       0   27158   27159   27159       0   27161
   27162   27162       0   27164   27165   27165       0   27167   27168   27168
       0   27170   27171   27171       0   27173   27174   27174       0   27176
   27177   27177       0   27179   27180   27180       0   27182   27183   27183
       0   27185   27186   27186       0   27188   27189   27189       0   27191
   27192   27192       0   27194   27195   27195       0   27197   27198   27198
       0   27200   27201   27201       0   27203   27204   27204       0   27206
   27207   27207       0   27209   27210   27210       0   27212   27213   27213
       0   27215   27216   27216       0   27218   27219   27219       0   27221
   27222   27222       0   27224   27225   27225       0   27227   27228   27228
       0   27230   27231   27231       0   27233   27234   27234       0   27236
   27237   27237       0   27239   27240   27240       0   27242   27243   27243
       0   27245   27246   27246       0   27248   27249   27249       0   27251
   27252   27252       0   27254   27255   27255       0   27257   27258   27258
       0   27260   27261   27261       0   27263   27264   27264       0   27266
   27267   27267       0   27269   27270   27270       0   27272   27273   27273
       0   27275   27276   27276       0   27278   27279   27279       0   27281
   27282   27282       0   27284   27285   27285       0   27287   27288   27288
       0   27290   27291   27291       0   27293   27294   27294       0   27296
   27297   27297       0   27299   27300   27300       0   27302   27303   27303
       0   27305   27306   27306       0   27308   27309   27309       0   27311
   27312   27312       0   27314   27315   27315       0   27317   27318   27318
       0   27320   27321   27321       0   27323   27324   27324       0   27326
   27327   27327       0   27329   27330   27330       0   27332   27333   27333
       0   27335   27336   27336       0   27338   27339   27339       0   27341
   27342   27342       0   27344   27345   27345       0   27347   27348   27348
       0   27350   27351   27351       0   27353   27354   27354       0   27356
   27357   27357       0   27359   27360   27360       0   27362   27363   27363
       0   27365   27366   27366       0   27368   27369   27369       0   27371
   27372   27372       0   27374   27375   27375       0   27377   27378   27378
       0   27380   27381   27381       0   27383   27384   27384       0   27386
   27387   27387       0   27389   27390   27390       0   27392   27393   27393
       0   27395   27396   27396       0   27398   27399   27399       0   27401
   27402   27402       0   27404   27405   27405       0   27407   27408   27408
       0   27410   27411   27411       0   27413   27414   27414       0   27416
   27417   27417       0   27419   27420   27420       0   27422   27423   27423
       0   27425   27426   27426       0   27428   27429   27429       0   27431
   27432   27432       0   27434   27435   27435       0   27437   27438   27438
       0   27440   27441   27441       0   27443   27444   27444       0   27446
   27447   27447       0   27449   27450   27450       0   27452   27453   27453
       0   27455   27456   27456       0   27458   27459   27459       0   27461
   27462   27462       0   27464   27465   27465       0   27467   27468   27468
       0   27470   27471   27471       0   27473   27474   27474       0   27476
   27477   27477       0   27479   27480   27480       0   27482   27483   27483
       0   27485   27486   27486       0   27488   27489   27489       0   27491
   27492   27492       0   27494   27495   27495       0   27497   27498   27498
       0   27500   27501   27501       0   27503   27504   27504       0   27506
   27507   27507       0   27509   27510   27510       0   27512   27513   27513
       0   27515   27516   27516       0   27518   27519   27519       0   27521
   27522   27522       0   27524   27525   27525       0   27527   27528   27528
       0   27530   27531   27531       0   27533   27534   27534       0   27536
   27537   27537       0   27539   27540   27540       0   27542   27543   27543
       0   27545   27546   27546       0   27548   27549   27549       0   27551
   27552   27552       0   27554   27555   27555       0   27557   27558   27558
       0   27560   27561   27561       0   27563   27564   27564       0   27566
   27567   27567       0   27569   27570   27570       0   27572   27573   27573
       0   27575   27576   27576       0   27578   27579   27579       0   27581
   27582   27582       0   27584   27585   27585       0   27587   27588   27588
       0   27590   27591   27591       0   27593   27594   27594       0   27596
   27597   27597       0   27599   27600   27600       0   27602   27603   27603
       0   27605   27606   27606       0   27608   27609   27609       0   27611
   27612   27612       0   27614   27615   27615       0   27617   27618   27618
       0   27620   27621   27621       0   27623   27624   27624       0   27626
   27627   27627       0   27629   27630   27630       0   27632   27633   27633
       0   27635   27636   27636       0   27638   27639   27639       0   27641
   27642   27642       0   27644   27645   27645       0   27647   27648   27648
       0   27650   27651   27651       0   27653   27654   27654       0   27656
   27657   27657       0   27659   27660   27660       0   27662   27663   27663
       0   27665   27666   27666       0   27668   27669   27669       0   27671
   27672   27672       0   27674   27675   27675       0   27677   27678   27678
       0   27680   27681   27681       0   27683   27684   27684       0   27686
   27687   27687       0   27689   27690   27690       0   27692   27693   27693
       0   27695   27696   27696       0   27698   27699   27699       0   27701
   27702   27702       0   27704   27705   27705       0   27707   27708   27708
       0   27710   27711   27711       0   27713   27714   27714       0   27716
   27717   27717       0   27719   27720   27720       0   27722   27723   27723
       0   27725   27726   27726       0   27728   27729   27729       0   27731
   27732   27732       0   27734   27735   27735       0   27737   27738   27738
       0   27740   27741   27741       0   27743   27744   27744       0   27746
   27747   27747       0   27749   27750   27750       0   27752   27753   27753
       0   27755   27756   27756       0   27758   27759   27759       0   27761
   27762   27762       0   27764   27765   27765       0   27767   27768   27768
       0   27770   27771   27771       0   27773   27774   27774       0   27776
   27777   27777       0   27779   27780   27780       0   27782   27783   27783
       0   27785   27786   27786       0   27788   27789   27789       0   27791
   27792   27792       0   27794   27795   27795       0   27797   27798   27798
       0   27800   27801   27801       0   27803   27804   27804       0   27806
   27807   27807       0   27809   27810   27810       0   27812   27813   27813
       0   27815   27816   27816       0   27818   27819   27819       0   27821
   27822   27822       0   27824   27825   27825       0   27827   27828   27828
       0   27830   27831   27831       0   27833   27834   27834       0   27836
   27837   27837       0   27839   27840   27840       0   27842   27843   27843
       0   27845   27846   27846       0   27848   27849   27849       0   27851
   27852   27852       0   27854   27855   27855       0   27857   27858   27858
       0   27860   27861   27861       0   27863   27864   27864       0   27866
   27867   27867       0   27869   27870   27870       0   27872   27873   27873
       0   27875   27876   27876       0   27878   27879   27879       0   27881
   27882   27882       0   27884   27885   27885       0   27887   27888   27888
       0   27890   27891   27891       0   27893   27894   27894       0   27896
   27897   27897       0   27899   27900   27900       0   27902   27903   27903
       0   27905   27906   27906       0   27908   27909   27909       0   27911
   27912   27912       0   27914   27915   27915       0   27917   27918   27918
       0   27920   27921   27921       0   27923   27924   27924       0   27926
   27927   27927       0   27929   27930   27930       0   27932   27933   27933
       0   27935   27936   27936       0   27938   27939   27939       0   27941
   27942   27942       0   27944   27945   27945       0   27947   27948   27948
       0   27950   27951   27951       0   27953   27954   27954       0   27956
   27957   27957       0   27959   27960   27960       0   27962   27963   27963
       0   27965   27966   27966       0   27968   27969   27969       0   27971
   27972   27972       0   27974   27975   27975       0   27977   27978   27978
       0   27980   27981   27981       0   27983   27984   27984       0   27986
   27987   27987       0   27989   27990   27990       0   27992   27993   27993
       0   27995   27996   27996       0   27998   27999   27999       0   28001
   28002   28002       0   28004   28005   28005       0   28007   28008   28008
       0   28010   28011   28011       0   28013   28014   28014       0   28016
   28017   28017       0   28019   28020   28020       0   28022   28023   28023
       0   28025   28026   28026       0   28028   28029   28029       0   28031
   28032   28032       0   28034   28035   28035       0   28037   28038   28038
       0   28040   28041   28041       0   28043   28044   28044       0   28046
   28047   28047       0   28049   28050   28050       0   28052   28053   28053
       0   28055   28056   28056       0   28058   28059   28059       0   28061
   28062   28062       0   28064   28065   28065       0   28067   28068   28068
       0   28070   28071   28071       0   28073   28074   28074       0   28076
   28077   28077       0   28079   28080   28080       0   28082   28083   28083
       0   28085   28086   28086       0   28088   28089   28089       0   28091
   28092   28092       0   28094   28095   28095       0   28097   28098   28098
       0   28100   28101   28101       0   28103   28104   28104       0   28106
   28107   28107       0   28109   28110   28110       0   28112   28113   28113
       0   28115   28116   28116       0   28118   28119   28119       0   28121
   28122   28122       0   28124   28125   28125       0   28127   28128   28128
       0   28130   28131   28131       0   28133   28134   28134       0   28136
   28137   28137       0   28139   28140   28140       0   28142   28143   28143
       0   28145   28146   28146       0   28148   28149   28149       0   28151
   28152   28152       0   28154   28155   28155       0   28157   28158   28158
       0   28160   28161   28161       0   28163   28164   28164       0   28166
   28167   28167       0   28169   28170   28170       0   28172   28173   28173
       0   28175   28176   28176       0   28178   28179   28179       0   28181
   28182   28182       0   28184   28185   28185       0   28187   28188   28188
       0   28190   28191   28191       0   28193   28194   28194       0   28196
   28197   28197       0   28199   28200   28200       0   28202   28203   28203
       0   28205   28206   28206       0   28208   28209   28209       0   28211
   28212   28212       0   28214   28215   28215       0   28217   28218   28218
       0   28220   28221   28221       0   28223   28224   28224       0   28226
   28227   28227       0   28229   28230   28230       0   28232   28233   28233
       0   28235   28236   28236       0   28238   28239   28239       0   28241
   28242   28242       0   28244   28245   28245       0   28247   28248   28248
       0   28250   28251   28251       0   28253   28254   28254       0   28256
   28257   28257       0   28259   28260   28260       0   28262   28263   28263
       0   28265   28266   28266       0   28268   28269   28269       0   28271
   28272   28272       0   28274   28275   28275       0   28277   28278   28278
       0   28280   28281   28281       0   28283   28284   28284       0   28286
   28287   28287       0   28289   28290   28290       0   28292   28293   28293
       0   28295   28296   28296       0   28298   28299   28299       0   28301
   28302   28302       0   28304   28305   28305       0   28307   28308   28308
       0   28310   28311   28311       0   28313   28314   28314       0   28316
   28317   28317       0   28319   28320   28320       0   28322   28323   28323
       0   28325   28326   28326       0   28328   28329   28329       0   28331
   28332   28332       0   28334   28335   28335       0   28337   28338   28338
       0   28340   28341   28341       0   28343   28344   28344       0   28346
   28347   28347       0   28349   28350   28350       0   28352   28353   28353
       0   28355   28356   28356       0   28358   28359   28359       0   28361
   28362   28362       0   28364   28365   28365       0   28367   28368   28368
       0   28370   28371   28371       0   28373   28374   28374       0   28376
   28377   28377       0   28379   28380   28380       0   28382   28383   28383
       0   28385   28386   28386       0   28388   28389   28389       0   28391
   28392   28392       0   28394   28395   28395       0   28397   28398   28398
       0   28400   28401   28401       0   28403   28404   28404       0   28406
   28407   28407       0   28409   28410   28410       0   28412   28413   28413
       0   28415   28416   28416       0   28418   28419   28419       0   28421
   28422   28422       0   28424   28425   28425       0   28427   28428   28428
       0   28430   28431   28431       0   28433   28434   28434       0   28436
   28437   28437       0   28439   28440   28440       0   28442   28443   28443
       0   28445   28446   28446       0   28448   28449   28449       0   28451
   28452   28452       0   28454   28455   28455       0   28457   28458   28458
       0   28460   28461   28461       0   28463   28464   28464       0   28466
   28467   28467       0   28469   28470   28470       0   28472   28473   28473
       0   28475   28476   28476       0   28478   28479   28479       0   28481
   28482   28482       0   28484   28485   28485       0   28487   28488   28488
       0   28490   28491   28491       0   28493   28494   28494       0   28496
   28497   28497       0   28499   28500   28500       0   28502   28503   28503
       0   28505   28506   28506       0   28508   28509   28509       0   28511
   28512   28512       0   28514   28515   28515       0   28517   28518   28518
       0   28520   28521   28521       0   28523   28524   28524       0   28526
   28527   28527       0   28529   28530   28530       0   28532   28533   28533
       0   28535   28536   28536       0   28538   28539   28539       0   28541
   28542   28542       0   28544   28545   28545       0   28547   28548   28548
       0   28550   28551   28551       0   28553   28554   28554       0   28556
   28557   28557       0   28559   28560   28560       0   28562   28563   28563
       0   28565   28566   28566       0   28568   28569   28569       0   28571
   28572   28572       0   28574   28575   28575       0   28577   28578   28578
       0   28580   28581   28581       0   28583   28584   28584       0   28586
   28587   28587       0   28589   28590   28590       0   28592   28593   28593
       0   28595   28596   28596       0   28598   28599   28599       0   28601
   28602   28602       0   28604   28605   28605       0   28607   28608   28608
       0   28610   28611   28611       0   28613   28614   28614       0   28616
   28617   28617       0   28619   28620   28620       0   28622   28623   28623
       0   28625   28626   28626       0   28628   28629   28629       0   28631
   28632   28632       0   28634   28635   28635       0   28637   28638   28638
       0   28640   28641   28641       0   28643   28644   28644       0   28646
   28647   28647       0   28649   28650   28650       0   28652   28653   28653
       0   28655   28656   28656       0   28658   28659   28659       0   28661
   28662   28662       0   28664   28665   28665       0   28667   28668   28668
       0   28670   28671   28671       0   28673   28674   28674       0   28676
   28677   28677       0   28679   28680   28680       0   28682   28683   28683
       0   28685   28686   28686       0   28688   28689   28689       0   28691
   28692   28692       0   28694   28695   28695       0   28697   28698   28698
       0   28700   28701   28701       0   28703   28704   28704       0   28706
   28707   28707       0   28709   28710   28710       0   28712   28713   28713
       0   28715   28716   28716       0   28718   28719   28719       0   28721
   28722   28722       0   28724   28725   28725       0   28727   28728   28728
       0   28730   28731   28731       0   28733   28734   28734       0   28736
   28737   28737       0   28739   28740   28740       0   28742   28743   28743
       0   28745   28746   28746       0   28748   28749   28749       0   28751
   28752   28752       0   28754   28755   28755       0   28757   28758   28758
       0   28760   28761   28761       0   28763   28764   28764       0   28766
   28767   28767       0   28769   28770   28770       0   28772   28773   28773
       0   28775   28776   28776       0   28778   28779   28779       0   28781
   28782   28782       0   28784   28785   28785       0   28787   28788   28788
       0   28790   28791   28791       0   28793   28794   28794       0   28796
   28797   28797       0   28799   28800   28800       0   28802   28803   28803
       0   28805   28806   28806       0   28808   28809   28809       0   28811
   28812   28812       0   28814   28815   28815       0   28817   28818   28818
       0   28820   28821   28821       0   28823   28824   28824       0   28826
   28827   28827       0   28829   28830   28830       0   28832   28833   28833
       0   28835   28836   28836       0   28838   28839   28839       0   28841
   28842   28842       0   28844   28845   28845       0   28847   28848   28848
       0   28850   28851   28851       0   28853   28854   28854       0   28856
   28857   28857       0   28859   28860   28860       0   28862   28863   28863
       0   28865   28866   28866       0   28868   28869   28869       0   28871
   28872   28872       0   28874   28875   28875       0   28877   28878   28878
       0   28880   28881   28881       0   28883   28884   28884       0   28886
   28887   28887       0   28889   28890   28890       0   28892   28893   28893
       0   28895   28896   28896       0   28898   28899   28899       0   28901
   28902   28902       0   28904   28905   28905       0   28907   28908   28908
       0   28910   28911   28911       0   28913   28914   28914       0   28916
   28917   28917       0   28919   28920   28920       0   28922   28923   28923
       0   28925   28926   28926       0   28928   28929   28929       0   28931
   28932   28932       0   28934   28935   28935       0   28937   28938   28938
       0   28940   28941   28941       0   28943   28944   28944       0   28946
   28947   28947       0   28949   28950   28950       0   28952   28953   28953
       0   28955   28956   28956       0   28958   28959   28959       0   28961
   28962   28962       0   28964   28965   28965       0   28967   28968   28968
       0   28970   28971   28971       0   28973   28974   28974       0   28976
   28977   28977       0   28979   28980   28980       0   28982   28983   28983
       0   28985   28986   28986       0   28988   28989   28989       0   28991
   28992   28992       0   28994   28995   28995       0   28997   28998   28998
       0   29000   29001   29001       0   29003   29004   29004       0   29006
   29007   29007       0   29009   29010   29010       0   29012   29013   29013
       0   29015   29016   29016       0   29018   29019   29019       0   29021
   29022   29022       0   29024   29025   29025       0   29027   29028   29028
       0   29030   29031   29031       0   29033   29034   29034       0   29036
   29037   29037       0   29039   29040   29040       0   29042   29043   29043
       0   29045   29046   29046       0   29048   29049   29049       0   29051
   29052   29052       0   29054   29055   29055       0   29057   29058   29058
       0   29060   29061   29061       0   29063   29064   29064       0   29066
   29067   29067       0   29069   29070   29070       0   29072   29073   29073
       0   29075   29076   29076       0   29078   29079   29079       0   29081
   29082   29082       0   29084   29085   29085       0   29087   29088   29088
       0   29090   29091   29091       0   29093   29094   29094       0   29096
   29097   29097       0   29099   29100   29100       0   29102   29103   29103
       0   29105   29106   29106       0   29108   29109   29109       0   29111
   29112   29112       0   29114   29115   29115       0   29117   29118   29118
       0   29120   29121   29121       0   29123   29124   29124       0   29126
   29127   29127       0   29129   29130   29130       0   29132   29133   29133
       0   29135   29136   29136       0   29138   29139   29139       0   29141
   29142   29142       0   29144   29145   29145       0   29147   29148   29148
       0   29150   29151   29151       0   29153   29154   29154       0   29156
   29157   29157       0   29159   29160   29160       0   29162   29163   29163
       0   29165   29166   29166       0   29168   29169   29169       0   29171
   29172   29172       0   29174   29175   29175       0   29177   29178   29178
       0   29180   29181   29181       0   29183   29184   29184       0   29186
   29187   29187       0   29189   29190   29190       0   29192   29193   29193
       0   29195   29196   29196       0   29198   29199   29199       0   29201
   29202   29202       0   29204   29205   29205       0   29207   29208   29208
       0   29210   29211   29211       0   29213   29214   29214       0   29216
   29217   29217       0   29219   29220   29220       0   29222   29223   29223
       0   29225   29226   29226       0   29228   29229   29229       0   29231
   29232   29232       0   29234   29235   29235       0   29237   29238   29238
       0   29240   29241   29241       0   29243   29244   29244       0   29246
   29247   29247       0   29249   29250   29250       0   29252   29253   29253
       0   29255   29256   29256       0   29258   29259   29259       0   29261
   29262   29262       0   29264   29265   29265       0   29267   29268   29268
       0   29270   29271   29271       0   29273   29274   29274       0   29276
   29277   29277       0   29279   29280   29280       0   29282   29283   29283
       0   29285   29286   29286       0   29288   29289   29289       0   29291
   29292   29292       0   29294   29295   29295       0   29297   29298   29298
       0   29300   29301   29301       0   29303   29304   29304       0   29306
   29307   29307       0   29309   29310   29310       0   29312   29313   29313
       0   29315   29316   29316       0   29318   29319   29319       0   29321
   29322   29322       0   29324   29325   29325       0   29327   29328   29328
       0   29330   29331   29331       0   29333   29334   29334       0   29336
   29337   29337       0   29339   29340   29340       0   29342   29343   29343
       0   29345   29346   29346       0   29348   29349   29349       0   29351
   29352   29352       0   29354   29355   29355       0   29357   29358   29358
       0   29360   29361   29361       0   29363   29364   29364       0   29366
   29367   29367       0   29369   29370   29370       0   29372   29373   29373
       0   29375   29376   29376       0   29378   29379   29379       0   29381
   29382   29382       0   29384   29385   29385       0   29387   29388   29388
       0   29390   29391   29391       0   29393   29394   29394       0   29396
   29397   29397       0   29399   29400   29400       0   29402   29403   29403
       0   29405   29406   29406       0   29408   29409   29409       0   29411
   29412   29412       0   29414   29415   29415       0   29417   29418   29418
       0   29420   29421   29421       0   29423   29424   29424       0   29426
   29427   29427       0   29429   29430   29430       0   29432   29433   29433
       0   29435   29436   29436       0   29438   29439   29439       0   29441
   29442   29442       0   29444   29445   29445       0   29447   29448   29448
       0   29450   29451   29451       0   29453   29454   29454       0   29456
   29457   29457       0   29459   29460   29460       0   29462   29463   29463
       0   29465   29466   29466       0   29468   29469   29469       0   29471
   29472   29472       0   29474   29475   29475       0   29477   29478   29478
       0   29480   29481   29481       0   29483   29484   29484       0   29486
   29487   29487       0   29489   29490   29490       0   29492   29493   29493
       0   29495   29496   29496       0   29498   29499   29499       0   29501
   29502   29502       0   29504   29505   29505       0   29507   29508   29508
       0   29510   29511   29511       0   29513   29514   29514       0   29516
   29517   29517       0   29519   29520   29520       0   29522   29523   29523
       0   29525   29526   29526       0   29528   29529   29529       0   29531
   29532   29532       0   29534   29535   29535       0   29537   29538   29538
       0   29540   29541   29541       0   29543   29544   29544       0   29546
   29547   29547       0   29549   29550   29550       0   29552   29553   29553
       0   29555   29556   29556       0   29558   29559   29559       0   29561
   29562   29562       0   29564   29565   29565       0   29567   29568   29568
       0   29570   29571   29571       0   29573   29574   29574       0   29576
   29577   29577       0   29579   29580   29580       0   29582   29583   29583
       0   29585   29586   29586       0   29588   29589   29589       0   29591
   29592   29592       0   29594   29595   29595       0   29597   29598   29598
       0   29600   29601   29601       0   29603   29604   29604       0   29606
   29607   29607       0   29609   29610   29610       0   29612   29613   29613
       0   29615   29616   29616       0   29618   29619   29619       0   29621
   29622   29622       0   29624   29625   29625       0   29627   29628   29628
       0   29630   29631   29631       0   29633   29634   29634       0   29636
   29637   29637       0   29639   29640   29640       0   29642   29643   29643
       0   29645   29646   29646       0   29648   29649   29649       0   29651
   29652   29652       0   29654   29655   29655       0   29657   29658   29658
       0   29660   29661   29661       0   29663   29664   29664       0   29666
   29667   29667       0   29669   29670   29670       0   29672   29673   29673
       0   29675   29676   29676       0   29678   29679   29679       0   29681
   29682   29682       0   29684   29685   29685       0   29687   29688   29688
       0   29690   29691   29691       0   29693   29694   29694       0   29696
   29697   29697       0   29699   29700   29700       0   29702   29703   29703
       0   29705   29706   29706       0   29708   29709   29709       0   29711
   29712   29712       0   29714   29715   29715       0   29717   29718   29718
       0   29720   29721   29721       0   29723   29724   29724       0   29726
   29727   29727       0   29729   29730   29730       0   29732   29733   29733
       0   29735   29736   29736       0   29738   29739   29739       0   29741
   29742   29742       0   29744   29745   29745       0   29747   29748   29748
       0   29750   29751   29751       0   29753   29754   29754       0   29756
   29757   29757       0   29759   29760   29760       0   29762   29763   29763
       0   29765   29766   29766       0   29768   29769   29769       0   29771
   29772   29772       0   29774   29775   29775       0   29777   29778   29778
       0   29780   29781   29781       0   29783   29784   29784       0   29786
   29787   29787       0   29789   29790   29790       0   29792   29793   29793
       0   29795   29796   29796       0   29798   29799   29799       0   29801
   29802   29802       0   29804   29805   29805       0   29807   29808   29808
       0   29810   29811   29811       0   29813   29814   29814       0   29816
   29817   29817       0   29819   29820   29820       0   29822   29823   29823
       0   29825   29826   29826       0   29828   29829   29829       0   29831
   29832   29832       0   29834   29835   29835       0   29837   29838   29838
       0   29840   29841   29841       0   29843   29844   29844       0   29846
   29847   29847       0   29849   29850   29850       0   29852   29853   29853
       0   29855   29856   29856       0   29858   29859   29859       0   29861
   29862   29862       0   29864   29865   29865       0   29867   29868   29868
       0   29870   29871   29871       0   29873   29874   29874       0   29876
   29877   29877       0   29879   29880   29880       0   29882   29883   29883
       0   29885   29886   29886       0   29888   29889   29889       0   29891
   29892   29892       0   29894   29895   29895       0   29897   29898   29898
       0   29900   29901   29901       0   29903   29904   29904       0   29906
   29907   29907       0   29909   29910   29910       0   29912   29913   29913
       0   29915   29916   29916       0   29918   29919   29919       0   29921
   29922   29922       0   29924   29925   29925       0   29927   29928   29928
       0   29930   29931   29931       0   29933   29934   29934       0   29936
   29937   29937       0   29939   29940   29940       0   29942   29943   29943
       0   29945   29946   29946       0   29948   29949   29949       0   29951
   29952   29952       0   29954   29955   29955       0   29957   29958   29958
       0   29960   29961   29961       0   29963   29964   29964       0   29966
   29967   29967       0   29969   29970   29970       0   29972   29973   29973
       0   29975   29976   29976       0   29978   29979   29979       0   29981
   29982   29982       0   29984   29985   29985       0   29987   29988   29988
       0   29990   29991   29991       0   29993   29994   29994       0   29996
   29997   29997       0   29999   30000   30000       0   30002   30003   30003
       0   30005   30006   30006       0   30008   30009   30009       0   30011
   30012   30012       0   30014   30015   30015       0   30017   30018   30018
       0   30020   30021   30021       0   30023   30024   30024       0   30026
   30027   30027       0   30029   30030   30030       0   30032   30033   30033
       0   30035   30036   30036       0   30038   30039   30039       0   30041
   30042   30042       0   30044   30045   30045       0   30047   30048   30048
       0   30050   30051   30051       0   30053   30054   30054       0   30056
   30057   30057       0   30059   30060   30060       0   30062   30063   30063
       0   30065   30066   30066       0   30068   30069   30069       0   30071
   30072   30072       0   30074   30075   30075       0   30077   30078   30078
       0   30080   30081   30081       0   30083   30084   30084       0   30086
   30087   30087       0   30089   30090   30090       0   30092   30093   30093
       0   30095   30096   30096       0   30098   30099   30099       0   30101
   30102   30102       0   30104   30105   30105       0   30107   30108   30108
       0   30110   30111   30111       0   30113   30114   30114       0   30116
   30117   30117       0   30119   30120   30120       0   30122   30123   30123
       0   30125   30126   30126       0   30128   30129   30129       0   30131
   30132   30132       0   30134   30135   30135       0   30137   30138   30138
       0   30140   30141   30141       0   30143   30144   30144       0   30146
   30147   30147       0   30149   30150   30150       0   30152   30153   30153
       0   30155   30156   30156       0   30158   30159   30159       0   30161
   30162   30162       0   30164   30165   30165       0   30167   30168   30168
       0   30170   30171   30171       0   30173   30174   30174       0   30176
   30177   30177       0   30179   30180   30180       0   30182   30183   30183
       0   30185   30186   30186       0   30188   30189   30189       0   30191
   30192   30192       0   30194   30195   30195       0   30197   30198   30198
       0   30200   30201   30201       0   30203   30204   30204       0   30206
   30207   30207       0   30209   30210   30210       0   30212   30213   30213
       0   30215   30216   30216       0   30218   30219   30219       0   30221
   30222   30222       0   30224   30225   30225       0   30227   30228   30228
       0   30230   30231   30231       0   30233   30234   30234       0   30236
   30237   30237       0   30239   30240   30240       0   30242   30243   30243
       0   30245   30246   30246       0   30248   30249   30249       0   30251
   30252   30252       0   30254   30255   30255       0   30257   30258   30258
       0   30260   30261   30261       0   30263   30264   30264       0   30266
   30267   30267       0   30269   30270   30270       0   30272   30273   30273
       0   30275   30276   30276       0   30278   30279   30279       0   30281
   30282   30282       0   30284   30285   30285       0   30287   30288   30288
       0   30290   30291   30291       0   30293   30294   30294       0   30296
   30297   30297       0   30299   30300   30300       0   30302   30303   30303
       0   30305   30306   30306       0   30308   30309   30309       0   30311
   30312   30312       0   30314   30315   30315       0   30317   30318   30318
       0   30320   30321   30321       0   30323   30324   30324       0   30326
   30327   30327       0   30329   30330   30330       0   30332   30333   30333
       0   30335   30336   30336       0   30338   30339   30339       0   30341
   30342   30342       0   30344   30345   30345       0   30347   30348   30348
       0   30350   30351   30351       0   30353   30354   30354       0   30356
   30357   30357       0   30359   30360   30360       0   30362   30363   30363
       0   30365   30366   30366       0   30368   30369   30369       0   30371
   30372   30372       0   30374   30375   30375       0   30377   30378   30378
       0   30380   30381   30381       0   30383   30384   30384       0   30386
   30387   30387       0   30389   30390   30390       0   30392   30393   30393
       0   30395   30396   30396       0   30398   30399   30399       0   30401
   30402   30402       0   30404   30405   30405       0   30407   30408   30408
       0   30410   30411   30411       0   30413   30414   30414       0   30416
   30417   30417       0   30419   30420   30420       0   30422   30423   30423
       0   30425   30426   30426       0   30428   30429   30429       0   30431
   30432   30432       0   30434   30435   30435       0   30437   30438   30438
       0   30440   30441   30441       0   30443   30444   30444       0   30446
   30447   30447       0   30449   30450   30450       0   30452   30453   30453
       0   30455   30456   30456       0   30458   30459   30459       0   30461
   30462   30462       0   30464   30465   30465       0   30467   30468   30468
       0   30470   30471   30471       0   30473   30474   30474       0   30476
   30477   30477       0   30479   30480   30480       0   30482   30483   30483
       0   30485   30486   30486       0   30488   30489   30489       0   30491
   30492   30492       0   30494   30495   30495       0   30497   30498   30498
       0   30500   30501   30501       0   30503   30504   30504       0   30506
   30507   30507       0   30509   30510   30510       0   30512   30513   30513
       0   30515   30516   30516       0   30518   30519   30519       0   30521
   30522   30522       0   30524   30525   30525       0   30527   30528   30528
       0   30530   30531   30531       0   30533   30534   30534       0   30536
   30537   30537       0   30539   30540   30540       0   30542   30543   30543
       0   30545   30546   30546       0   30548   30549   30549       0   30551
   30552   30552       0   30554   30555   30555       0   30557   30558   30558
       0   30560   30561   30561       0   30563   30564   30564       0   30566
   30567   30567       0   30569   30570   30570       0   30572   30573   30573
       0   30575   30576   30576       0   30578   30579   30579       0   30581
   30582   30582       0   30584   30585   30585       0   30587   30588   30588
       0   30590   30591   30591       0   30593   30594   30594       0   30596
   30597   30597       0   30599   30600   30600       0   30602   30603   30603
       0   30605   30606   30606       0   30608   30609   30609       0   30611
   30612   30612       0   30614   30615   30615       0   30617   30618   30618
       0   30620   30621   30621       0   30623   30624   30624       0   30626
   30627   30627       0   30629   30630   30630       0   30632   30633   30633
       0   30635   30636   30636       0   30638   30639   30639       0   30641
   30642   30642       0   30644   30645   30645       0   30647   30648   30648
       0   30650   30651   30651       0   30653   30654   30654       0   30656
   30657   30657       0   30659   30660   30660       0   30662   30663   30663
       0   30665   30666   30666       0   30668   30669   30669       0   30671
   30672   30672       0   30674   30675   30675       0   30677   30678   30678
       0   30680   30681   30681       0   30683   30684   30684       0   30686
   30687   30687       0   30689   30690   30690       0   30692   30693   30693
       0   30695   30696   30696       0   30698   30699   30699       0   30701
   30702   30702       0   30704   30705   30705       0   30707   30708   30708
       0   30710   30711   30711       0   30713   30714   30714       0   30716
   30717   30717       0   30719   30720   30720       0   30722   30723   30723
       0   30725   30726   30726       0   30728   30729   30729       0   30731
   30732   30732       0   30734   30735   30735       0   30737   30738   30738
       0   30740   30741   30741       0   30743   30744   30744       0   30746
   30747   30747       0   30749   30750   30750       0   30752   30753   30753
       0   30755   30756   30756       0   30758   30759   30759       0   30761
   30762   30762       0   30764   30765   30765       0   30767   30768   30768
       0   30770   30771   30771       0   30773   30774   30774       0   30776
   30777   30777       0   30779   30780   30780       0   30782   30783   30783
       0   30785   30786   30786       0   30788   30789   30789       0   30791
   30792   30792       0   30794   30795   30795       0   30797   30798   30798
       0   30800   30801   30801       0   30803   30804   30804       0   30806
   30807   30807       0   30809   30810   30810       0   30812   30813   30813
       0   30815   30816   30816       0   30818   30819   30819       0   30821
   30822   30822       0   30824   30825   30825       0   30827   30828   30828
       0   30830   30831   30831       0   30833   30834   30834       0   30836
   30837   30837       0   30839   30840   30840       0   30842   30843   30843
       0   30845   30846   30846       0   30848   30849   30849       0   30851
   30852   30852       0   30854   30855   30855       0   30857   30858   30858
       0   30860   30861   30861       0   30863   30864   30864       0   30866
   30867   30867       0   30869   30870   30870       0   30872   30873   30873
       0   30875   30876   30876       0   30878   30879   30879       0   30881
   30882   30882       0   30884   30885   30885       0   30887   30888   30888
       0   30890   30891   30891       0   30893   30894   30894       0   30896
   30897   30897       0   30899   30900   30900       0   30902   30903   30903
       0   30905   30906   30906       0   30908   30909   30909       0   30911
   30912   30912       0   30914   30915   30915       0   30917   30918   30918
       0   30920   30921   30921       0   30923   30924   30924       0   30926
   30927   30927       0   30929   30930   30930       0   30932   30933   30933
       0   30935   30936   30936       0   30938   30939   30939       0   30941
   30942   30942       0   30944   30945   30945       0   30947   30948   30948
       0   30950   30951   30951       0   30953   30954   30954       0   30956
   30957   30957       0   30959   30960   30960       0   30962   30963   30963
       0   30965   30966   30966       0   30968   30969   30969       0   30971
   30972   30972       0   30974   30975   30975       0   30977   30978   30978
       0   30980   30981   30981       0   30983   30984   30984       0   30986
   30987   30987       0   30989   30990   30990       0   30992   30993   30993
       0   30995   30996   30996       0   30998   30999   30999       0   31001
   31002   31002       0   31004   31005   31005       0   31007   31008   31008
       0   31010   31011   31011       0   31013   31014   31014       0   31016
   31017   31017       0   31019   31020   31020       0   31022   31023   31023
       0   31025   31026   31026       0   31028   31029   31029       0   31031
   31032   31032       0   31034   31035   31035       0   31037   31038   31038
       0   31040   31041   31041       0   31043   31044   31044       0   31046
   31047   31047       0   31049   31050   31050       0   31052   31053   31053
       0   31055   31056   31056       0   31058   31059   31059       0   31061
   31062   31062       0   31064   31065   31065       0   31067   31068   31068
       0   31070   31071   31071       0   31073   31074   31074       0   31076
   31077   31077       0   31079   31080   31080       0   31082   31083   31083
       0   31085   31086   31086       0   31088   31089   31089       0   31091
   31092   31092       0   31094   31095   31095       0   31097   31098   31098
       0   31100   31101   31101       0   31103   31104   31104       0   31106
   31107   31107       0   31109   31110   31110       0   31112   31113   31113
       0   31115   31116   31116       0   31118   31119   31119       0   31121
   31122   31122       0   31124   31125   31125       0   31127   31128   31128
       0   31130   31131   31131       0   31133   31134   31134       0   31136
   31137   31137       0   31139   31140   31140       0   31142   31143   31143
       0   31145   31146   31146       0   31148   31149   31149       0   31151
   31152   31152       0   31154   31155   31155       0   31157   31158   31158
       0   31160   31161   31161       0   31163   31164   31164       0   31166
   31167   31167       0   31169   31170   31170       0   31172   31173   31173
       0   31175   31176   31176       0   31178   31179   31179       0   31181
   31182   31182       0   31184   31185   31185       0   31187   31188   31188
       0   31190   31191   31191       0   31193   31194   31194       0   31196
   31197   31197       0   31199   31200   31200       0   31202   31203   31203
       0   31205   31206   31206       0   31208   31209   31209       0   31211
   31212   31212       0   31214   31215   31215       0   31217   31218   31218
       0   31220   31221   31221       0   31223   31224   31224       0   31226
   31227   31227       0   31229   31230   31230       0   31232   31233   31233
       0   31235   31236   31236       0   31238   31239   31239       0   31241
   31242   31242       0   31244   31245   31245       0   31247   31248   31248
       0   31250   31251   31251       0   31253   31254   31254       0   31256
   31257   31257       0   31259   31260   31260       0   31262   31263   31263
       0   31265   31266   31266       0   31268   31269   31269       0   31271
   31272   31272       0   31274   31275   31275       0   31277   31278   31278
       0   31280   31281   31281       0   31283   31284   31284       0   31286
   31287   31287       0   31289   31290   31290       0   31292   31293   31293
       0   31295   31296   31296       0   31298   31299   31299       0   31301
   31302   31302       0   31304   31305   31305       0   31307   31308   31308
       0   31310   31311   31311       0   31313   31314   31314       0   31316
   31317   31317       0   31319   31320   31320       0   31322   31323   31323
       0   31325   31326   31326       0   31328   31329   31329       0   31331
   31332   31332       0   31334   31335   31335       0   31337   31338   31338
       0   31340   31341   31341       0   31343   31344   31344       0   31346
   31347   31347       0   31349   31350   31350       0   31352   31353   31353
       0   31355   31356   31356       0   31358   31359   31359       0   31361
   31362   31362       0   31364   31365   31365       0   31367   31368   31368
       0   31370   31371   31371       0   31373   31374   31374       0   31376
   31377   31377       0   31379   31380   31380       0   31382   31383   31383
       0   31385   31386   31386       0   31388   31389   31389       0   31391
   31392   31392       0   31394   31395   31395       0   31397   31398   31398
       0   31400   31401   31401       0   31403   31404   31404       0   31406
   31407   31407       0   31409   31410   31410       0   31412   31413   31413
       0   31415   31416   31416       0   31418   31419   31419       0   31421
   31422   31422       0   31424   31425   31425       0   31427   31428   31428
       0   31430   31431   31431       0   31433   31434   31434       0   31436
   31437   31437       0   31439   31440   31440       0   31442   31443   31443
       0   31445   31446   31446       0   31448   31449   31449       0   31451
   31452   31452       0   31454   31455   31455       0   31457   31458   31458
       0   31460   31461   31461       0   31463   31464   31464       0   31466
   31467   31467       0   31469   31470   31470       0   31472   31473   31473
       0   31475   31476   31476       0   31478   31479   31479       0   31481
   31482   31482       0   31484   31485   31485       0   31487   31488   31488
       0   31490   31491   31491       0   31493   31494   31494       0   31496
   31497   31497       0   31499   31500   31500       0   31502   31503   31503
       0   31505   31506   31506       0   31508   31509   31509       0   31511
   31512   31512       0   31514   31515   31515       0   31517   31518   31518
       0   31520   31521   31521       0   31523   31524   31524       0   31526
   31527   31527       0   31529   31530   31530       0   31532   31533   31533
       0   31535   31536   31536       0   31538   31539   31539       0   31541
   31542   31542       0   31544   31545   31545       0   31547   31548   31548
       0   31550   31551   31551       0   31553   31554   31554       0   31556
   31557   31557       0   31559   31560   31560       0   31562   31563   31563
       0   31565   31566   31566       0   31568   31569   31569       0   31571
   31572   31572       0   31574   31575   31575       0   31577   31578   31578
       0   31580   31581   31581       0   31583   31584   31584       0   31586
   31587   31587       0   31589   31590   31590       0   31592   31593   31593
       0   31595   31596   31596       0   31598   31599   31599       0   31601
   31602   31602       0   31604   31605   31605       0   31607   31608   31608
       0   31610   31611   31611       0   31613   31614   31614       0   31616
   31617   31617       0   31619   31620   31620       0   31622   31623   31623
       0   31625   31626   31626       0   31628   31629   31629       0   31631
   31632   31632       0   31634   31635   31635       0   31637   31638   31638
       0   31640   31641   31641       0   31643   31644   31644       0   31646
   31647   31647       0   31649   31650   31650       0   31652   31653   31653
       0   31655   31656   31656       0   31658   31659   31659       0   31661
   31662   31662       0   31664   31665   31665       0   31667   31668   31668
       0   31670   31671   31671       0   31673   31674   31674       0   31676
   31677   31677       0   31679   31680   31680       0   31682   31683   31683
       0   31685   31686   31686       0   31688   31689   31689       0   31691
   31692   31692       0   31694   31695   31695       0   31697   31698   31698
       0   31700   31701   31701       0   31703   31704   31704       0   31706
   31707   31707       0   31709   31710   31710       0   31712   31713   31713
       0   31715   31716   31716       0   31718   31719   31719       0   31721
   31722   31722       0   31724   31725   31725       0   31727   31728   31728
       0   31730   31731   31731       0   31733   31734   31734       0   31736
   31737   31737       0   31739   31740   31740       0   31742   31743   31743
       0   31745   31746   31746       0   31748   31749   31749       0   31751
   31752   31752       0   31754   31755   31755       0   31757   31758   31758
       0   31760   31761   31761       0   31763   31764   31764       0   31766
   31767   31767       0   31769   31770   31770       0   31772   31773   31773
       0   31775   31776   31776       0   31778   31779   31779       0   31781
   31782   31782       0   31784   31785   31785       0   31787   31788   31788
       0   31790   31791   31791       0   31793   31794   31794       0   31796
   31797   31797       0   31799   31800   31800       0   31802   31803   31803
       0   31805   31806   31806       0   31808   31809   31809       0   31811
   31812   31812       0   31814   31815   31815       0   31817   31818   31818
       0   31820   31821   31821       0   31823   31824   31824       0   31826
   31827   31827       0   31829   31830   31830       0   31832   31833   31833
       0   31835   31836   31836       0   31838   31839   31839       0   31841
   31842   31842       0   31844   31845   31845       0   31847   31848   31848
       0   31850   31851   31851       0   31853   31854   31854       0   31856
   31857   31857       0   31859   31860   31860       0   31862   31863   31863
       0   31865   31866   31866       0   31868   31869   31869       0   31871
   31872   31872       0   31874   31875   31875       0   31877   31878   31878
       0   31880   31881   31881       0   31883   31884   31884       0   31886
   31887   31887       0   31889   31890   31890       0   31892   31893   31893
       0   31895   31896   31896       0   31898   31899   31899       0   31901
   31902   31902       0   31904   31905   31905       0   31907   31908   31908
       0   31910   31911   31911       0   31913   31914   31914       0   31916
   31917   31917       0   31919   31920   31920       0   31922   31923   31923
       0   31925   31926   31926       0   31928   31929   31929       0   31931
   31932   31932       0   31934   31935   31935       0   31937   31938   31938
       0   31940   31941   31941       0   31943   31944   31944       0   31946
   31947   31947       0   31949   31950   31950       0   31952   31953   31953
       0   31955   31956   31956       0   31958   31959   31959       0   31961
   31962   31962       0   31964   31965   31965       0   31967   31968   31968
       0   31970   31971   31971       0   31973   31974   31974       0   31976
   31977   31977       0   31979   31980   31980       0   31982   31983   31983
       0   31985   31986   31986       0   31988   31989   31989       0   31991
   31992   31992       0   31994   31995   31995       0   31997   31998   31998
       0   32000   32001   32001       0   32003   32004   32004       0   32006
   32007   32007       0   32009   32010   32010       0   32012   32013   32013
       0   32015   32016   32016       0   32018   32019   32019       0   32021
   32022   32022       0   32024   32025   32025       0   32027   32028   32028
       0   32030   32031   32031       0   32033   32034   32034       0   32036
   32037   32037       0   32039   32040   32040       0   32042   32043   32043
       0   32045   32046   32046       0   32048   32049   32049       0   32051
   32052   32052       0   32054   32055   32055       0   32057   32058   32058
       0   32060   32061   32061       0   32063   32064   32064       0   32066
   32067   32067       0   32069   32070   32070       0   32072   32073   32073
       0   32075   32076   32076       0   32078   32079   32079       0   32081
   32082   32082       0   32084   32085   32085       0   32087   32088   32088
       0   32090   32091   32091       0   32093   32094   32094       0   32096
   32097   32097       0   32099   32100   32100       0   32102   32103   32103
       0   32105   32106   32106       0   32108   32109   32109       0   32111
   32112   32112       0   32114   32115   32115       0   32117   32118   32118
       0   32120   32121   32121       0   32123   32124   32124       0   32126
   32127   32127       0   32129   32130   32130       0   32132   32133   32133
       0   32135   32136   32136       0   32138   32139   32139       0   32141
   32142   32142       0   32144   32145   32145       0   32147   32148   32148
       0   32150   32151   32151       0   32153   32154   32154       0   32156
   32157   32157       0   32159   32160   32160       0   32162   32163   32163
       0   32165   32166   32166       0   32168   32169   32169       0   32171
   32172   32172       0   32174   32175   32175       0   32177   32178   32178
       0   32180   32181   32181       0   32183   32184   32184       0   32186
   32187   32187       0   32189   32190   32190       0   32192   32193   32193
       0   32195   32196   32196       0   32198   32199   32199       0   32201
   32202   32202       0   32204   32205   32205       0   32207   32208   32208
       0   32210   32211   32211       0   32213   32214   32214       0   32216
   32217   32217       0   32219   32220   32220       0   32222   32223   32223
       0   32225   32226   32226       0   32228   32229   32229       0   32231
   32232   32232       0   32234   32235   32235       0   32237   32238   32238
       0   32240   32241   32241       0   32243   32244   32244       0   32246
   32247   32247       0   32249   32250   32250       0   32252   32253   32253
       0   32255   32256   32256       0   32258   32259   32259       0   32261
   32262   32262       0   32264   32265   32265       0   32267   32268   32268
       0   32270   32271   32271       0   32273   32274   32274       0   32276
   32277   32277       0   32279   32280   32280       0   32282   32283   32283
       0   32285   32286   32286       0   32288   32289   32289       0   32291
   32292   32292       0   32294   32295   32295       0   32297   32298   32298
       0   32300   32301   32301       0   32303   32304   32304       0   32306
   32307   32307       0   32309   32310   32310       0   32312   32313   32313
       0   32315   32316   32316       0   32318   32319   32319       0   32321
   32322   32322       0   32324   32325   32325       0   32327   32328   32328
       0   32330   32331   32331       0   32333   32334   32334       0   32336
   32337   32337       0   32339   32340   32340       0   32342   32343   32343
       0   32345   32346   32346       0   32348   32349   32349       0   32351
   32352   32352       0   32354   32355   32355       0   32357   32358   32358
       0   32360   32361   32361       0   32363   32364   32364       0   32366
   32367   32367       0   32369   32370   32370       0   32372   32373   32373
       0   32375   32376   32376       0   32378   32379   32379       0   32381
   32382   32382       0   32384   32385   32385       0   32387   32388   32388
       0   32390   32391   32391       0   32393   32394   32394       0   32396
   32397   32397       0   32399   32400   32400       0   32402   32403   32403
       0   32405   32406   32406       0   32408   32409   32409       0   32411
   32412   32412       0   32414   32415   32415       0   32417   32418   32418
       0   32420   32421   32421       0   32423   32424   32424       0   32426
   32427   32427       0   32429   32430   32430       0   32432   32433   32433
       0   32435   32436   32436       0   32438   32439   32439       0   32441
   32442   32442       0   32444   32445   32445       0   32447   32448   32448
       0   32450   32451   32451       0   32453   32454   32454       0   32456
   32457   32457       0   32459   32460   32460       0   32462   32463   32463
       0   32465   32466   32466       0   32468   32469   32469       0   32471
   32472   32472       0   32474   32475   32475       0   32477   32478   32478
       0   32480   32481   32481       0   32483   32484   32484       0   32486
   32487   32487       0   32489   32490   32490       0   32492   32493   32493
       0   32495   32496   32496       0   32498   32499   32499       0   32501
   32502   32502       0   32504   32505   32505       0   32507   32508   32508
       0   32510   32511   32511       0   32513   32514   32514       0   32516
   32517   32517       0   32519   32520   32520       0   32522   32523   32523
       0   32525   32526   32526       0   32528   32529   32529       0   32531
   32532   32532       0   32534   32535   32535       0   32537   32538   32538
       0   32540   32541   32541       0   32543   32544   32544       0   32546
   32547   32547       0   32549   32550   32550       0   32552   32553   32553
       0   32555   32556   32556       0   32558   32559   32559       0   32561
   32562   32562       0   32564   32565   32565       0   32567   32568   32568
       0   32570   32571   32571       0   32573   32574   32574       0   32576
   32577   32577       0   32579   32580   32580       0   32582   32583   32583
       0   32585   32586   32586       0   32588   32589   32589       0   32591
   32592   32592       0   32594   32595   32595       0   32597   32598   32598
       0   32600   32601   32601       0   32603   32604   32604       0   32606
   32607   32607       0   32609   32610   32610       0   32612   32613   32613
       0   32615   32616   32616       0   32618   32619   32619       0   32621
   32622   32622       0   32624   32625   32625       0   32627   32628   32628
       0   32630   32631   32631       0   32633   32634   32634       0   32636
   32637   32637       0   32639   32640   32640       0   32642   32643   32643
       0   32645   32646   32646       0   32648   32649   32649       0   32651
   32652   32652       0   32654   32655   32655       0   32657   32658   32658
       0   32660   32661   32661       0   32663   32664   32664       0   32666
   32667   32667       0   32669   32670   32670       0   32672   32673   32673
       0   32675   32676   32676       0   32678   32679   32679       0   32681
   32682   32682       0   32684   32685   32685       0   32687   32688   32688
       0   32690   32691   32691       0   32693   32694   32694       0   32696
   32697   32697       0   32699   32700   32700       0   32702   32703   32703
       0   32705   32706   32706       0   32708   32709   32709       0   32711
   32712   32712       0   32714   32715   32715       0   32717   32718   32718
       0   32720   32721   32721       0   32723   32724   32724       0   32726
   32727   32727       0   32729   32730   32730       0   32732   32733   32733
       0   32735   32736   32736       0   32738   32739   32739       0   32741
   32742   32742       0   32744   32745   32745       0   32747   32748   32748
       0   32750   32751   32751       0   32753   32754   32754       0   32756
   32757   32757       0   32759   32760   32760       0   32762   32763   32763
       0   32765   32766   32766       0   32768   32769   32769       0   32771
   32772   32772       0   32774   32775   32775       0   32777   32778   32778
       0   32780   32781   32781       0   32783   32784   32784       0   32786
   32787   32787       0   32789   32790   32790       0   32792   32793   32793
       0   32795   32796   32796       0   32798   32799   32799       0   32801
   32802   32802       0   32804   32805   32805       0   32807   32808   32808
       0   32810   32811   32811       0   32813   32814   32814       0   32816
   32817   32817       0   32819   32820   32820       0   32822   32823   32823
       0   32825   32826   32826       0   32828   32829   32829       0   32831
   32832   32832       0   32834   32835   32835       0   32837   32838   32838
       0   32840   32841   32841       0   32843   32844   32844       0   32846
   32847   32847       0   32849   32850   32850       0   32852   32853   32853
       0   32855   32856   32856       0   32858   32859   32859       0   32861
   32862   32862       0   32864   32865   32865       0   32867   32868   32868
       0   32870   32871   32871       0   32873   32874   32874       0   32876
   32877   32877       0   32879   32880   32880       0   32882   32883   32883
       0   32885   32886   32886       0   32888   32889   32889       0   32891
   32892   32892       0   32894   32895   32895       0   32897   32898   32898
       0   32900   32901   32901       0   32903   32904   32904       0   32906
   32907   32907       0   32909   32910   32910       0   32912   32913   32913
       0   32915   32916   32916       0   32918   32919   32919       0   32921
   32922   32922       0   32924   32925   32925       0   32927   32928   32928
       0   32930   32931   32931       0   32933   32934   32934       0   32936
   32937   32937       0   32939   32940   32940       0   32942   32943   32943
       0   32945   32946   32946       0   32948   32949   32949       0   32951
   32952   32952       0   32954   32955   32955       0   32957   32958   32958
       0   32960   32961   32961       0   32963   32964   32964       0   32966
   32967   32967       0   32969   32970   32970       0   32972   32973   32973
       0   32975   32976   32976       0   32978   32979   32979       0   32981
   32982   32982       0   32984   32985   32985       0   32987   32988   32988
       0   32990   32991   32991       0   32993   32994   32994       0   32996
   32997   32997       0   32999   33000   33000       0   33002   33003   33003
       0   33005   33006   33006       0   33008   33009   33009       0   33011
   33012   33012       0   33014   33015   33015       0   33017   33018   33018
       0   33020   33021   33021       0   33023   33024   33024       0   33026
   33027   33027       0   33029   33030   33030       0   33032   33033   33033
       0   33035   33036   33036       0   33038   33039   33039       0   33041
   33042   33042       0   33044   33045   33045       0   33047   33048   33048
       0   33050   33051   33051       0   33053   33054   33054       0   33056
   33057   33057       0   33059   33060   33060       0   33062   33063   33063
       0   33065   33066   33066       0   33068   33069   33069       0   33071
   33072   33072       0   33074   33075   33075       0   33077   33078   33078
       0   33080   33081   33081       0   33083   33084   33084       0   33086
   33087   33087       0   33089   33090   33090       0   33092   33093   33093
       0   33095   33096   33096       0   33098   33099   33099       0   33101
   33102   33102       0   33104   33105   33105       0   33107   33108   33108
       0   33110   33111   33111       0   33113   33114   33114       0   33116
   33117   33117       0   33119   33120   33120       0   33122   33123   33123
       0   33125   33126   33126       0   33128   33129   33129       0   33131
   33132   33132       0   33134   33135   33135       0   33137   33138   33138
       0   33140   33141   33141       0   33143   33144   33144       0   33146
   33147   33147       0   33149   33150   33150       0   33152   33153   33153
       0   33155   33156   33156       0   33158   33159   33159       0   33161
   33162   33162       0   33164   33165   33165       0   33167   33168   33168
       0   33170   33171   33171       0   33173   33174   33174       0   33176
   33177   33177       0   33179   33180   33180       0   33182   33183   33183
       0   33185   33186   33186       0   33188   33189   33189       0   33191
   33192   33192       0   33194   33195   33195       0   33197   33198   33198
       0   33200   33201   33201       0   33203   33204   33204       0   33206
   33207   33207       0   33209   33210   33210       0   33212   33213   33213
       0   33215   33216   33216       0   33218   33219   33219       0   33221
   33222   33222       0   33224   33225   33225       0   33227   33228   33228
       0   33230   33231   33231       0   33233   33234   33234       0   33236
   33237   33237       0   33239   33240   33240       0   33242   33243   33243
       0   33245   33246   33246       0   33248   33249   33249       0   33251
   33252   33252       0   33254   33255   33255       0   33257   33258   33258
       0   33260   33261   33261       0   33263   33264   33264       0   33266
   33267   33267       0   33269   33270   33270       0   33272   33273   33273
       0   33275   33276   33276       0   33278   33279   33279       0   33281
   33282   33282       0   33284   33285   33285       0   33287   33288   33288
       0   33290   33291   33291       0   33293   33294   33294       0   33296
   33297   33297       0   33299   33300   33300       0   33302   33303   33303
       0   33305   33306   33306       0   33308   33309   33309       0   33311
   33312   33312       0   33314   33315   33315       0   33317   33318   33318
       0   33320   33321   33321       0   33323   33324   33324       0   33326
   33327   33327       0   33329   33330   33330       0   33332   33333   33333
       0   33335   33336   33336       0   33338   33339   33339       0   33341
   33342   33342       0   33344   33345   33345       0   33347   33348   33348
       0   33350   33351   33351       0   33353   33354   33354       0   33356
   33357   33357       0   33359   33360   33360       0   33362   33363   33363
       0   33365   33366   33366       0   33368   33369   33369       0   33371
   33372   33372       0   33374   33375   33375       0   33377   33378   33378
       0   33380   33381   33381       0   33383   33384   33384       0   33386
   33387   33387       0   33389   33390   33390       0   33392   33393   33393
       0   33395   33396   33396       0   33398   33399   33399       0   33401
   33402   33402       0   33404   33405   33405       0   33407   33408   33408
       0   33410   33411   33411       0   33413   33414   33414       0   33416
   33417   33417       0   33419   33420   33420       0   33422   33423   33423
       0   33425   33426   33426       0   33428   33429   33429       0   33431
   33432   33432       0   33434   33435   33435       0   33437   33438   33438
       0   33440   33441   33441       0   33443   33444   33444       0   33446
   33447   33447       0   33449   33450   33450       0   33452   33453   33453
       0   33455   33456   33456       0   33458   33459   33459       0   33461
   33462   33462       0   33464   33465   33465       0   33467   33468   33468
       0   33470   33471   33471       0   33473   33474   33474       0   33476
   33477   33477       0   33479   33480   33480       0   33482   33483   33483
       0   33485   33486   33486       0   33488   33489   33489       0   33491
   33492   33492       0   33494   33495   33495       0   33497   33498   33498
       0   33500   33501   33501       0   33503   33504   33504       0   33506
   33507   33507       0   33509   33510   33510       0   33512   33513   33513
       0   33515   33516   33516       0   33518   33519   33519       0   33521
   33522   33522       0   33524   33525   33525       0   33527   33528   33528
       0   33530   33531   33531       0   33533   33534   33534       0   33536
   33537   33537       0   33539   33540   33540       0   33542   33543   33543
       0   33545   33546   33546       0   33548   33549   33549       0   33551
   33552   33552       0   33554   33555   33555       0   33557   33558   33558
       0   33560   33561   33561       0   33563   33564   33564       0   33566
   33567   33567       0   33569   33570   33570       0   33572   33573   33573
       0   33575   33576   33576       0   33578   33579   33579       0   33581
   33582   33582       0   33584   33585   33585       0   33587   33588   33588
       0   33590   33591   33591       0   33593   33594   33594       0   33596
   33597   33597       0   33599   33600   33600       0   33602   33603   33603
       0   33605   33606   33606       0   33608   33609   33609       0   33611
   33612   33612       0   33614   33615   33615       0   33617   33618   33618
       0   33620   33621   33621       0   33623   33624   33624       0   33626
   33627   33627       0   33629   33630   33630       0   33632   33633   33633
       0   33635   33636   33636       0   33638   33639   33639       0   33641
   33642   33642       0   33644   33645   33645       0   33647   33648   33648
       0   33650   33651   33651       0   33653   33654   33654       0   33656
   33657   33657       0   33659   33660   33660       0   33662   33663   33663
       0   33665   33666   33666       0   33668   33669   33669       0   33671
   33672   33672       0   33674   33675   33675       0   33677   33678   33678
       0   33680   33681   33681       0   33683   33684   33684       0   33686
   33687   33687       0   33689   33690   33690       0   33692   33693   33693
       0   33695   33696   33696       0   33698   33699   33699       0   33701
   33702   33702       0   33704   33705   33705       0   33707   33708   33708
       0   33710   33711   33711       0   33713   33714   33714       0   33716
   33717   33717       0   33719   33720   33720       0   33722   33723   33723
       0   33725   33726   33726       0   33728   33729   33729       0   33731
   33732   33732       0   33734   33735   33735       0   33737   33738   33738
       0   33740   33741   33741       0   33743   33744   33744       0   33746
   33747   33747       0   33749   33750   33750       0   33752   33753   33753
       0   33755   33756   33756       0   33758   33759   33759       0   33761
   33762   33762       0   33764   33765   33765       0   33767   33768   33768
       0   33770   33771   33771       0   33773   33774   33774       0   33776
   33777   33777       0   33779   33780   33780       0   33782   33783   33783
       0   33785   33786   33786       0   33788   33789   33789       0   33791
   33792   33792       0   33794   33795   33795       0   33797   33798   33798
       0   33800   33801   33801       0   33803   33804   33804       0   33806
   33807   33807       0   33809   33810   33810       0   33812   33813   33813
       0   33815   33816   33816       0   33818   33819   33819       0   33821
   33822   33822       0   33824   33825   33825       0   33827   33828   33828
       0   33830   33831   33831       0   33833   33834   33834       0   33836
   33837   33837       0   33839   33840   33840       0   33842   33843   33843
       0   33845   33846   33846       0   33848   33849   33849       0   33851
   33852   33852       0   33854   33855   33855       0   33857   33858   33858
       0   33860   33861   33861       0   33863   33864   33864       0   33866
   33867   33867       0   33869   33870   33870       0   33872   33873   33873
       0   33875   33876   33876       0   33878   33879   33879       0   33881
   33882   33882       0   33884   33885   33885       0   33887   33888   33888
       0   33890   33891   33891       0   33893   33894   33894       0   33896
   33897   33897       0   33899   33900   33900       0   33902   33903   33903
       0   33905   33906   33906       0   33908   33909   33909       0   33911
   33912   33912       0   33914   33915   33915       0   33917   33918   33918
       0   33920   33921   33921       0   33923   33924   33924       0   33926
   33927   33927       0   33929   33930   33930       0   33932   33933   33933
       0   33935   33936   33936       0   33938   33939   33939       0   33941
   33942   33942       0   33944   33945   33945       0   33947   33948   33948
       0   33950   33951   33951       0   33953   33954   33954       0   33956
   33957   33957       0   33959   33960   33960       0   33962   33963   33963
       0   33965   33966   33966       0   33968   33969   33969       0   33971
   33972   33972       0   33974   33975   33975       0   33977   33978   33978
       0   33980   33981   33981       0   33983   33984   33984       0   33986
   33987   33987       0   33989   33990   33990       0   33992   33993   33993
       0   33995   33996   33996       0   33998   33999   33999       0   34001
   34002   34002       0   34004   34005   34005       0   34007   34008   34008
       0   34010   34011   34011       0   34013   34014   34014       0   34016
   34017   34017       0   34019   34020   34020       0   34022   34023   34023
       0   34025   34026   34026       0   34028   34029   34029       0   34031
   34032   34032       0   34034   34035   34035       0   34037   34038   34038
       0   34040   34041   34041       0   34043   34044   34044       0   34046
   34047   34047       0   34049   34050   34050       0   34052   34053   34053
       0   34055   34056   34056       0   34058   34059   34059       0   34061
   34062   34062       0   34064   34065   34065       0   34067   34068   34068
       0   34070   34071   34071       0   34073   34074   34074       0   34076
   34077   34077       0   34079   34080   34080       0   34082   34083   34083
       0   34085   34086   34086       0   34088   34089   34089       0   34091
   34092   34092       0   34094   34095   34095       0   34097   34098   34098
       0   34100   34101   34101       0   34103   34104   34104       0   34106
   34107   34107       0   34109   34110   34110       0   34112   34113   34113
       0   34115   34116   34116       0   34118   34119   34119       0   34121
   34122   34122       0   34124   34125   34125       0   34127   34128   34128
       0   34130   34131   34131       0   34133   34134   34134       0   34136
   34137   34137       0   34139   34140   34140       0   34142   34143   34143
       0   34145   34146   34146       0   34148   34149   34149       0   34151
   34152   34152       0   34154   34155   34155       0   34157   34158   34158
       0   34160   34161   34161       0   34163   34164   34164       0   34166
   34167   34167       0   34169   34170   34170       0   34172   34173   34173
       0   34175   34176   34176       0   34178   34179   34179       0   34181
   34182   34182       0   34184   34185   34185       0   34187   34188   34188
       0   34190   34191   34191       0   34193   34194   34194       0   34196
   34197   34197       0   34199   34200   34200       0   34202   34203   34203
       0   34205   34206   34206       0   34208   34209   34209       0   34211
   34212   34212       0   34214   34215   34215       0   34217   34218   34218
       0   34220   34221   34221       0   34223   34224   34224       0   34226
   34227   34227       0   34229   34230   34230       0   34232   34233   34233
       0   34235   34236   34236       0   34238   34239   34239       0   34241
   34242   34242       0   34244   34245   34245       0   34247   34248   34248
       0   34250   34251   34251       0   34253   34254   34254       0   34256
   34257   34257       0   34259   34260   34260       0   34262   34263   34263
       0   34265   34266   34266       0   34268   34269   34269       0   34271
   34272   34272       0   34274   34275   34275       0   34277   34278   34278
       0   34280   34281   34281       0   34283   34284   34284       0   34286
   34287   34287       0   34289   34290   34290       0   34292   34293   34293
       0   34295   34296   34296       0   34298   34299   34299       0   34301
   34302   34302       0   34304   34305   34305       0   34307   34308   34308
       0   34310   34311   34311       0   34313   34314   34314       0   34316
   34317   34317       0   34319   34320   34320       0   34322   34323   34323
       0   34325   34326   34326       0   34328   34329   34329       0   34331
   34332   34332       0   34334   34335   34335       0   34337   34338   34338
       0   34340   34341   34341       0   34343   34344   34344       0   34346
   34347   34347       0   34349   34350   34350       0   34352   34353   34353
       0   34355   34356   34356       0   34358   34359   34359       0   34361
   34362   34362       0   34364   34365   34365       0   34367   34368   34368
       0   34370   34371   34371       0   34373   34374   34374       0   34376
   34377   34377       0   34379   34380   34380       0   34382   34383   34383
       0   34385   34386   34386       0   34388   34389   34389       0   34391
   34392   34392       0   34394   34395   34395       0   34397   34398   34398
       0   34400   34401   34401       0   34403   34404   34404       0   34406
   34407   34407       0   34409   34410   34410       0   34412   34413   34413
       0   34415   34416   34416       0   34418   34419   34419       0   34421
   34422   34422       0   34424   34425   34425       0   34427   34428   34428
       0   34430   34431   34431       0   34433   34434   34434       0   34436
   34437   34437       0   34439   34440   34440       0   34442   34443   34443
       0   34445   34446   34446       0   34448   34449   34449       0   34451
   34452   34452       0   34454   34455   34455       0   34457   34458   34458
       0   34460   34461   34461       0   34463   34464   34464       0   34466
   34467   34467       0   34469   34470   34470       0   34472   34473   34473
       0   34475   34476   34476       0   34478   34479   34479       0   34481
   34482   34482       0   34484   34485   34485       0   34487   34488   34488
       0   34490   34491   34491       0   34493   34494   34494       0   34496
   34497   34497       0   34499   34500   34500       0   34502   34503   34503
       0   34505   34506   34506       0   34508   34509   34509       0   34511
   34512   34512       0   34514   34515   34515       0   34517   34518   34518
       0   34520   34521   34521       0   34523   34524   34524       0   34526
   34527   34527       0   34529   34530   34530       0   34532   34533   34533
       0   34535   34536   34536       0   34538   34539   34539       0   34541
   34542   34542       0   34544   34545   34545       0   34547   34548   34548
       0   34550   34551   34551       0   34553   34554   34554       0   34556
   34557   34557       0   34559   34560   34560       0   34562   34563   34563
       0   34565   34566   34566       0   34568   34569   34569       0   34571
   34572   34572       0   34574   34575   34575       0   34577   34578   34578
       0   34580   34581   34581       0   34583   34584   34584       0   34586
   34587   34587       0   34589   34590   34590       0   34592   34593   34593
       0   34595   34596   34596       0   34598   34599   34599       0   34601
   34602   34602       0   34604   34605   34605       0   34607   34608   34608
       0   34610   34611   34611       0   34613   34614   34614       0   34616
   34617   34617       0   34619   34620   34620       0   34622   34623   34623
       0   34625   34626   34626       0   34628   34629   34629       0   34631
   34632   34632       0   34634   34635   34635       0   34637   34638   34638
       0   34640   34641   34641       0   34643   34644   34644       0   34646
   34647   34647       0   34649   34650   34650       0   34652   34653   34653
       0   34655   34656   34656       0   34658   34659   34659       0   34661
   34662   34662       0   34664   34665   34665       0   34667   34668   34668
       0   34670   34671   34671       0   34673   34674   34674       0   34676
   34677   34677       0   34679   34680   34680       0   34682   34683   34683
       0   34685   34686   34686       0   34688   34689   34689       0   34691
   34692   34692       0   34694   34695   34695       0   34697   34698   34698
       0   34700   34701   34701       0   34703   34704   34704       0   34706
   34707   34707       0   34709   34710   34710       0   34712   34713   34713
       0   34715   34716   34716       0   34718   34719   34719       0   34721
   34722   34722       0   34724   34725   34725       0   34727   34728   34728
       0   34730   34731   34731       0   34733   34734   34734       0   34736
   34737   34737       0   34739   34740   34740       0   34742   34743   34743
       0   34745   34746   34746       0   34748   34749   34749       0   34751
   34752   34752       0   34754   34755   34755       0   34757   34758   34758
       0   34760   34761   34761       0   34763   34764   34764       0   34766
   34767   34767       0   34769   34770   34770       0   34772   34773   34773
       0   34775   34776   34776       0   34778   34779   34779       0   34781
   34782   34782       0   34784   34785   34785       0   34787   34788   34788
       0   34790   34791   34791       0   34793   34794   34794       0   34796
   34797   34797       0   34799   34800   34800       0   34802   34803   34803
       0   34805   34806   34806       0   34808   34809   34809       0   34811
   34812   34812       0   34814   34815   34815       0   34817   34818   34818
       0   34820   34821   34821       0   34823   34824   34824       0   34826
   34827   34827       0   34829   34830   34830       0   34832   34833   34833
       0   34835   34836   34836       0   34838   34839   34839       0   34841
   34842   34842       0   34844   34845   34845       0   34847   34848   34848
       0   34850   34851   34851       0   34853   34854   34854       0   34856
   34857   34857       0   34859   34860   34860       0   34862   34863   34863
       0   34865   34866   34866       0   34868   34869   34869       0   34871
   34872   34872       0   34874   34875   34875       0   34877   34878   34878
       0   34880   34881   34881       0   34883   34884   34884       0   34886
   34887   34887       0   34889   34890   34890       0   34892   34893   34893
       0   34895   34896   34896       0   34898   34899   34899       0   34901
   34902   34902       0   34904   34905   34905       0   34907   34908   34908
       0   34910   34911   34911       0   34913   34914   34914       0   34916
   34917   34917       0   34919   34920   34920       0   34922   34923   34923
       0   34925   34926   34926       0   34928   34929   34929       0   34931
   34932   34932       0   34934   34935   34935       0   34937   34938   34938
       0   34940   34941   34941       0   34943   34944   34944       0   34946
   34947   34947       0   34949   34950   34950       0   34952   34953   34953
       0   34955   34956   34956       0   34958   34959   34959       0   34961
   34962   34962       0   34964   34965   34965       0   34967   34968   34968
       0   34970   34971   34971       0   34973   34974   34974       0   34976
   34977   34977       0   34979   34980   34980       0   34982   34983   34983
       0   34985   34986   34986       0   34988   34989   34989       0   34991
   34992   34992       0   34994   34995   34995       0   34997   34998   34998
       0   35000   35001   35001       0   35003   35004   35004       0   35006
   35007   35007       0   35009   35010   35010       0   35012   35013   35013
       0   35015   35016   35016       0   35018   35019   35019       0   35021
   35022   35022       0   35024   35025   35025       0   35027   35028   35028
       0   35030   35031   35031       0   35033   35034   35034       0   35036
   35037   35037       0   35039   35040   35040       0   35042   35043   35043
       0   35045   35046   35046       0   35048   35049   35049       0   35051
   35052   35052       0   35054   35055   35055       0   35057   35058   35058
       0   35060   35061   35061       0   35063   35064   35064       0   35066
   35067   35067       0   35069   35070   35070       0   35072   35073   35073
       0   35075   35076   35076       0   35078   35079   35079       0   35081
   35082   35082       0   35084   35085   35085       0   35087   35088   35088
       0   35090   35091   35091       0   35093   35094   35094       0   35096
   35097   35097       0   35099   35100   35100       0   35102   35103   35103
       0   35105   35106   35106       0   35108   35109   35109       0   35111
   35112   35112       0   35114   35115   35115       0   35117   35118   35118
       0   35120   35121   35121       0   35123   35124   35124       0   35126
   35127   35127       0   35129   35130   35130       0   35132   35133   35133
       0   35135   35136   35136       0   35138   35139   35139       0   35141
   35142   35142       0   35144   35145   35145       0   35147   35148   35148
       0   35150   35151   35151       0   35153   35154   35154       0   35156
   35157   35157       0   35159   35160   35160       0   35162   35163   35163
       0   35165   35166   35166       0   35168   35169   35169       0   35171
   35172   35172       0   35174   35175   35175       0   35177   35178   35178
       0   35180   35181   35181       0   35183   35184   35184       0   35186
   35187   35187       0   35189   35190   35190       0   35192   35193   35193
       0   35195   35196   35196       0   35198   35199   35199       0   35201
   35202   35202       0   35204   35205   35205       0   35207   35208   35208
       0   35210   35211   35211       0   35213   35214   35214       0   35216
   35217   35217       0   35219   35220   35220       0   35222   35223   35223
       0   35225   35226   35226       0   35228   35229   35229       0   35231
   35232   35232       0   35234   35235   35235       0   35237   35238   35238
       0   35240   35241   35241       0   35243   35244   35244       0   35246
   35247   35247       0   35249   35250   35250       0   35252   35253   35253
       0   35255   35256   35256       0   35258   35259   35259       0   35261
   35262   35262       0   35264   35265   35265       0   35267   35268   35268
       0   35270   35271   35271       0   35273   35274   35274       0   35276
   35277   35277       0   35279   35280   35280       0   35282   35283   35283
       0   35285   35286   35286       0   35288   35289   35289       0   35291
   35292   35292       0   35294   35295   35295       0   35297   35298   35298
       0   35300   35301   35301       0   35303   35304   35304       0   35306
   35307   35307       0   35309   35310   35310       0   35312   35313   35313
       0   35315   35316   35316       0   35318   35319   35319       0   35321
   35322   35322       0   35324   35325   35325       0   35327   35328   35328
       0   35330   35331   35331       0   35333   35334   35334       0   35336
   35337   35337       0   35339   35340   35340       0   35342   35343   35343
       0   35345   35346   35346       0   35348   35349   35349       0   35351
   35352   35352       0   35354   35355   35355       0   35357   35358   35358
       0   35360   35361   35361       0   35363   35364   35364       0   35366
   35367   35367       0   35369   35370   35370       0   35372   35373   35373
       0   35375   35376   35376       0   35378   35379   35379       0   35381
   35382   35382       0   35384   35385   35385       0   35387   35388   35388
       0   35390   35391   35391       0   35393   35394   35394       0   35396
   35397   35397       0   35399   35400   35400       0   35402   35403   35403
       0   35405   35406   35406       0   35408   35409   35409       0   35411
   35412   35412       0   35414   35415   35415       0   35417   35418   35418
       0   35420   35421   35421       0   35423   35424   35424       0   35426
   35427   35427       0   35429   35430   35430       0   35432   35433   35433
       0   35435   35436   35436       0   35438   35439   35439       0   35441
   35442   35442       0   35444   35445   35445       0   35447   35448   35448
       0   35450   35451   35451       0   35453   35454   35454       0   35456
   35457   35457       0   35459   35460   35460       0   35462   35463   35463
       0   35465   35466   35466       0   35468   35469   35469       0   35471
   35472   35472       0   35474   35475   35475       0   35477   35478   35478
       0   35480   35481   35481       0   35483   35484   35484       0   35486
   35487   35487       0   35489   35490   35490       0   35492   35493   35493
       0   35495   35496   35496       0   35498   35499   35499       0   35501
   35502   35502       0   35504   35505   35505       0   35507   35508   35508
       0   35510   35511   35511       0   35513   35514   35514       0   35516
   35517   35517       0   35519   35520   35520       0   35522   35523   35523
       0   35525   35526   35526       0   35528   35529   35529       0   35531
   35532   35532       0   35534   35535   35535       0   35537   35538   35538
       0   35540   35541   35541       0   35543   35544   35544       0   35546
   35547   35547       0   35549   35550   35550       0   35552   35553   35553
       0   35555   35556   35556       0   35558   35559   35559       0   35561
   35562   35562       0   35564   35565   35565       0   35567   35568   35568
       0   35570   35571   35571       0   35573   35574   35574       0   35576
   35577   35577       0   35579   35580   35580       0   35582   35583   35583
       0   35585   35586   35586       0   35588   35589   35589       0   35591
   35592   35592       0   35594   35595   35595       0   35597   35598   35598
       0   35600   35601   35601       0   35603   35604   35604       0   35606
   35607   35607       0   35609   35610   35610       0   35612   35613   35613
       0   35615   35616   35616       0   35618   35619   35619       0   35621
   35622   35622       0   35624   35625   35625       0   35627   35628   35628
       0   35630   35631   35631       0   35633   35634   35634       0   35636
   35637   35637       0   35639   35640   35640       0   35642   35643   35643
       0   35645   35646   35646       0   35648   35649   35649       0   35651
   35652   35652       0   35654   35655   35655       0   35657   35658   35658
       0   35660   35661   35661       0   35663   35664   35664       0   35666
   35667   35667       0   35669   35670   35670       0   35672   35673   35673
       0   35675   35676   35676       0   35678   35679   35679       0   35681
   35682   35682       0   35684   35685   35685       0   35687   35688   35688
       0   35690   35691   35691       0   35693   35694   35694       0   35696
   35697   35697       0   35699   35700   35700       0   35702   35703   35703
       0   35705   35706   35706       0   35708   35709   35709       0   35711
   35712   35712       0   35714   35715   35715       0   35717   35718   35718
       0   35720   35721   35721       0   35723   35724   35724       0   35726
   35727   35727       0   35729   35730   35730       0   35732   35733   35733
       0   35735   35736   35736       0   35738   35739   35739       0   35741
   35742   35742       0   35744   35745   35745       0   35747   35748   35748
       0   35750   35751   35751       0   35753   35754   35754       0   35756
   35757   35757       0   35759   35760   35760       0   35762   35763   35763
       0   35765   35766   35766       0   35768   35769   35769       0   35771
   35772   35772       0   35774   35775   35775       0   35777   35778   35778
       0   35780   35781   35781       0   35783   35784   35784       0   35786
   35787   35787       0   35789   35790   35790       0   35792   35793   35793
       0   35795   35796   35796       0   35798   35799   35799       0   35801
   35802   35802       0   35804   35805   35805       0   35807   35808   35808
       0   35810   35811   35811       0   35813   35814   35814       0   35816
   35817   35817       0   35819   35820   35820       0   35822   35823   35823
       0   35825   35826   35826       0   35828   35829   35829       0   35831
   35832   35832       0   35834   35835   35835       0   35837   35838   35838
       0   35840   35841   35841       0   35843   35844   35844       0   35846
   35847   35847       0   35849   35850   35850       0   35852   35853   35853
       0   35855   35856   35856       0   35858   35859   35859       0   35861
   35862   35862       0   35864   35865   35865       0   35867   35868   35868
       0   35870   35871   35871       0   35873   35874   35874       0   35876
   35877   35877       0   35879   35880   35880       0   35882   35883   35883
       0   35885   35886   35886       0   35888   35889   35889       0   35891
   35892   35892       0   35894   35895   35895       0   35897   35898   35898
       0   35900   35901   35901       0   35903   35904   35904       0   35906
   35907   35907       0   35909   35910   35910       0   35912   35913   35913
       0   35915   35916   35916       0   35918   35919   35919       0   35921
   35922   35922       0   35924   35925   35925       0   35927   35928   35928
       0   35930   35931   35931       0   35933   35934   35934       0   35936
   35937   35937       0   35939   35940   35940       0   35942   35943   35943
       0   35945   35946   35946       0   35948   35949   35949       0   35951
   35952   35952       0   35954   35955   35955       0   35957   35958   35958
       0   35960   35961   35961       0   35963   35964   35964       0   35966
   35967   35967       0   35969   35970   35970       0   35972   35973   35973
       0   35975   35976   35976       0   35978   35979   35979       0   35981
   35982   35982       0   35984   35985   35985       0   35987   35988   35988
       0   35990   35991   35991       0   35993   35994   35994       0   35996
   35997   35997       0   35999   36000   36000       0   36002   36003   36003
       0   36005   36006   36006       0   36008   36009   36009       0   36011
   36012   36012       0   36014   36015   36015       0   36017   36018   36018
       0   36020   36021   36021       0   36023   36024   36024       0   36026
   36027   36027       0   36029   36030   36030       0   36032   36033   36033
       0   36035   36036   36036       0   36038   36039   36039       0   36041
   36042   36042       0   36044   36045   36045       0   36047   36048   36048
       0   36050   36051   36051       0   36053   36054   36054       0   36056
   36057   36057       0   36059   36060   36060       0   36062   36063   36063
       0   36065   36066   36066       0   36068   36069   36069       0   36071
   36072   36072       0   36074   36075   36075       0   36077   36078   36078
       0   36080   36081   36081       0   36083   36084   36084       0   36086
   36087   36087       0   36089   36090   36090       0   36092   36093   36093
       0   36095   36096   36096       0   36098   36099   36099       0   36101
   36102   36102       0   36104   36105   36105       0   36107   36108   36108
       0   36110   36111   36111       0   36113   36114   36114       0   36116
   36117   36117       0   36119   36120   36120       0   36122   36123   36123
       0   36125   36126   36126       0   36128   36129   36129       0   36131
   36132   36132       0   36134   36135   36135       0   36137   36138   36138
       0   36140   36141   36141       0   36143   36144   36144       0   36146
   36147   36147       0   36149   36150   36150       0   36152   36153   36153
       0   36155   36156   36156       0   36158   36159   36159       0   36161
   36162   36162       0   36164   36165   36165       0   36167   36168   36168
       0   36170   36171   36171       0   36173   36174   36174       0   36176
   36177   36177       0   36179   36180   36180       0   36182   36183   36183
       0   36185   36186   36186       0   36188   36189   36189       0   36191
   36192   36192       0   36194   36195   36195       0   36197   36198   36198
       0   36200   36201   36201       0   36203   36204   36204       0   36206
   36207   36207       0   36209   36210   36210       0   36212   36213   36213
       0   36215   36216   36216       0   36218   36219   36219       0   36221
   36222   36222       0   36224   36225   36225       0   36227   36228   36228
       0   36230   36231   36231       0   36233   36234   36234       0   36236
   36237   36237       0   36239   36240   36240       0   36242   36243   36243
       0   36245   36246   36246       0   36248   36249   36249       0   36251
   36252   36252       0   36254   36255   36255       0   36257   36258   36258
       0   36260   36261   36261       0   36263   36264   36264       0   36266
   36267   36267       0   36269   36270   36270       0   36272   36273   36273
       0   36275   36276   36276       0   36278   36279   36279       0   36281
   36282   36282       0   36284   36285   36285       0   36287   36288   36288
       0   36290   36291   36291       0   36293   36294   36294       0   36296
   36297   36297       0   36299   36300   36300       0   36302   36303   36303
       0   36305   36306   36306       0   36308   36309   36309       0   36311
   36312   36312       0   36314   36315   36315       0   36317   36318   36318
       0   36320   36321   36321       0   36323   36324   36324       0   36326
   36327   36327       0   36329   36330   36330       0   36332   36333   36333
       0   36335   36336   36336       0   36338   36339   36339       0   36341
   36342   36342       0   36344   36345   36345       0   36347   36348   36348
       0   36350   36351   36351       0   36353   36354   36354       0   36356
   36357   36357       0   36359   36360   36360       0   36362   36363   36363
       0   36365   36366   36366       0   36368   36369   36369       0   36371
   36372   36372       0   36374   36375   36375       0   36377   36378   36378
       0   36380   36381   36381       0   36383   36384   36384       0   36386
   36387   36387       0   36389   36390   36390       0   36392   36393   36393
       0   36395   36396   36396       0   36398   36399   36399       0   36401
   36402   36402       0   36404   36405   36405       0   36407   36408   36408
       0   36410   36411   36411       0   36413   36414   36414       0   36416
   36417   36417       0   36419   36420   36420       0   36422   36423   36423
       0   36425   36426   36426       0   36428   36429   36429       0   36431
   36432   36432       0   36434   36435   36435       0   36437   36438   36438
       0   36440   36441   36441       0   36443   36444   36444       0   36446
   36447   36447       0   36449   36450   36450       0   36452   36453   36453
       0   36455   36456   36456       0   36458   36459   36459       0   36461
   36462   36462       0   36464   36465   36465       0   36467   36468   36468
       0   36470   36471   36471       0   36473   36474   36474       0   36476
   36477   36477       0   36479   36480   36480       0   36482   36483   36483
       0   36485   36486   36486       0   36488   36489   36489       0   36491
   36492   36492       0   36494   36495   36495       0   36497   36498   36498
       0   36500   36501   36501       0   36503   36504   36504       0   36506
   36507   36507       0   36509   36510   36510       0   36512   36513   36513
       0   36515   36516   36516       0   36518   36519   36519       0   36521
   36522   36522       0   36524   36525   36525       0   36527   36528   36528
       0   36530   36531   36531       0   36533   36534   36534       0   36536
   36537   36537       0   36539   36540   36540       0   36542   36543   36543
       0   36545   36546   36546       0   36548   36549   36549       0   36551
   36552   36552       0   36554   36555   36555       0   36557   36558   36558
       0   36560   36561   36561       0   36563   36564   36564       0   36566
   36567   36567       0   36569   36570   36570       0   36572   36573   36573
       0   36575   36576   36576       0   36578   36579   36579       0   36581
   36582   36582       0   36584   36585   36585       0   36587   36588   36588
       0   36590   36591   36591       0   36593   36594   36594       0   36596
   36597   36597       0   36599   36600   36600       0   36602   36603   36603
       0   36605   36606   36606       0   36608   36609   36609       0   36611
   36612   36612       0   36614   36615   36615       0   36617   36618   36618
       0   36620   36621   36621       0   36623   36624   36624       0   36626
   36627   36627       0   36629   36630   36630       0   36632   36633   36633
       0   36635   36636   36636       0   36638   36639   36639       0   36641
   36642   36642       0   36644   36645   36645       0   36647   36648   36648
       0   36650   36651   36651       0   36653   36654   36654       0   36656
   36657   36657       0   36659   36660   36660       0   36662   36663   36663
       0   36665   36666   36666       0   36668   36669   36669       0   36671
   36672   36672       0   36674   36675   36675       0   36677   36678   36678
       0   36680   36681   36681       0   36683   36684   36684       0   36686
   36687   36687       0   36689   36690   36690       0   36692   36693   36693
       0   36695   36696   36696       0   36698   36699   36699       0   36701
   36702   36702       0   36704   36705   36705       0   36707   36708   36708
       0   36710   36711   36711       0   36713   36714   36714       0   36716
   36717   36717       0   36719   36720   36720       0   36722   36723   36723
       0   36725   36726   36726       0   36728   36729   36729       0   36731
   36732   36732       0   36734   36735   36735       0   36737   36738   36738
       0   36740   36741   36741       0   36743   36744   36744       0   36746
   36747   36747       0   36749   36750   36750       0   36752   36753   36753
       0   36755   36756   36756       0   36758   36759   36759       0   36761
   36762   36762       0   36764   36765   36765       0   36767   36768   36768
       0   36770   36771   36771       0   36773   36774   36774       0   36776
   36777   36777       0   36779   36780   36780       0   36782   36783   36783
       0   36785   36786   36786       0   36788   36789   36789       0   36791
   36792   36792       0   36794   36795   36795       0   36797   36798   36798
       0   36800   36801   36801       0   36803   36804   36804       0   36806
   36807   36807       0   36809   36810   36810       0   36812   36813   36813
       0   36815   36816   36816       0   36818   36819   36819       0   36821
   36822   36822       0   36824   36825   36825       0   36827   36828   36828
       0   36830   36831   36831       0   36833   36834   36834       0   36836
   36837   36837       0   36839   36840   36840       0   36842   36843   36843
       0   36845   36846   36846       0   36848   36849   36849       0   36851
   36852   36852       0   36854   36855   36855       0   36857   36858   36858
       0   36860   36861   36861       0   36863   36864   36864       0   36866
   36867   36867       0   36869   36870   36870       0   36872   36873   36873
       0   36875   36876   36876       0   36878   36879   36879       0   36881
   36882   36882       0   36884   36885   36885       0   36887   36888   36888
       0   36890   36891   36891       0   36893   36894   36894       0   36896
   36897   36897       0   36899   36900   36900       0   36902   36903   36903
       0   36905   36906   36906       0   36908   36909   36909       0   36911
   36912   36912       0   36914   36915   36915       0   36917   36918   36918
       0   36920   36921   36921       0   36923   36924   36924       0   36926
   36927   36927       0   36929   36930   36930       0   36932   36933   36933
       0   36935   36936   36936       0   36938   36939   36939       0   36941
   36942   36942       0   36944   36945   36945       0   36947   36948   36948
       0   36950   36951   36951       0   36953   36954   36954       0   36956
   36957   36957       0   36959   36960   36960       0   36962   36963   36963
       0   36965   36966   36966       0   36968   36969   36969       0   36971
   36972   36972       0   36974   36975   36975       0   36977   36978   36978
       0   36980   36981   36981       0   36983   36984   36984       0   36986
   36987   36987       0   36989   36990   36990       0   36992   36993   36993
       0   36995   36996   36996       0   36998   36999   36999       0   37001
   37002   37002       0   37004   37005   37005       0   37007   37008   37008
       0   37010   37011   37011       0   37013   37014   37014       0   37016
   37017   37017       0   37019   37020   37020       0   37022   37023   37023
       0   37025   37026   37026       0   37028   37029   37029       0   37031
   37032   37032       0   37034   37035   37035       0   37037   37038   37038
       0   37040   37041   37041       0   37043   37044   37044       0   37046
   37047   37047       0   37049   37050   37050       0   37052   37053   37053
       0   37055   37056   37056       0   37058   37059   37059       0   37061
   37062   37062       0   37064   37065   37065       0   37067   37068   37068
       0   37070   37071   37071       0   37073   37074   37074       0   37076
   37077   37077       0   37079   37080   37080       0   37082   37083   37083
       0   37085   37086   37086       0   37088   37089   37089       0   37091
   37092   37092       0   37094   37095   37095       0   37097   37098   37098
       0   37100   37101   37101       0   37103   37104   37104       0   37106
   37107   37107       0   37109   37110   37110       0   37112   37113   37113
       0   37115   37116   37116       0   37118   37119   37119       0   37121
   37122   37122       0   37124   37125   37125       0   37127   37128   37128
       0   37130   37131   37131       0   37133   37134   37134       0   37136
   37137   37137       0   37139   37140   37140       0   37142   37143   37143
       0   37145   37146   37146       0   37148   37149   37149       0   37151
   37152   37152       0   37154   37155   37155       0   37157   37158   37158
       0   37160   37161   37161       0   37163   37164   37164       0   37166
   37167   37167       0   37169   37170   37170       0   37172   37173   37173
       0   37175   37176   37176       0   37178   37179   37179       0   37181
   37182   37182       0   37184   37185   37185       0   37187   37188   37188
       0   37190   37191   37191       0   37193   37194   37194       0   37196
   37197   37197       0   37199   37200   37200       0   37202   37203   37203
       0   37205   37206   37206       0   37208   37209   37209       0   37211
   37212   37212       0   37214   37215   37215       0   37217   37218   37218
       0   37220   37221   37221       0   37223   37224   37224       0   37226
   37227   37227       0   37229   37230   37230       0   37232   37233   37233
       0   37235   37236   37236       0   37238   37239   37239       0   37241
   37242   37242       0   37244   37245   37245       0   37247   37248   37248
       0   37250   37251   37251       0   37253   37254   37254       0   37256
   37257   37257       0   37259   37260   37260       0   37262   37263   37263
       0   37265   37266   37266       0   37268   37269   37269       0   37271
   37272   37272       0   37274   37275   37275       0   37277   37278   37278
       0   37280   37281   37281       0   37283   37284   37284       0   37286
   37287   37287       0   37289   37290   37290       0   37292   37293   37293
       0   37295   37296   37296       0   37298   37299   37299       0   37301
   37302   37302       0   37304   37305   37305       0   37307   37308   37308
       0   37310   37311   37311       0   37313   37314   37314       0   37316
   37317   37317       0   37319   37320   37320       0   37322   37323   37323
       0   37325   37326   37326       0   37328   37329   37329       0   37331
   37332   37332       0   37334   37335   37335       0   37337   37338   37338
       0   37340   37341   37341       0   37343   37344   37344       0   37346
   37347   37347       0   37349   37350   37350       0   37352   37353   37353
       0   37355   37356   37356       0   37358   37359   37359       0   37361
   37362   37362       0   37364   37365   37365       0   37367   37368   37368
       0   37370   37371   37371       0   37373   37374   37374       0   37376
   37377   37377       0   37379   37380   37380       0   37382   37383   37383
       0   37385   37386   37386       0   37388   37389   37389       0   37391
   37392   37392       0   37394   37395   37395       0   37397   37398   37398
       0   37400   37401   37401       0   37403   37404   37404       0   37406
   37407   37407       0   37409   37410   37410       0   37412   37413   37413
       0   37415   37416   37416       0   37418   37419   37419       0   37421
   37422   37422       0   37424   37425   37425       0   37427   37428   37428
       0   37430   37431   37431       0   37433   37434   37434       0   37436
   37437   37437       0   37439   37440   37440       0   37442   37443   37443
       0   37445   37446   37446       0   37448   37449   37449       0   37451
   37452   37452       0   37454   37455   37455       0   37457   37458   37458
       0   37460   37461   37461       0   37463   37464   37464       0   37466
   37467   37467       0   37469   37470   37470       0   37472   37473   37473
       0   37475   37476   37476       0   37478   37479   37479       0   37481
   37482   37482       0   37484   37485   37485       0   37487   37488   37488
       0   37490   37491   37491       0   37493   37494   37494       0   37496
   37497   37497       0   37499   37500   37500       0   37502   37503   37503
       0   37505   37506   37506       0   37508   37509   37509       0   37511
   37512   37512       0   37514   37515   37515       0   37517   37518   37518
       0   37520   37521   37521       0   37523   37524   37524       0   37526
   37527   37527       0   37529   37530   37530       0   37532   37533   37533
       0   37535   37536   37536       0   37538   37539   37539       0   37541
   37542   37542       0   37544   37545   37545       0   37547   37548   37548
       0   37550   37551   37551       0   37553   37554   37554       0   37556
   37557   37557       0   37559   37560   37560       0   37562   37563   37563
       0   37565   37566   37566       0   37568   37569   37569       0   37571
   37572   37572       0   37574   37575   37575       0   37577   37578   37578
       0   37580   37581   37581       0   37583   37584   37584       0   37586
   37587   37587       0   37589   37590   37590       0   37592   37593   37593
       0   37595   37596   37596       0   37598   37599   37599       0   37601
   37602   37602       0   37604   37605   37605       0   37607   37608   37608
       0   37610   37611   37611       0   37613   37614   37614       0   37616
   37617   37617       0   37619   37620   37620       0   37622   37623   37623
       0   37625   37626   37626       0   37628   37629   37629       0   37631
   37632   37632       0   37634   37635   37635       0   37637   37638   37638
       0   37640   37641   37641       0   37643   37644   37644       0   37646
   37647   37647       0   37649   37650   37650       0   37652   37653   37653
       0   37655   37656   37656       0   37658   37659   37659       0   37661
   37662   37662       0   37664   37665   37665       0   37667   37668   37668
       0   37670   37671   37671       0   37673   37674   37674       0   37676
   37677   37677       0   37679   37680   37680       0   37682   37683   37683
       0   37685   37686   37686       0   37688   37689   37689       0   37691
   37692   37692       0   37694   37695   37695       0   37697   37698   37698
       0   37700   37701   37701       0   37703   37704   37704       0   37706
   37707   37707       0   37709   37710   37710       0   37712   37713   37713
       0   37715   37716   37716       0   37718   37719   37719       0   37721
   37722   37722       0   37724   37725   37725       0   37727   37728   37728
       0   37730   37731   37731       0   37733   37734   37734       0   37736
   37737   37737       0   37739   37740   37740       0   37742   37743   37743
       0   37745   37746   37746       0   37748   37749   37749       0   37751
   37752   37752       0   37754   37755   37755       0   37757   37758   37758
       0   37760   37761   37761       0   37763   37764   37764       0   37766
   37767   37767       0   37769   37770   37770       0   37772   37773   37773
       0   37775   37776   37776       0   37778   37779   37779       0   37781
   37782   37782       0   37784   37785   37785       0   37787   37788   37788
       0   37790   37791   37791       0   37793   37794   37794       0   37796
   37797   37797       0   37799   37800   37800       0   37802   37803   37803
       0   37805   37806   37806       0   37808   37809   37809       0   37811
   37812   37812       0   37814   37815   37815       0   37817   37818   37818
       0   37820   37821   37821       0   37823   37824   37824       0   37826
   37827   37827       0   37829   37830   37830       0   37832   37833   37833
       0   37835   37836   37836       0   37838   37839   37839       0   37841
   37842   37842       0   37844   37845   37845       0   37847   37848   37848
       0   37850   37851   37851       0   37853   37854   37854       0   37856
   37857   37857       0   37859   37860   37860       0   37862   37863   37863
       0   37865   37866   37866       0   37868   37869   37869       0   37871
   37872   37872       0   37874   37875   37875       0   37877   37878   37878
       0   37880   37881   37881       0   37883   37884   37884       0   37886
   37887   37887       0   37889   37890   37890       0   37892   37893   37893
       0   37895   37896   37896       0   37898   37899   37899       0   37901
   37902   37902       0   37904   37905   37905       0   37907   37908   37908
       0   37910   37911   37911       0   37913   37914   37914       0   37916
   37917   37917       0   37919   37920   37920       0   37922   37923   37923
       0   37925   37926   37926       0   37928   37929   37929       0   37931
   37932   37932       0   37934   37935   37935       0   37937   37938   37938
       0   37940   37941   37941       0   37943   37944   37944       0   37946
   37947   37947       0   37949   37950   37950       0   37952   37953   37953
       0   37955   37956   37956       0   37958   37959   37959       0   37961
   37962   37962       0   37964   37965   37965       0   37967   37968   37968
       0   37970   37971   37971       0   37973   37974   37974       0   37976
   37977   37977       0   37979   37980   37980       0   37982   37983   37983
       0   37985   37986   37986       0   37988   37989   37989       0   37991
   37992   37992       0   37994   37995   37995       0   37997   37998   37998
       0   38000   38001   38001       0   38003   38004   38004       0   38006
   38007   38007       0   38009   38010   38010       0   38012   38013   38013
       0   38015   38016   38016       0   38018   38019   38019       0   38021
   38022   38022       0   38024   38025   38025       0   38027   38028   38028
       0   38030   38031   38031       0   38033   38034   38034       0   38036
   38037   38037       0   38039   38040   38040       0   38042   38043   38043
       0   38045   38046   38046       0   38048   38049   38049       0   38051
   38052   38052       0   38054   38055   38055       0   38057   38058   38058
       0   38060   38061   38061       0   38063   38064   38064       0   38066
   38067   38067       0   38069   38070   38070       0   38072   38073   38073
       0   38075   38076   38076       0   38078   38079   38079       0   38081
   38082   38082       0   38084   38085   38085       0   38087   38088   38088
       0   38090   38091   38091       0   38093   38094   38094       0   38096
   38097   38097       0   38099   38100   38100       0   38102   38103   38103
       0   38105   38106   38106       0   38108   38109   38109       0   38111
   38112   38112       0   38114   38115   38115       0   38117   38118   38118
       0   38120   38121   38121       0   38123   38124   38124       0   38126
   38127   38127       0   38129   38130   38130       0   38132   38133   38133
       0   38135   38136   38136       0   38138   38139   38139       0   38141
   38142   38142       0   38144   38145   38145       0   38147   38148   38148
       0   38150   38151   38151       0   38153   38154   38154       0   38156
   38157   38157       0   38159   38160   38160       0   38162   38163   38163
       0   38165   38166   38166       0   38168   38169   38169       0   38171
   38172   38172       0   38174   38175   38175       0   38177   38178   38178
       0   38180   38181   38181       0   38183   38184   38184       0   38186
   38187   38187       0   38189   38190   38190       0   38192   38193   38193
       0   38195   38196   38196       0   38198   38199   38199       0   38201
   38202   38202       0   38204   38205   38205       0   38207   38208   38208
       0   38210   38211   38211       0   38213   38214   38214       0   38216
   38217   38217       0   38219   38220   38220       0   38222   38223   38223
       0   38225   38226   38226       0   38228   38229   38229       0   38231
   38232   38232       0   38234   38235   38235       0   38237   38238   38238
       0   38240   38241   38241       0   38243   38244   38244       0   38246
   38247   38247       0   38249   38250   38250       0   38252   38253   38253
       0   38255   38256   38256       0   38258   38259   38259       0   38261
   38262   38262       0   38264   38265   38265       0   38267   38268   38268
       0   38270   38271   38271       0   38273   38274   38274       0   38276
   38277   38277       0   38279   38280   38280       0   38282   38283   38283
       0   38285   38286   38286       0   38288   38289   38289       0   38291
   38292   38292       0   38294   38295   38295       0   38297   38298   38298
       0   38300   38301   38301       0   38303   38304   38304       0   38306
   38307   38307       0   38309   38310   38310       0   38312   38313   38313
       0   38315   38316   38316       0   38318   38319   38319       0   38321
   38322   38322       0   38324   38325   38325       0   38327   38328   38328
       0   38330   38331   38331       0   38333   38334   38334       0   38336
   38337   38337       0   38339   38340   38340       0   38342   38343   38343
       0   38345   38346   38346       0   38348   38349   38349       0   38351
   38352   38352       0   38354   38355   38355       0   38357   38358   38358
       0   38360   38361   38361       0   38363   38364   38364       0   38366
   38367   38367       0   38369   38370   38370       0   38372   38373   38373
       0   38375   38376   38376       0   38378   38379   38379       0   38381
   38382   38382       0   38384   38385   38385       0   38387   38388   38388
       0   38390   38391   38391       0   38393   38394   38394       0   38396
   38397   38397       0   38399   38400   38400       0   38402   38403   38403
       0   38405   38406   38406       0   38408   38409   38409       0   38411
   38412   38412       0   38414   38415   38415       0   38417   38418   38418
       0   38420   38421   38421       0   38423   38424   38424       0   38426
   38427   38427       0   38429   38430   38430       0   38432   38433   38433
       0   38435   38436   38436       0   38438   38439   38439       0   38441
   38442   38442       0   38444   38445   38445       0   38447   38448   38448
       0   38450   38451   38451       0   38453   38454   38454       0   38456
   38457   38457       0   38459   38460   38460       0   38462   38463   38463
       0   38465   38466   38466       0   38468   38469   38469       0   38471
   38472   38472       0   38474   38475   38475       0   38477   38478   38478
       0   38480   38481   38481       0   38483   38484   38484       0   38486
   38487   38487       0   38489   38490   38490       0   38492   38493   38493
       0   38495   38496   38496       0   38498   38499   38499       0   38501
   38502   38502       0   38504   38505   38505       0   38507   38508   38508
       0   38510   38511   38511       0   38513   38514   38514       0   38516
   38517   38517       0   38519   38520   38520       0   38522   38523   38523
       0   38525   38526   38526       0   38528   38529   38529       0   38531
   38532   38532       0   38534   38535   38535       0   38537   38538   38538
       0   38540   38541   38541       0   38543   38544   38544       0   38546
   38547   38547       0   38549   38550   38550       0   38552   38553   38553
       0   38555   38556   38556       0   38558   38559   38559       0   38561
   38562   38562       0   38564   38565   38565       0   38567   38568   38568
       0   38570   38571   38571       0   38573   38574   38574       0   38576
   38577   38577       0   38579   38580   38580       0   38582   38583   38583
       0   38585   38586   38586       0   38588   38589   38589       0   38591
   38592   38592       0   38594   38595   38595       0   38597   38598   38598
       0   38600   38601   38601       0   38603   38604   38604       0   38606
   38607   38607       0   38609   38610   38610       0   38612   38613   38613
       0   38615   38616   38616       0   38618   38619   38619       0   38621
   38622   38622       0   38624   38625   38625       0   38627   38628   38628
       0   38630   38631   38631       0   38633   38634   38634       0   38636
   38637   38637       0   38639   38640   38640       0   38642   38643   38643
       0   38645   38646   38646       0   38648   38649   38649       0   38651
   38652   38652       0   38654   38655   38655       0   38657   38658   38658
       0   38660   38661   38661       0   38663   38664   38664       0   38666
   38667   38667       0   38669   38670   38670       0   38672   38673   38673
       0   38675   38676   38676       0   38678   38679   38679       0   38681
   38682   38682       0   38684   38685   38685       0   38687   38688   38688
       0   38690   38691   38691       0   38693   38694   38694       0   38696
   38697   38697       0   38699   38700   38700       0   38702   38703   38703
       0   38705   38706   38706       0   38708   38709   38709       0   38711
   38712   38712       0   38714   38715   38715       0   38717   38718   38718
       0   38720   38721   38721       0   38723   38724   38724       0   38726
   38727   38727       0   38729   38730   38730       0   38732   38733   38733
       0   38735   38736   38736       0   38738   38739   38739       0   38741
   38742   38742       0   38744   38745   38745       0   38747   38748   38748
       0   38750   38751   38751       0   38753   38754   38754       0   38756
   38757   38757       0   38759   38760   38760       0   38762   38763   38763
       0   38765   38766   38766       0   38768   38769   38769       0   38771
   38772   38772       0   38774   38775   38775       0   38777   38778   38778
       0   38780   38781   38781       0   38783   38784   38784       0   38786
   38787   38787       0   38789   38790   38790       0   38792   38793   38793
       0   38795   38796   38796       0   38798   38799   38799       0   38801
   38802   38802       0   38804   38805   38805       0   38807   38808   38808
       0   38810   38811   38811       0   38813   38814   38814       0   38816
   38817   38817       0   38819   38820   38820       0   38822   38823   38823
       0   38825   38826   38826       0   38828   38829   38829       0   38831
   38832   38832       0   38834   38835   38835       0   38837   38838   38838
       0   38840   38841   38841       0   38843   38844   38844       0   38846
   38847   38847       0   38849   38850   38850       0   38852   38853   38853
       0   38855   38856   38856       0   38858   38859   38859       0   38861
   38862   38862       0   38864   38865   38865       0   38867   38868   38868
       0   38870   38871   38871       0   38873   38874   38874       0   38876
   38877   38877       0   38879   38880   38880       0   38882   38883   38883
       0   38885   38886   38886       0   38888   38889   38889       0   38891
   38892   38892       0   38894   38895   38895       0   38897   38898   38898
       0   38900   38901   38901       0   38903   38904   38904       0   38906
   38907   38907       0   38909   38910   38910       0   38912   38913   38913
       0   38915   38916   38916       0   38918   38919   38919       0   38921
   38922   38922       0   38924   38925   38925       0   38927   38928   38928
       0   38930   38931   38931       0   38933   38934   38934       0   38936
   38937   38937       0   38939   38940   38940       0   38942   38943   38943
       0   38945   38946   38946       0   38948   38949   38949       0   38951
   38952   38952       0   38954   38955   38955       0   38957   38958   38958
       0   38960   38961   38961       0   38963   38964   38964       0   38966
   38967   38967       0   38969   38970   38970       0   38972   38973   38973
       0   38975   38976   38976       0   38978   38979   38979       0   38981
   38982   38982       0   38984   38985   38985       0   38987   38988   38988
       0   38990   38991   38991       0   38993   38994   38994       0   38996
   38997   38997       0   38999   39000   39000       0   39002   39003   39003
       0   39005   39006   39006       0   39008   39009   39009       0   39011
   39012   39012       0   39014   39015   39015       0   39017   39018   39018
       0   39020   39021   39021       0   39023   39024   39024       0   39026
   39027   39027       0   39029   39030   39030       0   39032   39033   39033
       0   39035   39036   39036       0   39038   39039   39039       0   39041
   39042   39042       0   39044   39045   39045       0   39047   39048   39048
       0   39050   39051   39051       0   39053   39054   39054       0   39056
   39057   39057       0   39059   39060   39060       0   39062   39063   39063
       0   39065   39066   39066       0   39068   39069   39069       0   39071
   39072   39072       0   39074   39075   39075       0   39077   39078   39078
       0   39080   39081   39081       0   39083   39084   39084       0   39086
   39087   39087       0   39089   39090   39090       0   39092   39093   39093
       0   39095   39096   39096       0   39098   39099   39099       0   39101
   39102   39102       0   39104   39105   39105       0   39107   39108   39108
       0   39110   39111   39111       0   39113   39114   39114       0   39116
   39117   39117       0   39119   39120   39120       0   39122   39123   39123
       0   39125   39126   39126       0   39128   39129   39129       0   39131
   39132   39132       0   39134   39135   39135       0   39137   39138   39138
       0   39140   39141   39141       0   39143   39144   39144       0   39146
   39147   39147       0   39149   39150   39150       0   39152   39153   39153
       0   39155   39156   39156       0   39158   39159   39159       0   39161
   39162   39162       0   39164   39165   39165       0   39167   39168   39168
       0   39170   39171   39171       0   39173   39174   39174       0   39176
   39177   39177       0   39179   39180   39180       0   39182   39183   39183
       0   39185   39186   39186       0   39188   39189   39189       0   39191
   39192   39192       0   39194   39195   39195       0   39197   39198   39198
       0   39200   39201   39201       0   39203   39204   39204       0   39206
   39207   39207       0   39209   39210   39210       0   39212   39213   39213
       0   39215   39216   39216       0   39218   39219   39219       0   39221
   39222   39222       0   39224   39225   39225       0   39227   39228   39228
       0   39230   39231   39231       0   39233   39234   39234       0   39236
   39237   39237       0   39239   39240   39240       0   39242   39243   39243
       0   39245   39246   39246       0   39248   39249   39249       0   39251
   39252   39252       0   39254   39255   39255       0   39257   39258   39258
       0   39260   39261   39261       0   39263   39264   39264       0   39266
   39267   39267       0   39269   39270   39270       0   39272   39273   39273
       0   39275   39276   39276       0   39278   39279   39279       0   39281
   39282   39282       0   39284   39285   39285       0   39287   39288   39288
       0   39290   39291   39291       0   39293   39294   39294       0   39296
   39297   39297       0   39299   39300   39300       0   39302   39303   39303
       0   39305   39306   39306       0   39308   39309   39309       0   39311
   39312   39312       0   39314   39315   39315       0   39317   39318   39318
       0   39320   39321   39321       0   39323   39324   39324       0   39326
   39327   39327       0   39329   39330   39330       0   39332   39333   39333
       0   39335   39336   39336       0   39338   39339   39339       0   39341
   39342   39342       0   39344   39345   39345       0   39347   39348   39348
       0   39350   39351   39351       0   39353   39354   39354       0   39356
   39357   39357       0   39359   39360   39360       0   39362   39363   39363
       0   39365   39366   39366       0   39368   39369   39369       0   39371
   39372   39372       0   39374   39375   39375       0   39377   39378   39378
       0   39380   39381   39381       0   39383   39384   39384       0   39386
   39387   39387       0   39389   39390   39390       0   39392   39393   39393
       0   39395   39396   39396       0   39398   39399   39399       0   39401
   39402   39402       0   39404   39405   39405       0   39407   39408   39408
       0   39410   39411   39411       0   39413   39414   39414       0   39416
   39417   39417       0   39419   39420   39420       0   39422   39423   39423
       0   39425   39426   39426       0   39428   39429   39429       0   39431
   39432   39432       0   39434   39435   39435       0   39437   39438   39438
       0   39440   39441   39441       0   39443   39444   39444       0   39446
   39447   39447       0   39449   39450   39450       0   39452   39453   39453
       0   39455   39456   39456       0   39458   39459   39459       0   39461
   39462   39462       0   39464   39465   39465       0   39467   39468   39468
       0   39470   39471   39471       0   39473   39474   39474       0   39476
   39477   39477       0   39479   39480   39480       0   39482   39483   39483
       0   39485   39486   39486       0   39488   39489   39489       0   39491
   39492   39492       0   39494   39495   39495       0   39497   39498   39498
       0   39500   39501   39501       0   39503   39504   39504       0   39506
   39507   39507       0   39509   39510   39510       0   39512   39513   39513
       0   39515   39516   39516       0   39518   39519   39519       0   39521
   39522   39522       0   39524   39525   39525       0   39527   39528   39528
       0   39530   39531   39531       0   39533   39534   39534       0   39536
   39537   39537       0   39539   39540   39540       0   39542   39543   39543
       0   39545   39546   39546       0   39548   39549   39549       0   39551
   39552   39552       0   39554   39555   39555       0   39557   39558   39558
       0   39560   39561   39561       0   39563   39564   39564       0   39566
   39567   39567       0   39569   39570   39570       0   39572   39573   39573
       0   39575   39576   39576       0   39578   39579   39579       0   39581
   39582   39582       0   39584   39585   39585       0   39587   39588   39588
       0   39590   39591   39591       0   39593   39594   39594       0   39596
   39597   39597       0   39599   39600   39600       0   39602   39603   39603
       0   39605   39606   39606       0   39608   39609   39609       0   39611
   39612   39612       0   39614   39615   39615       0   39617   39618   39618
       0   39620   39621   39621       0   39623   39624   39624       0   39626
   39627   39627       0   39629   39630   39630       0   39632   39633   39633
       0   39635   39636   39636       0   39638   39639   39639       0   39641
   39642   39642       0   39644   39645   39645       0   39647   39648   39648
       0   39650   39651   39651       0   39653   39654   39654       0   39656
   39657   39657       0   39659   39660   39660       0   39662   39663   39663
       0   39665   39666   39666       0   39668   39669   39669       0   39671
   39672   39672       0   39674   39675   39675       0   39677   39678   39678
       0   39680   39681   39681       0   39683   39684   39684       0   39686
   39687   39687       0   39689   39690   39690       0   39692   39693   39693
       0   39695   39696   39696       0   39698   39699   39699       0   39701
   39702   39702       0   39704   39705   39705       0   39707   39708   39708
       0   39710   39711   39711       0   39713   39714   39714       0   39716
   39717   39717       0   39719   39720   39720       0   39722   39723   39723
       0   39725   39726   39726       0   39728   39729   39729       0   39731
   39732   39732       0   39734   39735   39735       0   39737   39738   39738
       0   39740   39741   39741       0   39743   39744   39744       0   39746
   39747   39747       0   39749   39750   39750       0   39752   39753   39753
       0   39755   39756   39756       0   39758   39759   39759       0   39761
   39762   39762       0   39764   39765   39765       0   39767   39768   39768
       0   39770   39771   39771       0   39773   39774   39774       0   39776
   39777   39777       0   39779   39780   39780       0   39782   39783   39783
       0   39785   39786   39786       0   39788   39789   39789       0   39791
   39792   39792       0   39794   39795   39795       0   39797   39798   39798
       0   39800   39801   39801       0   39803   39804   39804       0   39806
   39807   39807       0   39809   39810   39810       0   39812   39813   39813
       0   39815   39816   39816       0   39818   39819   39819       0   39821
   39822   39822       0   39824   39825   39825       0   39827   39828   39828
       0   39830   39831   39831       0   39833   39834   39834       0   39836
   39837   39837       0   39839   39840   39840       0   39842   39843   39843
       0   39845   39846   39846       0   39848   39849   39849       0   39851
   39852   39852       0   39854   39855   39855       0   39857   39858   39858
       0   39860   39861   39861       0   39863   39864   39864       0   39866
   39867   39867       0   39869   39870   39870       0   39872   39873   39873
       0   39875   39876   39876       0   39878   39879   39879       0   39881
   39882   39882       0   39884   39885   39885       0   39887   39888   39888
       0   39890   39891   39891       0   39893   39894   39894       0   39896
   39897   39897       0   39899   39900   39900       0   39902   39903   39903
       0   39905   39906   39906       0   39908   39909   39909       0   39911
   39912   39912       0   39914   39915   39915       0   39917   39918   39918
       0   39920   39921   39921       0   39923   39924   39924       0   39926
   39927   39927       0   39929   39930   39930       0   39932   39933   39933
       0   39935   39936   39936       0   39938   39939   39939       0   39941
   39942   39942       0   39944   39945   39945       0   39947   39948   39948
       0   39950   39951   39951       0   39953   39954   39954       0   39956
   39957   39957       0   39959   39960   39960       0   39962   39963   39963
       0   39965   39966   39966       0   39968   39969   39969       0   39971
   39972   39972       0   39974   39975   39975       0   39977   39978   39978
       0   39980   39981   39981       0   39983   39984   39984       0   39986
   39987   39987       0   39989   39990   39990       0   39992   39993   39993
       0   39995   39996   39996       0   39998   39999   39999       0   40001
   40002   40002       0   40004   40005   40005       0   40007   40008   40008
       0   40010   40011   40011       0   40013   40014   40014       0   40016
   40017   40017       0   40019   40020   40020       0   40022   40023   40023
       0   40025   40026   40026       0   40028   40029   40029       0   40031
   40032   40032       0   40034   40035   40035       0   40037   40038   40038
       0   40040   40041   40041       0   40043   40044   40044       0   40046
   40047   40047       0   40049   40050   40050       0   40052   40053   40053
       0   40055   40056   40056       0   40058   40059   40059       0   40061
   40062   40062       0   40064   40065   40065       0   40067   40068   40068
       0   40070   40071   40071       0   40073   40074   40074       0   40076
   40077   40077       0   40079   40080   40080       0   40082   40083   40083
       0   40085   40086   40086       0   40088   40089   40089       0   40091
   40092   40092       0   40094   40095   40095       0   40097   40098   40098
       0   40100   40101   40101       0   40103   40104   40104       0   40106
   40107   40107       0   40109   40110   40110       0   40112   40113   40113
       0   40115   40116   40116       0   40118   40119   40119       0   40121
   40122   40122       0   40124   40125   40125       0   40127   40128   40128
       0   40130   40131   40131       0   40133   40134   40134       0   40136
   40137   40137       0   40139   40140   40140       0   40142   40143   40143
       0   40145   40146   40146       0   40148   40149   40149       0   40151
   40152   40152       0   40154   40155   40155       0   40157   40158   40158
       0   40160   40161   40161       0   40163   40164   40164       0   40166
   40167   40167       0   40169   40170   40170       0   40172   40173   40173
       0   40175   40176   40176       0   40178   40179   40179       0   40181
   40182   40182       0   40184   40185   40185       0   40187   40188   40188
       0   40190   40191   40191       0   40193   40194   40194       0   40196
   40197   40197       0   40199   40200   40200       0   40202   40203   40203
       0   40205   40206   40206       0   40208   40209   40209       0   40211
   40212   40212       0   40214   40215   40215       0   40217   40218   40218
       0   40220   40221   40221       0   40223   40224   40224       0   40226
   40227   40227       0   40229   40230   40230       0   40232   40233   40233
       0   40235   40236   40236       0   40238   40239   40239       0   40241
   40242   40242       0   40244   40245   40245       0   40247   40248   40248
       0   40250   40251   40251       0   40253   40254   40254       0   40256
   40257   40257       0   40259   40260   40260       0   40262   40263   40263
       0   40265   40266   40266       0   40268   40269   40269       0   40271
   40272   40272       0   40274   40275   40275       0   40277   40278   40278
       0   40280   40281   40281       0   40283   40284   40284       0   40286
   40287   40287       0   40289   40290   40290       0   40292   40293   40293
       0   40295   40296   40296       0   40298   40299   40299       0   40301
   40302   40302       0   40304   40305   40305       0   40307   40308   40308
       0   40310   40311   40311       0   40313   40314   40314       0   40316
   40317   40317       0   40319   40320   40320       0   40322   40323   40323
       0   40325   40326   40326       0   40328   40329   40329       0   40331
   40332   40332       0   40334   40335   40335       0   40337   40338   40338
       0   40340   40341   40341       0   40343   40344   40344       0   40346
   40347   40347       0   40349   40350   40350       0   40352   40353   40353
       0   40355   40356   40356       0   40358   40359   40359       0   40361
   40362   40362       0   40364   40365   40365       0   40367   40368   40368
       0   40370   40371   40371       0   40373   40374   40374       0   40376
   40377   40377       0   40379   40380   40380       0   40382   40383   40383
       0   40385   40386   40386       0   40388   40389   40389       0   40391
   40392   40392       0   40394   40395   40395       0   40397   40398   40398
       0   40400   40401   40401       0   40403   40404   40404       0   40406
   40407   40407       0   40409   40410   40410       0   40412   40413   40413
       0   40415   40416   40416       0   40418   40419   40419       0   40421
   40422   40422       0   40424   40425   40425       0   40427   40428   40428
       0   40430   40431   40431       0   40433   40434   40434       0   40436
   40437   40437       0   40439   40440   40440       0   40442   40443   40443
       0   40445   40446   40446       0   40448   40449   40449       0   40451
   40452   40452       0   40454   40455   40455       0   40457   40458   40458
       0   40460   40461   40461       0   40463   40464   40464       0   40466
   40467   40467       0   40469   40470   40470       0   40472   40473   40473
       0   40475   40476   40476       0   40478   40479   40479       0   40481
   40482   40482       0   40484   40485   40485       0   40487   40488   40488
       0   40490   40491   40491       0   40493   40494   40494       0   40496
   40497   40497       0   40499   40500   40500       0   40502   40503   40503
       0   40505   40506   40506       0   40508   40509   40509       0   40511
   40512   40512       0   40514   40515   40515       0   40517   40518   40518
       0   40520   40521   40521       0   40523   40524   40524       0   40526
   40527   40527       0   40529   40530   40530       0   40532   40533   40533
       0   40535   40536   40536       0   40538   40539   40539       0   40541
   40542   40542       0   40544   40545   40545       0   40547   40548   40548
       0   40550   40551   40551       0   40553   40554   40554       0   40556
   40557   40557       0   40559   40560   40560       0   40562   40563   40563
       0   40565   40566   40566       0   40568   40569   40569       0   40571
   40572   40572       0   40574   40575   40575       0   40577   40578   40578
       0   40580   40581   40581       0   40583   40584   40584       0   40586
   40587   40587       0   40589   40590   40590       0   40592   40593   40593
       0   40595   40596   40596       0   40598   40599   40599       0   40601
   40602   40602       0   40604   40605   40605       0   40607   40608   40608
       0   40610   40611   40611       0   40613   40614   40614       0   40616
   40617   40617       0   40619   40620   40620       0   40622   40623   40623
       0   40625   40626   40626       0   40628   40629   40629       0   40631
   40632   40632       0   40634   40635   40635       0   40637   40638   40638
       0   40640   40641   40641       0   40643   40644   40644       0   40646
   40647   40647       0   40649   40650   40650       0   40652   40653   40653
       0   40655   40656   40656       0   40658   40659   40659       0   40661
   40662   40662       0   40664   40665   40665       0   40667   40668   40668
       0   40670   40671   40671       0   40673   40674   40674       0   40676
   40677   40677       0   40679   40680   40680       0   40682   40683   40683
       0   40685   40686   40686       0   40688   40689   40689       0   40691
   40692   40692       0   40694   40695   40695       0   40697   40698   40698
       0   40700   40701   40701       0   40703   40704   40704       0   40706
   40707   40707       0   40709   40710   40710       0   40712   40713   40713
       0   40715   40716   40716       0   40718   40719   40719       0   40721
   40722   40722       0   40724   40725   40725       0   40727   40728   40728
       0   40730   40731   40731       0   40733   40734   40734       0   40736
   40737   40737       0   40739   40740   40740       0   40742   40743   40743
       0   40745   40746   40746       0   40748   40749   40749       0   40751
   40752   40752       0   40754   40755   40755       0   40757   40758   40758
       0   40760   40761   40761       0   40763   40764   40764       0   40766
   40767   40767       0   40769   40770   40770       0   40772   40773   40773
       0   40775   40776   40776       0   40778   40779   40779       0   40781
   40782   40782       0   40784   40785   40785       0   40787   40788   40788
       0   40790   40791   40791       0   40793   40794   40794       0   40796
   40797   40797       0   40799   40800   40800       0   40802   40803   40803
       0   40805   40806   40806       0   40808   40809   40809       0   40811
   40812   40812       0   40814   40815   40815       0   40817   40818   40818
       0   40820   40821   40821       0   40823   40824   40824       0   40826
   40827   40827       0   40829   40830   40830       0   40832   40833   40833
       0   40835   40836   40836       0   40838   40839   40839       0   40841
   40842   40842       0   40844   40845   40845       0   40847   40848   40848
       0   40850   40851   40851       0   40853   40854   40854       0   40856
   40857   40857       0   40859   40860   40860       0   40862   40863   40863
       0   40865   40866   40866       0   40868   40869   40869       0   40871
   40872   40872       0   40874   40875   40875       0   40877   40878   40878
       0   40880   40881   40881       0   40883   40884   40884       0   40886
   40887   40887       0   40889   40890   40890       0   40892   40893   40893
       0   40895   40896   40896       0   40898   40899   40899       0   40901
   40902   40902       0   40904   40905   40905       0   40907   40908   40908
       0   40910   40911   40911       0   40913   40914   40914       0   40916
   40917   40917       0   40919   40920   40920       0   40922   40923   40923
       0   40925   40926   40926       0   40928   40929   40929       0   40931
   40932   40932       0   40934   40935   40935       0   40937   40938   40938
       0   40940   40941   40941       0   40943   40944   40944       0   40946
   40947   40947       0   40949   40950   40950       0   40952   40953   40953
       0   40955   40956   40956       0   40958   40959   40959       0   40961
   40962   40962       0   40964   40965   40965       0   40967   40968   40968
       0   40970   40971   40971       0   40973   40974   40974       0   40976
   40977   40977       0   40979   40980   40980       0   40982   40983   40983
       0   40985   40986   40986       0   40988   40989   40989       0   40991
   40992   40992       0   40994   40995   40995       0   40997   40998   40998
       0   41000   41001   41001       0   41003   41004   41004       0   41006
   41007   41007       0   41009   41010   41010       0   41012   41013   41013
       0   41015   41016   41016       0   41018   41019   41019       0   41021
   41022   41022       0   41024   41025   41025       0   41027   41028   41028
       0   41030   41031   41031       0   41033   41034   41034       0   41036
   41037   41037       0   41039   41040   41040       0   41042   41043   41043
       0   41045   41046   41046       0   41048   41049   41049       0   41051
   41052   41052       0   41054   41055   41055       0   41057   41058   41058
       0   41060   41061   41061       0   41063   41064   41064       0   41066
   41067   41067       0   41069   41070   41070       0   41072   41073   41073
       0   41075   41076   41076       0   41078   41079   41079       0   41081
   41082   41082       0   41084   41085   41085       0   41087   41088   41088
       0   41090   41091   41091       0   41093   41094   41094       0   41096
   41097   41097       0   41099   41100   41100       0   41102   41103   41103
       0   41105   41106   41106       0   41108   41109   41109       0   41111
   41112   41112       0   41114   41115   41115       0   41117   41118   41118
       0   41120   41121   41121       0   41123   41124   41124       0   41126
   41127   41127       0   41129   41130   41130       0   41132   41133   41133
       0   41135   41136   41136       0   41138   41139   41139       0   41141
   41142   41142       0   41144   41145   41145       0   41147   41148   41148
       0   41150   41151   41151       0   41153   41154   41154       0   41156
   41157   41157       0   41159   41160   41160       0   41162   41163   41163
       0   41165   41166   41166       0   41168   41169   41169       0   41171
   41172   41172       0   41174   41175   41175       0   41177   41178   41178
       0   41180   41181   41181       0   41183   41184   41184       0   41186
   41187   41187       0   41189   41190   41190       0   41192   41193   41193
       0   41195   41196   41196       0   41198   41199   41199       0   41201
   41202   41202       0   41204   41205   41205       0   41207   41208   41208
       0   41210   41211   41211       0   41213   41214   41214       0   41216
   41217   41217       0   41219   41220   41220       0   41222   41223   41223
       0   41225   41226   41226       0   41228   41229   41229       0   41231
   41232   41232       0   41234   41235   41235       0   41237   41238   41238
       0   41240   41241   41241       0   41243   41244   41244       0   41246
   41247   41247       0   41249   41250   41250       0   41252   41253   41253
       0   41255   41256   41256       0   41258   41259   41259       0   41261
   41262   41262       0   41264   41265   41265       0   41267   41268   41268
       0   41270   41271   41271       0   41273   41274   41274       0   41276
   41277   41277       0   41279   41280   41280       0   41282   41283   41283
       0   41285   41286   41286       0   41288   41289   41289       0   41291
   41292   41292       0   41294   41295   41295       0   41297   41298   41298
       0   41300   41301   41301       0   41303   41304   41304       0   41306
   41307   41307       0   41309   41310   41310       0   41312   41313   41313
       0   41315   41316   41316       0   41318   41319   41319       0   41321
   41322   41322       0   41324   41325   41325       0   41327   41328   41328
       0   41330   41331   41331       0   41333   41334   41334       0   41336
   41337   41337       0   41339   41340   41340       0   41342   41343   41343
       0   41345   41346   41346       0   41348   41349   41349       0   41351
   41352   41352       0   41354   41355   41355       0   41357   41358   41358
       0   41360   41361   41361       0   41363   41364   41364       0   41366
   41367   41367       0   41369   41370   41370       0   41372   41373   41373
       0   41375   41376   41376       0   41378   41379   41379       0   41381
   41382   41382       0   41384   41385   41385       0   41387   41388   41388
       0   41390   41391   41391       0   41393   41394   41394       0   41396
   41397   41397       0   41399   41400   41400       0   41402   41403   41403
       0   41405   41406   41406       0   41408   41409   41409       0   41411
   41412   41412       0   41414   41415   41415       0   41417   41418   41418
       0   41420   41421   41421       0   41423   41424   41424       0   41426
   41427   41427       0   41429   41430   41430       0   41432   41433   41433
       0   41435   41436   41436       0   41438   41439   41439       0   41441
   41442   41442       0   41444   41445   41445       0   41447   41448   41448
       0   41450   41451   41451       0   41453   41454   41454       0   41456
   41457   41457       0   41459   41460   41460       0   41462   41463   41463
       0   41465   41466   41466       0   41468   41469   41469       0   41471
   41472   41472       0   41474   41475   41475       0   41477   41478   41478
       0   41480   41481   41481       0   41483   41484   41484       0   41486
   41487   41487       0   41489   41490   41490       0   41492   41493   41493
       0   41495   41496   41496       0   41498   41499   41499       0   41501
   41502   41502       0   41504   41505   41505       0   41507   41508   41508
       0   41510   41511   41511       0   41513   41514   41514       0   41516
   41517   41517       0   41519   41520   41520       0   41522   41523   41523
       0   41525   41526   41526       0   41528   41529   41529       0   41531
   41532   41532       0   41534   41535   41535       0   41537   41538   41538
       0   41540   41541   41541       0   41543   41544   41544       0   41546
   41547   41547       0   41549   41550   41550       0   41552   41553   41553
       0   41555   41556   41556       0   41558   41559   41559       0   41561
   41562   41562       0   41564   41565   41565       0   41567   41568   41568
       0   41570   41571   41571       0   41573   41574   41574       0   41576
   41577   41577       0   41579   41580   41580       0   41582   41583   41583
       0   41585   41586   41586       0   41588   41589   41589       0   41591
   41592   41592       0   41594   41595   41595       0   41597   41598   41598
       0   41600   41601   41601       0   41603   41604   41604       0   41606
   41607   41607       0   41609   41610   41610       0   41612   41613   41613
       0   41615   41616   41616       0   41618   41619   41619       0   41621
   41622   41622       0   41624   41625   41625       0   41627   41628   41628
       0   41630   41631   41631       0   41633   41634   41634       0   41636
   41637   41637       0   41639   41640   41640       0   41642   41643   41643
       0   41645   41646   41646       0   41648   41649   41649       0   41651
   41652   41652       0   41654   41655   41655       0   41657   41658   41658
       0   41660   41661   41661       0   41663   41664   41664       0   41666
   41667   41667       0   41669   41670   41670       0   41672   41673   41673
       0   41675   41676   41676       0   41678   41679   41679       0   41681
   41682   41682       0   41684   41685   41685       0   41687   41688   41688
       0   41690   41691   41691       0   41693   41694   41694       0   41696
   41697   41697       0   41699   41700   41700       0   41702   41703   41703
       0   41705   41706   41706       0   41708   41709   41709       0   41711
   41712   41712       0   41714   41715   41715       0   41717   41718   41718
       0   41720   41721   41721       0   41723   41724   41724       0   41726
   41727   41727       0   41729   41730   41730       0   41732   41733   41733
       0   41735   41736   41736       0   41738   41739   41739       0   41741
   41742   41742       0   41744   41745   41745       0   41747   41748   41748
       0   41750   41751   41751       0   41753   41754   41754       0   41756
   41757   41757       0   41759   41760   41760       0   41762   41763   41763
       0   41765   41766   41766       0   41768   41769   41769       0   41771
   41772   41772       0   41774   41775   41775       0   41777   41778   41778
       0   41780   41781   41781       0   41783   41784   41784       0   41786
   41787   41787       0   41789   41790   41790       0   41792   41793   41793
       0   41795   41796   41796       0   41798   41799   41799       0   41801
   41802   41802       0   41804   41805   41805       0   41807   41808   41808
       0   41810   41811   41811       0   41813   41814   41814       0   41816
   41817   41817       0   41819   41820   41820       0   41822   41823   41823
       0   41825   41826   41826       0   41828   41829   41829       0   41831
   41832   41832       0   41834   41835   41835       0   41837   41838   41838
       0   41840   41841   41841       0   41843   41844   41844       0   41846
   41847   41847       0   41849   41850   41850       0   41852   41853   41853
       0   41855   41856   41856       0   41858   41859   41859       0   41861
   41862   41862       0   41864   41865   41865       0   41867   41868   41868
       0   41870   41871   41871       0   41873   41874   41874       0   41876
   41877   41877       0   41879   41880   41880       0   41882   41883   41883
       0   41885   41886   41886       0   41888   41889   41889       0   41891
   41892   41892       0   41894   41895   41895       0   41897   41898   41898
       0   41900   41901   41901       0   41903   41904   41904       0   41906
   41907   41907       0   41909   41910   41910       0   41912   41913   41913
       0   41915   41916   41916       0   41918   41919   41919       0   41921
   41922   41922       0   41924   41925   41925       0   41927   41928   41928
       0   41930   41931   41931       0   41933   41934   41934       0   41936
   41937   41937       0   41939   41940   41940       0   41942   41943   41943
       0   41945   41946   41946       0   41948   41949   41949       0   41951
   41952   41952       0   41954   41955   41955       0   41957   41958   41958
       0   41960   41961   41961       0   41963   41964   41964       0   41966
   41967   41967       0   41969   41970   41970       0   41972   41973   41973
       0   41975   41976   41976       0   41978   41979   41979       0   41981
   41982   41982       0   41984   41985   41985       0   41987   41988   41988
       0   41990   41991   41991       0   41993   41994   41994       0   41996
   41997   41997       0   41999   42000   42000       0   42002   42003   42003
       0   42005   42006   42006       0   42008   42009   42009       0   42011
   42012   42012       0   42014   42015   42015       0   42017   42018   42018
       0   42020   42021   42021       0   42023   42024   42024       0   42026
   42027   42027       0   42029   42030   42030       0   42032   42033   42033
       0   42035   42036   42036       0   42038   42039   42039       0   42041
   42042   42042       0   42044   42045   42045       0   42047   42048   42048
       0   42050   42051   42051       0   42053   42054   42054       0   42056
   42057   42057       0   42059   42060   42060       0   42062   42063   42063
       0   42065   42066   42066       0   42068   42069   42069       0   42071
   42072   42072       0   42074   42075   42075       0   42077   42078   42078
       0   42080   42081   42081       0   42083   42084   42084       0   42086
   42087   42087       0   42089   42090   42090       0   42092   42093   42093
       0   42095   42096   42096       0   42098   42099   42099       0   42101
   42102   42102       0   42104   42105   42105       0   42107   42108   42108
       0   42110   42111   42111       0   42113   42114   42114       0   42116
   42117   42117       0   42119   42120   42120       0   42122   42123   42123
       0   42125   42126   42126       0   42128   42129   42129       0   42131
   42132   42132       0   42134   42135   42135       0   42137   42138   42138
       0   42140   42141   42141       0   42143   42144   42144       0   42146
   42147   42147       0   42149   42150   42150       0   42152   42153   42153
       0   42155   42156   42156       0   42158   42159   42159       0   42161
   42162   42162       0   42164   42165   42165       0   42167   42168   42168
       0   42170   42171   42171       0   42173   42174   42174       0   42176
   42177   42177       0   42179   42180   42180       0   42182   42183   42183
       0   42185   42186   42186       0   42188   42189   42189       0   42191
   42192   42192       0   42194   42195   42195       0   42197   42198   42198
       0   42200   42201   42201       0   42203   42204   42204       0   42206
   42207   42207       0   42209   42210   42210       0   42212   42213   42213
       0   42215   42216   42216       0   42218   42219   42219       0   42221
   42222   42222       0   42224   42225   42225       0   42227   42228   42228
       0   42230   42231   42231       0   42233   42234   42234       0   42236
   42237   42237       0   42239   42240   42240       0   42242   42243   42243
       0   42245   42246   42246       0   42248   42249   42249       0   42251
   42252   42252       0   42254   42255   42255       0   42257   42258   42258
       0   42260   42261   42261       0   42263   42264   42264       0   42266
   42267   42267       0   42269   42270   42270       0   42272   42273   42273
       0   42275   42276   42276       0   42278   42279   42279       0   42281
   42282   42282       0   42284   42285   42285       0   42287   42288   42288
       0   42290   42291   42291       0   42293   42294   42294       0   42296
   42297   42297       0   42299   42300   42300       0   42302   42303   42303
       0   42305   42306   42306       0   42308   42309   42309       0   42311
   42312   42312       0   42314   42315   42315       0   42317   42318   42318
       0   42320   42321   42321       0   42323   42324   42324       0   42326
   42327   42327       0   42329   42330   42330       0   42332   42333   42333
       0   42335   42336   42336       0   42338   42339   42339       0   42341
   42342   42342       0   42344   42345   42345       0   42347   42348   42348
       0   42350   42351   42351       0   42353   42354   42354       0   42356
   42357   42357       0   42359   42360   42360       0   42362   42363   42363
       0   42365   42366   42366       0   42368   42369   42369       0   42371
   42372   42372       0   42374   42375   42375       0   42377   42378   42378
       0   42380   42381   42381       0   42383   42384   42384       0   42386
   42387   42387       0   42389   42390   42390       0   42392   42393   42393
       0   42395   42396   42396       0   42398   42399   42399       0   42401
   42402   42402       0   42404   42405   42405       0   42407   42408   42408
       0   42410   42411   42411       0   42413   42414   42414       0   42416
   42417   42417       0   42419   42420   42420       0   42422   42423   42423
       0   42425   42426   42426       0   42428   42429   42429       0   42431
   42432   42432       0   42434   42435   42435       0   42437   42438   42438
       0   42440   42441   42441       0   42443   42444   42444       0   42446
   42447   42447       0   42449   42450   42450       0   42452   42453   42453
       0   42455   42456   42456       0   42458   42459   42459       0   42461
   42462   42462       0   42464   42465   42465       0   42467   42468   42468
       0   42470   42471   42471       0   42473   42474   42474       0   42476
   42477   42477       0   42479   42480   42480       0   42482   42483   42483
       0   42485   42486   42486       0   42488   42489   42489       0   42491
   42492   42492       0   42494   42495   42495       0   42497   42498   42498
       0   42500   42501   42501       0   42503   42504   42504       0   42506
   42507   42507       0   42509   42510   42510       0   42512   42513   42513
       0   42515   42516   42516       0   42518   42519   42519       0   42521
   42522   42522       0   42524   42525   42525       0   42527   42528   42528
       0   42530   42531   42531       0   42533   42534   42534       0   42536
   42537   42537       0   42539   42540   42540       0   42542   42543   42543
       0   42545   42546   42546       0   42548   42549   42549       0   42551
   42552   42552       0   42554   42555   42555       0   42557   42558   42558
       0   42560   42561   42561       0   42563   42564   42564       0   42566
   42567   42567       0   42569   42570   42570       0   42572   42573   42573
       0   42575   42576   42576       0   42578   42579   42579       0   42581
   42582   42582       0   42584   42585   42585       0   42587   42588   42588
       0   42590   42591   42591       0   42593   42594   42594       0   42596
   42597   42597       0   42599   42600   42600       0   42602   42603   42603
       0   42605   42606   42606       0   42608   42609   42609       0   42611
   42612   42612       0   42614   42615   42615       0   42617   42618   42618
       0   42620   42621   42621       0   42623   42624   42624       0   42626
   42627   42627       0   42629   42630   42630       0   42632   42633   42633
       0   42635   42636   42636       0   42638   42639   42639       0   42641
   42642   42642       0   42644   42645   42645       0   42647   42648   42648
       0   42650   42651   42651       0   42653   42654   42654       0   42656
   42657   42657       0   42659   42660   42660       0   42662   42663   42663
       0   42665   42666   42666       0   42668   42669   42669       0   42671
   42672   42672       0   42674   42675   42675       0   42677   42678   42678
       0   42680   42681   42681       0   42683   42684   42684       0   42686
   42687   42687       0   42689   42690   42690       0   42692   42693   42693
       0   42695   42696   42696       0   42698   42699   42699       0   42701
   42702   42702       0   42704   42705   42705       0   42707   42708   42708
       0   42710   42711   42711       0   42713   42714   42714       0   42716
   42717   42717       0   42719   42720   42720       0   42722   42723   42723
       0   42725   42726   42726       0   42728   42729   42729       0   42731
   42732   42732       0   42734   42735   42735       0   42737   42738   42738
       0   42740   42741   42741       0   42743   42744   42744       0   42746
   42747   42747       0   42749   42750   42750       0   42752   42753   42753
       0   42755   42756   42756       0   42758   42759   42759       0   42761
   42762   42762       0   42764   42765   42765       0   42767   42768   42768
       0   42770   42771   42771       0   42773   42774   42774       0   42776
   42777   42777       0   42779   42780   42780       0   42782   42783   42783
       0   42785   42786   42786       0   42788   42789   42789       0   42791
   42792   42792       0   42794   42795   42795       0   42797   42798   42798
       0   42800   42801   42801       0   42803   42804   42804       0   42806
   42807   42807       0   42809   42810   42810       0   42812   42813   42813
       0   42815   42816   42816       0   42818   42819   42819       0   42821
   42822   42822       0   42824   42825   42825       0   42827   42828   42828
       0   42830   42831   42831       0   42833   42834   42834       0   42836
   42837   42837       0   42839   42840   42840       0   42842   42843   42843
       0   42845   42846   42846       0   42848   42849   42849       0   42851
   42852   42852       0   42854   42855   42855       0   42857   42858   42858
       0   42860   42861   42861       0   42863   42864   42864       0   42866
   42867   42867       0   42869   42870   42870       0   42872   42873   42873
       0   42875   42876   42876       0   42878   42879   42879       0   42881
   42882   42882       0   42884   42885   42885       0   42887   42888   42888
       0   42890   42891   42891       0   42893   42894   42894       0   42896
   42897   42897       0   42899   42900   42900       0   42902   42903   42903
       0   42905   42906   42906       0   42908   42909   42909       0   42911
   42912   42912       0   42914   42915   42915       0   42917   42918   42918
       0   42920   42921   42921       0   42923   42924   42924       0   42926
   42927   42927       0   42929   42930   42930       0   42932   42933   42933
       0   42935   42936   42936       0   42938   42939   42939       0   42941
   42942   42942       0   42944   42945   42945       0   42947   42948   42948
       0   42950   42951   42951       0   42953   42954   42954       0   42956
   42957   42957       0   42959   42960   42960       0   42962   42963   42963
       0   42965   42966   42966       0   42968   42969   42969       0   42971
   42972   42972       0   42974   42975   42975       0   42977   42978   42978
       0   42980   42981   42981       0   42983   42984   42984       0   42986
   42987   42987       0   42989   42990   42990       0   42992   42993   42993
       0   42995   42996   42996       0   42998   42999   42999       0   43001
   43002   43002       0   43004   43005   43005       0   43007   43008   43008
       0   43010   43011   43011       0   43013   43014   43014       0   43016
   43017   43017       0   43019   43020   43020       0   43022   43023   43023
       0   43025   43026   43026       0   43028   43029   43029       0   43031
   43032   43032       0   43034   43035   43035       0   43037   43038   43038
       0   43040   43041   43041       0   43043   43044   43044       0   43046
   43047   43047       0   43049   43050   43050       0   43052   43053   43053
       0   43055   43056   43056       0   43058   43059   43059       0   43061
   43062   43062       0   43064   43065   43065       0   43067   43068   43068
       0   43070   43071   43071       0   43073   43074   43074       0   43076
   43077   43077       0   43079   43080   43080       0   43082   43083   43083
       0   43085   43086   43086       0   43088   43089   43089       0   43091
   43092   43092       0   43094   43095   43095       0   43097   43098   43098
       0   43100   43101   43101       0   43103   43104   43104       0   43106
   43107   43107       0   43109   43110   43110       0   43112   43113   43113
       0   43115   43116   43116       0   43118   43119   43119       0   43121
   43122   43122       0   43124   43125   43125       0   43127   43128   43128
       0   43130   43131   43131       0   43133   43134   43134       0   43136
   43137   43137       0   43139   43140   43140       0   43142   43143   43143
       0   43145   43146   43146       0   43148   43149   43149       0   43151
   43152   43152       0   43154   43155   43155       0   43157   43158   43158
       0   43160   43161   43161       0   43163   43164   43164       0   43166
   43167   43167       0   43169   43170   43170       0   43172   43173   43173
       0   43175   43176   43176       0   43178   43179   43179       0   43181
   43182   43182       0   43184   43185   43185       0   43187   43188   43188
       0   43190   43191   43191       0   43193   43194   43194       0   43196
   43197   43197       0   43199   43200   43200       0   43202   43203   43203
       0   43205   43206   43206       0   43208   43209   43209       0   43211
   43212   43212       0   43214   43215   43215       0   43217   43218   43218
       0   43220   43221   43221       0   43223   43224   43224       0   43226
   43227   43227       0   43229   43230   43230       0   43232   43233   43233
       0   43235   43236   43236       0   43238   43239   43239       0   43241
   43242   43242       0   43244   43245   43245       0   43247   43248   43248
       0   43250   43251   43251       0   43253   43254   43254       0   43256
   43257   43257       0   43259   43260   43260       0   43262   43263   43263
       0   43265   43266   43266       0   43268   43269   43269       0   43271
   43272   43272       0   43274   43275   43275       0   43277   43278   43278
       0   43280   43281   43281       0   43283   43284   43284       0   43286
   43287   43287       0   43289   43290   43290       0   43292   43293   43293
       0   43295   43296   43296       0   43298   43299   43299       0   43301
   43302   43302       0   43304   43305   43305       0   43307   43308   43308
       0   43310   43311   43311       0   43313   43314   43314       0   43316
   43317   43317       0   43319   43320   43320       0   43322   43323   43323
       0   43325   43326   43326       0   43328   43329   43329       0   43331
   43332   43332       0   43334   43335   43335       0   43337   43338   43338
       0   43340   43341   43341       0   43343   43344   43344       0   43346
   43347   43347       0   43349   43350   43350       0   43352   43353   43353
       0   43355   43356   43356       0   43358   43359   43359       0   43361
   43362   43362       0   43364   43365   43365       0   43367   43368   43368
       0   43370   43371   43371       0   43373   43374   43374       0   43376
   43377   43377       0   43379   43380   43380       0   43382   43383   43383
       0   43385   43386   43386       0   43388   43389   43389       0   43391
   43392   43392       0   43394   43395   43395       0   43397   43398   43398
       0   43400   43401   43401       0   43403   43404   43404       0   43406
   43407   43407       0   43409   43410   43410       0   43412   43413   43413
       0   43415   43416   43416       0   43418   43419   43419       0   43421
   43422   43422       0   43424   43425   43425       0   43427   43428   43428
       0   43430   43431   43431       0   43433   43434   43434       0   43436
   43437   43437       0   43439   43440   43440       0   43442   43443   43443
       0   43445   43446   43446       0   43448   43449   43449       0   43451
   43452   43452       0   43454   43455   43455       0   43457   43458   43458
       0   43460   43461   43461       0   43463   43464   43464       0   43466
   43467   43467       0   43469   43470   43470       0   43472   43473   43473
       0   43475   43476   43476       0   43478   43479   43479       0   43481
   43482   43482       0   43484   43485   43485       0   43487   43488   43488
       0   43490   43491   43491       0   43493   43494   43494       0   43496
   43497   43497       0   43499   43500   43500       0   43502   43503   43503
       0   43505   43506   43506       0   43508   43509   43509       0   43511
   43512   43512       0   43514   43515   43515       0   43517   43518   43518
       0   43520   43521   43521       0   43523   43524   43524       0   43526
   43527   43527       0   43529   43530   43530       0   43532   43533   43533
       0   43535   43536   43536       0   43538   43539   43539       0   43541
   43542   43542       0   43544   43545   43545       0   43547   43548   43548
       0   43550   43551   43551       0   43553   43554   43554       0   43556
   43557   43557       0   43559   43560   43560       0   43562   43563   43563
       0   43565   43566   43566       0   43568   43569   43569       0   43571
   43572   43572       0   43574   43575   43575       0   43577   43578   43578
       0   43580   43581   43581       0   43583   43584   43584       0   43586
   43587   43587       0   43589   43590   43590       0   43592   43593   43593
       0   43595   43596   43596       0   43598   43599   43599       0   43601
   43602   43602       0   43604   43605   43605       0   43607   43608   43608
       0   43610   43611   43611       0   43613   43614   43614       0   43616
   43617   43617       0   43619   43620   43620       0   43622   43623   43623
       0   43625   43626   43626       0   43628   43629   43629       0   43631
   43632   43632       0   43634   43635   43635       0   43637   43638   43638
       0   43640   43641   43641       0   43643   43644   43644       0   43646
   43647   43647       0   43649   43650   43650       0   43652   43653   43653
       0   43655   43656   43656       0   43658   43659   43659       0   43661
   43662   43662       0   43664   43665   43665       0   43667   43668   43668
       0   43670   43671   43671       0   43673   43674   43674       0   43676
   43677   43677       0   43679   43680   43680       0   43682   43683   43683
       0   43685   43686   43686       0   43688   43689   43689       0   43691
   43692   43692       0   43694   43695   43695       0   43697   43698   43698
       0   43700   43701   43701       0   43703   43704   43704       0   43706
   43707   43707       0   43709   43710   43710       0   43712   43713   43713
       0   43715   43716   43716       0   43718   43719   43719       0   43721
   43722   43722       0   43724   43725   43725       0   43727   43728   43728
       0   43730   43731   43731       0   43733   43734   43734       0   43736
   43737   43737       0   43739   43740   43740       0   43742   43743   43743
       0   43745   43746   43746       0   43748   43749   43749       0   43751
   43752   43752       0   43754   43755   43755       0   43757   43758   43758
       0   43760   43761   43761       0   43763   43764   43764       0   43766
   43767   43767       0   43769   43770   43770       0   43772   43773   43773
       0   43775   43776   43776       0   43778   43779   43779       0   43781
   43782   43782       0   43784   43785   43785       0   43787   43788   43788
       0   43790   43791   43791       0   43793   43794   43794       0   43796
   43797   43797       0   43799   43800   43800       0   43802   43803   43803
       0   43805   43806   43806       0   43808   43809   43809       0   43811
   43812   43812       0   43814   43815   43815       0   43817   43818   43818
       0   43820   43821   43821       0   43823   43824   43824       0   43826
   43827   43827       0   43829   43830   43830       0   43832   43833   43833
       0   43835   43836   43836       0   43838   43839   43839       0   43841
   43842   43842       0   43844   43845   43845       0   43847   43848   43848
       0   43850   43851   43851       0   43853   43854   43854       0   43856
   43857   43857       0   43859   43860   43860       0   43862   43863   43863
       0   43865   43866   43866       0   43868   43869   43869       0   43871
   43872   43872       0   43874   43875   43875       0   43877   43878   43878
       0   43880   43881   43881       0   43883   43884   43884       0   43886
   43887   43887       0   43889   43890   43890       0   43892   43893   43893
       0   43895   43896   43896       0   43898   43899   43899       0   43901
   43902   43902       0   43904   43905   43905       0   43907   43908   43908
       0   43910   43911   43911       0   43913   43914   43914       0   43916
   43917   43917       0   43919   43920   43920       0   43922   43923   43923
       0   43925   43926   43926       0   43928   43929   43929       0   43931
   43932   43932       0   43934   43935   43935       0   43937   43938   43938
       0   43940   43941   43941       0   43943   43944   43944       0   43946
   43947   43947       0   43949   43950   43950       0   43952   43953   43953
       0   43955   43956   43956       0   43958   43959   43959       0   43961
   43962   43962       0   43964   43965   43965       0   43967   43968   43968
       0   43970   43971   43971       0   43973   43974   43974       0   43976
   43977   43977       0   43979   43980   43980       0   43982   43983   43983
       0   43985   43986   43986       0   43988   43989   43989       0   43991
   43992   43992       0   43994   43995   43995       0   43997   43998   43998
       0   44000   44001   44001       0   44003   44004   44004       0   44006
   44007   44007       0   44009   44010   44010       0   44012   44013   44013
       0   44015   44016   44016       0   44018   44019   44019       0   44021
   44022   44022       0   44024   44025   44025       0   44027   44028   44028
       0   44030   44031   44031       0   44033   44034   44034       0   44036
   44037   44037       0   44039   44040   44040       0   44042   44043   44043
       0   44045   44046   44046       0   44048   44049   44049       0   44051
   44052   44052       0   44054   44055   44055       0   44057   44058   44058
       0   44060   44061   44061       0   44063   44064   44064       0   44066
   44067   44067       0   44069   44070   44070       0   44072   44073   44073
       0   44075   44076   44076       0   44078   44079   44079       0   44081
   44082   44082       0   44084   44085   44085       0   44087   44088   44088
       0   44090   44091   44091       0   44093   44094   44094       0   44096
   44097   44097       0   44099   44100   44100       0   44102   44103   44103
       0   44105   44106   44106       0   44108   44109   44109       0   44111
   44112   44112       0   44114   44115   44115       0   44117   44118   44118
       0   44120   44121   44121       0   44123   44124   44124       0   44126
   44127   44127       0   44129   44130   44130       0   44132   44133   44133
       0   44135   44136   44136       0   44138   44139   44139       0   44141
   44142   44142       0   44144   44145   44145       0   44147   44148   44148
       0   44150   44151   44151       0   44153   44154   44154       0   44156
   44157   44157       0   44159   44160   44160       0   44162   44163   44163
       0   44165   44166   44166       0   44168   44169   44169       0   44171
   44172   44172       0   44174   44175   44175       0   44177   44178   44178
       0   44180   44181   44181       0   44183   44184   44184       0   44186
   44187   44187       0   44189   44190   44190       0   44192   44193   44193
       0   44195   44196   44196       0   44198   44199   44199       0   44201
   44202   44202       0   44204   44205   44205       0   44207   44208   44208
       0   44210   44211   44211       0   44213   44214   44214       0   44216
   44217   44217       0   44219   44220   44220       0   44222   44223   44223
       0   44225   44226   44226       0   44228   44229   44229       0   44231
   44232   44232       0   44234   44235   44235       0   44237   44238   44238
       0   44240   44241   44241       0   44243   44244   44244       0   44246
   44247   44247       0   44249   44250   44250       0   44252   44253   44253
       0   44255   44256   44256       0   44258   44259   44259       0   44261
   44262   44262       0   44264   44265   44265       0   44267   44268   44268
       0   44270   44271   44271       0   44273   44274   44274       0   44276
   44277   44277       0   44279   44280   44280       0   44282   44283   44283
       0   44285   44286   44286       0   44288   44289   44289       0   44291
   44292   44292       0   44294   44295   44295       0   44297   44298   44298
       0   44300   44301   44301       0   44303   44304   44304       0   44306
   44307   44307       0   44309   44310   44310       0   44312   44313   44313
       0   44315   44316   44316       0   44318   44319   44319       0   44321
   44322   44322       0   44324   44325   44325       0   44327   44328   44328
       0   44330   44331   44331       0   44333   44334   44334       0   44336
   44337   44337       0   44339   44340   44340       0   44342   44343   44343
       0   44345   44346   44346       0   44348   44349   44349       0   44351
   44352   44352       0   44354   44355   44355       0   44357   44358   44358
       0   44360   44361   44361       0   44363   44364   44364       0   44366
   44367   44367       0   44369   44370   44370       0   44372   44373   44373
       0   44375   44376   44376       0   44378   44379   44379       0   44381
   44382   44382       0   44384   44385   44385       0   44387   44388   44388
       0   44390   44391   44391       0   44393   44394   44394       0   44396
   44397   44397       0   44399   44400   44400       0   44402   44403   44403
       0   44405   44406   44406       0   44408   44409   44409       0   44411
   44412   44412       0   44414   44415   44415       0   44417   44418   44418
       0   44420   44421   44421       0   44423   44424   44424       0   44426
   44427   44427       0   44429   44430   44430       0   44432   44433   44433
       0   44435   44436   44436       0   44438   44439   44439       0   44441
   44442   44442       0   44444   44445   44445       0   44447   44448   44448
       0   44450   44451   44451       0   44453   44454   44454       0   44456
   44457   44457       0   44459   44460   44460       0   44462   44463   44463
       0   44465   44466   44466       0   44468   44469   44469       0   44471
   44472   44472       0   44474   44475   44475       0   44477   44478   44478
       0   44480   44481   44481       0   44483   44484   44484       0   44486
   44487   44487       0   44489   44490   44490       0   44492   44493   44493
       0   44495   44496   44496       0   44498   44499   44499       0   44501
   44502   44502       0   44504   44505   44505       0   44507   44508   44508
       0   44510   44511   44511       0   44513   44514   44514       0   44516
   44517   44517       0   44519   44520   44520       0   44522   44523   44523
       0   44525   44526   44526       0   44528   44529   44529       0   44531
   44532   44532       0   44534   44535   44535       0   44537   44538   44538
       0   44540   44541   44541       0   44543   44544   44544       0   44546
   44547   44547       0   44549   44550   44550       0   44552   44553   44553
       0   44555   44556   44556       0   44558   44559   44559       0   44561
   44562   44562       0   44564   44565   44565       0   44567   44568   44568
       0   44570   44571   44571       0   44573   44574   44574       0   44576
   44577   44577       0   44579   44580   44580       0   44582   44583   44583
       0   44585   44586   44586       0   44588   44589   44589       0   44591
   44592   44592       0   44594   44595   44595       0   44597   44598   44598
       0   44600   44601   44601       0   44603   44604   44604       0   44606
   44607   44607       0   44609   44610   44610       0   44612   44613   44613
       0   44615   44616   44616       0   44618   44619   44619       0   44621
   44622   44622       0   44624   44625   44625       0   44627   44628   44628
       0   44630   44631   44631       0   44633   44634   44634       0   44636
   44637   44637       0   44639   44640   44640       0   44642   44643   44643
       0   44645   44646   44646       0   44648   44649   44649       0   44651
   44652   44652       0   44654   44655   44655       0   44657   44658   44658
       0   44660   44661   44661       0   44663   44664   44664       0   44666
   44667   44667       0   44669   44670   44670       0   44672   44673   44673
       0   44675   44676   44676       0   44678   44679   44679       0   44681
   44682   44682       0   44684   44685   44685       0   44687   44688   44688
       0   44690   44691   44691       0   44693   44694   44694       0   44696
   44697   44697       0   44699   44700   44700       0   44702   44703   44703
       0   44705   44706   44706       0   44708   44709   44709       0   44711
   44712   44712       0   44714   44715   44715       0   44717   44718   44718
       0   44720   44721   44721       0   44723   44724   44724       0   44726
   44727   44727       0   44729   44730   44730       0   44732   44733   44733
       0   44735   44736   44736       0   44738   44739   44739       0   44741
   44742   44742       0   44744   44745   44745       0   44747   44748   44748
       0   44750   44751   44751       0   44753   44754   44754       0   44756
   44757   44757       0   44759   44760   44760       0   44762   44763   44763
       0   44765   44766   44766       0   44768   44769   44769       0   44771
   44772   44772       0   44774   44775   44775       0   44777   44778   44778
       0   44780   44781   44781       0   44783   44784   44784       0   44786
   44787   44787       0   44789   44790   44790       0   44792   44793   44793
       0   44795   44796   44796       0   44798   44799   44799       0   44801
   44802   44802       0   44804   44805   44805       0   44807   44808   44808
       0   44810   44811   44811       0   44813   44814   44814       0   44816
   44817   44817       0   44819   44820   44820       0   44822   44823   44823
       0   44825   44826   44826       0   44828   44829   44829       0   44831
   44832   44832       0   44834   44835   44835       0   44837   44838   44838
       0   44840   44841   44841       0   44843   44844   44844       0   44846
   44847   44847       0   44849   44850   44850       0   44852   44853   44853
       0   44855   44856   44856       0   44858   44859   44859       0   44861
   44862   44862       0   44864   44865   44865       0   44867   44868   44868
       0   44870   44871   44871       0   44873   44874   44874       0   44876
   44877   44877       0   44879   44880   44880       0   44882   44883   44883
       0   44885   44886   44886       0   44888   44889   44889       0   44891
   44892   44892       0   44894   44895   44895       0   44897   44898   44898
       0   44900   44901   44901       0   44903   44904   44904       0   44906
   44907   44907       0   44909   44910   44910       0   44912   44913   44913
       0   44915   44916   44916       0   44918   44919   44919       0   44921
   44922   44922       0   44924   44925   44925       0   44927   44928   44928
       0   44930   44931   44931       0   44933   44934   44934       0   44936
   44937   44937       0   44939   44940   44940       0   44942   44943   44943
       0   44945   44946   44946       0   44948   44949   44949       0   44951
   44952   44952       0   44954   44955   44955       0   44957   44958   44958
       0   44960   44961   44961       0   44963   44964   44964       0   44966
   44967   44967       0   44969   44970   44970       0   44972   44973   44973
       0   44975   44976   44976       0   44978   44979   44979       0   44981
   44982   44982       0   44984   44985   44985       0   44987   44988   44988
       0   44990   44991   44991       0   44993   44994   44994       0   44996
   44997   44997       0   44999   45000   45000       0   45002   45003   45003
       0   45005   45006   45006       0   45008   45009   45009       0   45011
   45012   45012       0   45014   45015   45015       0   45017   45018   45018
       0   45020   45021   45021       0   45023   45024   45024       0   45026
   45027   45027       0   45029   45030   45030       0   45032   45033   45033
       0   45035   45036   45036       0   45038   45039   45039       0   45041
   45042   45042       0   45044   45045   45045       0   45047   45048   45048
       0   45050   45051   45051       0   45053   45054   45054       0   45056
   45057   45057       0   45059   45060   45060       0   45062   45063   45063
       0   45065   45066   45066       0   45068   45069   45069       0   45071
   45072   45072       0   45074   45075   45075       0   45077   45078   45078
       0   45080   45081   45081       0   45083   45084   45084       0   45086
   45087   45087       0   45089   45090   45090       0   45092   45093   45093
       0   45095   45096   45096       0   45098   45099   45099       0   45101
   45102   45102       0   45104   45105   45105       0   45107   45108   45108
       0   45110   45111   45111       0   45113   45114   45114       0   45116
   45117   45117       0   45119   45120   45120       0   45122   45123   45123
       0   45125   45126   45126       0   45128   45129   45129       0   45131
   45132   45132       0   45134   45135   45135       0   45137   45138   45138
       0   45140   45141   45141       0   45143   45144   45144       0   45146
   45147   45147       0   45149   45150   45150       0   45152   45153   45153
       0   45155   45156   45156       0   45158   45159   45159       0   45161
   45162   45162       0   45164   45165   45165       0   45167   45168   45168
       0   45170   45171   45171       0   45173   45174   45174       0   45176
   45177   45177       0   45179   45180   45180       0   45182   45183   45183
       0   45185   45186   45186       0   45188   45189   45189       0   45191
   45192   45192       0   45194   45195   45195       0   45197   45198   45198
       0   45200   45201   45201       0   45203   45204   45204       0   45206
   45207   45207       0   45209   45210   45210       0   45212   45213   45213
       0   45215   45216   45216       0   45218   45219   45219       0   45221
   45222   45222       0   45224   45225   45225       0   45227   45228   45228
       0   45230   45231   45231       0   45233   45234   45234       0   45236
   45237   45237       0   45239   45240   45240       0   45242   45243   45243
       0   45245   45246   45246       0   45248   45249   45249       0   45251
   45252   45252       0   45254   45255   45255       0   45257   45258   45258
       0   45260   45261   45261       0   45263   45264   45264       0   45266
   45267   45267       0   45269   45270   45270       0   45272   45273   45273
       0   45275   45276   45276       0   45278   45279   45279       0   45281
   45282   45282       0   45284   45285   45285       0   45287   45288   45288
       0   45290   45291   45291       0   45293   45294   45294       0   45296
   45297   45297       0   45299   45300   45300       0   45302   45303   45303
       0   45305   45306   45306       0   45308   45309   45309       0   45311
   45312   45312       0   45314   45315   45315       0   45317   45318   45318
       0   45320   45321   45321       0   45323   45324   45324       0   45326
   45327   45327       0   45329   45330   45330       0   45332   45333   45333
       0   45335   45336   45336       0   45338   45339   45339       0   45341
   45342   45342       0   45344   45345   45345       0   45347   45348   45348
       0   45350   45351   45351       0   45353   45354   45354       0   45356
   45357   45357       0   45359   45360   45360       0   45362   45363   45363
       0   45365   45366   45366       0   45368   45369   45369       0   45371
   45372   45372       0   45374   45375   45375       0   45377   45378   45378
       0   45380   45381   45381       0   45383   45384   45384       0   45386
   45387   45387       0   45389   45390   45390       0   45392   45393   45393
       0   45395   45396   45396       0   45398   45399   45399       0   45401
   45402   45402       0   45404   45405   45405       0   45407   45408   45408
       0   45410   45411   45411       0   45413   45414   45414       0   45416
   45417   45417       0   45419   45420   45420       0   45422   45423   45423
       0   45425   45426   45426       0   45428   45429   45429       0   45431
   45432   45432       0   45434   45435   45435       0   45437   45438   45438
       0   45440   45441   45441       0   45443   45444   45444       0   45446
   45447   45447       0   45449   45450   45450       0   45452   45453   45453
       0   45455   45456   45456       0   45458   45459   45459       0   45461
   45462   45462       0   45464   45465   45465       0   45467   45468   45468
       0   45470   45471   45471       0   45473   45474   45474       0   45476
   45477   45477       0   45479   45480   45480       0   45482   45483   45483
       0   45485   45486   45486       0   45488   45489   45489       0   45491
   45492   45492       0   45494   45495   45495       0   45497   45498   45498
       0   45500   45501   45501       0   45503   45504   45504       0   45506
   45507   45507       0   45509   45510   45510       0   45512   45513   45513
       0   45515   45516   45516       0   45518   45519   45519       0   45521
   45522   45522       0   45524   45525   45525       0   45527   45528   45528
       0   45530   45531   45531       0   45533   45534   45534       0   45536
   45537   45537       0   45539   45540   45540       0   45542   45543   45543
       0   45545   45546   45546       0   45548   45549   45549       0   45551
   45552   45552       0   45554   45555   45555       0   45557   45558   45558
       0   45560   45561   45561       0   45563   45564   45564       0   45566
   45567   45567       0   45569   45570   45570       0   45572   45573   45573
       0   45575   45576   45576       0   45578   45579   45579       0   45581
   45582   45582       0   45584   45585   45585       0   45587   45588   45588
       0   45590   45591   45591       0   45593   45594   45594       0   45596
   45597   45597       0   45599   45600   45600       0   45602   45603   45603
       0   45605   45606   45606       0   45608   45609   45609       0   45611
   45612   45612       0   45614   45615   45615       0   45617   45618   45618
       0   45620   45621   45621       0   45623   45624   45624       0   45626
   45627   45627       0   45629   45630   45630       0   45632   45633   45633
       0   45635   45636   45636       0   45638   45639   45639       0   45641
   45642   45642       0   45644   45645   45645       0   45647   45648   45648
       0   45650   45651   45651       0   45653   45654   45654       0   45656
   45657   45657       0   45659   45660   45660       0   45662   45663   45663
       0   45665   45666   45666       0   45668   45669   45669       0   45671
   45672   45672       0   45674   45675   45675       0   45677   45678   45678
       0   45680   45681   45681       0   45683   45684   45684       0   45686
   45687   45687       0   45689   45690   45690       0   45692   45693   45693
       0   45695   45696   45696       0   45698   45699   45699       0   45701
   45702   45702       0   45704   45705   45705       0   45707   45708   45708
       0   45710   45711   45711       0   45713   45714   45714       0   45716
   45717   45717       0   45719   45720   45720       0   45722   45723   45723
       0   45725   45726   45726       0   45728   45729   45729       0   45731
   45732   45732       0   45734   45735   45735       0   45737   45738   45738
       0   45740   45741   45741       0   45743   45744   45744       0   45746
   45747   45747       0   45749   45750   45750       0   45752   45753   45753
       0   45755   45756   45756       0   45758   45759   45759       0   45761
   45762   45762       0   45764   45765   45765       0   45767   45768   45768
       0   45770   45771   45771       0   45773   45774   45774       0   45776
   45777   45777       0   45779   45780   45780       0   45782   45783   45783
       0   45785   45786   45786       0   45788   45789   45789       0   45791
   45792   45792       0   45794   45795   45795       0   45797   45798   45798
       0   45800   45801   45801       0   45803   45804   45804       0   45806
   45807   45807       0   45809   45810   45810       0   45812   45813   45813
       0   45815   45816   45816       0   45818   45819   45819       0   45821
   45822   45822       0   45824   45825   45825       0   45827   45828   45828
       0   45830   45831   45831       0   45833   45834   45834       0   45836
   45837   45837       0   45839   45840   45840       0   45842   45843   45843
       0   45845   45846   45846       0   45848   45849   45849       0   45851
   45852   45852       0   45854   45855   45855       0   45857   45858   45858
       0   45860   45861   45861       0   45863   45864   45864       0   45866
   45867   45867       0   45869   45870   45870       0   45872   45873   45873
       0   45875   45876   45876       0   45878   45879   45879       0   45881
   45882   45882       0   45884   45885   45885       0   45887   45888   45888
       0   45890   45891   45891       0   45893   45894   45894       0   45896
   45897   45897       0   45899   45900   45900       0   45902   45903   45903
       0   45905   45906   45906       0   45908   45909   45909       0   45911
   45912   45912       0   45914   45915   45915       0   45917   45918   45918
       0   45920   45921   45921       0   45923   45924   45924       0   45926
   45927   45927       0   45929   45930   45930       0   45932   45933   45933
       0   45935   45936   45936       0   45938   45939   45939       0   45941
   45942   45942       0   45944   45945   45945       0   45947   45948   45948
       0   45950   45951   45951       0   45953   45954   45954       0   45956
   45957   45957       0   45959   45960   45960       0   45962   45963   45963
       0   45965   45966   45966       0   45968   45969   45969       0   45971
   45972   45972       0   45974   45975   45975       0   45977   45978   45978
       0   45980   45981   45981       0   45983   45984   45984       0   45986
   45987   45987       0   45989   45990   45990       0   45992   45993   45993
       0   45995   45996   45996       0   45998   45999   45999       0   46001
   46002   46002       0   46004   46005   46005       0   46007   46008   46008
       0   46010   46011   46011       0   46013   46014   46014       0   46016
   46017   46017       0   46019   46020   46020       0   46022   46023   46023
       0   46025   46026   46026       0   46028   46029   46029       0   46031
   46032   46032       0   46034   46035   46035       0   46037   46038   46038
       0   46040   46041   46041       0   46043   46044   46044       0   46046
   46047   46047       0   46049   46050   46050       0   46052   46053   46053
       0   46055   46056   46056       0   46058   46059   46059       0   46061
   46062   46062       0   46064   46065   46065       0   46067   46068   46068
       0   46070   46071   46071       0   46073   46074   46074       0   46076
   46077   46077       0   46079   46080   46080       0   46082   46083   46083
       0   46085   46086   46086       0   46088   46089   46089       0   46091
   46092   46092       0   46094   46095   46095       0   46097   46098   46098
       0   46100   46101   46101       0   46103   46104   46104       0   46106
   46107   46107       0   46109   46110   46110       0   46112   46113   46113
       0   46115   46116   46116       0   46118   46119   46119       0   46121
   46122   46122       0   46124   46125   46125       0   46127   46128   46128
       0   46130   46131   46131       0   46133   46134   46134       0   46136
   46137   46137       0   46139   46140   46140       0   46142   46143   46143
       0   46145   46146   46146       0   46148   46149   46149       0   46151
   46152   46152       0   46154   46155   46155       0   46157   46158   46158
       0   46160   46161   46161       0   46163   46164   46164       0   46166
   46167   46167       0   46169   46170   46170       0   46172   46173   46173
       0   46175   46176   46176       0   46178   46179   46179       0   46181
   46182   46182       0   46184   46185   46185       0   46187   46188   46188
       0   46190   46191   46191       0   46193   46194   46194       0   46196
   46197   46197       0   46199   46200   46200       0   46202   46203   46203
       0   46205   46206   46206       0   46208   46209   46209       0   46211
   46212   46212       0   46214   46215   46215       0   46217   46218   46218
       0   46220   46221   46221       0   46223   46224   46224       0   46226
   46227   46227       0   46229   46230   46230       0   46232   46233   46233
       0   46235   46236   46236       0   46238   46239   46239       0   46241
   46242   46242       0   46244   46245   46245       0   46247   46248   46248
       0   46250   46251   46251       0   46253   46254   46254       0   46256
   46257   46257       0   46259   46260   46260       0   46262   46263   46263
       0   46265   46266   46266       0   46268   46269   46269       0   46271
   46272   46272       0   46274   46275   46275       0   46277   46278   46278
       0   46280   46281   46281       0   46283   46284   46284       0   46286
   46287   46287       0   46289   46290   46290       0   46292   46293   46293
       0   46295   46296   46296       0   46298   46299   46299       0   46301
   46302   46302       0   46304   46305   46305       0   46307   46308   46308
       0   46310   46311   46311       0   46313   46314   46314       0   46316
   46317   46317       0   46319   46320   46320       0   46322   46323   46323
       0   46325   46326   46326       0   46328   46329   46329       0   46331
   46332   46332       0   46334   46335   46335       0   46337   46338   46338
       0   46340   46341   46341       0   46343   46344   46344       0   46346
   46347   46347       0   46349   46350   46350       0   46352   46353   46353
       0   46355   46356   46356       0   46358   46359   46359       0   46361
   46362   46362       0   46364   46365   46365       0   46367   46368   46368
       0   46370   46371   46371       0   46373   46374   46374       0   46376
   46377   46377       0   46379   46380   46380       0   46382   46383   46383
       0   46385   46386   46386       0   46388   46389   46389       0   46391
   46392   46392       0   46394   46395   46395       0   46397   46398   46398
       0   46400   46401   46401       0   46403   46404   46404       0   46406
   46407   46407       0   46409   46410   46410       0   46412   46413   46413
       0   46415   46416   46416       0   46418   46419   46419       0   46421
   46422   46422       0   46424   46425   46425       0   46427   46428   46428
       0   46430   46431   46431       0   46433   46434   46434       0   46436
   46437   46437       0   46439   46440   46440       0   46442   46443   46443
       0   46445   46446   46446       0   46448   46449   46449       0   46451
   46452   46452       0   46454   46455   46455       0   46457   46458   46458
       0   46460   46461   46461       0   46463   46464   46464       0   46466
   46467   46467       0   46469   46470   46470       0   46472   46473   46473
       0   46475   46476   46476       0   46478   46479   46479       0   46481
   46482   46482       0   46484   46485   46485       0   46487   46488   46488
       0   46490   46491   46491       0   46493   46494   46494       0   46496
   46497   46497       0   46499   46500   46500       0   46502   46503   46503
       0   46505   46506   46506       0   46508   46509   46509       0   46511
   46512   46512       0   46514   46515   46515       0   46517   46518   46518
       0   46520   46521   46521       0   46523   46524   46524       0   46526
   46527   46527       0   46529   46530   46530       0   46532   46533   46533
       0   46535   46536   46536       0   46538   46539   46539       0   46541
   46542   46542       0   46544   46545   46545       0   46547   46548   46548
       0   46550   46551   46551       0   46553   46554   46554       0   46556
   46557   46557       0   46559   46560   46560       0   46562   46563   46563
       0   46565   46566   46566       0   46568   46569   46569       0   46571
   46572   46572       0   46574   46575   46575       0   46577   46578   46578
       0   46580   46581   46581       0   46583   46584   46584       0   46586
   46587   46587       0   46589   46590   46590       0   46592   46593   46593
       0   46595   46596   46596       0   46598   46599   46599       0   46601
   46602   46602       0   46604   46605   46605       0   46607   46608   46608
       0   46610   46611   46611       0   46613   46614   46614       0   46616
   46617   46617       0   46619   46620   46620       0   46622   46623   46623
       0   46625   46626   46626       0   46628   46629   46629       0   46631
   46632   46632       0   46634   46635   46635       0   46637   46638   46638
       0   46640   46641   46641       0   46643   46644   46644       0   46646
   46647   46647       0   46649   46650   46650       0   46652   46653   46653
       0   46655   46656   46656       0   46658   46659   46659       0   46661
   46662   46662       0   46664   46665   46665       0   46667   46668   46668
       0   46670   46671   46671       0   46673   46674   46674       0   46676
   46677   46677       0   46679   46680   46680       0   46682   46683   46683
       0   46685   46686   46686       0   46688   46689   46689       0   46691
   46692   46692       0   46694   46695   46695       0   46697   46698   46698
       0   46700   46701   46701       0   46703   46704   46704       0   46706
   46707   46707       0   46709   46710   46710       0   46712   46713   46713
       0   46715   46716   46716       0   46718   46719   46719       0   46721
   46722   46722       0   46724   46725   46725       0   46727   46728   46728
       0   46730   46731   46731       0   46733   46734   46734       0   46736
   46737   46737       0   46739   46740   46740       0   46742   46743   46743
       0   46745   46746   46746       0   46748   46749   46749       0   46751
   46752   46752       0   46754   46755   46755       0   46757   46758   46758
       0   46760   46761   46761       0   46763   46764   46764       0   46766
   46767   46767       0   46769   46770   46770       0   46772   46773   46773
       0   46775   46776   46776       0   46778   46779   46779       0   46781
   46782   46782       0   46784   46785   46785       0   46787   46788   46788
       0   46790   46791   46791       0   46793   46794   46794       0   46796
   46797   46797       0   46799   46800   46800       0   46802   46803   46803
       0   46805   46806   46806       0   46808   46809   46809       0   46811
   46812   46812       0   46814   46815   46815       0   46817   46818   46818
       0   46820   46821   46821       0   46823   46824   46824       0   46826
   46827   46827       0   46829   46830   46830       0   46832   46833   46833
       0   46835   46836   46836       0   46838   46839   46839       0   46841
   46842   46842       0   46844   46845   46845       0   46847   46848   46848
       0   46850   46851   46851       0   46853   46854   46854       0   46856
   46857   46857       0   46859   46860   46860       0   46862   46863   46863
       0   46865   46866   46866       0   46868   46869   46869       0   46871
   46872   46872       0   46874   46875   46875       0   46877   46878   46878
       0   46880   46881   46881       0   46883   46884   46884       0   46886
   46887   46887       0   46889   46890   46890       0   46892   46893   46893
       0   46895   46896   46896       0   46898   46899   46899       0   46901
   46902   46902       0   46904   46905   46905       0   46907   46908   46908
       0   46910   46911   46911       0   46913   46914   46914       0   46916
   46917   46917       0   46919   46920   46920       0   46922   46923   46923
       0   46925   46926   46926       0   46928   46929   46929       0   46931
   46932   46932       0   46934   46935   46935       0   46937   46938   46938
       0   46940   46941   46941       0   46943   46944   46944       0   46946
   46947   46947       0   46949   46950   46950       0   46952   46953   46953
       0   46955   46956   46956       0   46958   46959   46959       0   46961
   46962   46962       0   46964   46965   46965       0   46967   46968   46968
       0   46970   46971   46971       0   46973   46974   46974       0   46976
   46977   46977       0   46979   46980   46980       0   46982   46983   46983
       0   46985   46986   46986       0   46988   46989   46989       0   46991
   46992   46992       0   46994   46995   46995       0   46997   46998   46998
       0   47000   47001   47001       0   47003   47004   47004       0   47006
   47007   47007       0   47009   47010   47010       0   47012   47013   47013
       0   47015   47016   47016       0   47018   47019   47019       0   47021
   47022   47022       0   47024   47025   47025       0   47027   47028   47028
       0   47030   47031   47031       0   47033   47034   47034       0   47036
   47037   47037       0   47039   47040   47040       0   47042   47043   47043
       0   47045   47046   47046       0   47048   47049   47049       0   47051
   47052   47052       0   47054   47055   47055       0   47057   47058   47058
       0   47060   47061   47061       0   47063   47064   47064       0   47066
   47067   47067       0   47069   47070   47070       0   47072   47073   47073
       0   47075   47076   47076       0   47078   47079   47079       0   47081
   47082   47082       0   47084   47085   47085       0   47087   47088   47088
       0   47090   47091   47091       0   47093   47094   47094       0   47096
   47097   47097       0   47099   47100   47100       0   47102   47103   47103
       0   47105   47106   47106       0   47108   47109   47109       0   47111
   47112   47112       0   47114   47115   47115       0   47117   47118   47118
       0   47120   47121   47121       0   47123   47124   47124       0   47126
   47127   47127       0   47129   47130   47130       0   47132   47133   47133
       0   47135   47136   47136       0   47138   47139   47139       0   47141
   47142   47142       0   47144   47145   47145       0   47147   47148   47148
       0   47150   47151   47151       0   47153   47154   47154       0   47156
   47157   47157       0   47159   47160   47160       0   47162   47163   47163
       0   47165   47166   47166       0   47168   47169   47169       0   47171
   47172   47172       0   47174   47175   47175       0   47177   47178   47178
       0   47180   47181   47181       0   47183   47184   47184       0   47186
   47187   47187       0   47189   47190   47190       0   47192   47193   47193
       0   47195   47196   47196       0   47198   47199   47199       0   47201
   47202   47202       0   47204   47205   47205       0   47207   47208   47208
       0   47210   47211   47211       0   47213   47214   47214       0   47216
   47217   47217       0   47219   47220   47220       0   47222   47223   47223
       0   47225   47226   47226       0   47228   47229   47229       0   47231
   47232   47232       0   47234   47235   47235       0   47237   47238   47238
       0   47240   47241   47241       0   47243   47244   47244       0   47246
   47247   47247       0   47249   47250   47250       0   47252   47253   47253
       0   47255   47256   47256       0   47258   47259   47259       0   47261
   47262   47262       0   47264   47265   47265       0   47267   47268   47268
       0   47270   47271   47271       0   47273   47274   47274       0   47276
   47277   47277       0   47279   47280   47280       0   47282   47283   47283
       0   47285   47286   47286       0   47288   47289   47289       0   47291
   47292   47292       0   47294   47295   47295       0   47297   47298   47298
       0   47300   47301   47301       0   47303   47304   47304       0   47306
   47307   47307       0   47309   47310   47310       0   47312   47313   47313
       0   47315   47316   47316       0   47318   47319   47319       0   47321
   47322   47322       0   47324   47325   47325       0   47327   47328   47328
       0   47330   47331   47331       0   47333   47334   47334       0   47336
   47337   47337       0   47339   47340   47340       0   47342   47343   47343
       0   47345   47346   47346       0   47348   47349   47349       0   47351
   47352   47352       0   47354   47355   47355       0   47357   47358   47358
       0   47360   47361   47361       0   47363   47364   47364       0   47366
   47367   47367       0   47369   47370   47370       0   47372   47373   47373
       0   47375   47376   47376       0   47378   47379   47379       0   47381
   47382   47382       0   47384   47385   47385       0   47387   47388   47388
       0   47390   47391   47391       0   47393   47394   47394       0   47396
   47397   47397       0   47399   47400   47400       0   47402   47403   47403
       0   47405   47406   47406       0   47408   47409   47409       0   47411
   47412   47412       0   47414   47415   47415       0   47417   47418   47418
       0   47420   47421   47421       0   47423   47424   47424       0   47426
   47427   47427       0   47429   47430   47430       0   47432   47433   47433
       0   47435   47436   47436       0   47438   47439   47439       0   47441
   47442   47442       0   47444   47445   47445       0   47447   47448   47448
       0   47450   47451   47451       0   47453   47454   47454       0   47456
   47457   47457       0   47459   47460   47460       0   47462   47463   47463
       0   47465   47466   47466       0   47468   47469   47469       0   47471
   47472   47472       0   47474   47475   47475       0   47477   47478   47478
       0   47480   47481   47481       0   47483   47484   47484       0   47486
   47487   47487       0   47489   47490   47490       0   47492   47493   47493
       0   47495   47496   47496       0   47498   47499   47499       0   47501
   47502   47502       0   47504   47505   47505       0   47507   47508   47508
       0   47510   47511   47511       0   47513   47514   47514       0   47516
   47517   47517       0   47519   47520   47520       0   47522   47523   47523
       0   47525   47526   47526       0   47528   47529   47529       0   47531
   47532   47532       0   47534   47535   47535       0   47537   47538   47538
       0   47540   47541   47541       0   47543   47544   47544       0   47546
   47547   47547       0   47549   47550   47550       0   47552   47553   47553
       0   47555   47556   47556       0   47558   47559   47559       0   47561
   47562   47562       0   47564   47565   47565       0   47567   47568   47568
       0   47570   47571   47571       0   47573   47574   47574       0   47576
   47577   47577       0   47579   47580   47580       0   47582   47583   47583
       0   47585   47586   47586       0   47588   47589   47589       0   47591
   47592   47592       0   47594   47595   47595       0   47597   47598   47598
       0   47600   47601   47601       0   47603   47604   47604       0   47606
   47607   47607       0   47609   47610   47610       0   47612   47613   47613
       0   47615   47616   47616       0   47618   47619   47619       0   47621
   47622   47622       0   47624   47625   47625       0   47627   47628   47628
       0   47630   47631   47631       0   47633   47634   47634       0   47636
   47637   47637       0   47639   47640   47640       0   47642   47643   47643
       0   47645   47646   47646       0   47648   47649   47649       0   47651
   47652   47652       0   47654   47655   47655       0   47657   47658   47658
       0   47660   47661   47661       0   47663   47664   47664       0   47666
   47667   47667       0   47669   47670   47670       0   47672   47673   47673
       0   47675   47676   47676       0   47678   47679   47679       0   47681
   47682   47682       0   47684   47685   47685       0   47687   47688   47688
       0   47690   47691   47691       0   47693   47694   47694       0   47696
   47697   47697       0   47699   47700   47700       0   47702   47703   47703
       0   47705   47706   47706       0   47708   47709   47709       0   47711
   47712   47712       0   47714   47715   47715       0   47717   47718   47718
       0   47720   47721   47721       0   47723   47724   47724       0   47726
   47727   47727       0   47729   47730   47730       0   47732   47733   47733
       0   47735   47736   47736       0   47738   47739   47739       0   47741
   47742   47742       0   47744   47745   47745       0   47747   47748   47748
       0   47750   47751   47751       0   47753   47754   47754       0   47756
   47757   47757       0   47759   47760   47760       0   47762   47763   47763
       0   47765   47766   47766       0   47768   47769   47769       0   47771
   47772   47772       0   47774   47775   47775       0   47777   47778   47778
       0   47780   47781   47781       0   47783   47784   47784       0   47786
   47787   47787       0   47789   47790   47790       0   47792   47793   47793
       0   47795   47796   47796       0   47798   47799   47799       0   47801
   47802   47802       0   47804   47805   47805       0   47807   47808   47808
       0   47810   47811   47811       0   47813   47814   47814       0   47816
   47817   47817       0   47819   47820   47820       0   47822   47823   47823
       0   47825   47826   47826       0   47828   47829   47829       0   47831
   47832   47832       0   47834   47835   47835       0   47837   47838   47838
       0   47840   47841   47841       0   47843   47844   47844       0   47846
   47847   47847       0   47849   47850   47850       0   47852   47853   47853
       0   47855   47856   47856       0   47858   47859   47859       0   47861
   47862   47862       0   47864   47865   47865       0   47867   47868   47868
       0   47870   47871   47871       0   47873   47874   47874       0   47876
   47877   47877       0   47879   47880   47880       0   47882   47883   47883
       0   47885   47886   47886       0   47888   47889   47889       0   47891
   47892   47892       0   47894   47895   47895       0   47897   47898   47898
       0   47900   47901   47901       0   47903   47904   47904       0   47906
   47907   47907       0   47909   47910   47910       0   47912   47913   47913
       0   47915   47916   47916       0   47918   47919   47919       0   47921
   47922   47922       0   47924   47925   47925       0   47927   47928   47928
       0   47930   47931   47931       0   47933   47934   47934       0   47936
   47937   47937       0   47939   47940   47940       0   47942   47943   47943
       0   47945   47946   47946       0   47948   47949   47949       0   47951
   47952   47952       0   47954   47955   47955       0   47957   47958   47958
       0   47960   47961   47961       0   47963   47964   47964       0   47966
   47967   47967       0   47969   47970   47970       0   47972   47973   47973
       0   47975   47976   47976       0   47978   47979   47979       0   47981
   47982   47982       0   47984   47985   47985       0   47987   47988   47988
       0   47990   47991   47991       0   47993   47994   47994       0   47996
   47997   47997       0   47999   48000   48000       0   48002   48003   48003
       0   48005   48006   48006       0   48008   48009   48009       0   48011
   48012   48012       0   48014   48015   48015       0   48017   48018   48018
       0   48020   48021   48021       0   48023   48024   48024       0   48026
   48027   48027       0   48029   48030   48030       0   48032   48033   48033
       0   48035   48036   48036       0   48038   48039   48039       0   48041
   48042   48042       0   48044   48045   48045       0   48047   48048   48048
       0   48050   48051   48051       0   48053   48054   48054       0   48056
   48057   48057       0   48059   48060   48060       0   48062   48063   48063
       0   48065   48066   48066       0   48068   48069   48069       0   48071
   48072   48072       0   48074   48075   48075       0   48077   48078   48078
       0   48080   48081   48081       0   48083   48084   48084       0   48086
   48087   48087       0   48089   48090   48090       0   48092   48093   48093
       0   48095   48096   48096       0   48098   48099   48099       0   48101
   48102   48102       0   48104   48105   48105       0   48107   48108   48108
       0   48110   48111   48111       0   48113   48114   48114       0   48116
   48117   48117       0   48119   48120   48120       0   48122   48123   48123
       0   48125   48126   48126       0   48128   48129   48129       0   48131
   48132   48132       0   48134   48135   48135       0   48137   48138   48138
       0   48140   48141   48141       0   48143   48144   48144       0   48146
   48147   48147       0   48149   48150   48150       0   48152   48153   48153
       0   48155   48156   48156       0   48158   48159   48159       0   48161
   48162   48162       0   48164   48165   48165       0   48167   48168   48168
       0   48170   48171   48171       0   48173   48174   48174       0   48176
   48177   48177       0   48179   48180   48180       0   48182   48183   48183
       0   48185   48186   48186       0   48188   48189   48189       0   48191
   48192   48192       0   48194   48195   48195       0   48197   48198   48198
       0   48200   48201   48201       0   48203   48204   48204       0   48206
   48207   48207       0   48209   48210   48210       0   48212   48213   48213
       0   48215   48216   48216       0   48218   48219   48219       0   48221
   48222   48222       0   48224   48225   48225       0   48227   48228   48228
       0   48230   48231   48231       0   48233   48234   48234       0   48236
   48237   48237       0   48239   48240   48240       0   48242   48243   48243
       0   48245   48246   48246       0   48248   48249   48249       0   48251
   48252   48252       0   48254   48255   48255       0   48257   48258   48258
       0   48260   48261   48261       0   48263   48264   48264       0   48266
   48267   48267       0   48269   48270   48270       0   48272   48273   48273
       0   48275   48276   48276       0   48278   48279   48279       0   48281
   48282   48282       0   48284   48285   48285       0   48287   48288   48288
       0   48290   48291   48291       0   48293   48294   48294       0   48296
   48297   48297       0   48299   48300   48300       0   48302   48303   48303
       0   48305   48306   48306       0   48308   48309   48309       0   48311
   48312   48312       0   48314   48315   48315       0   48317   48318   48318
       0   48320   48321   48321       0   48323   48324   48324       0   48326
   48327   48327       0   48329   48330   48330       0   48332   48333   48333
       0   48335   48336   48336       0   48338   48339   48339       0   48341
   48342   48342       0   48344   48345   48345       0   48347   48348   48348
       0   48350   48351   48351       0   48353   48354   48354       0   48356
   48357   48357       0   48359   48360   48360       0   48362   48363   48363
       0   48365   48366   48366       0   48368   48369   48369       0   48371
   48372   48372       0   48374   48375   48375       0   48377   48378   48378
       0   48380   48381   48381       0   48383   48384   48384       0   48386
   48387   48387       0   48389   48390   48390       0   48392   48393   48393
       0   48395   48396   48396       0   48398   48399   48399       0   48401
   48402   48402       0   48404   48405   48405       0   48407   48408   48408
       0   48410   48411   48411       0   48413   48414   48414       0   48416
   48417   48417       0   48419   48420   48420       0   48422   48423   48423
       0   48425   48426   48426       0   48428   48429   48429       0   48431
   48432   48432       0   48434   48435   48435       0   48437   48438   48438
       0   48440   48441   48441       0   48443   48444   48444       0   48446
   48447   48447       0   48449   48450   48450       0   48452   48453   48453
       0   48455   48456   48456       0   48458   48459   48459       0   48461
   48462   48462       0   48464   48465   48465       0   48467   48468   48468
       0   48470   48471   48471       0   48473   48474   48474       0   48476
   48477   48477       0   48479   48480   48480       0   48482   48483   48483
       0   48485   48486   48486       0   48488   48489   48489       0   48491
   48492   48492       0   48494   48495   48495       0   48497   48498   48498
       0   48500   48501   48501       0   48503   48504   48504       0   48506
   48507   48507       0   48509   48510   48510       0   48512   48513   48513
       0   48515   48516   48516       0   48518   48519   48519       0   48521
   48522   48522       0   48524   48525   48525       0   48527   48528   48528
       0   48530   48531   48531       0   48533   48534   48534       0   48536
   48537   48537       0   48539   48540   48540       0   48542   48543   48543
       0   48545   48546   48546       0   48548   48549   48549       0   48551
   48552   48552       0   48554   48555   48555       0   48557   48558   48558
       0   48560   48561   48561       0   48563   48564   48564       0   48566
   48567   48567       0   48569   48570   48570       0   48572   48573   48573
       0   48575   48576   48576       0   48578   48579   48579       0   48581
   48582   48582       0   48584   48585   48585       0   48587   48588   48588
       0   48590   48591   48591       0   48593   48594   48594       0   48596
   48597   48597       0   48599   48600   48600       0   48602   48603   48603
       0   48605   48606   48606       0   48608   48609   48609       0   48611
   48612   48612       0   48614   48615   48615       0   48617   48618   48618
       0   48620   48621   48621       0   48623   48624   48624       0   48626
   48627   48627       0   48629   48630   48630       0   48632   48633   48633
       0   48635   48636   48636       0   48638   48639   48639       0   48641
   48642   48642       0   48644   48645   48645       0   48647   48648   48648
       0   48650   48651   48651       0   48653   48654   48654       0   48656
   48657   48657       0   48659   48660   48660       0   48662   48663   48663
       0   48665   48666   48666       0   48668   48669   48669       0   48671
   48672   48672       0   48674   48675   48675       0   48677   48678   48678
       0   48680   48681   48681       0   48683   48684   48684       0   48686
   48687   48687       0   48689   48690   48690       0   48692   48693   48693
       0   48695   48696   48696       0   48698   48699   48699       0   48701
   48702   48702       0   48704   48705   48705       0   48707   48708   48708
       0   48710   48711   48711       0   48713   48714   48714       0   48716
   48717   48717       0   48719   48720   48720       0   48722   48723   48723
       0   48725   48726   48726       0   48728   48729   48729       0   48731
   48732   48732       0   48734   48735   48735       0   48737   48738   48738
       0   48740   48741   48741       0   48743   48744   48744       0   48746
   48747   48747       0   48749   48750   48750       0   48752   48753   48753
       0   48755   48756   48756       0   48758   48759   48759       0   48761
   48762   48762       0   48764   48765   48765       0   48767   48768   48768
       0   48770   48771   48771       0   48773   48774   48774       0   48776
   48777   48777       0   48779   48780   48780       0   48782   48783   48783
       0   48785   48786   48786       0   48788   48789   48789       0   48791
   48792   48792       0   48794   48795   48795       0   48797   48798   48798
       0   48800   48801   48801       0   48803   48804   48804       0   48806
   48807   48807       0   48809   48810   48810       0   48812   48813   48813
       0   48815   48816   48816       0   48818   48819   48819       0   48821
   48822   48822       0   48824   48825   48825       0   48827   48828   48828
       0   48830   48831   48831       0   48833   48834   48834       0   48836
   48837   48837       0   48839   48840   48840       0   48842   48843   48843
       0   48845   48846   48846       0   48848   48849   48849       0   48851
   48852   48852       0   48854   48855   48855       0   48857   48858   48858
       0   48860   48861   48861       0   48863   48864   48864       0   48866
   48867   48867       0   48869   48870   48870       0   48872   48873   48873
       0   48875   48876   48876       0   48878   48879   48879       0   48881
   48882   48882       0   48884   48885   48885       0   48887   48888   48888
       0   48890   48891   48891       0   48893   48894   48894       0   48896
   48897   48897       0   48899   48900   48900       0   48902   48903   48903
       0   48905   48906   48906       0   48908   48909   48909       0   48911
   48912   48912       0   48914   48915   48915       0   48917   48918   48918
       0   48920   48921   48921       0   48923   48924   48924       0   48926
   48927   48927       0   48929   48930   48930       0   48932   48933   48933
       0   48935   48936   48936       0   48938   48939   48939       0   48941
   48942   48942       0   48944   48945   48945       0   48947   48948   48948
       0   48950   48951   48951       0   48953   48954   48954       0   48956
   48957   48957       0   48959   48960   48960       0   48962   48963   48963
       0   48965   48966   48966       0   48968   48969   48969       0   48971
   48972   48972       0   48974   48975   48975       0   48977   48978   48978
       0   48980   48981   48981       0   48983   48984   48984       0   48986
   48987   48987       0   48989   48990   48990       0   48992   48993   48993
       0   48995   48996   48996       0   48998   48999   48999       0   49001
   49002   49002       0   49004   49005   49005       0   49007   49008   49008
       0   49010   49011   49011       0   49013   49014   49014       0   49016
   49017   49017       0   49019   49020   49020       0   49022   49023   49023
       0   49025   49026   49026       0   49028   49029   49029       0   49031
   49032   49032       0   49034   49035   49035       0   49037   49038   49038
       0   49040   49041   49041       0   49043   49044   49044       0   49046
   49047   49047       0   49049   49050   49050       0   49052   49053   49053
       0   49055   49056   49056       0   49058   49059   49059       0   49061
   49062   49062       0   49064   49065   49065       0   49067   49068   49068
       0   49070   49071   49071       0   49073   49074   49074       0   49076
   49077   49077       0   49079   49080   49080       0   49082   49083   49083
       0   49085   49086   49086       0   49088   49089   49089       0   49091
   49092   49092       0   49094   49095   49095       0   49097   49098   49098
       0   49100   49101   49101       0   49103   49104   49104       0   49106
   49107   49107       0   49109   49110   49110       0   49112   49113   49113
       0   49115   49116   49116       0   49118   49119   49119       0   49121
   49122   49122       0   49124   49125   49125       0   49127   49128   49128
       0   49130   49131   49131       0   49133   49134   49134       0   49136
   49137   49137       0   49139   49140   49140       0   49142   49143   49143
       0   49145   49146   49146       0   49148   49149   49149       0   49151
   49152   49152       0   49154   49155   49155       0   49157   49158   49158
       0   49160   49161   49161       0   49163   49164   49164       0   49166
   49167   49167       0   49169   49170   49170       0   49172   49173   49173
       0   49175   49176   49176       0   49178   49179   49179       0   49181
   49182   49182       0   49184   49185   49185       0   49187   49188   49188
       0   49190   49191   49191       0   49193   49194   49194       0   49196
   49197   49197       0   49199   49200   49200       0   49202   49203   49203
       0   49205   49206   49206       0   49208   49209   49209       0   49211
   49212   49212       0   49214   49215   49215       0   49217   49218   49218
       0   49220   49221   49221       0   49223   49224   49224       0   49226
   49227   49227       0   49229   49230   49230       0   49232   49233   49233
       0   49235   49236   49236       0   49238   49239   49239       0   49241
   49242   49242       0   49244   49245   49245       0   49247   49248   49248
       0   49250   49251   49251       0   49253   49254   49254       0   49256
   49257   49257       0   49259   49260   49260       0   49262   49263   49263
       0   49265   49266   49266       0   49268   49269   49269       0   49271
   49272   49272       0   49274   49275   49275       0   49277   49278   49278
       0   49280   49281   49281       0   49283   49284   49284       0   49286
   49287   49287       0   49289   49290   49290       0   49292   49293   49293
       0   49295   49296   49296       0   49298   49299   49299       0   49301
   49302   49302       0   49304   49305   49305       0   49307   49308   49308
       0   49310   49311   49311       0   49313   49314   49314       0   49316
   49317   49317       0   49319   49320   49320       0   49322   49323   49323
       0   49325   49326   49326       0   49328   49329   49329       0   49331
   49332   49332       0   49334   49335   49335       0   49337   49338   49338
       0   49340   49341   49341       0   49343   49344   49344       0   49346
   49347   49347       0   49349   49350   49350       0   49352   49353   49353
       0   49355   49356   49356       0   49358   49359   49359       0   49361
   49362   49362       0   49364   49365   49365       0   49367   49368   49368
       0   49370   49371   49371       0   49373   49374   49374       0   49376
   49377   49377       0   49379   49380   49380       0   49382   49383   49383
       0   49385   49386   49386       0   49388   49389   49389       0   49391
   49392   49392       0   49394   49395   49395       0   49397   49398   49398
       0   49400   49401   49401       0   49403   49404   49404       0   49406
   49407   49407       0   49409   49410   49410       0   49412   49413   49413
       0   49415   49416   49416       0   49418   49419   49419       0   49421
   49422   49422       0   49424   49425   49425       0   49427   49428   49428
       0   49430   49431   49431       0   49433   49434   49434       0   49436
   49437   49437       0   49439   49440   49440       0   49442   49443   49443
       0   49445   49446   49446       0   49448   49449   49449       0   49451
   49452   49452       0   49454   49455   49455       0   49457   49458   49458
       0   49460   49461   49461       0   49463   49464   49464       0   49466
   49467   49467       0   49469   49470   49470       0   49472   49473   49473
       0   49475   49476   49476       0   49478   49479   49479       0   49481
   49482   49482       0   49484   49485   49485       0   49487   49488   49488
       0   49490   49491   49491       0   49493   49494   49494       0   49496
   49497   49497       0   49499   49500   49500       0   49502   49503   49503
       0   49505   49506   49506       0   49508   49509   49509       0   49511
   49512   49512       0   49514   49515   49515       0   49517   49518   49518
       0   49520   49521   49521       0   49523   49524   49524       0   49526
   49527   49527       0   49529   49530   49530       0   49532   49533   49533
       0   49535   49536   49536       0   49538   49539   49539       0   49541
   49542   49542       0   49544   49545   49545       0   49547   49548   49548
       0   49550   49551   49551       0   49553   49554   49554       0   49556
   49557   49557       0   49559   49560   49560       0   49562   49563   49563
       0   49565   49566   49566       0   49568   49569   49569       0   49571
   49572   49572       0   49574   49575   49575       0   49577   49578   49578
       0   49580   49581   49581       0   49583   49584   49584       0   49586
   49587   49587       0   49589   49590   49590       0   49592   49593   49593
       0   49595   49596   49596       0   49598   49599   49599       0   49601
   49602   49602       0   49604   49605   49605       0   49607   49608   49608
       0   49610   49611   49611       0   49613   49614   49614       0   49616
   49617   49617       0   49619   49620   49620       0   49622   49623   49623
       0   49625   49626   49626       0   49628   49629   49629       0   49631
   49632   49632       0   49634   49635   49635       0   49637   49638   49638
       0   49640   49641   49641       0   49643   49644   49644       0   49646
   49647   49647       0   49649   49650   49650       0   49652   49653   49653
       0   49655   49656   49656       0   49658   49659   49659       0   49661
   49662   49662       0   49664   49665   49665       0   49667   49668   49668
       0   49670   49671   49671       0   49673   49674   49674       0   49676
   49677   49677       0   49679   49680   49680       0   49682   49683   49683
       0   49685   49686   49686       0   49688   49689   49689       0   49691
   49692   49692       0   49694   49695   49695       0   49697   49698   49698
       0   49700   49701   49701       0   49703   49704   49704       0   49706
   49707   49707       0   49709   49710   49710       0   49712   49713   49713
       0   49715   49716   49716       0   49718   49719   49719       0   49721
   49722   49722       0   49724   49725   49725       0   49727   49728   49728
       0   49730   49731   49731       0   49733   49734   49734       0   49736
   49737   49737       0   49739   49740   49740       0   49742   49743   49743
       0   49745   49746   49746       0   49748   49749   49749       0   49751
   49752   49752       0   49754   49755   49755       0   49757   49758   49758
       0   49760   49761   49761       0   49763   49764   49764       0   49766
   49767   49767       0   49769   49770   49770       0   49772   49773   49773
       0   49775   49776   49776       0   49778   49779   49779       0   49781
   49782   49782       0   49784   49785   49785       0   49787   49788   49788
       0   49790   49791   49791       0   49793   49794   49794       0   49796
   49797   49797       0   49799   49800   49800       0   49802   49803   49803
       0   49805   49806   49806       0   49808   49809   49809       0   49811
   49812   49812       0   49814   49815   49815       0   49817   49818   49818
       0   49820   49821   49821       0   49823   49824   49824       0   49826
   49827   49827       0   49829   49830   49830       0   49832   49833   49833
       0   49835   49836   49836       0   49838   49839   49839       0   49841
   49842   49842       0   49844   49845   49845       0   49847   49848   49848
       0   49850   49851   49851       0   49853   49854   49854       0   49856
   49857   49857       0   49859   49860   49860       0   49862   49863   49863
       0   49865   49866   49866       0   49868   49869   49869       0   49871
   49872   49872       0   49874   49875   49875       0   49877   49878   49878
       0   49880   49881   49881       0   49883   49884   49884       0   49886
   49887   49887       0   49889   49890   49890       0   49892   49893   49893
       0   49895   49896   49896       0   49898   49899   49899       0   49901
   49902   49902       0   49904   49905   49905       0   49907   49908   49908
       0   49910   49911   49911       0   49913   49914   49914       0   49916
   49917   49917       0   49919   49920   49920       0   49922   49923   49923
       0   49925   49926   49926       0   49928   49929   49929       0   49931
   49932   49932       0   49934   49935   49935       0   49937   49938   49938
       0   49940   49941   49941       0   49943   49944   49944       0   49946
   49947   49947       0   49949   49950   49950       0   49952   49953   49953
       0   49955   49956   49956       0   49958   49959   49959       0   49961
   49962   49962       0   49964   49965   49965       0   49967   49968   49968
       0   49970   49971   49971       0   49973   49974   49974       0   49976
   49977   49977       0   49979   49980   49980       0   49982   49983   49983
       0   49985   49986   49986       0   49988   49989   49989       0   49991
   49992   49992       0   49994   49995   49995       0   49997   49998   49998
       0   50000   50001   50001       0   50003   50004   50004       0   50006
   50007   50007       0   50009   50010   50010       0   50012   50013   50013
       0   50015   50016   50016       0   50018   50019   50019       0   50021
   50022   50022       0   50024   50025   50025       0   50027   50028   50028
       0   50030   50031   50031       0   50033   50034   50034       0   50036
   50037   50037       0   50039   50040   50040       0   50042   50043   50043
       0   50045   50046   50046       0   50048   50049   50049       0   50051
   50052   50052       0   50054   50055   50055       0   50057   50058   50058
       0   50060   50061   50061       0   50063   50064   50064       0   50066
   50067   50067       0   50069   50070   50070       0   50072   50073   50073
       0   50075   50076   50076       0   50078   50079   50079       0   50081
   50082   50082       0   50084   50085   50085       0   50087   50088   50088
       0   50090   50091   50091       0   50093   50094   50094       0   50096
   50097   50097       0   50099   50100   50100       0   50102   50103   50103
       0   50105   50106   50106       0   50108   50109   50109       0   50111
   50112   50112       0   50114   50115   50115       0   50117   50118   50118
       0   50120   50121   50121       0   50123   50124   50124       0   50126
   50127   50127       0   50129   50130   50130       0   50132   50133   50133
       0   50135   50136   50136       0   50138   50139   50139       0   50141
   50142   50142       0   50144   50145   50145       0   50147   50148   50148
       0   50150   50151   50151       0   50153   50154   50154       0   50156
   50157   50157       0   50159   50160   50160       0   50162   50163   50163
       0   50165   50166   50166       0   50168   50169   50169       0   50171
   50172   50172       0   50174   50175   50175       0   50177   50178   50178
       0   50180   50181   50181       0   50183   50184   50184       0   50186
   50187   50187       0   50189   50190   50190       0   50192   50193   50193
       0   50195   50196   50196       0   50198   50199   50199       0   50201
   50202   50202       0   50204   50205   50205       0   50207   50208   50208
       0   50210   50211   50211       0   50213   50214   50214       0   50216
   50217   50217       0   50219   50220   50220       0   50222   50223   50223
       0   50225   50226   50226       0   50228   50229   50229       0   50231
   50232   50232       0   50234   50235   50235       0   50237   50238   50238
       0   50240   50241   50241       0   50243   50244   50244       0   50246
   50247   50247       0   50249   50250   50250       0   50252   50253   50253
       0   50255   50256   50256       0   50258   50259   50259       0   50261
   50262   50262       0   50264   50265   50265       0   50267   50268   50268
       0   50270   50271   50271       0   50273   50274   50274       0   50276
   50277   50277       0   50279   50280   50280       0   50282   50283   50283
       0   50285   50286   50286       0   50288   50289   50289       0   50291
   50292   50292       0   50294   50295   50295       0   50297   50298   50298
       0   50300   50301   50301       0   50303   50304   50304       0   50306
   50307   50307       0   50309   50310   50310       0   50312   50313   50313
       0   50315   50316   50316       0   50318   50319   50319       0   50321
   50322   50322       0   50324   50325   50325       0   50327   50328   50328
       0   50330   50331   50331       0   50333   50334   50334       0   50336
   50337   50337       0   50339   50340   50340       0   50342   50343   50343
       0   50345   50346   50346       0   50348   50349   50349       0   50351
   50352   50352       0   50354   50355   50355       0   50357   50358   50358
       0   50360   50361   50361       0   50363   50364   50364       0   50366
   50367   50367       0   50369   50370   50370       0   50372   50373   50373
       0   50375   50376   50376       0   50378   50379   50379       0   50381
   50382   50382       0   50384   50385   50385       0   50387   50388   50388
       0   50390   50391   50391       0   50393   50394   50394       0   50396
   50397   50397       0   50399   50400   50400       0   50402   50403   50403
       0   50405   50406   50406       0   50408   50409   50409       0   50411
   50412   50412       0   50414   50415   50415       0   50417   50418   50418
       0   50420   50421   50421       0   50423   50424   50424       0   50426
   50427   50427       0   50429   50430   50430       0   50432   50433   50433
       0   50435   50436   50436       0   50438   50439   50439       0   50441
   50442   50442       0   50444   50445   50445       0   50447   50448   50448
       0   50450   50451   50451       0   50453   50454   50454       0   50456
   50457   50457       0   50459   50460   50460       0   50462   50463   50463
       0   50465   50466   50466       0   50468   50469   50469       0   50471
   50472   50472       0   50474   50475   50475       0   50477   50478   50478
       0   50480   50481   50481       0   50483   50484   50484       0   50486
   50487   50487       0   50489   50490   50490       0   50492   50493   50493
       0   50495   50496   50496       0   50498   50499   50499       0   50501
   50502   50502       0   50504   50505   50505       0   50507   50508   50508
       0   50510   50511   50511       0   50513   50514   50514       0   50516
   50517   50517       0   50519   50520   50520       0   50522   50523   50523
       0   50525   50526   50526       0   50528   50529   50529       0   50531
   50532   50532       0   50534   50535   50535       0   50537   50538   50538
       0   50540   50541   50541       0   50543   50544   50544       0   50546
   50547   50547       0   50549   50550   50550       0   50552   50553   50553
       0   50555   50556   50556       0   50558   50559   50559       0   50561
   50562   50562       0   50564   50565   50565       0   50567   50568   50568
       0   50570   50571   50571       0   50573   50574   50574       0   50576
   50577   50577       0   50579   50580   50580       0   50582   50583   50583
       0   50585   50586   50586       0   50588   50589   50589       0   50591
   50592   50592       0   50594   50595   50595       0   50597   50598   50598
       0   50600   50601   50601       0   50603   50604   50604       0   50606
   50607   50607       0   50609   50610   50610       0   50612   50613   50613
       0   50615   50616   50616       0   50618   50619   50619       0   50621
   50622   50622       0   50624   50625   50625       0   50627   50628   50628
       0   50630   50631   50631       0   50633   50634   50634       0   50636
   50637   50637       0   50639   50640   50640       0   50642   50643   50643
       0   50645   50646   50646       0   50648   50649   50649       0   50651
   50652   50652       0   50654   50655   50655       0   50657   50658   50658
       0   50660   50661   50661       0   50663   50664   50664       0   50666
   50667   50667       0   50669   50670   50670       0   50672   50673   50673
       0   50675   50676   50676       0   50678   50679   50679       0   50681
   50682   50682       0   50684   50685   50685       0   50687   50688   50688
       0   50690   50691   50691       0   50693   50694   50694       0   50696
   50697   50697       0   50699   50700   50700       0   50702   50703   50703
       0   50705   50706   50706       0   50708   50709   50709       0   50711
   50712   50712       0   50714   50715   50715       0   50717   50718   50718
       0   50720   50721   50721       0   50723   50724   50724       0   50726
   50727   50727       0   50729   50730   50730       0   50732   50733   50733
       0   50735   50736   50736       0   50738   50739   50739       0   50741
   50742   50742       0   50744   50745   50745       0   50747   50748   50748
       0   50750   50751   50751       0   50753   50754   50754       0   50756
   50757   50757       0   50759   50760   50760       0   50762   50763   50763
       0   50765   50766   50766       0   50768   50769   50769       0   50771
   50772   50772       0   50774   50775   50775       0   50777   50778   50778
       0   50780   50781   50781       0   50783   50784   50784       0   50786
   50787   50787       0   50789   50790   50790       0   50792   50793   50793
       0   50795   50796   50796       0   50798   50799   50799       0   50801
   50802   50802       0   50804   50805   50805       0   50807   50808   50808
       0   50810   50811   50811       0   50813   50814   50814       0   50816
   50817   50817       0   50819   50820   50820       0   50822   50823   50823
       0   50825   50826   50826       0   50828   50829   50829       0   50831
   50832   50832       0   50834   50835   50835       0   50837   50838   50838
       0   50840   50841   50841       0   50843   50844   50844       0   50846
   50847   50847       0   50849   50850   50850       0   50852   50853   50853
       0   50855   50856   50856       0   50858   50859   50859       0   50861
   50862   50862       0   50864   50865   50865       0   50867   50868   50868
       0   50870   50871   50871       0   50873   50874   50874       0   50876
   50877   50877       0   50879   50880   50880       0   50882   50883   50883
       0   50885   50886   50886       0   50888   50889   50889       0   50891
   50892   50892       0   50894   50895   50895       0   50897   50898   50898
       0   50900   50901   50901       0   50903   50904   50904       0   50906
   50907   50907       0   50909   50910   50910       0   50912   50913   50913
       0   50915   50916   50916       0   50918   50919   50919       0   50921
   50922   50922       0   50924   50925   50925       0   50927   50928   50928
       0   50930   50931   50931       0   50933   50934   50934       0   50936
   50937   50937       0   50939   50940   50940       0   50942   50943   50943
       0   50945   50946   50946       0   50948   50949   50949       0   50951
   50952   50952       0   50954   50955   50955       0   50957   50958   50958
       0   50960   50961   50961       0   50963   50964   50964       0   50966
   50967   50967       0   50969   50970   50970       0   50972   50973   50973
       0   50975   50976   50976       0   50978   50979   50979       0   50981
   50982   50982       0   50984   50985   50985       0   50987   50988   50988
       0   50990   50991   50991       0   50993   50994   50994       0   50996
   50997   50997       0   50999   51000   51000       0   51002   51003   51003
       0   51005   51006   51006       0   51008   51009   51009       0   51011
   51012   51012       0   51014   51015   51015       0   51017   51018   51018
       0   51020   51021   51021       0   51023   51024   51024       0   51026
   51027   51027       0   51029   51030   51030       0   51032   51033   51033
       0   51035   51036   51036       0   51038   51039   51039       0   51041
   51042   51042       0   51044   51045   51045       0   51047   51048   51048
       0   51050   51051   51051       0   51053   51054   51054       0   51056
   51057   51057       0   51059   51060   51060       0   51062   51063   51063
       0   51065   51066   51066       0   51068   51069   51069       0   51071
   51072   51072       0   51074   51075   51075       0   51077   51078   51078
       0   51080   51081   51081       0   51083   51084   51084       0   51086
   51087   51087       0   51089   51090   51090       0   51092   51093   51093
       0   51095   51096   51096       0   51098   51099   51099       0   51101
   51102   51102       0   51104   51105   51105       0   51107   51108   51108
       0   51110   51111   51111       0   51113   51114   51114       0   51116
   51117   51117       0   51119   51120   51120       0   51122   51123   51123
       0   51125   51126   51126       0   51128   51129   51129       0   51131
   51132   51132       0   51134   51135   51135       0   51137   51138   51138
       0   51140   51141   51141       0   51143   51144   51144       0   51146
   51147   51147       0   51149   51150   51150       0   51152   51153   51153
       0   51155   51156   51156       0   51158   51159   51159       0   51161
   51162   51162       0   51164   51165   51165       0   51167   51168   51168
       0   51170   51171   51171       0   51173   51174   51174       0   51176
   51177   51177       0   51179   51180   51180       0   51182   51183   51183
       0   51185   51186   51186       0   51188   51189   51189       0   51191
   51192   51192       0   51194   51195   51195       0   51197   51198   51198
       0   51200   51201   51201       0   51203   51204   51204       0   51206
   51207   51207       0   51209   51210   51210       0   51212   51213   51213
       0   51215   51216   51216       0   51218   51219   51219       0   51221
   51222   51222       0   51224   51225   51225       0   51227   51228   51228
       0   51230   51231   51231       0   51233   51234   51234       0   51236
   51237   51237       0   51239   51240   51240       0   51242   51243   51243
       0   51245   51246   51246       0   51248   51249   51249       0   51251
   51252   51252       0   51254   51255   51255       0   51257   51258   51258
       0   51260   51261   51261       0   51263   51264   51264       0   51266
   51267   51267       0   51269   51270   51270       0   51272   51273   51273
       0   51275   51276   51276       0   51278   51279   51279       0   51281
   51282   51282       0   51284   51285   51285       0   51287   51288   51288
       0   51290   51291   51291       0   51293   51294   51294       0   51296
   51297   51297       0   51299   51300   51300       0   51302   51303   51303
       0   51305   51306   51306       0   51308   51309   51309       0   51311
   51312   51312       0   51314   51315   51315       0   51317   51318   51318
       0   51320   51321   51321       0   51323   51324   51324       0   51326
   51327   51327       0   51329   51330   51330       0   51332   51333   51333
       0   51335   51336   51336       0   51338   51339   51339       0   51341
   51342   51342       0   51344   51345   51345       0   51347   51348   51348
       0   51350   51351   51351       0   51353   51354   51354       0   51356
   51357   51357       0   51359   51360   51360       0   51362   51363   51363
       0   51365   51366   51366       0   51368   51369   51369       0   51371
   51372   51372       0   51374   51375   51375       0   51377   51378   51378
       0   51380   51381   51381       0   51383   51384   51384       0   51386
   51387   51387       0   51389   51390   51390       0   51392   51393   51393
       0   51395   51396   51396       0   51398   51399   51399       0   51401
   51402   51402       0   51404   51405   51405       0   51407   51408   51408
       0   51410   51411   51411       0   51413   51414   51414       0   51416
   51417   51417       0   51419   51420   51420       0   51422   51423   51423
       0   51425   51426   51426       0   51428   51429   51429       0   51431
   51432   51432       0   51434   51435   51435       0   51437   51438   51438
       0   51440   51441   51441       0   51443   51444   51444       0   51446
   51447   51447       0   51449   51450   51450       0   51452   51453   51453
       0   51455   51456   51456       0   51458   51459   51459       0   51461
   51462   51462       0   51464   51465   51465       0   51467   51468   51468
       0   51470   51471   51471       0   51473   51474   51474       0   51476
   51477   51477       0   51479   51480   51480       0   51482   51483   51483
       0   51485   51486   51486       0   51488   51489   51489       0   51491
   51492   51492       0   51494   51495   51495       0   51497   51498   51498
       0   51500   51501   51501       0   51503   51504   51504       0   51506
   51507   51507       0   51509   51510   51510       0   51512   51513   51513
       0   51515   51516   51516       0   51518   51519   51519       0   51521
   51522   51522       0   51524   51525   51525       0   51527   51528   51528
       0   51530   51531   51531       0   51533   51534   51534       0   51536
   51537   51537       0   51539   51540   51540       0   51542   51543   51543
       0   51545   51546   51546       0   51548   51549   51549       0   51551
   51552   51552       0   51554   51555   51555       0   51557   51558   51558
       0   51560   51561   51561       0   51563   51564   51564       0   51566
   51567   51567       0   51569   51570   51570       0   51572   51573   51573
       0   51575   51576   51576       0   51578   51579   51579       0   51581
   51582   51582       0   51584   51585   51585       0   51587   51588   51588
       0   51590   51591   51591       0   51593   51594   51594       0   51596
   51597   51597       0   51599   51600   51600       0   51602   51603   51603
       0   51605   51606   51606       0   51608   51609   51609       0   51611
   51612   51612       0   51614   51615   51615       0   51617   51618   51618
       0   51620   51621   51621       0   51623   51624   51624       0   51626
   51627   51627       0   51629   51630   51630       0   51632   51633   51633
       0   51635   51636   51636       0   51638   51639   51639       0   51641
   51642   51642       0   51644   51645   51645       0   51647   51648   51648
       0   51650   51651   51651       0   51653   51654   51654       0   51656
   51657   51657       0   51659   51660   51660       0   51662   51663   51663
       0   51665   51666   51666       0   51668   51669   51669       0   51671
   51672   51672       0   51674   51675   51675       0   51677   51678   51678
       0   51680   51681   51681       0   51683   51684   51684       0   51686
   51687   51687       0   51689   51690   51690       0   51692   51693   51693
       0   51695   51696   51696       0   51698   51699   51699       0   51701
   51702   51702       0   51704   51705   51705       0   51707   51708   51708
       0   51710   51711   51711       0   51713   51714   51714       0   51716
   51717   51717       0   51719   51720   51720       0   51722   51723   51723
       0   51725   51726   51726       0   51728   51729   51729       0   51731
   51732   51732       0   51734   51735   51735       0   51737   51738   51738
       0   51740   51741   51741       0   51743   51744   51744       0   51746
   51747   51747       0   51749   51750   51750       0   51752   51753   51753
       0   51755   51756   51756       0   51758   51759   51759       0   51761
   51762   51762       0   51764   51765   51765       0   51767   51768   51768
       0   51770   51771   51771       0   51773   51774   51774       0   51776
   51777   51777       0   51779   51780   51780       0   51782   51783   51783
       0   51785   51786   51786       0   51788   51789   51789       0   51791
   51792   51792       0   51794   51795   51795       0   51797   51798   51798
       0   51800   51801   51801       0   51803   51804   51804       0   51806
   51807   51807       0   51809   51810   51810       0   51812   51813   51813
       0   51815   51816   51816       0   51818   51819   51819       0   51821
   51822   51822       0   51824   51825   51825       0   51827   51828   51828
       0   51830   51831   51831       0   51833   51834   51834       0   51836
   51837   51837       0   51839   51840   51840       0   51842   51843   51843
       0   51845   51846   51846       0   51848   51849   51849       0   51851
   51852   51852       0   51854   51855   51855       0   51857   51858   51858
       0   51860   51861   51861       0   51863   51864   51864       0   51866
   51867   51867       0   51869   51870   51870       0   51872   51873   51873
       0   51875   51876   51876       0   51878   51879   51879       0   51881
   51882   51882       0   51884   51885   51885       0   51887   51888   51888
       0   51890   51891   51891       0   51893   51894   51894       0   51896
   51897   51897       0   51899   51900   51900       0   51902   51903   51903
       0   51905   51906   51906       0   51908   51909   51909       0   51911
   51912   51912       0   51914   51915   51915       0   51917   51918   51918
       0   51920   51921   51921       0   51923   51924   51924       0   51926
   51927   51927       0   51929   51930   51930       0   51932   51933   51933
       0   51935   51936   51936       0   51938   51939   51939       0   51941
   51942   51942       0   51944   51945   51945       0   51947   51948   51948
       0   51950   51951   51951       0   51953   51954   51954       0   51956
   51957   51957       0   51959   51960   51960       0   51962   51963   51963
       0   51965   51966   51966       0   51968   51969   51969       0   51971
   51972   51972       0   51974   51975   51975       0   51977   51978   51978
       0   51980   51981   51981       0   51983   51984   51984       0   51986
   51987   51987       0   51989   51990   51990       0   51992   51993   51993
       0   51995   51996   51996       0   51998   51999   51999       0   52001
   52002   52002       0   52004   52005   52005       0   52007   52008   52008
       0   52010   52011   52011       0   52013   52014   52014       0   52016
   52017   52017       0   52019   52020   52020       0   52022   52023   52023
       0   52025   52026   52026       0   52028   52029   52029       0   52031
   52032   52032       0   52034   52035   52035       0   52037   52038   52038
       0   52040   52041   52041       0   52043   52044   52044       0   52046
   52047   52047       0   52049   52050   52050       0   52052   52053   52053
       0   52055   52056   52056       0   52058   52059   52059       0   52061
   52062   52062       0   52064   52065   52065       0   52067   52068   52068
       0   52070   52071   52071       0   52073   52074   52074       0   52076
   52077   52077       0   52079   52080   52080       0   52082   52083   52083
       0   52085   52086   52086       0   52088   52089   52089       0   52091
   52092   52092       0   52094   52095   52095       0   52097   52098   52098
       0   52100   52101   52101       0   52103   52104   52104       0   52106
   52107   52107       0   52109   52110   52110       0   52112   52113   52113
       0   52115   52116   52116       0   52118   52119   52119       0   52121
   52122   52122       0   52124   52125   52125       0   52127   52128   52128
       0   52130   52131   52131       0   52133   52134   52134       0   52136
   52137   52137       0   52139   52140   52140       0   52142   52143   52143
       0   52145   52146   52146       0   52148   52149   52149       0   52151
   52152   52152       0   52154   52155   52155       0   52157   52158   52158
       0   52160   52161   52161       0   52163   52164   52164       0   52166
   52167   52167       0   52169   52170   52170       0   52172   52173   52173
       0   52175   52176   52176       0   52178   52179   52179       0   52181
   52182   52182       0   52184   52185   52185       0   52187   52188   52188
       0   52190   52191   52191       0   52193   52194   52194       0   52196
   52197   52197       0   52199   52200   52200       0   52202   52203   52203
       0   52205   52206   52206       0   52208   52209   52209       0   52211
   52212   52212       0   52214   52215   52215       0   52217   52218   52218
       0   52220   52221   52221       0   52223   52224   52224       0   52226
   52227   52227       0   52229   52230   52230       0   52232   52233   52233
       0   52235   52236   52236       0   52238   52239   52239       0   52241
   52242   52242       0   52244   52245   52245       0   52247   52248   52248
       0   52250   52251   52251       0   52253   52254   52254       0   52256
   52257   52257       0   52259   52260   52260       0   52262   52263   52263
       0   52265   52266   52266       0   52268   52269   52269       0   52271
   52272   52272       0   52274   52275   52275       0   52277   52278   52278
       0   52280   52281   52281       0   52283   52284   52284       0   52286
   52287   52287       0   52289   52290   52290       0   52292   52293   52293
       0   52295   52296   52296       0   52298   52299   52299       0   52301
   52302   52302       0   52304   52305   52305       0   52307   52308   52308
       0   52310   52311   52311       0   52313   52314   52314       0   52316
   52317   52317       0   52319   52320   52320       0   52322   52323   52323
       0   52325   52326   52326       0   52328   52329   52329       0   52331
   52332   52332       0   52334   52335   52335       0   52337   52338   52338
       0   52340   52341   52341       0   52343   52344   52344       0   52346
   52347   52347       0   52349   52350   52350       0   52352   52353   52353
       0   52355   52356   52356       0   52358   52359   52359       0   52361
   52362   52362       0   52364   52365   52365       0   52367   52368   52368
       0   52370   52371   52371       0   52373   52374   52374       0   52376
   52377   52377       0   52379   52380   52380       0   52382   52383   52383
       0   52385   52386   52386       0   52388   52389   52389       0   52391
   52392   52392       0   52394   52395   52395       0   52397   52398   52398
       0   52400   52401   52401       0   52403   52404   52404       0   52406
   52407   52407       0   52409   52410   52410       0   52412   52413   52413
       0   52415   52416   52416       0   52418   52419   52419       0   52421
   52422   52422       0   52424   52425   52425       0   52427   52428   52428
       0   52430   52431   52431       0   52433   52434   52434       0   52436
   52437   52437       0   52439   52440   52440       0   52442   52443   52443
       0   52445   52446   52446       0   52448   52449   52449       0   52451
   52452   52452       0   52454   52455   52455       0   52457   52458   52458
       0   52460   52461   52461       0   52463   52464   52464       0   52466
   52467   52467       0   52469   52470   52470       0   52472   52473   52473
       0   52475   52476   52476       0   52478   52479   52479       0   52481
   52482   52482       0   52484   52485   52485       0   52487   52488   52488
       0   52490   52491   52491       0   52493   52494   52494       0   52496
   52497   52497       0   52499   52500   52500       0   52502   52503   52503
       0   52505   52506   52506       0   52508   52509   52509       0   52511
   52512   52512       0   52514   52515   52515       0   52517   52518   52518
       0   52520   52521   52521       0   52523   52524   52524       0   52526
   52527   52527       0   52529   52530   52530       0   52532   52533   52533
       0   52535   52536   52536       0   52538   52539   52539       0   52541
   52542   52542       0   52544   52545   52545       0   52547   52548   52548
       0   52550   52551   52551       0   52553   52554   52554       0   52556
   52557   52557       0   52559   52560   52560       0   52562   52563   52563
       0   52565   52566   52566       0   52568   52569   52569       0   52571
   52572   52572       0   52574   52575   52575       0   52577   52578   52578
       0   52580   52581   52581       0   52583   52584   52584       0   52586
   52587   52587       0   52589   52590   52590       0   52592   52593   52593
       0   52595   52596   52596       0   52598   52599   52599       0   52601
   52602   52602       0   52604   52605   52605       0   52607   52608   52608
       0   52610   52611   52611       0   52613   52614   52614       0   52616
   52617   52617       0   52619   52620   52620       0   52622   52623   52623
       0   52625   52626   52626       0   52628   52629   52629       0   52631
   52632   52632       0   52634   52635   52635       0   52637   52638   52638
       0   52640   52641   52641       0   52643   52644   52644       0   52646
   52647   52647       0   52649   52650   52650       0   52652   52653   52653
       0   52655   52656   52656       0   52658   52659   52659       0   52661
   52662   52662       0   52664   52665   52665       0   52667   52668   52668
       0   52670   52671   52671       0   52673   52674   52674       0   52676
   52677   52677       0   52679   52680   52680       0   52682   52683   52683
       0   52685   52686   52686       0   52688   52689   52689       0   52691
   52692   52692       0   52694   52695   52695       0   52697   52698   52698
       0   52700   52701   52701       0   52703   52704   52704       0   52706
   52707   52707       0   52709   52710   52710       0   52712   52713   52713
       0   52715   52716   52716       0   52718   52719   52719       0   52721
   52722   52722       0   52724   52725   52725       0   52727   52728   52728
       0   52730   52731   52731       0   52733   52734   52734       0   52736
   52737   52737       0   52739   52740   52740       0   52742   52743   52743
       0   52745   52746   52746       0   52748   52749   52749       0   52751
   52752   52752       0   52754   52755   52755       0   52757   52758   52758
       0   52760   52761   52761       0   52763   52764   52764       0   52766
   52767   52767       0   52769   52770   52770       0   52772   52773   52773
       0   52775   52776   52776       0   52778   52779   52779       0   52781
   52782   52782       0   52784   52785   52785       0   52787   52788   52788
       0   52790   52791   52791       0   52793   52794   52794       0   52796
   52797   52797       0   52799   52800   52800       0   52802   52803   52803
       0   52805   52806   52806       0   52808   52809   52809       0   52811
   52812   52812       0   52814   52815   52815       0   52817   52818   52818
       0   52820   52821   52821       0   52823   52824   52824       0   52826
   52827   52827       0   52829   52830   52830       0   52832   52833   52833
       0   52835   52836   52836       0   52838   52839   52839       0   52841
   52842   52842       0   52844   52845   52845       0   52847   52848   52848
       0   52850   52851   52851       0   52853   52854   52854       0   52856
   52857   52857       0   52859   52860   52860       0   52862   52863   52863
       0   52865   52866   52866       0   52868   52869   52869       0   52871
   52872   52872       0   52874   52875   52875       0   52877   52878   52878
       0   52880   52881   52881       0   52883   52884   52884       0   52886
   52887   52887       0   52889   52890   52890       0   52892   52893   52893
       0   52895   52896   52896       0   52898   52899   52899       0   52901
   52902   52902       0   52904   52905   52905       0   52907   52908   52908
       0   52910   52911   52911       0   52913   52914   52914       0   52916
   52917   52917       0   52919   52920   52920       0   52922   52923   52923
       0   52925   52926   52926       0   52928   52929   52929       0   52931
   52932   52932       0   52934   52935   52935       0   52937   52938   52938
       0   52940   52941   52941       0   52943   52944   52944       0   52946
   52947   52947       0   52949   52950   52950       0   52952   52953   52953
       0   52955   52956   52956       0   52958   52959   52959       0   52961
   52962   52962       0   52964   52965   52965       0   52967   52968   52968
       0   52970   52971   52971       0   52973   52974   52974       0   52976
   52977   52977       0   52979   52980   52980       0   52982   52983   52983
       0   52985   52986   52986       0   52988   52989   52989       0   52991
   52992   52992       0   52994   52995   52995       0   52997   52998   52998
       0   53000   53001   53001       0   53003   53004   53004       0   53006
   53007   53007       0   53009   53010   53010       0   53012   53013   53013
       0   53015   53016   53016       0   53018   53019   53019       0   53021
   53022   53022       0   53024   53025   53025       0   53027   53028   53028
       0   53030   53031   53031       0   53033   53034   53034       0   53036
   53037   53037       0   53039   53040   53040       0   53042   53043   53043
       0   53045   53046   53046       0   53048   53049   53049       0   53051
   53052   53052       0   53054   53055   53055       0   53057   53058   53058
       0   53060   53061   53061       0   53063   53064   53064       0   53066
   53067   53067       0   53069   53070   53070       0   53072   53073   53073
       0   53075   53076   53076       0   53078   53079   53079       0   53081
   53082   53082       0   53084   53085   53085       0   53087   53088   53088
       0   53090   53091   53091       0   53093   53094   53094       0   53096
   53097   53097       0   53099   53100   53100       0   53102   53103   53103
       0   53105   53106   53106       0   53108   53109   53109       0   53111
   53112   53112       0   53114   53115   53115       0   53117   53118   53118
       0   53120   53121   53121       0   53123   53124   53124       0   53126
   53127   53127       0   53129   53130   53130       0   53132   53133   53133
       0   53135   53136   53136       0   53138   53139   53139       0   53141
   53142   53142       0   53144   53145   53145       0   53147   53148   53148
       0   53150   53151   53151       0   53153   53154   53154       0   53156
   53157   53157       0   53159   53160   53160       0   53162   53163   53163
       0   53165   53166   53166       0   53168   53169   53169       0   53171
   53172   53172       0   53174   53175   53175       0   53177   53178   53178
       0   53180   53181   53181       0   53183   53184   53184       0   53186
   53187   53187       0   53189   53190   53190       0   53192   53193   53193
       0   53195   53196   53196       0   53198   53199   53199       0   53201
   53202   53202       0   53204   53205   53205       0   53207   53208   53208
       0   53210   53211   53211       0   53213   53214   53214       0   53216
   53217   53217       0   53219   53220   53220       0   53222   53223   53223
       0   53225   53226   53226       0   53228   53229   53229       0   53231
   53232   53232       0   53234   53235   53235       0   53237   53238   53238
       0   53240   53241   53241       0   53243   53244   53244       0   53246
   53247   53247       0   53249   53250   53250       0   53252   53253   53253
       0   53255   53256   53256       0   53258   53259   53259       0   53261
   53262   53262       0   53264   53265   53265       0   53267   53268   53268
       0   53270   53271   53271       0   53273   53274   53274       0   53276
   53277   53277       0   53279   53280   53280       0   53282   53283   53283
       0   53285   53286   53286       0   53288   53289   53289       0   53291
   53292   53292       0   53294   53295   53295       0   53297   53298   53298
       0   53300   53301   53301       0   53303   53304   53304       0   53306
   53307   53307       0   53309   53310   53310       0   53312   53313   53313
       0   53315   53316   53316       0   53318   53319   53319       0   53321
   53322   53322       0   53324   53325   53325       0   53327   53328   53328
       0   53330   53331   53331       0   53333   53334   53334       0   53336
   53337   53337       0   53339   53340   53340       0   53342   53343   53343
       0   53345   53346   53346       0   53348   53349   53349       0   53351
   53352   53352       0   53354   53355   53355       0   53357   53358   53358
       0   53360   53361   53361       0   53363   53364   53364       0   53366
   53367   53367       0   53369   53370   53370       0   53372   53373   53373
       0   53375   53376   53376       0   53378   53379   53379       0   53381
   53382   53382       0   53384   53385   53385       0   53387   53388   53388
       0   53390   53391   53391       0   53393   53394   53394       0   53396
   53397   53397       0   53399   53400   53400       0   53402   53403   53403
       0   53405   53406   53406       0   53408   53409   53409       0   53411
   53412   53412       0   53414   53415   53415       0   53417   53418   53418
       0   53420   53421   53421       0   53423   53424   53424       0   53426
   53427   53427       0   53429   53430   53430       0   53432   53433   53433
       0   53435   53436   53436       0   53438   53439   53439       0   53441
   53442   53442       0   53444   53445   53445       0   53447   53448   53448
       0   53450   53451   53451       0   53453   53454   53454       0   53456
   53457   53457       0   53459   53460   53460       0   53462   53463   53463
       0   53465   53466   53466       0   53468   53469   53469       0   53471
   53472   53472       0   53474   53475   53475       0   53477   53478   53478
       0   53480   53481   53481       0   53483   53484   53484       0   53486
   53487   53487       0   53489   53490   53490       0   53492   53493   53493
       0   53495   53496   53496       0   53498   53499   53499       0   53501
   53502   53502       0   53504   53505   53505       0   53507   53508   53508
       0   53510   53511   53511       0   53513   53514   53514       0   53516
   53517   53517       0   53519   53520   53520       0   53522   53523   53523
       0   53525   53526   53526       0   53528   53529   53529       0   53531
   53532   53532       0   53534   53535   53535       0   53537   53538   53538
       0   53540   53541   53541       0   53543   53544   53544       0   53546
   53547   53547       0   53549   53550   53550       0   53552   53553   53553
       0   53555   53556   53556       0   53558   53559   53559       0   53561
   53562   53562       0   53564   53565   53565       0   53567   53568   53568
       0   53570   53571   53571       0   53573   53574   53574       0   53576
   53577   53577       0   53579   53580   53580       0   53582   53583   53583
       0   53585   53586   53586       0   53588   53589   53589       0   53591
   53592   53592       0   53594   53595   53595       0   53597   53598   53598
       0   53600   53601   53601       0   53603   53604   53604       0   53606
   53607   53607       0   53609   53610   53610       0   53612   53613   53613
       0   53615   53616   53616       0   53618   53619   53619       0   53621
   53622   53622       0   53624   53625   53625       0   53627   53628   53628
       0   53630   53631   53631       0   53633   53634   53634       0   53636
   53637   53637       0   53639   53640   53640       0   53642   53643   53643
       0   53645   53646   53646       0   53648   53649   53649       0   53651
   53652   53652       0   53654   53655   53655       0   53657   53658   53658
       0   53660   53661   53661       0   53663   53664   53664       0   53666
   53667   53667       0   53669   53670   53670       0   53672   53673   53673
       0   53675   53676   53676       0   53678   53679   53679       0   53681
   53682   53682       0   53684   53685   53685       0   53687   53688   53688
       0   53690   53691   53691       0   53693   53694   53694       0   53696
   53697   53697       0   53699   53700   53700       0   53702   53703   53703
       0   53705   53706   53706       0   53708   53709   53709       0   53711
   53712   53712       0   53714   53715   53715       0   53717   53718   53718
       0   53720   53721   53721       0   53723   53724   53724       0   53726
   53727   53727       0   53729   53730   53730       0   53732   53733   53733
       0   53735   53736   53736       0   53738   53739   53739       0   53741
   53742   53742       0   53744   53745   53745       0   53747   53748   53748
       0   53750   53751   53751       0   53753   53754   53754       0   53756
   53757   53757       0   53759   53760   53760       0   53762   53763   53763
       0   53765   53766   53766       0   53768   53769   53769       0   53771
   53772   53772       0   53774   53775   53775       0   53777   53778   53778
       0   53780   53781   53781       0   53783   53784   53784       0   53786
   53787   53787       0   53789   53790   53790       0   53792   53793   53793
       0   53795   53796   53796       0   53798   53799   53799       0   53801
   53802   53802       0   53804   53805   53805       0   53807   53808   53808
       0   53810   53811   53811       0   53813   53814   53814       0   53816
   53817   53817       0   53819   53820   53820       0   53822   53823   53823
       0   53825   53826   53826       0   53828   53829   53829       0   53831
   53832   53832       0   53834   53835   53835       0   53837   53838   53838
       0   53840   53841   53841       0   53843   53844   53844       0   53846
   53847   53847       0   53849   53850   53850       0   53852   53853   53853
       0   53855   53856   53856       0   53858   53859   53859       0   53861
   53862   53862       0   53864   53865   53865       0   53867   53868   53868
       0   53870   53871   53871       0   53873   53874   53874       0   53876
   53877   53877       0   53879   53880   53880       0   53882   53883   53883
       0   53885   53886   53886       0   53888   53889   53889       0   53891
   53892   53892       0   53894   53895   53895       0   53897   53898   53898
       0   53900   53901   53901       0   53903   53904   53904       0   53906
   53907   53907       0   53909   53910   53910       0   53912   53913   53913
       0   53915   53916   53916       0   53918   53919   53919       0   53921
   53922   53922       0   53924   53925   53925       0   53927   53928   53928
       0   53930   53931   53931       0   53933   53934   53934       0   53936
   53937   53937       0   53939   53940   53940       0   53942   53943   53943
       0   53945   53946   53946       0   53948   53949   53949       0   53951
   53952   53952       0   53954   53955   53955       0   53957   53958   53958
       0   53960   53961   53961       0   53963   53964   53964       0   53966
   53967   53967       0   53969   53970   53970       0   53972   53973   53973
       0   53975   53976   53976       0   53978   53979   53979       0   53981
   53982   53982       0   53984   53985   53985       0   53987   53988   53988
       0   53990   53991   53991       0   53993   53994   53994       0   53996
   53997   53997       0   53999   54000   54000       0   54002   54003   54003
       0   54005   54006   54006       0   54008   54009   54009       0   54011
   54012   54012       0   54014   54015   54015       0   54017   54018   54018
       0   54020   54021   54021       0   54023   54024   54024       0   54026
   54027   54027       0   54029   54030   54030       0   54032   54033   54033
       0   54035   54036   54036       0   54038   54039   54039       0   54041
   54042   54042       0   54044   54045   54045       0   54047   54048   54048
       0   54050   54051   54051       0   54053   54054   54054       0   54056
   54057   54057       0   54059   54060   54060       0   54062   54063   54063
       0   54065   54066   54066       0   54068   54069   54069       0   54071
   54072   54072       0   54074   54075   54075       0   54077   54078   54078
       0   54080   54081   54081       0   54083   54084   54084       0   54086
   54087   54087       0   54089   54090   54090       0   54092   54093   54093
       0   54095   54096   54096       0   54098   54099   54099       0   54101
   54102   54102       0   54104   54105   54105       0   54107   54108   54108
       0   54110   54111   54111       0   54113   54114   54114       0   54116
   54117   54117       0   54119   54120   54120       0   54122   54123   54123
       0   54125   54126   54126       0   54128   54129   54129       0   54131
   54132   54132       0   54134   54135   54135       0   54137   54138   54138
       0   54140   54141   54141       0   54143   54144   54144       0   54146
   54147   54147       0   54149   54150   54150       0   54152   54153   54153
       0   54155   54156   54156       0   54158   54159   54159       0   54161
   54162   54162       0   54164   54165   54165       0   54167   54168   54168
       0   54170   54171   54171       0   54173   54174   54174       0   54176
   54177   54177       0   54179   54180   54180       0   54182   54183   54183
       0   54185   54186   54186       0   54188   54189   54189       0   54191
   54192   54192       0   54194   54195   54195       0   54197   54198   54198
       0   54200   54201   54201       0   54203   54204   54204       0   54206
   54207   54207       0   54209   54210   54210       0   54212   54213   54213
       0   54215   54216   54216       0   54218   54219   54219       0   54221
   54222   54222       0   54224   54225   54225       0   54227   54228   54228
       0   54230   54231   54231       0   54233   54234   54234       0   54236
   54237   54237       0   54239   54240   54240       0   54242   54243   54243
       0   54245   54246   54246       0   54248   54249   54249       0   54251
   54252   54252       0   54254   54255   54255       0   54257   54258   54258
       0   54260   54261   54261       0   54263   54264   54264       0   54266
   54267   54267       0   54269   54270   54270       0   54272   54273   54273
       0   54275   54276   54276       0   54278   54279   54279       0   54281
   54282   54282       0   54284   54285   54285       0   54287   54288   54288
       0   54290   54291   54291       0   54293   54294   54294       0   54296
   54297   54297       0   54299   54300   54300       0   54302   54303   54303
       0   54305   54306   54306       0   54308   54309   54309       0   54311
   54312   54312       0   54314   54315   54315       0   54317   54318   54318
       0   54320   54321   54321       0   54323   54324   54324       0   54326
   54327   54327       0   54329   54330   54330       0   54332   54333   54333
       0   54335   54336   54336       0   54338   54339   54339       0   54341
   54342   54342       0   54344   54345   54345       0   54347   54348   54348
       0   54350   54351   54351       0   54353   54354   54354       0   54356
   54357   54357       0   54359   54360   54360       0   54362   54363   54363
       0   54365   54366   54366       0   54368   54369   54369       0   54371
   54372   54372       0   54374   54375   54375       0   54377   54378   54378
       0   54380   54381   54381       0   54383   54384   54384       0   54386
   54387   54387       0   54389   54390   54390       0   54392   54393   54393
       0   54395   54396   54396       0   54398   54399   54399       0   54401
   54402   54402       0   54404   54405   54405       0   54407   54408   54408
       0   54410   54411   54411       0   54413   54414   54414       0   54416
   54417   54417       0   54419   54420   54420       0   54422   54423   54423
       0   54425   54426   54426       0   54428   54429   54429       0   54431
   54432   54432       0   54434   54435   54435       0   54437   54438   54438
       0   54440   54441   54441       0   54443   54444   54444       0   54446
   54447   54447       0   54449   54450   54450       0   54452   54453   54453
       0   54455   54456   54456       0   54458   54459   54459       0   54461
   54462   54462       0   54464   54465   54465       0   54467   54468   54468
       0   54470   54471   54471       0   54473   54474   54474       0   54476
   54477   54477       0   54479   54480   54480       0   54482   54483   54483
       0   54485   54486   54486       0   54488   54489   54489       0   54491
   54492   54492       0   54494   54495   54495       0   54497   54498   54498
       0   54500   54501   54501       0   54503   54504   54504       0   54506
   54507   54507       0   54509   54510   54510       0   54512   54513   54513
       0   54515   54516   54516       0   54518   54519   54519       0   54521
   54522   54522       0   54524   54525   54525       0   54527   54528   54528
       0   54530   54531   54531       0   54533   54534   54534       0   54536
   54537   54537       0   54539   54540   54540       0   54542   54543   54543
       0   54545   54546   54546       0   54548   54549   54549       0   54551
   54552   54552       0   54554   54555   54555       0   54557   54558   54558
       0   54560   54561   54561       0   54563   54564   54564       0   54566
   54567   54567       0   54569   54570   54570       0   54572   54573   54573
       0   54575   54576   54576       0   54578   54579   54579       0   54581
   54582   54582       0   54584   54585   54585       0   54587   54588   54588
       0   54590   54591   54591       0   54593   54594   54594       0   54596
   54597   54597       0   54599   54600   54600       0   54602   54603   54603
       0   54605   54606   54606       0   54608   54609   54609       0   54611
   54612   54612       0   54614   54615   54615       0   54617   54618   54618
       0   54620   54621   54621       0   54623   54624   54624       0   54626
   54627   54627       0   54629   54630   54630       0   54632   54633   54633
       0   54635   54636   54636       0   54638   54639   54639       0   54641
   54642   54642       0   54644   54645   54645       0   54647   54648   54648
       0   54650   54651   54651       0   54653   54654   54654       0   54656
   54657   54657       0   54659   54660   54660       0   54662   54663   54663
       0   54665   54666   54666       0   54668   54669   54669       0   54671
   54672   54672       0   54674   54675   54675       0   54677   54678   54678
       0   54680   54681   54681       0   54683   54684   54684       0   54686
   54687   54687       0   54689   54690   54690       0   54692   54693   54693
       0   54695   54696   54696       0   54698   54699   54699       0   54701
   54702   54702       0   54704   54705   54705       0   54707   54708   54708
       0   54710   54711   54711       0   54713   54714   54714       0   54716
   54717   54717       0   54719   54720   54720       0   54722   54723   54723
       0   54725   54726   54726       0   54728   54729   54729       0   54731
   54732   54732       0   54734   54735   54735       0   54737   54738   54738
       0   54740   54741   54741       0   54743   54744   54744       0   54746
   54747   54747       0   54749   54750   54750       0   54752   54753   54753
       0   54755   54756   54756       0   54758   54759   54759       0   54761
   54762   54762       0   54764   54765   54765       0   54767   54768   54768
       0   54770   54771   54771       0   54773   54774   54774       0   54776
   54777   54777       0   54779   54780   54780       0   54782   54783   54783
       0   54785   54786   54786       0   54788   54789   54789       0   54791
   54792   54792       0   54794   54795   54795       0   54797   54798   54798
       0   54800   54801   54801       0   54803   54804   54804       0   54806
   54807   54807       0   54809   54810   54810       0   54812   54813   54813
       0   54815   54816   54816       0   54818   54819   54819       0   54821
   54822   54822       0   54824   54825   54825       0   54827   54828   54828
       0   54830   54831   54831       0   54833   54834   54834       0   54836
   54837   54837       0   54839   54840   54840       0   54842   54843   54843
       0   54845   54846   54846       0   54848   54849   54849       0   54851
   54852   54852       0   54854   54855   54855       0   54857   54858   54858
       0   54860   54861   54861       0   54863   54864   54864       0   54866
   54867   54867       0   54869   54870   54870       0   54872   54873   54873
       0   54875   54876   54876       0   54878   54879   54879       0   54881
   54882   54882       0   54884   54885   54885       0   54887   54888   54888
       0   54890   54891   54891       0   54893   54894   54894       0   54896
   54897   54897       0   54899   54900   54900       0   54902   54903   54903
       0   54905   54906   54906       0   54908   54909   54909       0   54911
   54912   54912       0   54914   54915   54915       0   54917   54918   54918
       0   54920   54921   54921       0   54923   54924   54924       0   54926
   54927   54927       0   54929   54930   54930       0   54932   54933   54933
       0   54935   54936   54936       0   54938   54939   54939       0   54941
   54942   54942       0   54944   54945   54945       0   54947   54948   54948
       0   54950   54951   54951       0   54953   54954   54954       0   54956
   54957   54957       0   54959   54960   54960       0   54962   54963   54963
       0   54965   54966   54966       0   54968   54969   54969       0   54971
   54972   54972       0   54974   54975   54975       0   54977   54978   54978
       0   54980   54981   54981       0   54983   54984   54984       0   54986
   54987   54987       0   54989   54990   54990       0   54992   54993   54993
       0   54995   54996   54996       0   54998   54999   54999       0   55001
   55002   55002       0   55004   55005   55005       0   55007   55008   55008
       0   55010   55011   55011       0   55013   55014   55014       0   55016
   55017   55017       0   55019   55020   55020       0   55022   55023   55023
       0   55025   55026   55026       0   55028   55029   55029       0   55031
   55032   55032       0   55034   55035   55035       0   55037   55038   55038
       0   55040   55041   55041       0   55043   55044   55044       0   55046
   55047   55047       0   55049   55050   55050       0   55052   55053   55053
       0   55055   55056   55056       0   55058   55059   55059       0   55061
   55062   55062       0   55064   55065   55065       0   55067   55068   55068
       0   55070   55071   55071       0   55073   55074   55074       0   55076
   55077   55077       0   55079   55080   55080       0   55082   55083   55083
       0   55085   55086   55086       0   55088   55089   55089       0   55091
   55092   55092       0   55094   55095   55095       0   55097   55098   55098
       0   55100   55101   55101       0   55103   55104   55104       0   55106
   55107   55107       0   55109   55110   55110       0   55112   55113   55113
       0   55115   55116   55116       0   55118   55119   55119       0   55121
   55122   55122       0   55124   55125   55125       0   55127   55128   55128
       0   55130   55131   55131       0   55133   55134   55134       0   55136
   55137   55137       0   55139   55140   55140       0   55142   55143   55143
       0   55145   55146   55146       0   55148   55149   55149       0   55151
   55152   55152       0   55154   55155   55155       0   55157   55158   55158
       0   55160   55161   55161       0   55163   55164   55164       0   55166
   55167   55167       0   55169   55170   55170       0   55172   55173   55173
       0   55175   55176   55176       0   55178   55179   55179       0   55181
   55182   55182       0   55184   55185   55185       0   55187   55188   55188
       0   55190   55191   55191       0   55193   55194   55194       0   55196
   55197   55197       0   55199   55200   55200       0   55202   55203   55203
       0   55205   55206   55206       0   55208   55209   55209       0   55211
   55212   55212       0   55214   55215   55215       0   55217   55218   55218
       0   55220   55221   55221       0   55223   55224   55224       0   55226
   55227   55227       0   55229   55230   55230       0   55232   55233   55233
       0   55235   55236   55236       0   55238   55239   55239       0   55241
   55242   55242       0   55244   55245   55245       0   55247   55248   55248
       0   55250   55251   55251       0   55253   55254   55254       0   55256
   55257   55257       0   55259   55260   55260       0   55262   55263   55263
       0   55265   55266   55266       0   55268   55269   55269       0   55271
   55272   55272       0   55274   55275   55275       0   55277   55278   55278
       0   55280   55281   55281       0   55283   55284   55284       0   55286
   55287   55287       0   55289   55290   55290       0   55292   55293   55293
       0   55295   55296   55296       0   55298   55299   55299       0   55301
   55302   55302       0   55304   55305   55305       0   55307   55308   55308
       0   55310   55311   55311       0   55313   55314   55314       0   55316
   55317   55317       0   55319   55320   55320       0   55322   55323   55323
       0   55325   55326   55326       0   55328   55329   55329       0   55331
   55332   55332       0   55334   55335   55335       0   55337   55338   55338
       0   55340   55341   55341       0   55343   55344   55344       0   55346
   55347   55347       0   55349   55350   55350       0   55352   55353   55353
       0   55355   55356   55356       0   55358   55359   55359       0   55361
   55362   55362       0   55364   55365   55365       0   55367   55368   55368
       0   55370   55371   55371       0   55373   55374   55374       0   55376
   55377   55377       0   55379   55380   55380       0   55382   55383   55383
       0   55385   55386   55386       0   55388   55389   55389       0   55391
   55392   55392       0   55394   55395   55395       0   55397   55398   55398
       0   55400   55401   55401       0   55403   55404   55404       0   55406
   55407   55407       0   55409   55410   55410       0   55412   55413   55413
       0   55415   55416   55416       0   55418   55419   55419       0   55421
   55422   55422       0   55424   55425   55425       0   55427   55428   55428
       0   55430   55431   55431       0   55433   55434   55434       0   55436
   55437   55437       0   55439   55440   55440       0   55442   55443   55443
       0   55445   55446   55446       0   55448   55449   55449       0   55451
   55452   55452       0   55454   55455   55455       0   55457   55458   55458
       0   55460   55461   55461       0   55463   55464   55464       0   55466
   55467   55467       0   55469   55470   55470       0   55472   55473   55473
       0   55475   55476   55476       0   55478   55479   55479       0   55481
   55482   55482       0   55484   55485   55485       0   55487   55488   55488
       0   55490   55491   55491       0   55493   55494   55494       0   55496
   55497   55497       0   55499   55500   55500       0   55502   55503   55503
       0   55505   55506   55506       0   55508   55509   55509       0   55511
   55512   55512       0   55514   55515   55515       0   55517   55518   55518
       0   55520   55521   55521       0   55523   55524   55524       0   55526
   55527   55527       0   55529   55530   55530       0   55532   55533   55533
       0   55535   55536   55536       0   55538   55539   55539       0   55541
   55542   55542       0   55544   55545   55545       0   55547   55548   55548
       0   55550   55551   55551       0   55553   55554   55554       0   55556
   55557   55557       0   55559   55560   55560       0   55562   55563   55563
       0   55565   55566   55566       0   55568   55569   55569       0   55571
   55572   55572       0   55574   55575   55575       0   55577   55578   55578
       0   55580   55581   55581       0   55583   55584   55584       0   55586
   55587   55587       0   55589   55590   55590       0   55592   55593   55593
       0   55595   55596   55596       0   55598   55599   55599       0   55601
   55602   55602       0   55604   55605   55605       0   55607   55608   55608
       0   55610   55611   55611       0   55613   55614   55614       0   55616
   55617   55617       0   55619   55620   55620       0   55622   55623   55623
       0   55625   55626   55626       0   55628   55629   55629       0   55631
   55632   55632       0   55634   55635   55635       0   55637   55638   55638
       0   55640   55641   55641       0   55643   55644   55644       0   55646
   55647   55647       0   55649   55650   55650       0   55652   55653   55653
       0   55655   55656   55656       0   55658   55659   55659       0   55661
   55662   55662       0   55664   55665   55665       0   55667   55668   55668
       0   55670   55671   55671       0   55673   55674   55674       0   55676
   55677   55677       0   55679   55680   55680       0   55682   55683   55683
       0   55685   55686   55686       0   55688   55689   55689       0   55691
   55692   55692       0   55694   55695   55695       0   55697   55698   55698
       0   55700   55701   55701       0   55703   55704   55704       0   55706
   55707   55707       0   55709   55710   55710       0   55712   55713   55713
       0   55715   55716   55716       0   55718   55719   55719       0   55721
   55722   55722       0   55724   55725   55725       0   55727   55728   55728
       0   55730   55731   55731       0   55733   55734   55734       0   55736
   55737   55737       0   55739   55740   55740       0   55742   55743   55743
       0   55745   55746   55746       0   55748   55749   55749       0   55751
   55752   55752       0   55754   55755   55755       0   55757   55758   55758
       0   55760   55761   55761       0   55763   55764   55764       0   55766
   55767   55767       0   55769   55770   55770       0   55772   55773   55773
       0   55775   55776   55776       0   55778   55779   55779       0   55781
   55782   55782       0   55784   55785   55785       0   55787   55788   55788
       0   55790   55791   55791       0   55793   55794   55794       0   55796
   55797   55797       0   55799   55800   55800       0   55802   55803   55803
       0   55805   55806   55806       0   55808   55809   55809       0   55811
   55812   55812       0   55814   55815   55815       0   55817   55818   55818
       0   55820   55821   55821       0   55823   55824   55824       0   55826
   55827   55827       0   55829   55830   55830       0   55832   55833   55833
       0   55835   55836   55836       0   55838   55839   55839       0   55841
   55842   55842       0   55844   55845   55845       0   55847   55848   55848
       0   55850   55851   55851       0   55853   55854   55854       0   55856
   55857   55857       0   55859   55860   55860       0   55862   55863   55863
       0   55865   55866   55866       0   55868   55869   55869       0   55871
   55872   55872       0   55874   55875   55875       0   55877   55878   55878
       0   55880   55881   55881       0   55883   55884   55884       0   55886
   55887   55887       0   55889   55890   55890       0   55892   55893   55893
       0   55895   55896   55896       0   55898   55899   55899       0   55901
   55902   55902       0   55904   55905   55905       0   55907   55908   55908
       0   55910   55911   55911       0   55913   55914   55914       0   55916
   55917   55917       0   55919   55920   55920       0   55922   55923   55923
       0   55925   55926   55926       0   55928   55929   55929       0   55931
   55932   55932       0   55934   55935   55935       0   55937   55938   55938
       0   55940   55941   55941       0   55943   55944   55944       0   55946
   55947   55947       0   55949   55950   55950       0   55952   55953   55953
       0   55955   55956   55956       0   55958   55959   55959       0   55961
   55962   55962       0   55964   55965   55965       0   55967   55968   55968
       0   55970   55971   55971       0   55973   55974   55974       0   55976
   55977   55977       0   55979   55980   55980       0   55982   55983   55983
       0   55985   55986   55986       0   55988   55989   55989       0   55991
   55992   55992       0   55994   55995   55995       0   55997   55998   55998
       0   56000   56001   56001       0   56003   56004   56004       0   56006
   56007   56007       0   56009   56010   56010       0   56012   56013   56013
       0   56015   56016   56016       0   56018   56019   56019       0   56021
   56022   56022       0   56024   56025   56025       0   56027   56028   56028
       0   56030   56031   56031       0   56033   56034   56034       0   56036
   56037   56037       0   56039   56040   56040       0   56042   56043   56043
       0   56045   56046   56046       0   56048   56049   56049       0   56051
   56052   56052       0   56054   56055   56055       0   56057   56058   56058
       0   56060   56061   56061       0   56063   56064   56064       0   56066
   56067   56067       0   56069   56070   56070       0   56072   56073   56073
       0   56075   56076   56076       0   56078   56079   56079       0   56081
   56082   56082       0   56084   56085   56085       0   56087   56088   56088
       0   56090   56091   56091       0   56093   56094   56094       0   56096
   56097   56097       0   56099   56100   56100       0   56102   56103   56103
       0   56105   56106   56106       0   56108   56109   56109       0   56111
   56112   56112       0   56114   56115   56115       0   56117   56118   56118
       0   56120   56121   56121       0   56123   56124   56124       0   56126
   56127   56127       0   56129   56130   56130       0   56132   56133   56133
       0   56135   56136   56136       0   56138   56139   56139       0   56141
   56142   56142       0   56144   56145   56145       0   56147   56148   56148
       0   56150   56151   56151       0   56153   56154   56154       0   56156
   56157   56157       0   56159   56160   56160       0   56162   56163   56163
       0   56165   56166   56166       0   56168   56169   56169       0   56171
   56172   56172       0   56174   56175   56175       0   56177   56178   56178
       0   56180   56181   56181       0   56183   56184   56184       0   56186
   56187   56187       0   56189   56190   56190       0   56192   56193   56193
       0   56195   56196   56196       0   56198   56199   56199       0   56201
   56202   56202       0   56204   56205   56205       0   56207   56208   56208
       0   56210   56211   56211       0   56213   56214   56214       0   56216
   56217   56217       0   56219   56220   56220       0   56222   56223   56223
       0   56225   56226   56226       0   56228   56229   56229       0   56231
   56232   56232       0   56234   56235   56235       0   56237   56238   56238
       0   56240   56241   56241       0   56243   56244   56244       0   56246
   56247   56247       0   56249   56250   56250       0   56252   56253   56253
       0   56255   56256   56256       0   56258   56259   56259       0   56261
   56262   56262       0   56264   56265   56265       0   56267   56268   56268
       0   56270   56271   56271       0   56273   56274   56274       0   56276
   56277   56277       0   56279   56280   56280       0   56282   56283   56283
       0   56285   56286   56286       0   56288   56289   56289       0   56291
   56292   56292       0   56294   56295   56295       0   56297   56298   56298
       0   56300   56301   56301       0   56303   56304   56304       0   56306
   56307   56307       0   56309   56310   56310       0   56312   56313   56313
       0   56315   56316   56316       0   56318   56319   56319       0   56321
   56322   56322       0   56324   56325   56325       0   56327   56328   56328
       0   56330   56331   56331       0   56333   56334   56334       0   56336
   56337   56337       0   56339   56340   56340       0   56342   56343   56343
       0   56345   56346   56346       0   56348   56349   56349       0   56351
   56352   56352       0   56354   56355   56355       0   56357   56358   56358
       0   56360   56361   56361       0   56363   56364   56364       0   56366
   56367   56367       0   56369   56370   56370       0   56372   56373   56373
       0   56375   56376   56376       0   56378   56379   56379       0   56381
   56382   56382       0   56384   56385   56385       0   56387   56388   56388
       0   56390   56391   56391       0   56393   56394   56394       0   56396
   56397   56397       0   56399   56400   56400       0   56402   56403   56403
       0   56405   56406   56406       0   56408   56409   56409       0   56411
   56412   56412       0   56414   56415   56415       0   56417   56418   56418
       0   56420   56421   56421       0   56423   56424   56424       0   56426
   56427   56427       0   56429   56430   56430       0   56432   56433   56433
       0   56435   56436   56436       0   56438   56439   56439       0   56441
   56442   56442       0   56444   56445   56445       0   56447   56448   56448
       0   56450   56451   56451       0   56453   56454   56454       0   56456
   56457   56457       0   56459   56460   56460       0   56462   56463   56463
       0   56465   56466   56466       0   56468   56469   56469       0   56471
   56472   56472       0   56474   56475   56475       0   56477   56478   56478
       0   56480   56481   56481       0   56483   56484   56484       0   56486
   56487   56487       0   56489   56490   56490       0   56492   56493   56493
       0   56495   56496   56496       0   56498   56499   56499       0   56501
   56502   56502       0   56504   56505   56505       0   56507   56508   56508
       0   56510   56511   56511       0   56513   56514   56514       0   56516
   56517   56517       0   56519   56520   56520       0   56522   56523   56523
       0   56525   56526   56526       0   56528   56529   56529       0   56531
   56532   56532       0   56534   56535   56535       0   56537   56538   56538
       0   56540   56541   56541       0   56543   56544   56544       0   56546
   56547   56547       0   56549   56550   56550       0   56552   56553   56553
       0   56555   56556   56556       0   56558   56559   56559       0   56561
   56562   56562       0   56564   56565   56565       0   56567   56568   56568
       0   56570   56571   56571       0   56573   56574   56574       0   56576
   56577   56577       0   56579   56580   56580       0   56582   56583   56583
       0   56585   56586   56586       0   56588   56589   56589       0   56591
   56592   56592       0   56594   56595   56595       0   56597   56598   56598
       0   56600   56601   56601       0   56603   56604   56604       0   56606
   56607   56607       0   56609   56610   56610       0   56612   56613   56613
       0   56615   56616   56616       0   56618   56619   56619       0   56621
   56622   56622       0   56624   56625   56625       0   56627   56628   56628
       0   56630   56631   56631       0   56633   56634   56634       0   56636
   56637   56637       0   56639   56640   56640       0   56642   56643   56643
       0   56645   56646   56646       0   56648   56649   56649       0   56651
   56652   56652       0   56654   56655   56655       0   56657   56658   56658
       0   56660   56661   56661       0   56663   56664   56664       0   56666
   56667   56667       0   56669   56670   56670       0   56672   56673   56673
       0   56675   56676   56676       0   56678   56679   56679       0   56681
   56682   56682       0   56684   56685   56685       0   56687   56688   56688
       0   56690   56691   56691       0   56693   56694   56694       0   56696
   56697   56697       0   56699   56700   56700       0   56702   56703   56703
       0   56705   56706   56706       0   56708   56709   56709       0   56711
   56712   56712       0   56714   56715   56715       0   56717   56718   56718
       0   56720   56721   56721       0   56723   56724   56724       0   56726
   56727   56727       0   56729   56730   56730       0   56732   56733   56733
       0   56735   56736   56736       0   56738   56739   56739       0   56741
   56742   56742       0   56744   56745   56745       0   56747   56748   56748
       0   56750   56751   56751       0   56753   56754   56754       0   56756
   56757   56757       0   56759   56760   56760       0   56762   56763   56763
       0   56765   56766   56766       0   56768   56769   56769       0   56771
   56772   56772       0   56774   56775   56775       0   56777   56778   56778
       0   56780   56781   56781       0   56783   56784   56784       0   56786
   56787   56787       0   56789   56790   56790       0   56792   56793   56793
       0   56795   56796   56796       0   56798   56799   56799       0   56801
   56802   56802       0   56804   56805   56805       0   56807   56808   56808
       0   56810   56811   56811       0   56813   56814   56814       0   56816
   56817   56817       0   56819   56820   56820       0   56822   56823   56823
       0   56825   56826   56826       0   56828   56829   56829       0   56831
   56832   56832       0   56834   56835   56835       0   56837   56838   56838
       0   56840   56841   56841       0   56843   56844   56844       0   56846
   56847   56847       0   56849   56850   56850       0   56852   56853   56853
       0   56855   56856   56856       0   56858   56859   56859       0   56861
   56862   56862       0   56864   56865   56865       0   56867   56868   56868
       0   56870   56871   56871       0   56873   56874   56874       0   56876
   56877   56877       0   56879   56880   56880       0   56882   56883   56883
       0   56885   56886   56886       0   56888   56889   56889       0   56891
   56892   56892       0   56894   56895   56895       0   56897   56898   56898
       0   56900   56901   56901       0   56903   56904   56904       0   56906
   56907   56907       0   56909   56910   56910       0   56912   56913   56913
       0   56915   56916   56916       0   56918   56919   56919       0   56921
   56922   56922       0   56924   56925   56925       0   56927   56928   56928
       0   56930   56931   56931       0   56933   56934   56934       0   56936
   56937   56937       0   56939   56940   56940       0   56942   56943   56943
       0   56945   56946   56946       0   56948   56949   56949       0   56951
   56952   56952       0   56954   56955   56955       0   56957   56958   56958
       0   56960   56961   56961       0   56963   56964   56964       0   56966
   56967   56967       0   56969   56970   56970       0   56972   56973   56973
       0   56975   56976   56976       0   56978   56979   56979       0   56981
   56982   56982       0   56984   56985   56985       0   56987   56988   56988
       0   56990   56991   56991       0   56993   56994   56994       0   56996
   56997   56997       0   56999   57000   57000       0   57002   57003   57003
       0   57005   57006   57006       0   57008   57009   57009       0   57011
   57012   57012       0   57014   57015   57015       0   57017   57018   57018
       0   57020   57021   57021       0   57023   57024   57024       0   57026
   57027   57027       0   57029   57030   57030       0   57032   57033   57033
       0   57035   57036   57036       0   57038   57039   57039       0   57041
   57042   57042       0   57044   57045   57045       0   57047   57048   57048
       0   57050   57051   57051       0   57053   57054   57054       0   57056
   57057   57057       0   57059   57060   57060       0   57062   57063   57063
       0   57065   57066   57066       0   57068   57069   57069       0   57071
   57072   57072       0   57074   57075   57075       0   57077   57078   57078
       0   57080   57081   57081       0   57083   57084   57084       0   57086
   57087   57087       0   57089   57090   57090       0   57092   57093   57093
       0   57095   57096   57096       0   57098   57099   57099       0   57101
   57102   57102       0   57104   57105   57105       0   57107   57108   57108
       0   57110   57111   57111       0   57113   57114   57114       0   57116
   57117   57117       0   57119   57120   57120       0   57122   57123   57123
       0   57125   57126   57126       0   57128   57129   57129       0   57131
   57132   57132       0   57134   57135   57135       0   57137   57138   57138
       0   57140   57141   57141       0   57143   57144   57144       0   57146
   57147   57147       0   57149   57150   57150       0   57152   57153   57153
       0   57155   57156   57156       0   57158   57159   57159       0   57161
   57162   57162       0   57164   57165   57165       0   57167   57168   57168
       0   57170   57171   57171       0   57173   57174   57174       0   57176
   57177   57177       0   57179   57180   57180       0   57182   57183   57183
       0   57185   57186   57186       0   57188   57189   57189       0   57191
   57192   57192       0   57194   57195   57195       0   57197   57198   57198
       0   57200   57201   57201       0   57203   57204   57204       0   57206
   57207   57207       0   57209   57210   57210       0   57212   57213   57213
       0   57215   57216   57216       0   57218   57219   57219       0   57221
   57222   57222       0   57224   57225   57225       0   57227   57228   57228
       0   57230   57231   57231       0   57233   57234   57234       0   57236
   57237   57237       0   57239   57240   57240       0   57242   57243   57243
       0   57245   57246   57246       0   57248   57249   57249       0   57251
   57252   57252       0   57254   57255   57255       0   57257   57258   57258
       0   57260   57261   57261       0   57263   57264   57264       0   57266
   57267   57267       0   57269   57270   57270       0   57272   57273   57273
       0   57275   57276   57276       0   57278   57279   57279       0   57281
   57282   57282       0   57284   57285   57285       0   57287   57288   57288
       0   57290   57291   57291       0   57293   57294   57294       0   57296
   57297   57297       0   57299   57300   57300       0   57302   57303   57303
       0   57305   57306   57306       0   57308   57309   57309       0   57311
   57312   57312       0   57314   57315   57315       0   57317   57318   57318
       0   57320   57321   57321       0   57323   57324   57324       0   57326
   57327   57327       0   57329   57330   57330       0   57332   57333   57333
       0   57335   57336   57336       0   57338   57339   57339       0   57341
   57342   57342       0   57344   57345   57345       0   57347   57348   57348
       0   57350   57351   57351       0   57353   57354   57354       0   57356
   57357   57357       0   57359   57360   57360       0   57362   57363   57363
       0   57365   57366   57366       0   57368   57369   57369       0   57371
   57372   57372       0   57374   57375   57375       0   57377   57378   57378
       0   57380   57381   57381       0   57383   57384   57384       0   57386
   57387   57387       0   57389   57390   57390       0   57392   57393   57393
       0   57395   57396   57396       0   57398   57399   57399       0   57401
   57402   57402       0   57404   57405   57405       0   57407   57408   57408
       0   57410   57411   57411       0   57413   57414   57414       0   57416
   57417   57417       0   57419   57420   57420       0   57422   57423   57423
       0   57425   57426   57426       0   57428   57429   57429       0   57431
   57432   57432       0   57434   57435   57435       0   57437   57438   57438
       0   57440   57441   57441       0   57443   57444   57444       0   57446
   57447   57447       0   57449   57450   57450       0   57452   57453   57453
       0   57455   57456   57456       0   57458   57459   57459       0   57461
   57462   57462       0   57464   57465   57465       0   57467   57468   57468
       0   57470   57471   57471       0   57473   57474   57474       0   57476
   57477   57477       0   57479   57480   57480       0   57482   57483   57483
       0   57485   57486   57486       0   57488   57489   57489       0   57491
   57492   57492       0   57494   57495   57495       0   57497   57498   57498
       0   57500   57501   57501       0   57503   57504   57504       0   57506
   57507   57507       0   57509   57510   57510       0   57512   57513   57513
       0   57515   57516   57516       0   57518   57519   57519       0   57521
   57522   57522       0   57524   57525   57525       0   57527   57528   57528
       0   57530   57531   57531       0   57533   57534   57534       0   57536
   57537   57537       0   57539   57540   57540       0   57542   57543   57543
       0   57545   57546   57546       0   57548   57549   57549       0   57551
   57552   57552       0   57554   57555   57555       0   57557   57558   57558
       0   57560   57561   57561       0   57563   57564   57564       0   57566
   57567   57567       0   57569   57570   57570       0   57572   57573   57573
       0   57575   57576   57576       0   57578   57579   57579       0   57581
   57582   57582       0   57584   57585   57585       0   57587   57588   57588
       0   57590   57591   57591       0   57593   57594   57594       0   57596
   57597   57597       0   57599   57600   57600       0   57602   57603   57603
       0   57605   57606   57606       0   57608   57609   57609       0   57611
   57612   57612       0   57614   57615   57615       0   57617   57618   57618
       0   57620   57621   57621       0   57623   57624   57624       0   57626
   57627   57627       0   57629   57630   57630       0   57632   57633   57633
       0   57635   57636   57636       0   57638   57639   57639       0   57641
   57642   57642       0   57644   57645   57645       0   57647   57648   57648
       0   57650   57651   57651       0   57653   57654   57654       0   57656
   57657   57657       0   57659   57660   57660       0   57662   57663   57663
       0   57665   57666   57666       0   57668   57669   57669       0   57671
   57672   57672       0   57674   57675   57675       0   57677   57678   57678
       0   57680   57681   57681       0   57683   57684   57684       0   57686
   57687   57687       0   57689   57690   57690       0   57692   57693   57693
       0   57695   57696   57696       0   57698   57699   57699       0   57701
   57702   57702       0   57704   57705   57705       0   57707   57708   57708
       0   57710   57711   57711       0   57713   57714   57714       0   57716
   57717   57717       0   57719   57720   57720       0   57722   57723   57723
       0   57725   57726   57726       0   57728   57729   57729       0   57731
   57732   57732       0   57734   57735   57735       0   57737   57738   57738
       0   57740   57741   57741       0   57743   57744   57744       0   57746
   57747   57747       0   57749   57750   57750       0   57752   57753   57753
       0   57755   57756   57756       0   57758   57759   57759       0   57761
   57762   57762       0   57764   57765   57765       0   57767   57768   57768
       0   57770   57771   57771       0   57773   57774   57774       0   57776
   57777   57777       0   57779   57780   57780       0   57782   57783   57783
       0   57785   57786   57786       0   57788   57789   57789       0   57791
   57792   57792       0   57794   57795   57795       0   57797   57798   57798
       0   57800   57801   57801       0   57803   57804   57804       0   57806
   57807   57807       0   57809   57810   57810       0   57812   57813   57813
       0   57815   57816   57816       0   57818   57819   57819       0   57821
   57822   57822       0   57824   57825   57825       0   57827   57828   57828
       0   57830   57831   57831       0   57833   57834   57834       0   57836
   57837   57837       0   57839   57840   57840       0   57842   57843   57843
       0   57845   57846   57846       0   57848   57849   57849       0   57851
   57852   57852       0   57854   57855   57855       0   57857   57858   57858
       0   57860   57861   57861       0   57863   57864   57864       0   57866
   57867   57867       0   57869   57870   57870       0   57872   57873   57873
       0   57875   57876   57876       0   57878   57879   57879       0   57881
   57882   57882       0   57884   57885   57885       0   57887   57888   57888
       0   57890   57891   57891       0   57893   57894   57894       0   57896
   57897   57897       0   57899   57900   57900       0   57902   57903   57903
       0   57905   57906   57906       0   57908   57909   57909       0   57911
   57912   57912       0   57914   57915   57915       0   57917   57918   57918
       0   57920   57921   57921       0   57923   57924   57924       0   57926
   57927   57927       0   57929   57930   57930       0   57932   57933   57933
       0   57935   57936   57936       0   57938   57939   57939       0   57941
   57942   57942       0   57944   57945   57945       0   57947   57948   57948
       0   57950   57951   57951       0   57953   57954   57954       0   57956
   57957   57957       0   57959   57960   57960       0   57962   57963   57963
       0   57965   57966   57966       0   57968   57969   57969       0   57971
   57972   57972       0   57974   57975   57975       0   57977   57978   57978
       0   57980   57981   57981       0   57983   57984   57984       0   57986
   57987   57987       0   57989   57990   57990       0   57992   57993   57993
       0   57995   57996   57996       0   57998   57999   57999       0   58001
   58002   58002       0   58004   58005   58005       0   58007   58008   58008
       0   58010   58011   58011       0   58013   58014   58014       0   58016
   58017   58017       0   58019   58020   58020       0   58022   58023   58023
       0   58025   58026   58026       0   58028   58029   58029       0   58031
   58032   58032       0   58034   58035   58035       0   58037   58038   58038
       0   58040   58041   58041       0   58043   58044   58044       0   58046
   58047   58047       0   58049   58050   58050       0   58052   58053   58053
       0   58055   58056   58056       0   58058   58059   58059       0   58061
   58062   58062       0   58064   58065   58065       0   58067   58068   58068
       0   58070   58071   58071       0   58073   58074   58074       0   58076
   58077   58077       0   58079   58080   58080       0   58082   58083   58083
       0   58085   58086   58086       0   58088   58089   58089       0   58091
   58092   58092       0   58094   58095   58095       0   58097   58098   58098
       0   58100   58101   58101       0   58103   58104   58104       0   58106
   58107   58107       0   58109   58110   58110       0   58112   58113   58113
       0   58115   58116   58116       0   58118   58119   58119       0   58121
   58122   58122       0   58124   58125   58125       0   58127   58128   58128
       0   58130   58131   58131       0   58133   58134   58134       0   58136
   58137   58137       0   58139   58140   58140       0   58142   58143   58143
       0   58145   58146   58146       0   58148   58149   58149       0   58151
   58152   58152       0   58154   58155   58155       0   58157   58158   58158
       0   58160   58161   58161       0   58163   58164   58164       0   58166
   58167   58167       0   58169   58170   58170       0   58172   58173   58173
       0   58175   58176   58176       0   58178   58179   58179       0   58181
   58182   58182       0   58184   58185   58185       0   58187   58188   58188
       0   58190   58191   58191       0   58193   58194   58194       0   58196
   58197   58197       0   58199   58200   58200       0   58202   58203   58203
       0   58205   58206   58206       0   58208   58209   58209       0   58211
   58212   58212       0   58214   58215   58215       0   58217   58218   58218
       0   58220   58221   58221       0   58223   58224   58224       0   58226
   58227   58227       0   58229   58230   58230       0   58232   58233   58233
       0   58235   58236   58236       0   58238   58239   58239       0   58241
   58242   58242       0   58244   58245   58245       0   58247   58248   58248
       0   58250   58251   58251       0   58253   58254   58254       0   58256
   58257   58257       0   58259   58260   58260       0   58262   58263   58263
       0   58265   58266   58266       0   58268   58269   58269       0   58271
   58272   58272       0   58274   58275   58275       0   58277   58278   58278
       0   58280   58281   58281       0   58283   58284   58284       0   58286
   58287   58287       0   58289   58290   58290       0   58292   58293   58293
       0   58295   58296   58296       0   58298   58299   58299       0   58301
   58302   58302       0   58304   58305   58305       0   58307   58308   58308
       0   58310   58311   58311       0   58313   58314   58314       0   58316
   58317   58317       0   58319   58320   58320       0   58322   58323   58323
       0   58325   58326   58326       0   58328   58329   58329       0   58331
   58332   58332       0   58334   58335   58335       0   58337   58338   58338
       0   58340   58341   58341       0   58343   58344   58344       0   58346
   58347   58347       0   58349   58350   58350       0   58352   58353   58353
       0   58355   58356   58356       0   58358   58359   58359       0   58361
   58362   58362       0   58364   58365   58365       0   58367   58368   58368
       0   58370   58371   58371       0   58373   58374   58374       0   58376
   58377   58377       0   58379   58380   58380       0   58382   58383   58383
       0   58385   58386   58386       0   58388   58389   58389       0   58391
   58392   58392       0   58394   58395   58395       0   58397   58398   58398
       0   58400   58401   58401       0   58403   58404   58404       0   58406
   58407   58407       0   58409   58410   58410       0   58412   58413   58413
       0   58415   58416   58416       0   58418   58419   58419       0   58421
   58422   58422       0   58424   58425   58425       0   58427   58428   58428
       0   58430   58431   58431       0   58433   58434   58434       0   58436
   58437   58437       0   58439   58440   58440       0   58442   58443   58443
       0   58445   58446   58446       0   58448   58449   58449       0   58451
   58452   58452       0   58454   58455   58455       0   58457   58458   58458
       0   58460   58461   58461       0   58463   58464   58464       0   58466
   58467   58467       0   58469   58470   58470       0   58472   58473   58473
       0   58475   58476   58476       0   58478   58479   58479       0   58481
   58482   58482       0   58484   58485   58485       0   58487   58488   58488
       0   58490   58491   58491       0   58493   58494   58494       0   58496
   58497   58497       0   58499   58500   58500       0   58502   58503   58503
       0   58505   58506   58506       0   58508   58509   58509       0   58511
   58512   58512       0   58514   58515   58515       0   58517   58518   58518
       0   58520   58521   58521       0   58523   58524   58524       0   58526
   58527   58527       0   58529   58530   58530       0   58532   58533   58533
       0   58535   58536   58536       0   58538   58539   58539       0   58541
   58542   58542       0   58544   58545   58545       0   58547   58548   58548
       0   58550   58551   58551       0   58553   58554   58554       0   58556
   58557   58557       0   58559   58560   58560       0   58562   58563   58563
       0   58565   58566   58566       0   58568   58569   58569       0   58571
   58572   58572       0   58574   58575   58575       0   58577   58578   58578
       0   58580   58581   58581       0   58583   58584   58584       0   58586
   58587   58587       0   58589   58590   58590       0   58592   58593   58593
       0   58595   58596   58596       0   58598   58599   58599       0   58601
   58602   58602       0   58604   58605   58605       0   58607   58608   58608
       0   58610   58611   58611       0   58613   58614   58614       0   58616
   58617   58617       0   58619   58620   58620       0   58622   58623   58623
       0   58625   58626   58626       0   58628   58629   58629       0   58631
   58632   58632       0   58634   58635   58635       0   58637   58638   58638
       0   58640   58641   58641       0   58643   58644   58644       0   58646
   58647   58647       0   58649   58650   58650       0   58652   58653   58653
       0   58655   58656   58656       0   58658   58659   58659       0   58661
   58662   58662       0   58664   58665   58665       0   58667   58668   58668
       0   58670   58671   58671       0   58673   58674   58674       0   58676
   58677   58677       0   58679   58680   58680       0   58682   58683   58683
       0   58685   58686   58686       0   58688   58689   58689       0   58691
   58692   58692       0   58694   58695   58695       0   58697   58698   58698
       0   58700   58701   58701       0   58703   58704   58704       0   58706
   58707   58707       0   58709   58710   58710       0   58712   58713   58713
       0   58715   58716   58716       0   58718   58719   58719       0   58721
   58722   58722       0   58724   58725   58725       0   58727   58728   58728
       0   58730   58731   58731       0   58733   58734   58734       0   58736
   58737   58737       0   58739   58740   58740       0   58742   58743   58743
       0   58745   58746   58746       0   58748   58749   58749       0   58751
   58752   58752       0   58754   58755   58755       0   58757   58758   58758
       0   58760   58761   58761       0   58763   58764   58764       0   58766
   58767   58767       0   58769   58770   58770       0   58772   58773   58773
       0   58775   58776   58776       0   58778   58779   58779       0   58781
   58782   58782       0   58784   58785   58785       0   58787   58788   58788
       0   58790   58791   58791       0   58793   58794   58794       0   58796
   58797   58797       0   58799   58800   58800       0   58802   58803   58803
       0   58805   58806   58806       0   58808   58809   58809       0   58811
   58812   58812       0   58814   58815   58815       0   58817   58818   58818
       0   58820   58821   58821       0   58823   58824   58824       0   58826
   58827   58827       0   58829   58830   58830       0   58832   58833   58833
       0   58835   58836   58836       0   58838   58839   58839       0   58841
   58842   58842       0   58844   58845   58845       0   58847   58848   58848
       0   58850   58851   58851       0   58853   58854   58854       0   58856
   58857   58857       0   58859   58860   58860       0   58862   58863   58863
       0   58865   58866   58866       0   58868   58869   58869       0   58871
   58872   58872       0   58874   58875   58875       0   58877   58878   58878
       0   58880   58881   58881       0   58883   58884   58884       0   58886
   58887   58887       0   58889   58890   58890       0   58892   58893   58893
       0   58895   58896   58896       0   58898   58899   58899       0   58901
   58902   58902       0   58904   58905   58905       0   58907   58908   58908
       0   58910   58911   58911       0   58913   58914   58914       0   58916
   58917   58917       0   58919   58920   58920       0   58922   58923   58923
       0   58925   58926   58926       0   58928   58929   58929       0   58931
   58932   58932       0   58934   58935   58935       0   58937   58938   58938
       0   58940   58941   58941       0   58943   58944   58944       0   58946
   58947   58947       0   58949   58950   58950       0   58952   58953   58953
       0   58955   58956   58956       0   58958   58959   58959       0   58961
   58962   58962       0   58964   58965   58965       0   58967   58968   58968
       0   58970   58971   58971       0   58973   58974   58974       0   58976
   58977   58977       0   58979   58980   58980       0   58982   58983   58983
       0   58985   58986   58986       0   58988   58989   58989       0   58991
   58992   58992       0   58994   58995   58995       0   58997   58998   58998
       0   59000   59001   59001       0   59003   59004   59004       0   59006
   59007   59007       0   59009   59010   59010       0   59012   59013   59013
       0   59015   59016   59016       0   59018   59019   59019       0   59021
   59022   59022       0   59024   59025   59025       0   59027   59028   59028
       0   59030   59031   59031       0   59033   59034   59034       0   59036
   59037   59037       0   59039   59040   59040       0   59042   59043   59043
       0   59045   59046   59046       0   59048   59049   59049       0   59051
   59052   59052       0   59054   59055   59055       0   59057   59058   59058
       0   59060   59061   59061       0   59063   59064   59064       0   59066
   59067   59067       0   59069   59070   59070       0   59072   59073   59073
       0   59075   59076   59076       0   59078   59079   59079       0   59081
   59082   59082       0   59084   59085   59085       0   59087   59088   59088
       0   59090   59091   59091       0   59093   59094   59094       0   59096
   59097   59097       0   59099   59100   59100       0   59102   59103   59103
       0   59105   59106   59106       0   59108   59109   59109       0   59111
   59112   59112       0   59114   59115   59115       0   59117   59118   59118
       0   59120   59121   59121       0   59123   59124   59124       0   59126
   59127   59127       0   59129   59130   59130       0   59132   59133   59133
       0   59135   59136   59136       0   59138   59139   59139       0   59141
   59142   59142       0   59144   59145   59145       0   59147   59148   59148
       0   59150   59151   59151       0   59153   59154   59154       0   59156
   59157   59157       0   59159   59160   59160       0   59162   59163   59163
       0   59165   59166   59166       0   59168   59169   59169       0   59171
   59172   59172       0   59174   59175   59175       0   59177   59178   59178
       0   59180   59181   59181       0   59183   59184   59184       0   59186
   59187   59187       0   59189   59190   59190       0   59192   59193   59193
       0   59195   59196   59196       0   59198   59199   59199       0   59201
   59202   59202       0   59204   59205   59205       0   59207   59208   59208
       0   59210   59211   59211       0   59213   59214   59214       0   59216
   59217   59217       0   59219   59220   59220       0   59222   59223   59223
       0   59225   59226   59226       0   59228   59229   59229       0   59231
   59232   59232       0   59234   59235   59235       0   59237   59238   59238
       0   59240   59241   59241       0   59243   59244   59244       0   59246
   59247   59247       0   59249   59250   59250       0   59252   59253   59253
       0   59255   59256   59256       0   59258   59259   59259       0   59261
   59262   59262       0   59264   59265   59265       0   59267   59268   59268
       0   59270   59271   59271       0   59273   59274   59274       0   59276
   59277   59277       0   59279   59280   59280       0   59282   59283   59283
       0   59285   59286   59286       0   59288   59289   59289       0   59291
   59292   59292       0   59294   59295   59295       0   59297   59298   59298
       0   59300   59301   59301       0   59303   59304   59304       0   59306
   59307   59307       0   59309   59310   59310       0   59312   59313   59313
       0   59315   59316   59316       0   59318   59319   59319       0   59321
   59322   59322       0   59324   59325   59325       0   59327   59328   59328
       0   59330   59331   59331       0   59333   59334   59334       0   59336
   59337   59337       0   59339   59340   59340       0   59342   59343   59343
       0   59345   59346   59346       0   59348   59349   59349       0   59351
   59352   59352       0   59354   59355   59355       0   59357   59358   59358
       0   59360   59361   59361       0   59363   59364   59364       0   59366
   59367   59367       0   59369   59370   59370       0   59372   59373   59373
       0   59375   59376   59376       0   59378   59379   59379       0   59381
   59382   59382       0   59384   59385   59385       0   59387   59388   59388
       0   59390   59391   59391       0   59393   59394   59394       0   59396
   59397   59397       0   59399   59400   59400       0   59402   59403   59403
       0   59405   59406   59406       0   59408   59409   59409       0   59411
   59412   59412       0   59414   59415   59415       0   59417   59418   59418
       0   59420   59421   59421       0   59423   59424   59424       0   59426
   59427   59427       0   59429   59430   59430       0   59432   59433   59433
       0   59435   59436   59436       0   59438   59439   59439       0   59441
   59442   59442       0   59444   59445   59445       0   59447   59448   59448
       0   59450   59451   59451       0   59453   59454   59454       0   59456
   59457   59457       0   59459   59460   59460       0   59462   59463   59463
       0   59465   59466   59466       0   59468   59469   59469       0   59471
   59472   59472       0   59474   59475   59475       0   59477   59478   59478
       0   59480   59481   59481       0   59483   59484   59484       0   59486
   59487   59487       0   59489   59490   59490       0   59492   59493   59493
       0   59495   59496   59496       0   59498   59499   59499       0   59501
   59502   59502       0   59504   59505   59505       0   59507   59508   59508
       0   59510   59511   59511       0   59513   59514   59514       0   59516
   59517   59517       0   59519   59520   59520       0   59522   59523   59523
       0   59525   59526   59526       0   59528   59529   59529       0   59531
   59532   59532       0   59534   59535   59535       0   59537   59538   59538
       0   59540   59541   59541       0   59543   59544   59544       0   59546
   59547   59547       0   59549   59550   59550       0   59552   59553   59553
       0   59555   59556   59556       0   59558   59559   59559       0   59561
   59562   59562       0   59564   59565   59565       0   59567   59568   59568
       0   59570   59571   59571       0   59573   59574   59574       0   59576
   59577   59577       0   59579   59580   59580       0   59582   59583   59583
       0   59585   59586   59586       0   59588   59589   59589       0   59591
   59592   59592       0   59594   59595   59595       0   59597   59598   59598
       0   59600   59601   59601       0   59603   59604   59604       0   59606
   59607   59607       0   59609   59610   59610       0   59612   59613   59613
       0   59615   59616   59616       0   59618   59619   59619       0   59621
   59622   59622       0   59624   59625   59625       0   59627   59628   59628
       0   59630   59631   59631       0   59633   59634   59634       0   59636
   59637   59637       0   59639   59640   59640       0   59642   59643   59643
       0   59645   59646   59646       0   59648   59649   59649       0   59651
   59652   59652       0   59654   59655   59655       0   59657   59658   59658
       0   59660   59661   59661       0   59663   59664   59664       0   59666
   59667   59667       0   59669   59670   59670       0   59672   59673   59673
       0   59675   59676   59676       0   59678   59679   59679       0   59681
   59682   59682       0   59684   59685   59685       0   59687   59688   59688
       0   59690   59691   59691       0   59693   59694   59694       0   59696
   59697   59697       0   59699   59700   59700       0   59702   59703   59703
       0   59705   59706   59706       0   59708   59709   59709       0   59711
   59712   59712       0   59714   59715   59715       0   59717   59718   59718
       0   59720   59721   59721       0   59723   59724   59724       0   59726
   59727   59727       0   59729   59730   59730       0   59732   59733   59733
       0   59735   59736   59736       0   59738   59739   59739       0   59741
   59742   59742       0   59744   59745   59745       0   59747   59748   59748
       0   59750   59751   59751       0   59753   59754   59754       0   59756
   59757   59757       0   59759   59760   59760       0   59762   59763   59763
       0   59765   59766   59766       0   59768   59769   59769       0   59771
   59772   59772       0   59774   59775   59775       0   59777   59778   59778
       0   59780   59781   59781       0   59783   59784   59784       0   59786
   59787   59787       0   59789   59790   59790       0   59792   59793   59793
       0   59795   59796   59796       0   59798   59799   59799       0   59801
   59802   59802       0   59804   59805   59805       0   59807   59808   59808
       0   59810   59811   59811       0   59813   59814   59814       0   59816
   59817   59817       0   59819   59820   59820       0   59822   59823   59823
       0   59825   59826   59826       0   59828   59829   59829       0   59831
   59832   59832       0   59834   59835   59835       0   59837   59838   59838
       0   59840   59841   59841       0   59843   59844   59844       0   59846
   59847   59847       0   59849   59850   59850       0   59852   59853   59853
       0   59855   59856   59856       0   59858   59859   59859       0   59861
   59862   59862       0   59864   59865   59865       0   59867   59868   59868
       0   59870   59871   59871       0   59873   59874   59874       0   59876
   59877   59877       0   59879   59880   59880       0   59882   59883   59883
       0   59885   59886   59886       0   59888   59889   59889       0   59891
   59892   59892       0   59894   59895   59895       0   59897   59898   59898
       0   59900   59901   59901       0   59903   59904   59904       0   59906
   59907   59907       0   59909   59910   59910       0   59912   59913   59913
       0   59915   59916   59916       0   59918   59919   59919       0   59921
   59922   59922       0   59924   59925   59925       0   59927   59928   59928
       0   59930   59931   59931       0   59933   59934   59934       0   59936
   59937   59937       0   59939   59940   59940       0   59942   59943   59943
       0   59945   59946   59946       0   59948   59949   59949       0   59951
   59952   59952       0   59954   59955   59955       0   59957   59958   59958
       0   59960   59961   59961       0   59963   59964   59964       0   59966
   59967   59967       0   59969   59970   59970       0   59972   59973   59973
       0   59975   59976   59976       0   59978   59979   59979       0   59981
   59982   59982       0   59984   59985   59985       0   59987   59988   59988
       0   59990   59991   59991       0   59993   59994   59994       0   59996
   59997   59997       0   59999   60000   60000       0   60002   60003   60003
       0   60005   60006   60006       0   60008   60009   60009       0   60011
   60012   60012       0   60014   60015   60015       0   60017   60018   60018
       0   60020   60021   60021       0   60023   60024   60024       0   60026
   60027   60027       0   60029   60030   60030       0   60032   60033   60033
       0   60035   60036   60036       0   60038   60039   60039       0   60041
   60042   60042       0   60044   60045   60045       0   60047   60048   60048
       0   60050   60051   60051       0   60053   60054   60054       0   60056
   60057   60057       0   60059   60060   60060       0   60062   60063   60063
       0   60065   60066   60066       0   60068   60069   60069       0   60071
   60072   60072       0   60074   60075   60075       0   60077   60078   60078
       0   60080   60081   60081       0   60083   60084   60084       0   60086
   60087   60087       0   60089   60090   60090       0   60092   60093   60093
       0   60095   60096   60096       0   60098   60099   60099       0   60101
   60102   60102       0   60104   60105   60105       0   60107   60108   60108
       0   60110   60111   60111       0   60113   60114   60114       0   60116
   60117   60117       0   60119   60120   60120       0   60122   60123   60123
       0   60125   60126   60126       0   60128   60129   60129       0   60131
   60132   60132       0   60134   60135   60135       0   60137   60138   60138
       0   60140   60141   60141       0   60143   60144   60144       0   60146
   60147   60147       0   60149   60150   60150       0   60152   60153   60153
       0   60155   60156   60156       0   60158   60159   60159       0   60161
   60162   60162       0   60164   60165   60165       0   60167   60168   60168
       0   60170   60171   60171       0   60173   60174   60174       0   60176
   60177   60177       0   60179   60180   60180       0   60182   60183   60183
       0   60185   60186   60186       0   60188   60189   60189       0   60191
   60192   60192       0   60194   60195   60195       0   60197   60198   60198
       0   60200   60201   60201       0   60203   60204   60204       0   60206
   60207   60207       0   60209   60210   60210       0   60212   60213   60213
       0   60215   60216   60216       0   60218   60219   60219       0   60221
   60222   60222       0   60224   60225   60225       0   60227   60228   60228
       0   60230   60231   60231       0   60233   60234   60234       0   60236
   60237   60237       0   60239   60240   60240       0   60242   60243   60243
       0   60245   60246   60246       0   60248   60249   60249       0   60251
   60252   60252       0   60254   60255   60255       0   60257   60258   60258
       0   60260   60261   60261       0   60263   60264   60264       0   60266
   60267   60267       0   60269   60270   60270       0   60272   60273   60273
       0   60275   60276   60276       0   60278   60279   60279       0   60281
   60282   60282       0   60284   60285   60285       0   60287   60288   60288
       0   60290   60291   60291       0   60293   60294   60294       0   60296
   60297   60297       0   60299   60300   60300       0   60302   60303   60303
       0   60305   60306   60306       0   60308   60309   60309       0   60311
   60312   60312       0   60314   60315   60315       0   60317   60318   60318
       0   60320   60321   60321       0   60323   60324   60324       0   60326
   60327   60327       0   60329   60330   60330       0   60332   60333   60333
       0   60335   60336   60336       0   60338   60339   60339       0   60341
   60342   60342       0   60344   60345   60345       0   60347   60348   60348
       0   60350   60351   60351       0   60353   60354   60354       0   60356
   60357   60357       0   60359   60360   60360       0   60362   60363   60363
       0   60365   60366   60366       0   60368   60369   60369       0   60371
   60372   60372       0   60374   60375   60375       0   60377   60378   60378
       0   60380   60381   60381       0   60383   60384   60384       0   60386
   60387   60387       0   60389   60390   60390       0   60392   60393   60393
       0   60395   60396   60396       0   60398   60399   60399       0   60401
   60402   60402       0   60404   60405   60405       0   60407   60408   60408
       0   60410   60411   60411       0   60413   60414   60414       0   60416
   60417   60417       0   60419   60420   60420       0   60422   60423   60423
       0   60425   60426   60426       0   60428   60429   60429       0   60431
   60432   60432       0   60434   60435   60435       0   60437   60438   60438
       0   60440   60441   60441       0   60443   60444   60444       0   60446
   60447   60447       0   60449   60450   60450       0   60452   60453   60453
       0   60455   60456   60456       0   60458   60459   60459       0   60461
   60462   60462       0   60464   60465   60465       0   60467   60468   60468
       0   60470   60471   60471       0   60473   60474   60474       0   60476
   60477   60477       0   60479   60480   60480       0   60482   60483   60483
       0   60485   60486   60486       0   60488   60489   60489       0   60491
   60492   60492       0   60494   60495   60495       0   60497   60498   60498
       0   60500   60501   60501       0   60503   60504   60504       0   60506
   60507   60507       0   60509   60510   60510       0   60512   60513   60513
       0   60515   60516   60516       0   60518   60519   60519       0   60521
   60522   60522       0   60524   60525   60525       0   60527   60528   60528
       0   60530   60531   60531       0   60533   60534   60534       0   60536
   60537   60537       0   60539   60540   60540       0   60542   60543   60543
       0   60545   60546   60546       0   60548   60549   60549       0   60551
   60552   60552       0   60554   60555   60555       0   60557   60558   60558
       0   60560   60561   60561       0   60563   60564   60564       0   60566
   60567   60567       0   60569   60570   60570       0   60572   60573   60573
       0   60575   60576   60576       0   60578   60579   60579       0   60581
   60582   60582       0   60584   60585   60585       0   60587   60588   60588
       0   60590   60591   60591       0   60593   60594   60594       0   60596
   60597   60597       0   60599   60600   60600       0   60602   60603   60603
       0   60605   60606   60606       0   60608   60609   60609       0   60611
   60612   60612       0   60614   60615   60615       0   60617   60618   60618
       0   60620   60621   60621       0   60623   60624   60624       0   60626
   60627   60627       0   60629   60630   60630       0   60632   60633   60633
       0   60635   60636   60636       0   60638   60639   60639       0   60641
   60642   60642       0   60644   60645   60645       0   60647   60648   60648
       0   60650   60651   60651       0   60653   60654   60654       0   60656
   60657   60657       0   60659   60660   60660       0   60662   60663   60663
       0   60665   60666   60666       0   60668   60669   60669       0   60671
   60672   60672       0   60674   60675   60675       0   60677   60678   60678
       0   60680   60681   60681       0   60683   60684   60684       0   60686
   60687   60687       0   60689   60690   60690       0   60692   60693   60693
       0   60695   60696   60696       0   60698   60699   60699       0   60701
   60702   60702       0   60704   60705   60705       0   60707   60708   60708
       0   60710   60711   60711       0   60713   60714   60714       0   60716
   60717   60717       0   60719   60720   60720       0   60722   60723   60723
       0   60725   60726   60726       0   60728   60729   60729       0   60731
   60732   60732       0   60734   60735   60735       0   60737   60738   60738
       0   60740   60741   60741       0   60743   60744   60744       0   60746
   60747   60747       0   60749   60750   60750       0   60752   60753   60753
       0   60755   60756   60756       0   60758   60759   60759       0   60761
   60762   60762       0   60764   60765   60765       0   60767   60768   60768
       0   60770   60771   60771       0   60773   60774   60774       0   60776
   60777   60777       0   60779   60780   60780       0   60782   60783   60783
       0   60785   60786   60786       0   60788   60789   60789       0   60791
   60792   60792       0   60794   60795   60795       0   60797   60798   60798
       0   60800   60801   60801       0   60803   60804   60804       0   60806
   60807   60807       0   60809   60810   60810       0   60812   60813   60813
       0   60815   60816   60816       0   60818   60819   60819       0   60821
   60822   60822       0   60824   60825   60825       0   60827   60828   60828
       0   60830   60831   60831       0   60833   60834   60834       0   60836
   60837   60837       0   60839   60840   60840       0   60842   60843   60843
       0   60845   60846   60846       0   60848   60849   60849       0   60851
   60852   60852       0   60854   60855   60855       0   60857   60858   60858
       0   60860   60861   60861       0   60863   60864   60864       0   60866
   60867   60867       0   60869   60870   60870       0   60872   60873   60873
       0   60875   60876   60876       0   60878   60879   60879       0   60881
   60882   60882       0   60884   60885   60885       0   60887   60888   60888
       0   60890   60891   60891       0   60893   60894   60894       0   60896
   60897   60897       0   60899   60900   60900       0   60902   60903   60903
       0   60905   60906   60906       0   60908   60909   60909       0   60911
   60912   60912       0   60914   60915   60915       0   60917   60918   60918
       0   60920   60921   60921       0   60923   60924   60924       0   60926
   60927   60927       0   60929   60930   60930       0   60932   60933   60933
       0   60935   60936   60936       0   60938   60939   60939       0   60941
   60942   60942       0   60944   60945   60945       0   60947   60948   60948
       0   60950   60951   60951       0   60953   60954   60954       0   60956
   60957   60957       0   60959   60960   60960       0   60962   60963   60963
       0   60965   60966   60966       0   60968   60969   60969       0   60971
   60972   60972       0   60974   60975   60975       0   60977   60978   60978
       0   60980   60981   60981       0   60983   60984   60984       0   60986
   60987   60987       0   60989   60990   60990       0   60992   60993   60993
       0   60995   60996   60996       0   60998   60999   60999       0   61001
   61002   61002       0   61004   61005   61005       0   61007   61008   61008
       0   61010   61011   61011       0   61013   61014   61014       0   61016
   61017   61017       0   61019   61020   61020       0   61022   61023   61023
       0   61025   61026   61026       0   61028   61029   61029       0   61031
   61032   61032       0   61034   61035   61035       0   61037   61038   61038
       0   61040   61041   61041       0   61043   61044   61044       0   61046
   61047   61047       0   61049   61050   61050       0   61052   61053   61053
       0   61055   61056   61056       0   61058   61059   61059       0   61061
   61062   61062       0   61064   61065   61065       0   61067   61068   61068
       0   61070   61071   61071       0   61073   61074   61074       0   61076
   61077   61077       0   61079   61080   61080       0   61082   61083   61083
       0   61085   61086   61086       0   61088   61089   61089       0   61091
   61092   61092       0   61094   61095   61095       0   61097   61098   61098
       0   61100   61101   61101       0   61103   61104   61104       0   61106
   61107   61107       0   61109   61110   61110       0   61112   61113   61113
       0   61115   61116   61116       0   61118   61119   61119       0   61121
   61122   61122       0   61124   61125   61125       0   61127   61128   61128
       0   61130   61131   61131       0   61133   61134   61134       0   61136
   61137   61137       0   61139   61140   61140       0   61142   61143   61143
       0   61145   61146   61146       0   61148   61149   61149       0   61151
   61152   61152       0   61154   61155   61155       0   61157   61158   61158
       0   61160   61161   61161       0   61163   61164   61164       0   61166
   61167   61167       0   61169   61170   61170       0   61172   61173   61173
       0   61175   61176   61176       0   61178   61179   61179       0   61181
   61182   61182       0   61184   61185   61185       0   61187   61188   61188
       0   61190   61191   61191       0   61193   61194   61194       0   61196
   61197   61197       0   61199   61200   61200       0   61202   61203   61203
       0   61205   61206   61206       0   61208   61209   61209       0   61211
   61212   61212       0   61214   61215   61215       0   61217   61218   61218
       0   61220   61221   61221       0   61223   61224   61224       0   61226
   61227   61227       0   61229   61230   61230       0   61232   61233   61233
       0   61235   61236   61236       0   61238   61239   61239       0   61241
   61242   61242       0   61244   61245   61245       0   61247   61248   61248
       0   61250   61251   61251       0   61253   61254   61254       0   61256
   61257   61257       0   61259   61260   61260       0   61262   61263   61263
       0   61265   61266   61266       0   61268   61269   61269       0   61271
   61272   61272       0   61274   61275   61275       0   61277   61278   61278
       0   61280   61281   61281       0   61283   61284   61284       0   61286
   61287   61287       0   61289   61290   61290       0   61292   61293   61293
       0   61295   61296   61296       0   61298   61299   61299       0   61301
   61302   61302       0   61304   61305   61305       0   61307   61308   61308
       0   61310   61311   61311       0   61313   61314   61314       0   61316
   61317   61317       0   61319   61320   61320       0   61322   61323   61323
       0   61325   61326   61326       0   61328   61329   61329       0   61331
   61332   61332       0   61334   61335   61335       0   61337   61338   61338
       0   61340   61341   61341       0   61343   61344   61344       0   61346
   61347   61347       0   61349   61350   61350       0   61352   61353   61353
       0   61355   61356   61356       0   61358   61359   61359       0   61361
   61362   61362       0   61364   61365   61365       0   61367   61368   61368
       0   61370   61371   61371       0   61373   61374   61374       0   61376
   61377   61377       0   61379   61380   61380       0   61382   61383   61383
       0   61385   61386   61386       0   61388   61389   61389       0   61391
   61392   61392       0   61394   61395   61395       0   61397   61398   61398
       0   61400   61401   61401       0   61403   61404   61404       0   61406
   61407   61407       0   61409   61410   61410       0   61412   61413   61413
       0   61415   61416   61416       0   61418   61419   61419       0   61421
   61422   61422       0   61424   61425   61425       0   61427   61428   61428
       0   61430   61431   61431       0   61433   61434   61434       0   61436
   61437   61437       0   61439   61440   61440       0   61442   61443   61443
       0   61445   61446   61446       0   61448   61449   61449       0   61451
   61452   61452       0   61454   61455   61455       0   61457   61458   61458
       0   61460   61461   61461       0   61463   61464   61464       0   61466
   61467   61467       0   61469   61470   61470       0   61472   61473   61473
       0   61475   61476   61476       0   61478   61479   61479       0   61481
   61482   61482       0   61484   61485   61485       0   61487   61488   61488
       0   61490   61491   61491       0   61493   61494   61494       0   61496
   61497   61497       0   61499   61500   61500       0   61502   61503   61503
       0   61505   61506   61506       0   61508   61509   61509       0   61511
   61512   61512       0   61514   61515   61515       0   61517   61518   61518
       0   61520   61521   61521       0   61523   61524   61524       0   61526
   61527   61527       0   61529   61530   61530       0   61532   61533   61533
       0   61535   61536   61536       0   61538   61539   61539       0   61541
   61542   61542       0   61544   61545   61545       0   61547   61548   61548
       0   61550   61551   61551       0   61553   61554   61554       0   61556
   61557   61557       0   61559   61560   61560       0   61562   61563   61563
       0   61565   61566   61566       0   61568   61569   61569       0   61571
   61572   61572       0   61574   61575   61575       0   61577   61578   61578
       0   61580   61581   61581       0   61583   61584   61584       0   61586
   61587   61587       0   61589   61590   61590       0   61592   61593   61593
       0   61595   61596   61596       0   61598   61599   61599       0   61601
   61602   61602       0   61604   61605   61605       0   61607   61608   61608
       0   61610   61611   61611       0   61613   61614   61614       0   61616
   61617   61617       0   61619   61620   61620       0   61622   61623   61623
       0   61625   61626   61626       0   61628   61629   61629       0   61631
   61632   61632       0   61634   61635   61635       0   61637   61638   61638
       0   61640   61641   61641       0   61643   61644   61644       0   61646
   61647   61647       0   61649   61650   61650       0   61652   61653   61653
       0   61655   61656   61656       0   61658   61659   61659       0   61661
   61662   61662       0   61664   61665   61665       0   61667   61668   61668
       0   61670   61671   61671       0   61673   61674   61674       0   61676
   61677   61677       0   61679   61680   61680       0   61682   61683   61683
       0   61685   61686   61686       0   61688   61689   61689       0   61691
   61692   61692       0   61694   61695   61695       0   61697   61698   61698
       0   61700   61701   61701       0   61703   61704   61704       0   61706
   61707   61707       0   61709   61710   61710       0   61712   61713   61713
       0   61715   61716   61716       0   61718   61719   61719       0   61721
   61722   61722       0   61724   61725   61725       0   61727   61728   61728
       0   61730   61731   61731       0   61733   61734   61734       0   61736
   61737   61737       0   61739   61740   61740       0   61742   61743   61743
       0   61745   61746   61746       0   61748   61749   61749       0   61751
   61752   61752       0   61754   61755   61755       0   61757   61758   61758
       0   61760   61761   61761       0   61763   61764   61764       0   61766
   61767   61767       0   61769   61770   61770       0   61772   61773   61773
       0   61775   61776   61776       0   61778   61779   61779       0   61781
   61782   61782       0   61784   61785   61785       0   61787   61788   61788
       0   61790   61791   61791       0   61793   61794   61794       0   61796
   61797   61797       0   61799   61800   61800       0   61802   61803   61803
       0   61805   61806   61806       0   61808   61809   61809       0   61811
   61812   61812       0   61814   61815   61815       0   61817   61818   61818
       0   61820   61821   61821       0   61823   61824   61824       0   61826
   61827   61827       0   61829   61830   61830       0   61832   61833   61833
       0   61835   61836   61836       0   61838   61839   61839       0   61841
   61842   61842       0   61844   61845   61845       0   61847   61848   61848
       0   61850   61851   61851       0   61853   61854   61854       0   61856
   61857   61857       0   61859   61860   61860       0   61862   61863   61863
       0   61865   61866   61866       0   61868   61869   61869       0   61871
   61872   61872       0   61874   61875   61875       0   61877   61878   61878
       0   61880   61881   61881       0   61883   61884   61884       0   61886
   61887   61887       0   61889   61890   61890       0   61892   61893   61893
       0   61895   61896   61896       0   61898   61899   61899       0   61901
   61902   61902       0   61904   61905   61905       0   61907   61908   61908
       0   61910   61911   61911       0   61913   61914   61914       0   61916
   61917   61917       0   61919   61920   61920       0   61922   61923   61923
       0   61925   61926   61926       0   61928   61929   61929       0   61931
   61932   61932       0   61934   61935   61935       0   61937   61938   61938
       0   61940   61941   61941       0   61943   61944   61944       0   61946
   61947   61947       0   61949   61950   61950       0   61952   61953   61953
       0   61955   61956   61956       0   61958   61959   61959       0   61961
   61962   61962       0   61964   61965   61965       0   61967   61968   61968
       0   61970   61971   61971       0   61973   61974   61974       0   61976
   61977   61977       0   61979   61980   61980       0   61982   61983   61983
       0   61985   61986   61986       0   61988   61989   61989       0   61991
   61992   61992       0   61994   61995   61995       0   61997   61998   61998
       0   62000   62001   62001       0   62003   62004   62004       0   62006
   62007   62007       0   62009   62010   62010       0   62012   62013   62013
       0   62015   62016   62016       0   62018   62019   62019       0   62021
   62022   62022       0   62024   62025   62025       0   62027   62028   62028
       0   62030   62031   62031       0   62033   62034   62034       0   62036
   62037   62037       0   62039   62040   62040       0   62042   62043   62043
       0   62045   62046   62046       0   62048   62049   62049       0   62051
   62052   62052       0   62054   62055   62055       0   62057   62058   62058
       0   62060   62061   62061       0   62063   62064   62064       0   62066
   62067   62067       0   62069   62070   62070       0   62072   62073   62073
       0   62075   62076   62076       0   62078   62079   62079       0   62081
   62082   62082       0   62084   62085   62085       0   62087   62088   62088
       0   62090   62091   62091       0   62093   62094   62094       0   62096
   62097   62097       0   62099   62100   62100       0   62102   62103   62103
       0   62105   62106   62106       0   62108   62109   62109       0   62111
   62112   62112       0   62114   62115   62115       0   62117   62118   62118
       0   62120   62121   62121       0   62123   62124   62124       0   62126
   62127   62127       0   62129   62130   62130       0   62132   62133   62133
       0   62135   62136   62136       0   62138   62139   62139       0   62141
   62142   62142       0   62144   62145   62145       0   62147   62148   62148
       0   62150   62151   62151       0   62153   62154   62154       0   62156
   62157   62157       0   62159   62160   62160       0   62162   62163   62163
       0   62165   62166   62166       0   62168   62169   62169       0   62171
   62172   62172       0   62174   62175   62175       0   62177   62178   62178
       0   62180   62181   62181       0   62183   62184   62184       0   62186
   62187   62187       0   62189   62190   62190       0   62192   62193   62193
       0   62195   62196   62196       0   62198   62199   62199       0   62201
   62202   62202       0   62204   62205   62205       0   62207   62208   62208
       0   62210   62211   62211       0   62213   62214   62214       0   62216
   62217   62217       0   62219   62220   62220       0   62222   62223   62223
       0   62225   62226   62226       0   62228   62229   62229       0   62231
   62232   62232       0   62234   62235   62235       0   62237   62238   62238
       0   62240   62241   62241       0   62243   62244   62244       0   62246
   62247   62247       0   62249   62250   62250       0   62252   62253   62253
       0   62255   62256   62256       0   62258   62259   62259       0   62261
   62262   62262       0   62264   62265   62265       0   62267   62268   62268
       0   62270   62271   62271       0   62273   62274   62274       0   62276
   62277   62277       0   62279   62280   62280       0   62282   62283   62283
       0   62285   62286   62286       0   62288   62289   62289       0   62291
   62292   62292       0   62294   62295   62295       0   62297   62298   62298
       0   62300   62301   62301       0   62303   62304   62304       0   62306
   62307   62307       0   62309   62310   62310       0   62312   62313   62313
       0   62315   62316   62316       0   62318   62319   62319       0   62321
   62322   62322       0   62324   62325   62325       0   62327   62328   62328
       0   62330   62331   62331       0   62333   62334   62334       0   62336
   62337   62337       0   62339   62340   62340       0   62342   62343   62343
       0   62345   62346   62346       0   62348   62349   62349       0   62351
   62352   62352       0   62354   62355   62355       0   62357   62358   62358
       0   62360   62361   62361       0   62363   62364   62364       0   62366
   62367   62367       0   62369   62370   62370       0   62372   62373   62373
       0   62375   62376   62376       0   62378   62379   62379       0   62381
   62382   62382       0   62384   62385   62385       0   62387   62388   62388
       0   62390   62391   62391       0   62393   62394   62394       0   62396
   62397   62397       0   62399   62400   62400       0   62402   62403   62403
       0   62405   62406   62406       0   62408   62409   62409       0   62411
   62412   62412       0   62414   62415   62415       0   62417   62418   62418
       0   62420   62421   62421       0   62423   62424   62424       0   62426
   62427   62427       0   62429   62430   62430       0   62432   62433   62433
       0   62435   62436   62436       0   62438   62439   62439       0   62441
   62442   62442       0   62444   62445   62445       0   62447   62448   62448
       0   62450   62451   62451       0   62453   62454   62454       0   62456
   62457   62457       0   62459   62460   62460       0   62462   62463   62463
       0   62465   62466   62466       0   62468   62469   62469       0   62471
   62472   62472       0   62474   62475   62475       0   62477   62478   62478
       0   62480   62481   62481       0   62483   62484   62484       0   62486
   62487   62487       0   62489   62490   62490       0   62492   62493   62493
       0   62495   62496   62496       0   62498   62499   62499       0   62501
   62502   62502       0   62504   62505   62505       0   62507   62508   62508
       0   62510   62511   62511       0   62513   62514   62514       0   62516
   62517   62517       0   62519   62520   62520       0   62522   62523   62523
       0   62525   62526   62526       0   62528   62529   62529       0   62531
   62532   62532       0   62534   62535   62535       0   62537   62538   62538
       0   62540   62541   62541       0   62543   62544   62544       0   62546
   62547   62547       0   62549   62550   62550       0   62552   62553   62553
       0   62555   62556   62556       0   62558   62559   62559       0   62561
   62562   62562       0   62564   62565   62565       0   62567   62568   62568
       0   62570   62571   62571       0   62573   62574   62574       0   62576
   62577   62577       0   62579   62580   62580       0   62582   62583   62583
       0   62585   62586   62586       0   62588   62589   62589       0   62591
   62592   62592       0   62594   62595   62595       0   62597   62598   62598
       0   62600   62601   62601       0   62603   62604   62604       0   62606
   62607   62607       0   62609   62610   62610       0   62612   62613   62613
       0   62615   62616   62616       0   62618   62619   62619       0   62621
   62622   62622       0   62624   62625   62625       0   62627   62628   62628
       0   62630   62631   62631       0   62633   62634   62634       0   62636
   62637   62637       0   62639   62640   62640       0   62642   62643   62643
       0   62645   62646   62646       0   62648   62649   62649       0   62651
   62652   62652       0   62654   62655   62655       0   62657   62658   62658
       0   62660   62661   62661       0   62663   62664   62664       0   62666
   62667   62667       0   62669   62670   62670       0   62672   62673   62673
       0   62675   62676   62676       0   62678   62679   62679       0   62681
   62682   62682       0   62684   62685   62685       0   62687   62688   62688
       0   62690   62691   62691       0   62693   62694   62694       0   62696
   62697   62697       0   62699   62700   62700       0   62702   62703   62703
       0   62705   62706   62706       0   62708   62709   62709       0   62711
   62712   62712       0   62714   62715   62715       0   62717   62718   62718
       0   62720   62721   62721       0   62723   62724   62724       0   62726
   62727   62727       0   62729   62730   62730       0   62732   62733   62733
       0   62735   62736   62736       0   62738   62739   62739       0   62741
   62742   62742       0   62744   62745   62745       0   62747   62748   62748
       0   62750   62751   62751       0   62753   62754   62754       0   62756
   62757   62757       0   62759   62760   62760       0   62762   62763   62763
       0   62765   62766   62766       0   62768   62769   62769       0   62771
   62772   62772       0   62774   62775   62775       0   62777   62778   62778
       0   62780   62781   62781       0   62783   62784   62784       0   62786
   62787   62787       0   62789   62790   62790       0   62792   62793   62793
       0   62795   62796   62796       0   62798   62799   62799       0   62801
   62802   62802       0   62804   62805   62805       0   62807   62808   62808
       0   62810   62811   62811       0   62813   62814   62814       0   62816
   62817   62817       0   62819   62820   62820       0   62822   62823   62823
       0   62825   62826   62826       0   62828   62829   62829       0   62831
   62832   62832       0   62834   62835   62835       0   62837   62838   62838
       0   62840   62841   62841       0   62843   62844   62844       0   62846
   62847   62847       0   62849   62850   62850       0   62852   62853   62853
       0   62855   62856   62856       0   62858   62859   62859       0   62861
   62862   62862       0   62864   62865   62865       0   62867   62868   62868
       0   62870   62871   62871       0   62873   62874   62874       0   62876
   62877   62877       0   62879   62880   62880       0   62882   62883   62883
       0   62885   62886   62886       0   62888   62889   62889       0   62891
   62892   62892       0   62894   62895   62895       0   62897   62898   62898
       0   62900   62901   62901       0   62903   62904   62904       0   62906
   62907   62907       0   62909   62910   62910       0   62912   62913   62913
       0   62915   62916   62916       0   62918   62919   62919       0   62921
   62922   62922       0   62924   62925   62925       0   62927   62928   62928
       0   62930   62931   62931       0   62933   62934   62934       0   62936
   62937   62937       0   62939   62940   62940       0   62942   62943   62943
       0   62945   62946   62946       0   62948   62949   62949       0   62951
   62952   62952       0   62954   62955   62955       0   62957   62958   62958
       0   62960   62961   62961       0   62963   62964   62964       0   62966
   62967   62967       0   62969   62970   62970       0   62972   62973   62973
       0   62975   62976   62976       0   62978   62979   62979       0   62981
   62982   62982       0   62984   62985   62985       0   62987   62988   62988
       0   62990   62991   62991       0   62993   62994   62994       0   62996
   62997   62997       0   62999   63000   63000       0   63002   63003   63003
       0   63005   63006   63006       0   63008   63009   63009       0   63011
   63012   63012       0   63014   63015   63015       0   63017   63018   63018
       0   63020   63021   63021       0   63023   63024   63024       0   63026
   63027   63027       0   63029   63030   63030       0   63032   63033   63033
       0   63035   63036   63036       0   63038   63039   63039       0   63041
   63042   63042       0   63044   63045   63045       0   63047   63048   63048
       0   63050   63051   63051       0   63053   63054   63054       0   63056
   63057   63057       0   63059   63060   63060       0   63062   63063   63063
       0   63065   63066   63066       0   63068   63069   63069       0   63071
   63072   63072       0   63074   63075   63075       0   63077   63078   63078
       0   63080   63081   63081       0   63083   63084   63084       0   63086
   63087   63087       0   63089   63090   63090       0   63092   63093   63093
       0   63095   63096   63096       0   63098   63099   63099       0   63101
   63102   63102       0   63104   63105   63105       0   63107   63108   63108
       0   63110   63111   63111       0   63113   63114   63114       0   63116
   63117   63117       0   63119   63120   63120       0   63122   63123   63123
       0   63125   63126   63126       0   63128   63129   63129       0   63131
   63132   63132       0   63134   63135   63135       0   63137   63138   63138
       0   63140   63141   63141       0   63143   63144   63144       0   63146
   63147   63147       0   63149   63150   63150       0   63152   63153   63153
       0   63155   63156   63156       0   63158   63159   63159       0   63161
   63162   63162       0   63164   63165   63165       0   63167   63168   63168
       0   63170   63171   63171       0   63173   63174   63174       0   63176
   63177   63177       0   63179   63180   63180       0   63182   63183   63183
       0   63185   63186   63186       0   63188   63189   63189       0   63191
   63192   63192       0   63194   63195   63195       0   63197   63198   63198
       0   63200   63201   63201       0   63203   63204   63204       0   63206
   63207   63207       0   63209   63210   63210       0   63212   63213   63213
       0   63215   63216   63216       0   63218   63219   63219       0   63221
   63222   63222       0   63224   63225   63225       0   63227   63228   63228
       0   63230   63231   63231       0   63233   63234   63234       0   63236
   63237   63237       0   63239   63240   63240       0   63242   63243   63243
       0   63245   63246   63246       0   63248   63249   63249       0   63251
   63252   63252       0   63254   63255   63255       0   63257   63258   63258
       0   63260   63261   63261       0   63263   63264   63264       0   63266
   63267   63267       0   63269   63270   63270       0   63272   63273   63273
       0   63275   63276   63276       0   63278   63279   63279       0   63281
   63282   63282       0   63284   63285   63285       0   63287   63288   63288
       0   63290   63291   63291       0   63293   63294   63294       0   63296
   63297   63297       0   63299   63300   63300       0   63302   63303   63303
       0   63305   63306   63306       0   63308   63309   63309       0   63311
   63312   63312       0   63314   63315   63315       0   63317   63318   63318
       0   63320   63321   63321       0   63323   63324   63324       0   63326
   63327   63327       0   63329   63330   63330       0   63332   63333   63333
       0   63335   63336   63336       0   63338   63339   63339       0   63341
   63342   63342       0   63344   63345   63345       0   63347   63348   63348
       0   63350   63351   63351       0   63353   63354   63354       0   63356
   63357   63357       0   63359   63360   63360       0   63362   63363   63363
       0   63365   63366   63366       0   63368   63369   63369       0   63371
   63372   63372       0   63374   63375   63375       0   63377   63378   63378
       0   63380   63381   63381       0   63383   63384   63384       0   63386
   63387   63387       0   63389   63390   63390       0   63392   63393   63393
       0   63395   63396   63396       0   63398   63399   63399       0   63401
   63402   63402       0   63404   63405   63405       0   63407   63408   63408
       0   63410   63411   63411       0   63413   63414   63414       0   63416
   63417   63417       0   63419   63420   63420       0   63422   63423   63423
       0   63425   63426   63426       0   63428   63429   63429       0   63431
   63432   63432       0   63434   63435   63435       0   63437   63438   63438
       0   63440   63441   63441       0   63443   63444   63444       0   63446
   63447   63447       0   63449   63450   63450       0   63452   63453   63453
       0   63455   63456   63456       0   63458   63459   63459       0   63461
   63462   63462       0   63464   63465   63465       0   63467   63468   63468
       0   63470   63471   63471       0   63473   63474   63474       0   63476
   63477   63477       0   63479   63480   63480       0   63482   63483   63483
       0   63485   63486   63486       0   63488   63489   63489       0   63491
   63492   63492       0   63494   63495   63495       0   63497   63498   63498
       0   63500   63501   63501       0   63503   63504   63504       0   63506
   63507   63507       0   63509   63510   63510       0   63512   63513   63513
       0   63515   63516   63516       0   63518   63519   63519       0   63521
   63522   63522       0   63524   63525   63525       0   63527   63528   63528
       0   63530   63531   63531       0   63533   63534   63534       0   63536
   63537   63537       0   63539   63540   63540       0   63542   63543   63543
       0   63545   63546   63546       0   63548   63549   63549       0   63551
   63552   63552       0   63554   63555   63555       0   63557   63558   63558
       0   63560   63561   63561       0   63563   63564   63564       0   63566
   63567   63567       0   63569   63570   63570       0   63572   63573   63573
       0   63575   63576   63576       0   63578   63579   63579       0   63581
   63582   63582       0   63584   63585   63585       0   63587   63588   63588
       0   63590   63591   63591       0   63593   63594   63594       0   63596
   63597   63597       0   63599   63600   63600       0   63602   63603   63603
       0   63605   63606   63606       0   63608   63609   63609       0   63611
   63612   63612       0   63614   63615   63615       0   63617   63618   63618
       0   63620   63621   63621       0   63623   63624   63624       0   63626
   63627   63627       0   63629   63630   63630       0   63632   63633   63633
       0   63635   63636   63636       0   63638   63639   63639       0   63641
   63642   63642       0   63644   63645   63645       0   63647   63648   63648
       0   63650   63651   63651       0   63653   63654   63654       0   63656
   63657   63657       0   63659   63660   63660       0   63662   63663   63663
       0   63665   63666   63666       0   63668   63669   63669       0   63671
   63672   63672       0   63674   63675   63675       0   63677   63678   63678
       0   63680   63681   63681       0   63683   63684   63684       0   63686
   63687   63687       0   63689   63690   63690       0   63692   63693   63693
       0   63695   63696   63696       0   63698   63699   63699       0   63701
   63702   63702       0   63704   63705   63705       0   63707   63708   63708
       0   63710   63711   63711       0   63713   63714   63714       0   63716
   63717   63717       0   63719   63720   63720       0   63722   63723   63723
       0   63725   63726   63726       0   63728   63729   63729       0   63731
   63732   63732       0   63734   63735   63735       0   63737   63738   63738
       0   63740   63741   63741       0   63743   63744   63744       0   63746
   63747   63747       0   63749   63750   63750       0   63752   63753   63753
       0   63755   63756   63756       0   63758   63759   63759       0   63761
   63762   63762       0   63764   63765   63765       0   63767   63768   63768
       0   63770   63771   63771       0   63773   63774   63774       0   63776
   63777   63777       0   63779   63780   63780       0   63782   63783   63783
       0   63785   63786   63786       0   63788   63789   63789       0   63791
   63792   63792       0   63794   63795   63795       0   63797   63798   63798
       0   63800   63801   63801       0   63803   63804   63804       0   63806
   63807   63807       0   63809   63810   63810       0   63812   63813   63813
       0   63815   63816   63816       0   63818   63819   63819       0   63821
   63822   63822       0   63824   63825   63825       0   63827   63828   63828
       0   63830   63831   63831       0   63833   63834   63834       0   63836
   63837   63837       0   63839   63840   63840       0   63842   63843   63843
       0   63845   63846   63846       0   63848   63849   63849       0   63851
   63852   63852       0   63854   63855   63855       0   63857   63858   63858
       0   63860   63861   63861       0   63863   63864   63864       0   63866
   63867   63867       0   63869   63870   63870       0   63872   63873   63873
       0   63875   63876   63876       0   63878   63879   63879       0   63881
   63882   63882       0   63884   63885   63885       0   63887   63888   63888
       0   63890   63891   63891       0   63893   63894   63894       0   63896
   63897   63897       0   63899   63900   63900       0   63902   63903   63903
       0   63905   63906   63906       0   63908   63909   63909       0   63911
   63912   63912       0   63914   63915   63915       0   63917   63918   63918
       0   63920   63921   63921       0   63923   63924   63924       0   63926
   63927   63927       0   63929   63930   63930       0   63932   63933   63933
       0   63935   63936   63936       0   63938   63939   63939       0   63941
   63942   63942       0   63944   63945   63945       0   63947   63948   63948
       0   63950   63951   63951       0   63953   63954   63954       0   63956
   63957   63957       0   63959   63960   63960       0   63962   63963   63963
       0   63965   63966   63966       0   63968   63969   63969       0   63971
   63972   63972       0   63974   63975   63975       0   63977   63978   63978
       0   63980   63981   63981       0   63983   63984   63984       0   63986
   63987   63987       0   63989   63990   63990       0
%FLAG HBOND_ACOEF                                                               
%FORMAT(5E16.8)                                                                 

%FLAG HBOND_BCOEF                                                               
%FORMAT(5E16.8)                                                                 

%FLAG HBCUT                                                                     
%FORMAT(5E16.8)                                                                 

%FLAG AMBER_ATOM_TYPE                                                           
%FORMAT(20a4)                                                                   
c3  c3  c3  c3  c3  c3  c3  c3  c3  c3  c3  c3  c3  c3  c3  c3  c3  c3  c3  c3  
c3  c3  c3  c3  c3  c3  c3  c3  c3  c3  c3  c3  c3  c3  c3  c3  c3  c3  c3  c3  
c3  c3  c3  c3  c3  c3  c3  c3  c3  c3  c3  c3  c3  c3  c3  c3  c3  c3  c3  c3  
c3  c3  c3  c3  c3  c3  c3  c3  c3  c3  c3  c3  ca  ca  ca  ca  c3  n4  c3  c3  
c3  ca  ca  ca  ca  ca  ca  c3  n4  c3  c3  c3  ca  ca  ca  ca  ca  ca  c3  n4  
c3  c3  c3  ca  ca  ca  ca  ca  ca  c3  n4  c3  c3  c3  ca  ca  ca  ca  ca  ca  
c3  n4  c3  c3  c3  ca  ca  ca  ca  ca  ca  c3  n4  c3  c3  c3  ca  ca  ca  ca  
ca  ca  c3  n4  c3  c3  c3  ca  ca  ca  ca  ca  ca  c3  n4  c3  c3  c3  ca  ca  
ca  ca  ca  ca  c3  n4  c3  c3  c3  ca  ca  ca  ca  ca  ca  c3  n4  c3  c3  c3  
ca  ca  ca  ca  ca  ca  c3  n4  c3  c3  c3  ca  ca  ca  ca  ca  ca  c3  n4  c3  
c3  c3  ca  ca  ca  ca  ca  ca  c3  c3  c3  c3  c3  c3  c3  c3  c3  c3  c3  c3  
c3  c3  c3  c3  c3  c3  c3  c3  c3  c3  c3  c3  c3  c3  c3  c3  c3  c3  c3  c3  
c3  c3  c3  ca  ca  ca  ca  c3  n4  c3  c3  c3  ca  ca  ca  ca  ca  ca  c3  n4  
c3  c3  c3  ca  ca  ca  ca  ca  ca  c3  n4  c3  c3  c3  ca  ca  ca  ca  ca  ca  
c3  n4  c3  c3  c3  ca  ca  ca  ca  ca  ca  c3  n4  c3  c3  c3  ca  ca  ca  ca  
ca  ca  c3  n4  c3  c3  c3  ca  ca  ca  ca  ca  ca  c3  n4  c3  c3  c3  ca  ca  
ca  ca  ca  ca  c3  n4  c3  c3  c3  ca  ca  ca  ca  ca  ca  c3  n4  c3  c3  c3  
ca  ca  ca  ca  ca  ca  c3  n4  c3  c3  c3  ca  ca  ca  ca  ca  ca  c3  n4  c3  
c3  c3  ca  ca  c3  c3  c3  c3  c3  c3  c3  c3  c3  c3  c3  c3  c3  c3  c3  c3  
c3  c3  c3  c3  c3  c3  c3  c3  c3  c3  c3  c3  c3  c3  c3  c3  c3  c3  c3  c3  
c3  ca  ca  ca  ca  c3  n4  c3  c3  c3  ca  ca  ca  ca  ca  ca  c3  n4  c3  c3  
c3  ca  ca  ca  ca  ca  ca  c3  n4  c3  c3  c3  ca  ca  ca  ca  ca  ca  c3  n4  
c3  c3  c3  ca  ca  ca  ca  ca  ca  c3  n4  c3  c3  c3  ca  ca  ca  ca  ca  ca  
c3  n4  c3  c3  c3  ca  ca  ca  ca  ca  ca  c3  n4  c3  c3  c3  ca  ca  ca  ca  
ca  ca  c3  n4  c3  c3  c3  ca  ca  ca  ca  ca  ca  c3  n4  c3  c3  c3  ca  ca  
ca  ca  ca  ca  c3  n4  c3  c3  c3  ca  ca  ca  ca  ca  ca  c3  n4  c3  c3  c3  
ca  ca  ca  ca  ca  ca  c3  n4  c3  c3  c3  ca  ca  ca  ca  ca  ca  c3  n4  c3  
c3  c3  ca  ca  ca  ca  ca  ca  ca  ca  c3  n4  c3  c3  c3  ca  ca  ca  ca  ca  
ca  c3  n4  c3  c3  c3  ca  ca  ca  ca  ca  ca  c3  n4  c3  c3  c3  ca  ca  ca  
ca  ca  ca  c3  n4  c3  c3  c3  ca  ca  ca  ca  ca  ca  c3  n4  c3  c3  c3  ca  
ca  ca  ca  ca  ca  c3  n4  c3  c3  c3  ca  ca  ca  ca  ca  ca  c3  n4  c3  c3  
c3  ca  ca  ca  ca  ca  ca  c3  n4  c3  c3  c3  ca  ca  ca  ca  ca  ca  c3  n4  
c3  c3  c3  ca  ca  ca  ca  ca  ca  c3  n4  c3  c3  c3  ca  ca  ca  ca  ca  ca  
c3  n4  c3  c3  c3  ca  ca  ca  ca  ca  ca  c3  n4  c3  c3  c3  ca  ca  hc  hc  
hc  hc  hc  hc  hc  hc  hc  hc  hc  hc  hc  hc  hc  hc  hc  hc  hc  hc  hc  hc  
hc  hc  hc  hc  hc  hc  hc  hc  hc  hc  hc  hc  hc  hc  hc  hc  hc  hc  hc  hc  
hc  hc  hc  hc  hc  hc  hc  hc  hc  hc  hc  hc  hc  hc  hc  hc  hc  hc  hc  hc  
hc  hc  hc  hc  hc  hc  hc  hc  hc  hc  hc  hc  hc  hc  hc  hc  hc  hc  hc  hc  
hc  hc  hc  hc  hc  hc  hc  hc  hc  hc  hc  hc  hc  hc  hc  hc  hc  hc  hc  hc  
hc  hc  hc  hc  hc  hc  hc  hc  hc  hc  hc  hc  hc  hc  hc  hc  hc  hc  hc  ha  
ha  hx  hx  hx  hx  hx  hx  hx  hx  hx  hx  hx  ha  ha  ha  ha  hx  hx  hx  hx  
hx  hx  hx  hx  hx  hx  hx  ha  ha  ha  ha  hx  hx  hx  hx  hx  hx  hx  hx  hx  
hx  hx  ha  ha  ha  ha  hx  hx  hx  hx  hx  hx  hx  hx  hx  hx  hx  ha  ha  ha  
ha  hx  hx  hx  hx  hx  hx  hx  hx  hx  hx  hx  ha  ha  ha  ha  hx  hx  hx  hx  
hx  hx  hx  hx  hx  hx  hx  ha  ha  ha  ha  hx  hx  hx  hx  hx  hx  hx  hx  hx  
hx  hx  ha  ha  ha  ha  hx  hx  hx  hx  hx  hx  hx  hx  hx  hx  hx  ha  ha  ha  
ha  hx  hx  hx  hx  hx  hx  hx  hx  hx  hx  hx  ha  ha  ha  ha  hx  hx  hx  hx  
hx  hx  hx  hx  hx  hx  hx  ha  ha  ha  ha  hx  hx  hx  hx  hx  hx  hx  hx  hx  
hx  hx  ha  ha  ha  ha  hx  hx  hx  hx  hx  hx  hx  hx  hx  hx  hx  ha  ha  ha  
ha  hc  hc  hc  hc  hc  hc  hc  hc  hc  hc  hc  hc  hc  hc  hc  hc  hc  hc  hc  
hc  hc  hc  hc  hc  hc  hc  hc  hc  hc  hc  hc  hc  hc  hc  hc  hc  hc  hc  hc  
hc  hc  hc  hc  hc  hc  hc  hc  hc  hc  hc  hc  hc  hc  hc  hc  hc  hc  hc  ha  
ha  hx  hx  hx  hx  hx  hx  hx  hx  hx  hx  hx  ha  ha  ha  ha  hx  hx  hx  hx  
hx  hx  hx  hx  hx  hx  hx  ha  ha  ha  ha  hx  hx  hx  hx  hx  hx  hx  hx  hx  
hx  hx  ha  ha  ha  ha  hx  hx  hx  hx  hx  hx  hx  hx  hx  hx  hx  ha  ha  ha  
ha  hx  hx  hx  hx  hx  hx  hx  hx  hx  hx  hx  ha  ha  ha  ha  hx  hx  hx  hx  
hx  hx  hx  hx  hx  hx  hx  ha  ha  ha  ha  hx  hx  hx  hx  hx  hx  hx  hx  hx  
hx  hx  ha  ha  ha  ha  hx  hx  hx  hx  hx  hx  hx  hx  hx  hx  hx  ha  ha  ha  
ha  hx  hx  hx  hx  hx  hx  hx  hx  hx  hx  hx  ha  ha  ha  ha  hx  hx  hx  hx  
hx  hx  hx  hx  hx  hx  hx  ha  ha  ha  ha  hx  hx  hx  hx  hx  hx  hx  hx  hx  
hx  hx  ha  ha  hc  hc  hc  hc  hc  hc  hc  hc  hc  hc  hc  hc  hc  hc  hc  hc  
hc  hc  hc  hc  hc  hc  hc  hc  hc  hc  hc  hc  hc  hc  hc  hc  hc  hc  hc  hc  
hc  hc  hc  hc  hc  hc  hc  hc  hc  hc  hc  hc  hc  hc  hc  hc  hc  hc  hc  hc  
hc  hc  hc  hc  hc  hc  hc  ha  ha  hx  hx  hx  hx  hx  hx  hx  hx  hx  hx  hx  
ha  ha  ha  ha  hx  hx  hx  hx  hx  hx  hx  hx  hx  hx  hx  ha  ha  ha  ha  hx  
hx  hx  hx  hx  hx  hx  hx  hx  hx  hx  ha  ha  ha  ha  hx  hx  hx  hx  hx  hx  
hx  hx  hx  hx  hx  ha  ha  ha  ha  hx  hx  hx  hx  hx  hx  hx  hx  hx  hx  hx  
ha  ha  ha  ha  hx  hx  hx  hx  hx  hx  hx  hx  hx  hx  hx  ha  ha  ha  ha  hx  
hx  hx  hx  hx  hx  hx  hx  hx  hx  hx  ha  ha  ha  ha  hx  hx  hx  hx  hx  hx  
hx  hx  hx  hx  hx  ha  ha  ha  ha  hx  hx  hx  hx  hx  hx  hx  hx  hx  hx  hx  
ha  ha  ha  ha  hx  hx  hx  hx  hx  hx  hx  hx  hx  hx  hx  ha  ha  ha  ha  hx  
hx  hx  hx  hx  hx  hx  hx  hx  hx  hx  ha  ha  ha  ha  hx  hx  hx  hx  hx  hx  
hx  hx  hx  hx  hx  ha  ha  ha  ha  hx  hx  hx  hx  hx  hx  hx  hx  hx  hx  hx  
ha  ha  ha  ha  ha  ha  hx  hx  hx  hx  hx  hx  hx  hx  hx  hx  hx  ha  ha  ha  
ha  hx  hx  hx  hx  hx  hx  hx  hx  hx  hx  hx  ha  ha  ha  ha  hx  hx  hx  hx  
hx  hx  hx  hx  hx  hx  hx  ha  ha  ha  ha  hx  hx  hx  hx  hx  hx  hx  hx  hx  
hx  hx  ha  ha  ha  ha  hx  hx  hx  hx  hx  hx  hx  hx  hx  hx  hx  ha  ha  ha  
ha  hx  hx  hx  hx  hx  hx  hx  hx  hx  hx  hx  ha  ha  ha  ha  hx  hx  hx  hx  
hx  hx  hx  hx  hx  hx  hx  ha  ha  ha  ha  hx  hx  hx  hx  hx  hx  hx  hx  hx  
hx  hx  ha  ha  ha  ha  hx  hx  hx  hx  hx  hx  hx  hx  hx  hx  hx  ha  ha  ha  
ha  hx  hx  hx  hx  hx  hx  hx  hx  hx  hx  hx  ha  ha  ha  ha  hx  hx  hx  hx  
hx  hx  hx  hx  hx  hx  hx  ha  ha  ha  ha  hx  hx  hx  hx  hx  hx  hx  hx  hx  
hx  hx  ha  ha  Cl- Cl- Cl- Cl- Cl- Cl- Cl- Cl- Cl- Cl- Cl- Cl- Cl- Cl- Cl- Cl- 
Cl- Cl- Cl- Cl- Cl- Cl- Cl- Cl- Cl- Cl- Cl- Cl- Cl- Cl- Cl- Cl- Cl- Cl- Cl- Cl- 
Cl- Cl- Cl- Cl- Cl- Cl- Cl- Cl- Cl- Cl- Cl- Cl- OW  HW  HW  OW  HW  HW  OW  HW  
HW  OW  HW  HW  OW  HW  HW  OW  HW  HW  OW  HW  HW  OW  HW  HW  OW  HW  HW  OW  
HW  HW  OW  HW  HW  OW  HW  HW  OW  HW  HW  OW  HW  HW  OW  HW  HW  OW  HW  HW  
OW  HW  HW  OW  HW  HW  OW  HW  HW  OW  HW  HW  OW  HW  HW  OW  HW  HW  OW  HW  
HW  OW  HW  HW  OW  HW  HW  OW  HW  HW  OW  HW  HW  OW  HW  HW  OW  HW  HW  OW  
HW  HW  OW  HW  HW  OW  HW  HW  OW  HW  HW  OW  HW  HW  OW  HW  HW  OW  HW  HW  
OW  HW  HW  OW  HW  HW  OW  HW  HW  OW  HW  HW  OW  HW  HW  OW  HW  HW  OW  HW  
HW  OW  HW  HW  OW  HW  HW  OW  HW  HW  OW  HW  HW  OW  HW  HW  OW  HW  HW  OW  
HW  HW  OW  HW  HW  OW  HW  HW  OW  HW  HW  OW  HW  HW  OW  HW  HW  OW  HW  HW  
OW  HW  HW  OW  HW  HW  OW  HW  HW  OW  HW  HW  OW  HW  HW  OW  HW  HW  OW  HW  
HW  OW  HW  HW  OW  HW  HW  OW  HW  HW  OW  HW  HW  OW  HW  HW  OW  HW  HW  OW  
HW  HW  OW  HW  HW  OW  HW  HW  OW  HW  HW  OW  HW  HW  OW  HW  HW  OW  HW  HW  
OW  HW  HW  OW  HW  HW  OW  HW  HW  OW  HW  HW  OW  HW  HW  OW  HW  HW  OW  HW  
HW  OW  HW  HW  OW  HW  HW  OW  HW  HW  OW  HW  HW  OW  HW  HW  OW  HW  HW  OW  
HW  HW  OW  HW  HW  OW  HW  HW  OW  HW  HW  OW  HW  HW  OW  HW  HW  OW  HW  HW  
OW  HW  HW  OW  HW  HW  OW  HW  HW  OW  HW  HW  OW  HW  HW  OW  HW  HW  OW  HW  
HW  OW  HW  HW  OW  HW  HW  OW  HW  HW  OW  HW  HW  OW  HW  HW  OW  HW  HW  OW  
HW  HW  OW  HW  HW  OW  HW  HW  OW  HW  HW  OW  HW  HW  OW  HW  HW  OW  HW  HW  
OW  HW  HW  OW  HW  HW  OW  HW  HW  OW  HW  HW  OW  HW  HW  OW  HW  HW  OW  HW  
HW  OW  HW  HW  OW  HW  HW  OW  HW  HW  OW  HW  HW  OW  HW  HW  OW  HW  HW  OW  
HW  HW  OW  HW  HW  OW  HW  HW  OW  HW  HW  OW  HW  HW  OW  HW  HW  OW  HW  HW  
OW  HW  HW  OW  HW  HW  OW  HW  HW  OW  HW  HW  OW  HW  HW  OW  HW  HW  OW  HW  
HW  OW  HW  HW  OW  HW  HW  OW  HW  HW  OW  HW  HW  OW  HW  HW  OW  HW  HW  OW  
HW  HW  OW  HW  HW  OW  HW  HW  OW  HW  HW  OW  HW  HW  OW  HW  HW  OW  HW  HW  
OW  HW  HW  OW  HW  HW  OW  HW  HW  OW  HW  HW  OW  HW  HW  OW  HW  HW  OW  HW  
HW  OW  HW  HW  OW  HW  HW  OW  HW  HW  OW  HW  HW  OW  HW  HW  OW  HW  HW  OW  
HW  HW  OW  HW  HW  OW  HW  HW  OW  HW  HW  OW  HW  HW  OW  HW  HW  OW  HW  HW  
OW  HW  HW  OW  HW  HW  OW  HW  HW  OW  HW  HW  OW  HW  HW  OW  HW  HW  OW  HW  
HW  OW  HW  HW  OW  HW  HW  OW  HW  HW  OW  HW  HW  OW  HW  HW  OW  HW  HW  OW  
HW  HW  OW  HW  HW  OW  HW  HW  OW  HW  HW  OW  HW  HW  OW  HW  HW  OW  HW  HW  
OW  HW  HW  OW  HW  HW  OW  HW  HW  OW  HW  HW  OW  HW  HW  OW  HW  HW  OW  HW  
HW  OW  HW  HW  OW  HW  HW  OW  HW  HW  OW  HW  HW  OW  HW  HW  OW  HW  HW  OW  
HW  HW  OW  HW  HW  OW  HW  HW  OW  HW  HW  OW  HW  HW  OW  HW  HW  OW  HW  HW  
OW  HW  HW  OW  HW  HW  OW  HW  HW  OW  HW  HW  OW  HW  HW  OW  HW  HW  OW  HW  
HW  OW  HW  HW  OW  HW  HW  OW  HW  HW  OW  HW  HW  OW  HW  HW  OW  HW  HW  OW  
HW  HW  OW  HW  HW  OW  HW  HW  OW  HW  HW  OW  HW  HW  OW  HW  HW  OW  HW  HW  
OW  HW  HW  OW  HW  HW  OW  HW  HW  OW  HW  HW  OW  HW  HW  OW  HW  HW  OW  HW  
HW  OW  HW  HW  OW  HW  HW  OW  HW  HW  OW  HW  HW  OW  HW  HW  OW  HW  HW  OW  
HW  HW  OW  HW  HW  OW  HW  HW  OW  HW  HW  OW  HW  HW  OW  HW  HW  OW  HW  HW  
OW  HW  HW  OW  HW  HW  OW  HW  HW  OW  HW  HW  OW  HW  HW  OW  HW  HW  OW  HW  
HW  OW  HW  HW  OW  HW  HW  OW  HW  HW  OW  HW  HW  OW  HW  HW  OW  HW  HW  OW  
HW  HW  OW  HW  HW  OW  HW  HW  OW  HW  HW  OW  HW  HW  OW  HW  HW  OW  HW  HW  
OW  HW  HW  OW  HW  HW  OW  HW  HW  OW  HW  HW  OW  HW  HW  OW  HW  HW  OW  HW  
HW  OW  HW  HW  OW  HW  HW  OW  HW  HW  OW  HW  HW  OW  HW  HW  OW  HW  HW  OW  
HW  HW  OW  HW  HW  OW  HW  HW  OW  HW  HW  OW  HW  HW  OW  HW  HW  OW  HW  HW  
OW  HW  HW  OW  HW  HW  OW  HW  HW  OW  HW  HW  OW  HW  HW  OW  HW  HW  OW  HW  
HW  OW  HW  HW  OW  HW  HW  OW  HW  HW  OW  HW  HW  OW  HW  HW  OW  HW  HW  OW  
HW  HW  OW  HW  HW  OW  HW  HW  OW  HW  HW  OW  HW  HW  OW  HW  HW  OW  HW  HW  
OW  HW  HW  OW  HW  HW  OW  HW  HW  OW  HW  HW  OW  HW  HW  OW  HW  HW  OW  HW  
HW  OW  HW  HW  OW  HW  HW  OW  HW  HW  OW  HW  HW  OW  HW  HW  OW  HW  HW  OW  
HW  HW  OW  HW  HW  OW  HW  HW  OW  HW  HW  OW  HW  HW  OW  HW  HW  OW  HW  HW  
OW  HW  HW  OW  HW  HW  OW  HW  HW  OW  HW  HW  OW  HW  HW  OW  HW  HW  OW  HW  
HW  OW  HW  HW  OW  HW  HW  OW  HW  HW  OW  HW  HW  OW  HW  HW  OW  HW  HW  OW  
HW  HW  OW  HW  HW  OW  HW  HW  OW  HW  HW  OW  HW  HW  OW  HW  HW  OW  HW  HW  
OW  HW  HW  OW  HW  HW  OW  HW  HW  OW  HW  HW  OW  HW  HW  OW  HW  HW  OW  HW  
HW  OW  HW  HW  OW  HW  HW  OW  HW  HW  OW  HW  HW  OW  HW  HW  OW  HW  HW  OW  
HW  HW  OW  HW  HW  OW  HW  HW  OW  HW  HW  OW  HW  HW  OW  HW  HW  OW  HW  HW  
OW  HW  HW  OW  HW  HW  OW  HW  HW  OW  HW  HW  OW  HW  HW  OW  HW  HW  OW  HW  
HW  OW  HW  HW  OW  HW  HW  OW  HW  HW  OW  HW  HW  OW  HW  HW  OW  HW  HW  OW  
HW  HW  OW  HW  HW  OW  HW  HW  OW  HW  HW  OW  HW  HW  OW  HW  HW  OW  HW  HW  
OW  HW  HW  OW  HW  HW  OW  HW  HW  OW  HW  HW  OW  HW  HW  OW  HW  HW  OW  HW  
HW  OW  HW  HW  OW  HW  HW  OW  HW  HW  OW  HW  HW  OW  HW  HW  OW  HW  HW  OW  
HW  HW  OW  HW  HW  OW  HW  HW  OW  HW  HW  OW  HW  HW  OW  HW  HW  OW  HW  HW  
OW  HW  HW  OW  HW  HW  OW  HW  HW  OW  HW  HW  OW  HW  HW  OW  HW  HW  OW  HW  
HW  OW  HW  HW  OW  HW  HW  OW  HW  HW  OW  HW  HW  OW  HW  HW  OW  HW  HW  OW  
HW  HW  OW  HW  HW  OW  HW  HW  OW  HW  HW  OW  HW  HW  OW  HW  HW  OW  HW  HW  
OW  HW  HW  OW  HW  HW  OW  HW  HW  OW  HW  HW  OW  HW  HW  OW  HW  HW  OW  HW  
HW  OW  HW  HW  OW  HW  HW  OW  HW  HW  OW  HW  HW  OW  HW  HW  OW  HW  HW  OW  
HW  HW  OW  HW  HW  OW  HW  HW  OW  HW  HW  OW  HW  HW  OW  HW  HW  OW  HW  HW  
OW  HW  HW  OW  HW  HW  OW  HW  HW  OW  HW  HW  OW  HW  HW  OW  HW  HW  OW  HW  
HW  OW  HW  HW  OW  HW  HW  OW  HW  HW  OW  HW  HW  OW  HW  HW  OW  HW  HW  OW  
HW  HW  OW  HW  HW  OW  HW  HW  OW  HW  HW  OW  HW  HW  OW  HW  HW  OW  HW  HW  
OW  HW  HW  OW  HW  HW  OW  HW  HW  OW  HW  HW  OW  HW  HW  OW  HW  HW  OW  HW  
HW  OW  HW  HW  OW  HW  HW  OW  HW  HW  OW  HW  HW  OW  HW  HW  OW  HW  HW  OW  
HW  HW  OW  HW  HW  OW  HW  HW  OW  HW  HW  OW  HW  HW  OW  HW  HW  OW  HW  HW  
OW  HW  HW  OW  HW  HW  OW  HW  HW  OW  HW  HW  OW  HW  HW  OW  HW  HW  OW  HW  
HW  OW  HW  HW  OW  HW  HW  OW  HW  HW  OW  HW  HW  OW  HW  HW  OW  HW  HW  OW  
HW  HW  OW  HW  HW  OW  HW  HW  OW  HW  HW  OW  HW  HW  OW  HW  HW  OW  HW  HW  
OW  HW  HW  OW  HW  HW  OW  HW  HW  OW  HW  HW  OW  HW  HW  OW  HW  HW  OW  HW  
HW  OW  HW  HW  OW  HW  HW  OW  HW  HW  OW  HW  HW  OW  HW  HW  OW  HW  HW  OW  
HW  HW  OW  HW  HW  OW  HW  HW  OW  HW  HW  OW  HW  HW  OW  HW  HW  OW  HW  HW  
OW  HW  HW  OW  HW  HW  OW  HW  HW  OW  HW  HW  OW  HW  HW  OW  HW  HW  OW  HW  
HW  OW  HW  HW  OW  HW  HW  OW  HW  HW  OW  HW  HW  OW  HW  HW  OW  HW  HW  OW  
HW  HW  OW  HW  HW  OW  HW  HW  OW  HW  HW  OW  HW  HW  OW  HW  HW  OW  HW  HW  
OW  HW  HW  OW  HW  HW  OW  HW  HW  OW  HW  HW  OW  HW  HW  OW  HW  HW  OW  HW  
HW  OW  HW  HW  OW  HW  HW  OW  HW  HW  OW  HW  HW  OW  HW  HW  OW  HW  HW  OW  
HW  HW  OW  HW  HW  OW  HW  HW  OW  HW  HW  OW  HW  HW  OW  HW  HW  OW  HW  HW  
OW  HW  HW  OW  HW  HW  OW  HW  HW  OW  HW  HW  OW  HW  HW  OW  HW  HW  OW  HW  
HW  OW  HW  HW  OW  HW  HW  OW  HW  HW  OW  HW  HW  OW  HW  HW  OW  HW  HW  OW  
HW  HW  OW  HW  HW  OW  HW  HW  OW  HW  HW  OW  HW  HW  OW  HW  HW  OW  HW  HW  
OW  HW  HW  OW  HW  HW  OW  HW  HW  OW  HW  HW  OW  HW  HW  OW  HW  HW  OW  HW  
HW  OW  HW  HW  OW  HW  HW  OW  HW  HW  OW  HW  HW  OW  HW  HW  OW  HW  HW  OW  
HW  HW  OW  HW  HW  OW  HW  HW  OW  HW  HW  OW  HW  HW  OW  HW  HW  OW  HW  HW  
OW  HW  HW  OW  HW  HW  OW  HW  HW  OW  HW  HW  OW  HW  HW  OW  HW  HW  OW  HW  
HW  OW  HW  HW  OW  HW  HW  OW  HW  HW  OW  HW  HW  OW  HW  HW  OW  HW  HW  OW  
HW  HW  OW  HW  HW  OW  HW  HW  OW  HW  HW  OW  HW  HW  OW  HW  HW  OW  HW  HW  
OW  HW  HW  OW  HW  HW  OW  HW  HW  OW  HW  HW  OW  HW  HW  OW  HW  HW  OW  HW  
HW  OW  HW  HW  OW  HW  HW  OW  HW  HW  OW  HW  HW  OW  HW  HW  OW  HW  HW  OW  
HW  HW  OW  HW  HW  OW  HW  HW  OW  HW  HW  OW  HW  HW  OW  HW  HW  OW  HW  HW  
OW  HW  HW  OW  HW  HW  OW  HW  HW  OW  HW  HW  OW  HW  HW  OW  HW  HW  OW  HW  
HW  OW  HW  HW  OW  HW  HW  OW  HW  HW  OW  HW  HW  OW  HW  HW  OW  HW  HW  OW  
HW  HW  OW  HW  HW  OW  HW  HW  OW  HW  HW  OW  HW  HW  OW  HW  HW  OW  HW  HW  
OW  HW  HW  OW  HW  HW  OW  HW  HW  OW  HW  HW  OW  HW  HW  OW  HW  HW  OW  HW  
HW  OW  HW  HW  OW  HW  HW  OW  HW  HW  OW  HW  HW  OW  HW  HW  OW  HW  HW  OW  
HW  HW  OW  HW  HW  OW  HW  HW  OW  HW  HW  OW  HW  HW  OW  HW  HW  OW  HW  HW  
OW  HW  HW  OW  HW  HW  OW  HW  HW  OW  HW  HW  OW  HW  HW  OW  HW  HW  OW  HW  
HW  OW  HW  HW  OW  HW  HW  OW  HW  HW  OW  HW  HW  OW  HW  HW  OW  HW  HW  OW  
HW  HW  OW  HW  HW  OW  HW  HW  OW  HW  HW  OW  HW  HW  OW  HW  HW  OW  HW  HW  
OW  HW  HW  OW  HW  HW  OW  HW  HW  OW  HW  HW  OW  HW  HW  OW  HW  HW  OW  HW  
HW  OW  HW  HW  OW  HW  HW  OW  HW  HW  OW  HW  HW  OW  HW  HW  OW  HW  HW  OW  
HW  HW  OW  HW  HW  OW  HW  HW  OW  HW  HW  OW  HW  HW  OW  HW  HW  OW  HW  HW  
OW  HW  HW  OW  HW  HW  OW  HW  HW  OW  HW  HW  OW  HW  HW  OW  HW  HW  OW  HW  
HW  OW  HW  HW  OW  HW  HW  OW  HW  HW  OW  HW  HW  OW  HW  HW  OW  HW  HW  OW  
HW  HW  OW  HW  HW  OW  HW  HW  OW  HW  HW  OW  HW  HW  OW  HW  HW  OW  HW  HW  
OW  HW  HW  OW  HW  HW  OW  HW  HW  OW  HW  HW  OW  HW  HW  OW  HW  HW  OW  HW  
HW  OW  HW  HW  OW  HW  HW  OW  HW  HW  OW  HW  HW  OW  HW  HW  OW  HW  HW  OW  
HW  HW  OW  HW  HW  OW  HW  HW  OW  HW  HW  OW  HW  HW  OW  HW  HW  OW  HW  HW  
OW  HW  HW  OW  HW  HW  OW  HW  HW  OW  HW  HW  OW  HW  HW  OW  HW  HW  OW  HW  
HW  OW  HW  HW  OW  HW  HW  OW  HW  HW  OW  HW  HW  OW  HW  HW  OW  HW  HW  OW  
HW  HW  OW  HW  HW  OW  HW  HW  OW  HW  HW  OW  HW  HW  OW  HW  HW  OW  HW  HW  
OW  HW  HW  OW  HW  HW  OW  HW  HW  OW  HW  HW  OW  HW  HW  OW  HW  HW  OW  HW  
HW  OW  HW  HW  OW  HW  HW  OW  HW  HW  OW  HW  HW  OW  HW  HW  OW  HW  HW  OW  
HW  HW  OW  HW  HW  OW  HW  HW  OW  HW  HW  OW  HW  HW  OW  HW  HW  OW  HW  HW  
OW  HW  HW  OW  HW  HW  OW  HW  HW  OW  HW  HW  OW  HW  HW  OW  HW  HW  OW  HW  
HW  OW  HW  HW  OW  HW  HW  OW  HW  HW  OW  HW  HW  OW  HW  HW  OW  HW  HW  OW  
HW  HW  OW  HW  HW  OW  HW  HW  OW  HW  HW  OW  HW  HW  OW  HW  HW  OW  HW  HW  
OW  HW  HW  OW  HW  HW  OW  HW  HW  OW  HW  HW  OW  HW  HW  OW  HW  HW  OW  HW  
HW  OW  HW  HW  OW  HW  HW  OW  HW  HW  OW  HW  HW  OW  HW  HW  OW  HW  HW  OW  
HW  HW  OW  HW  HW  OW  HW  HW  OW  HW  HW  OW  HW  HW  OW  HW  HW  OW  HW  HW  
OW  HW  HW  OW  HW  HW  OW  HW  HW  OW  HW  HW  OW  HW  HW  OW  HW  HW  OW  HW  
HW  OW  HW  HW  OW  HW  HW  OW  HW  HW  OW  HW  HW  OW  HW  HW  OW  HW  HW  OW  
HW  HW  OW  HW  HW  OW  HW  HW  OW  HW  HW  OW  HW  HW  OW  HW  HW  OW  HW  HW  
OW  HW  HW  OW  HW  HW  OW  HW  HW  OW  HW  HW  OW  HW  HW  OW  HW  HW  OW  HW  
HW  OW  HW  HW  OW  HW  HW  OW  HW  HW  OW  HW  HW  OW  HW  HW  OW  HW  HW  OW  
HW  HW  OW  HW  HW  OW  HW  HW  OW  HW  HW  OW  HW  HW  OW  HW  HW  OW  HW  HW  
OW  HW  HW  OW  HW  HW  OW  HW  HW  OW  HW  HW  OW  HW  HW  OW  HW  HW  OW  HW  
HW  OW  HW  HW  OW  HW  HW  OW  HW  HW  OW  HW  HW  OW  HW  HW  OW  HW  HW  OW  
HW  HW  OW  HW  HW  OW  HW  HW  OW  HW  HW  OW  HW  HW  OW  HW  HW  OW  HW  HW  
OW  HW  HW  OW  HW  HW  OW  HW  HW  OW  HW  HW  OW  HW  HW  OW  HW  HW  OW  HW  
HW  OW  HW  HW  OW  HW  HW  OW  HW  HW  OW  HW  HW  OW  HW  HW  OW  HW  HW  OW  
HW  HW  OW  HW  HW  OW  HW  HW  OW  HW  HW  OW  HW  HW  OW  HW  HW  OW  HW  HW  
OW  HW  HW  OW  HW  HW  OW  HW  HW  OW  HW  HW  OW  HW  HW  OW  HW  HW  OW  HW  
HW  OW  HW  HW  OW  HW  HW  OW  HW  HW  OW  HW  HW  OW  HW  HW  OW  HW  HW  OW  
HW  HW  OW  HW  HW  OW  HW  HW  OW  HW  HW  OW  HW  HW  OW  HW  HW  OW  HW  HW  
OW  HW  HW  OW  HW  HW  OW  HW  HW  OW  HW  HW  OW  HW  HW  OW  HW  HW  OW  HW  
HW  OW  HW  HW  OW  HW  HW  OW  HW  HW  OW  HW  HW  OW  HW  HW  OW  HW  HW  OW  
HW  HW  OW  HW  HW  OW  HW  HW  OW  HW  HW  OW  HW  HW  OW  HW  HW  OW  HW  HW  
OW  HW  HW  OW  HW  HW  OW  HW  HW  OW  HW  HW  OW  HW  HW  OW  HW  HW  OW  HW  
HW  OW  HW  HW  OW  HW  HW  OW  HW  HW  OW  HW  HW  OW  HW  HW  OW  HW  HW  OW  
HW  HW  OW  HW  HW  OW  HW  HW  OW  HW  HW  OW  HW  HW  OW  HW  HW  OW  HW  HW  
OW  HW  HW  OW  HW  HW  OW  HW  HW  OW  HW  HW  OW  HW  HW  OW  HW  HW  OW  HW  
HW  OW  HW  HW  OW  HW  HW  OW  HW  HW  OW  HW  HW  OW  HW  HW  OW  HW  HW  OW  
HW  HW  OW  HW  HW  OW  HW  HW  OW  HW  HW  OW  HW  HW  OW  HW  HW  OW  HW  HW  
OW  HW  HW  OW  HW  HW  OW  HW  HW  OW  HW  HW  OW  HW  HW  OW  HW  HW  OW  HW  
HW  OW  HW  HW  OW  HW  HW  OW  HW  HW  OW  HW  HW  OW  HW  HW  OW  HW  HW  OW  
HW  HW  OW  HW  HW  OW  HW  HW  OW  HW  HW  OW  HW  HW  OW  HW  HW  OW  HW  HW  
OW  HW  HW  OW  HW  HW  OW  HW  HW  OW  HW  HW  OW  HW  HW  OW  HW  HW  OW  HW  
HW  OW  HW  HW  OW  HW  HW  OW  HW  HW  OW  HW  HW  OW  HW  HW  OW  HW  HW  OW  
HW  HW  OW  HW  HW  OW  HW  HW  OW  HW  HW  OW  HW  HW  OW  HW  HW  OW  HW  HW  
OW  HW  HW  OW  HW  HW  OW  HW  HW  OW  HW  HW  OW  HW  HW  OW  HW  HW  OW  HW  
HW  OW  HW  HW  OW  HW  HW  OW  HW  HW  OW  HW  HW  OW  HW  HW  OW  HW  HW  OW  
HW  HW  OW  HW  HW  OW  HW  HW  OW  HW  HW  OW  HW  HW  OW  HW  HW  OW  HW  HW  
OW  HW  HW  OW  HW  HW  OW  HW  HW  OW  HW  HW  OW  HW  HW  OW  HW  HW  OW  HW  
HW  OW  HW  HW  OW  HW  HW  OW  HW  HW  OW  HW  HW  OW  HW  HW  OW  HW  HW  OW  
HW  HW  OW  HW  HW  OW  HW  HW  OW  HW  HW  OW  HW  HW  OW  HW  HW  OW  HW  HW  
OW  HW  HW  OW  HW  HW  OW  HW  HW  OW  HW  HW  OW  HW  HW  OW  HW  HW  OW  HW  
HW  OW  HW  HW  OW  HW  HW  OW  HW  HW  OW  HW  HW  OW  HW  HW  OW  HW  HW  OW  
HW  HW  OW  HW  HW  OW  HW  HW  OW  HW  HW  OW  HW  HW  OW  HW  HW  OW  HW  HW  
OW  HW  HW  OW  HW  HW  OW  HW  HW  OW  HW  HW  OW  HW  HW  OW  HW  HW  OW  HW  
HW  OW  HW  HW  OW  HW  HW  OW  HW  HW  OW  HW  HW  OW  HW  HW  OW  HW  HW  OW  
HW  HW  OW  HW  HW  OW  HW  HW  OW  HW  HW  OW  HW  HW  OW  HW  HW  OW  HW  HW  
OW  HW  HW  OW  HW  HW  OW  HW  HW  OW  HW  HW  OW  HW  HW  OW  HW  HW  OW  HW  
HW  OW  HW  HW  OW  HW  HW  OW  HW  HW  OW  HW  HW  OW  HW  HW  OW  HW  HW  OW  
HW  HW  OW  HW  HW  OW  HW  HW  OW  HW  HW  OW  HW  HW  OW  HW  HW  OW  HW  HW  
OW  HW  HW  OW  HW  HW  OW  HW  HW  OW  HW  HW  OW  HW  HW  OW  HW  HW  OW  HW  
HW  OW  HW  HW  OW  HW  HW  OW  HW  HW  OW  HW  HW  OW  HW  HW  OW  HW  HW  OW  
HW  HW  OW  HW  HW  OW  HW  HW  OW  HW  HW  OW  HW  HW  OW  HW  HW  OW  HW  HW  
OW  HW  HW  OW  HW  HW  OW  HW  HW  OW  HW  HW  OW  HW  HW  OW  HW  HW  OW  HW  
HW  OW  HW  HW  OW  HW  HW  OW  HW  HW  OW  HW  HW  OW  HW  HW  OW  HW  HW  OW  
HW  HW  OW  HW  HW  OW  HW  HW  OW  HW  HW  OW  HW  HW  OW  HW  HW  OW  HW  HW  
OW  HW  HW  OW  HW  HW  OW  HW  HW  OW  HW  HW  OW  HW  HW  OW  HW  HW  OW  HW  
HW  OW  HW  HW  OW  HW  HW  OW  HW  HW  OW  HW  HW  OW  HW  HW  OW  HW  HW  OW  
HW  HW  OW  HW  HW  OW  HW  HW  OW  HW  HW  OW  HW  HW  OW  HW  HW  OW  HW  HW  
OW  HW  HW  OW  HW  HW  OW  HW  HW  OW  HW  HW  OW  HW  HW  OW  HW  HW  OW  HW  
HW  OW  HW  HW  OW  HW  HW  OW  HW  HW  OW  HW  HW  OW  HW  HW  OW  HW  HW  OW  
HW  HW  OW  HW  HW  OW  HW  HW  OW  HW  HW  OW  HW  HW  OW  HW  HW  OW  HW  HW  
OW  HW  HW  OW  HW  HW  OW  HW  HW  OW  HW  HW  OW  HW  HW  OW  HW  HW  OW  HW  
HW  OW  HW  HW  OW  HW  HW  OW  HW  HW  OW  HW  HW  OW  HW  HW  OW  HW  HW  OW  
HW  HW  OW  HW  HW  OW  HW  HW  OW  HW  HW  OW  HW  HW  OW  HW  HW  OW  HW  HW  
OW  HW  HW  OW  HW  HW  OW  HW  HW  OW  HW  HW  OW  HW  HW  OW  HW  HW  OW  HW  
HW  OW  HW  HW  OW  HW  HW  OW  HW  HW  OW  HW  HW  OW  HW  HW  OW  HW  HW  OW  
HW  HW  OW  HW  HW  OW  HW  HW  OW  HW  HW  OW  HW  HW  OW  HW  HW  OW  HW  HW  
OW  HW  HW  OW  HW  HW  OW  HW  HW  OW  HW  HW  OW  HW  HW  OW  HW  HW  OW  HW  
HW  OW  HW  HW  OW  HW  HW  OW  HW  HW  OW  HW  HW  OW  HW  HW  OW  HW  HW  OW  
HW  HW  OW  HW  HW  OW  HW  HW  OW  HW  HW  OW  HW  HW  OW  HW  HW  OW  HW  HW  
OW  HW  HW  OW  HW  HW  OW  HW  HW  OW  HW  HW  OW  HW  HW  OW  HW  HW  OW  HW  
HW  OW  HW  HW  OW  HW  HW  OW  HW  HW  OW  HW  HW  OW  HW  HW  OW  HW  HW  OW  
HW  HW  OW  HW  HW  OW  HW  HW  OW  HW  HW  OW  HW  HW  OW  HW  HW  OW  HW  HW  
OW  HW  HW  OW  HW  HW  OW  HW  HW  OW  HW  HW  OW  HW  HW  OW  HW  HW  OW  HW  
HW  OW  HW  HW  OW  HW  HW  OW  HW  HW  OW  HW  HW  OW  HW  HW  OW  HW  HW  OW  
HW  HW  OW  HW  HW  OW  HW  HW  OW  HW  HW  OW  HW  HW  OW  HW  HW  OW  HW  HW  
OW  HW  HW  OW  HW  HW  OW  HW  HW  OW  HW  HW  OW  HW  HW  OW  HW  HW  OW  HW  
HW  OW  HW  HW  OW  HW  HW  OW  HW  HW  OW  HW  HW  OW  HW  HW  OW  HW  HW  OW  
HW  HW  OW  HW  HW  OW  HW  HW  OW  HW  HW  OW  HW  HW  OW  HW  HW  OW  HW  HW  
OW  HW  HW  OW  HW  HW  OW  HW  HW  OW  HW  HW  OW  HW  HW  OW  HW  HW  OW  HW  
HW  OW  HW  HW  OW  HW  HW  OW  HW  HW  OW  HW  HW  OW  HW  HW  OW  HW  HW  OW  
HW  HW  OW  HW  HW  OW  HW  HW  OW  HW  HW  OW  HW  HW  OW  HW  HW  OW  HW  HW  
OW  HW  HW  OW  HW  HW  OW  HW  HW  OW  HW  HW  OW  HW  HW  OW  HW  HW  OW  HW  
HW  OW  HW  HW  OW  HW  HW  OW  HW  HW  OW  HW  HW  OW  HW  HW  OW  HW  HW  OW  
HW  HW  OW  HW  HW  OW  HW  HW  OW  HW  HW  OW  HW  HW  OW  HW  HW  OW  HW  HW  
OW  HW  HW  OW  HW  HW  OW  HW  HW  OW  HW  HW  OW  HW  HW  OW  HW  HW  OW  HW  
HW  OW  HW  HW  OW  HW  HW  OW  HW  HW  OW  HW  HW  OW  HW  HW  OW  HW  HW  OW  
HW  HW  OW  HW  HW  OW  HW  HW  OW  HW  HW  OW  HW  HW  OW  HW  HW  OW  HW  HW  
OW  HW  HW  OW  HW  HW  OW  HW  HW  OW  HW  HW  OW  HW  HW  OW  HW  HW  OW  HW  
HW  OW  HW  HW  OW  HW  HW  OW  HW  HW  OW  HW  HW  OW  HW  HW  OW  HW  HW  OW  
HW  HW  OW  HW  HW  OW  HW  HW  OW  HW  HW  OW  HW  HW  OW  HW  HW  OW  HW  HW  
OW  HW  HW  OW  HW  HW  OW  HW  HW  OW  HW  HW  OW  HW  HW  OW  HW  HW  OW  HW  
HW  OW  HW  HW  OW  HW  HW  OW  HW  HW  OW  HW  HW  OW  HW  HW  OW  HW  HW  OW  
HW  HW  OW  HW  HW  OW  HW  HW  OW  HW  HW  OW  HW  HW  OW  HW  HW  OW  HW  HW  
OW  HW  HW  OW  HW  HW  OW  HW  HW  OW  HW  HW  OW  HW  HW  OW  HW  HW  OW  HW  
HW  OW  HW  HW  OW  HW  HW  OW  HW  HW  OW  HW  HW  OW  HW  HW  OW  HW  HW  OW  
HW  HW  OW  HW  HW  OW  HW  HW  OW  HW  HW  OW  HW  HW  OW  HW  HW  OW  HW  HW  
OW  HW  HW  OW  HW  HW  OW  HW  HW  OW  HW  HW  OW  HW  HW  OW  HW  HW  OW  HW  
HW  OW  HW  HW  OW  HW  HW  OW  HW  HW  OW  HW  HW  OW  HW  HW  OW  HW  HW  OW  
HW  HW  OW  HW  HW  OW  HW  HW  OW  HW  HW  OW  HW  HW  OW  HW  HW  OW  HW  HW  
OW  HW  HW  OW  HW  HW  OW  HW  HW  OW  HW  HW  OW  HW  HW  OW  HW  HW  OW  HW  
HW  OW  HW  HW  OW  HW  HW  OW  HW  HW  OW  HW  HW  OW  HW  HW  OW  HW  HW  OW  
HW  HW  OW  HW  HW  OW  HW  HW  OW  HW  HW  OW  HW  HW  OW  HW  HW  OW  HW  HW  
OW  HW  HW  OW  HW  HW  OW  HW  HW  OW  HW  HW  OW  HW  HW  OW  HW  HW  OW  HW  
HW  OW  HW  HW  OW  HW  HW  OW  HW  HW  OW  HW  HW  OW  HW  HW  OW  HW  HW  OW  
HW  HW  OW  HW  HW  OW  HW  HW  OW  HW  HW  OW  HW  HW  OW  HW  HW  OW  HW  HW  
OW  HW  HW  OW  HW  HW  OW  HW  HW  OW  HW  HW  OW  HW  HW  OW  HW  HW  OW  HW  
HW  OW  HW  HW  OW  HW  HW  OW  HW  HW  OW  HW  HW  OW  HW  HW  OW  HW  HW  OW  
HW  HW  OW  HW  HW  OW  HW  HW  OW  HW  HW  OW  HW  HW  OW  HW  HW  OW  HW  HW  
OW  HW  HW  OW  HW  HW  OW  HW  HW  OW  HW  HW  OW  HW  HW  OW  HW  HW  OW  HW  
HW  OW  HW  HW  OW  HW  HW  OW  HW  HW  OW  HW  HW  OW  HW  HW  OW  HW  HW  OW  
HW  HW  OW  HW  HW  OW  HW  HW  OW  HW  HW  OW  HW  HW  OW  HW  HW  OW  HW  HW  
OW  HW  HW  OW  HW  HW  OW  HW  HW  OW  HW  HW  OW  HW  HW  OW  HW  HW  OW  HW  
HW  OW  HW  HW  OW  HW  HW  OW  HW  HW  OW  HW  HW  OW  HW  HW  OW  HW  HW  OW  
HW  HW  OW  HW  HW  OW  HW  HW  OW  HW  HW  OW  HW  HW  OW  HW  HW  OW  HW  HW  
OW  HW  HW  OW  HW  HW  OW  HW  HW  OW  HW  HW  OW  HW  HW  OW  HW  HW  OW  HW  
HW  OW  HW  HW  OW  HW  HW  OW  HW  HW  OW  HW  HW  OW  HW  HW  OW  HW  HW  OW  
HW  HW  OW  HW  HW  OW  HW  HW  OW  HW  HW  OW  HW  HW  OW  HW  HW  OW  HW  HW  
OW  HW  HW  OW  HW  HW  OW  HW  HW  OW  HW  HW  OW  HW  HW  OW  HW  HW  OW  HW  
HW  OW  HW  HW  OW  HW  HW  OW  HW  HW  OW  HW  HW  OW  HW  HW  OW  HW  HW  OW  
HW  HW  OW  HW  HW  OW  HW  HW  OW  HW  HW  OW  HW  HW  OW  HW  HW  OW  HW  HW  
OW  HW  HW  OW  HW  HW  OW  HW  HW  OW  HW  HW  OW  HW  HW  OW  HW  HW  OW  HW  
HW  OW  HW  HW  OW  HW  HW  OW  HW  HW  OW  HW  HW  OW  HW  HW  OW  HW  HW  OW  
HW  HW  OW  HW  HW  OW  HW  HW  OW  HW  HW  OW  HW  HW  OW  HW  HW  OW  HW  HW  
OW  HW  HW  OW  HW  HW  OW  HW  HW  OW  HW  HW  OW  HW  HW  OW  HW  HW  OW  HW  
HW  OW  HW  HW  OW  HW  HW  OW  HW  HW  OW  HW  HW  OW  HW  HW  OW  HW  HW  OW  
HW  HW  OW  HW  HW  OW  HW  HW  OW  HW  HW  OW  HW  HW  OW  HW  HW  OW  HW  HW  
OW  HW  HW  OW  HW  HW  OW  HW  HW  OW  HW  HW  OW  HW  HW  OW  HW  HW  OW  HW  
HW  OW  HW  HW  OW  HW  HW  OW  HW  HW  OW  HW  HW  OW  HW  HW  OW  HW  HW  OW  
HW  HW  OW  HW  HW  OW  HW  HW  OW  HW  HW  OW  HW  HW  OW  HW  HW  OW  HW  HW  
OW  HW  HW  OW  HW  HW  OW  HW  HW  OW  HW  HW  OW  HW  HW  OW  HW  HW  OW  HW  
HW  OW  HW  HW  OW  HW  HW  OW  HW  HW  OW  HW  HW  OW  HW  HW  OW  HW  HW  OW  
HW  HW  OW  HW  HW  OW  HW  HW  OW  HW  HW  OW  HW  HW  OW  HW  HW  OW  HW  HW  
OW  HW  HW  OW  HW  HW  OW  HW  HW  OW  HW  HW  OW  HW  HW  OW  HW  HW  OW  HW  
HW  OW  HW  HW  OW  HW  HW  OW  HW  HW  OW  HW  HW  OW  HW  HW  OW  HW  HW  OW  
HW  HW  OW  HW  HW  OW  HW  HW  OW  HW  HW  OW  HW  HW  OW  HW  HW  OW  HW  HW  
OW  HW  HW  OW  HW  HW  OW  HW  HW  OW  HW  HW  OW  HW  HW  OW  HW  HW  OW  HW  
HW  OW  HW  HW  OW  HW  HW  OW  HW  HW  OW  HW  HW  OW  HW  HW  OW  HW  HW  OW  
HW  HW  OW  HW  HW  OW  HW  HW  OW  HW  HW  OW  HW  HW  OW  HW  HW  OW  HW  HW  
OW  HW  HW  OW  HW  HW  OW  HW  HW  OW  HW  HW  OW  HW  HW  OW  HW  HW  OW  HW  
HW  OW  HW  HW  OW  HW  HW  OW  HW  HW  OW  HW  HW  OW  HW  HW  OW  HW  HW  OW  
HW  HW  OW  HW  HW  OW  HW  HW  OW  HW  HW  OW  HW  HW  OW  HW  HW  OW  HW  HW  
OW  HW  HW  OW  HW  HW  OW  HW  HW  OW  HW  HW  OW  HW  HW  OW  HW  HW  OW  HW  
HW  OW  HW  HW  OW  HW  HW  OW  HW  HW  OW  HW  HW  OW  HW  HW  OW  HW  HW  OW  
HW  HW  OW  HW  HW  OW  HW  HW  OW  HW  HW  OW  HW  HW  OW  HW  HW  OW  HW  HW  
OW  HW  HW  OW  HW  HW  OW  HW  HW  OW  HW  HW  OW  HW  HW  OW  HW  HW  OW  HW  
HW  OW  HW  HW  OW  HW  HW  OW  HW  HW  OW  HW  HW  OW  HW  HW  OW  HW  HW  OW  
HW  HW  OW  HW  HW  OW  HW  HW  OW  HW  HW  OW  HW  HW  OW  HW  HW  OW  HW  HW  
OW  HW  HW  OW  HW  HW  OW  HW  HW  OW  HW  HW  OW  HW  HW  OW  HW  HW  OW  HW  
HW  OW  HW  HW  OW  HW  HW  OW  HW  HW  OW  HW  HW  OW  HW  HW  OW  HW  HW  OW  
HW  HW  OW  HW  HW  OW  HW  HW  OW  HW  HW  OW  HW  HW  OW  HW  HW  OW  HW  HW  
OW  HW  HW  OW  HW  HW  OW  HW  HW  OW  HW  HW  OW  HW  HW  OW  HW  HW  OW  HW  
HW  OW  HW  HW  OW  HW  HW  OW  HW  HW  OW  HW  HW  OW  HW  HW  OW  HW  HW  OW  
HW  HW  OW  HW  HW  OW  HW  HW  OW  HW  HW  OW  HW  HW  OW  HW  HW  OW  HW  HW  
OW  HW  HW  OW  HW  HW  OW  HW  HW  OW  HW  HW  OW  HW  HW  OW  HW  HW  OW  HW  
HW  OW  HW  HW  OW  HW  HW  OW  HW  HW  OW  HW  HW  OW  HW  HW  OW  HW  HW  OW  
HW  HW  OW  HW  HW  OW  HW  HW  OW  HW  HW  OW  HW  HW  OW  HW  HW  OW  HW  HW  
OW  HW  HW  OW  HW  HW  OW  HW  HW  OW  HW  HW  OW  HW  HW  OW  HW  HW  OW  HW  
HW  OW  HW  HW  OW  HW  HW  OW  HW  HW  OW  HW  HW  OW  HW  HW  OW  HW  HW  OW  
HW  HW  OW  HW  HW  OW  HW  HW  OW  HW  HW  OW  HW  HW  OW  HW  HW  OW  HW  HW  
OW  HW  HW  OW  HW  HW  OW  HW  HW  OW  HW  HW  OW  HW  HW  OW  HW  HW  OW  HW  
HW  OW  HW  HW  OW  HW  HW  OW  HW  HW  OW  HW  HW  OW  HW  HW  OW  HW  HW  OW  
HW  HW  OW  HW  HW  OW  HW  HW  OW  HW  HW  OW  HW  HW  OW  HW  HW  OW  HW  HW  
OW  HW  HW  OW  HW  HW  OW  HW  HW  OW  HW  HW  OW  HW  HW  OW  HW  HW  OW  HW  
HW  OW  HW  HW  OW  HW  HW  OW  HW  HW  OW  HW  HW  OW  HW  HW  OW  HW  HW  OW  
HW  HW  OW  HW  HW  OW  HW  HW  OW  HW  HW  OW  HW  HW  OW  HW  HW  OW  HW  HW  
OW  HW  HW  OW  HW  HW  OW  HW  HW  OW  HW  HW  OW  HW  HW  OW  HW  HW  OW  HW  
HW  OW  HW  HW  OW  HW  HW  OW  HW  HW  OW  HW  HW  OW  HW  HW  OW  HW  HW  OW  
HW  HW  OW  HW  HW  OW  HW  HW  OW  HW  HW  OW  HW  HW  OW  HW  HW  OW  HW  HW  
OW  HW  HW  OW  HW  HW  OW  HW  HW  OW  HW  HW  OW  HW  HW  OW  HW  HW  OW  HW  
HW  OW  HW  HW  OW  HW  HW  OW  HW  HW  OW  HW  HW  OW  HW  HW  OW  HW  HW  OW  
HW  HW  OW  HW  HW  OW  HW  HW  OW  HW  HW  OW  HW  HW  OW  HW  HW  OW  HW  HW  
OW  HW  HW  OW  HW  HW  OW  HW  HW  OW  HW  HW  OW  HW  HW  OW  HW  HW  OW  HW  
HW  OW  HW  HW  OW  HW  HW  OW  HW  HW  OW  HW  HW  OW  HW  HW  OW  HW  HW  OW  
HW  HW  OW  HW  HW  OW  HW  HW  OW  HW  HW  OW  HW  HW  OW  HW  HW  OW  HW  HW  
OW  HW  HW  OW  HW  HW  OW  HW  HW  OW  HW  HW  OW  HW  HW  OW  HW  HW  OW  HW  
HW  OW  HW  HW  OW  HW  HW  OW  HW  HW  OW  HW  HW  OW  HW  HW  OW  HW  HW  OW  
HW  HW  OW  HW  HW  OW  HW  HW  OW  HW  HW  OW  HW  HW  OW  HW  HW  OW  HW  HW  
OW  HW  HW  OW  HW  HW  OW  HW  HW  OW  HW  HW  OW  HW  HW  OW  HW  HW  OW  HW  
HW  OW  HW  HW  OW  HW  HW  OW  HW  HW  OW  HW  HW  OW  HW  HW  OW  HW  HW  OW  
HW  HW  OW  HW  HW  OW  HW  HW  OW  HW  HW  OW  HW  HW  OW  HW  HW  OW  HW  HW  
OW  HW  HW  OW  HW  HW  OW  HW  HW  OW  HW  HW  OW  HW  HW  OW  HW  HW  OW  HW  
HW  OW  HW  HW  OW  HW  HW  OW  HW  HW  OW  HW  HW  OW  HW  HW  OW  HW  HW  OW  
HW  HW  OW  HW  HW  OW  HW  HW  OW  HW  HW  OW  HW  HW  OW  HW  HW  OW  HW  HW  
OW  HW  HW  OW  HW  HW  OW  HW  HW  OW  HW  HW  OW  HW  HW  OW  HW  HW  OW  HW  
HW  OW  HW  HW  OW  HW  HW  OW  HW  HW  OW  HW  HW  OW  HW  HW  OW  HW  HW  OW  
HW  HW  OW  HW  HW  OW  HW  HW  OW  HW  HW  OW  HW  HW  OW  HW  HW  OW  HW  HW  
OW  HW  HW  OW  HW  HW  OW  HW  HW  OW  HW  HW  OW  HW  HW  OW  HW  HW  OW  HW  
HW  OW  HW  HW  OW  HW  HW  OW  HW  HW  OW  HW  HW  OW  HW  HW  OW  HW  HW  OW  
HW  HW  OW  HW  HW  OW  HW  HW  OW  HW  HW  OW  HW  HW  OW  HW  HW  OW  HW  HW  
OW  HW  HW  OW  HW  HW  OW  HW  HW  OW  HW  HW  OW  HW  HW  OW  HW  HW  OW  HW  
HW  OW  HW  HW  OW  HW  HW  OW  HW  HW  OW  HW  HW  OW  HW  HW  OW  HW  HW  OW  
HW  HW  OW  HW  HW  OW  HW  HW  OW  HW  HW  OW  HW  HW  OW  HW  HW  OW  HW  HW  
OW  HW  HW  OW  HW  HW  OW  HW  HW  OW  HW  HW  OW  HW  HW  OW  HW  HW  OW  HW  
HW  OW  HW  HW  OW  HW  HW  OW  HW  HW  OW  HW  HW  OW  HW  HW  OW  HW  HW  OW  
HW  HW  OW  HW  HW  OW  HW  HW  OW  HW  HW  OW  HW  HW  OW  HW  HW  OW  HW  HW  
OW  HW  HW  OW  HW  HW  OW  HW  HW  OW  HW  HW  OW  HW  HW  OW  HW  HW  OW  HW  
HW  OW  HW  HW  OW  HW  HW  OW  HW  HW  OW  HW  HW  OW  HW  HW  OW  HW  HW  OW  
HW  HW  OW  HW  HW  OW  HW  HW  OW  HW  HW  OW  HW  HW  OW  HW  HW  OW  HW  HW  
OW  HW  HW  OW  HW  HW  OW  HW  HW  OW  HW  HW  OW  HW  HW  OW  HW  HW  OW  HW  
HW  OW  HW  HW  OW  HW  HW  OW  HW  HW  OW  HW  HW  OW  HW  HW  OW  HW  HW  OW  
HW  HW  OW  HW  HW  OW  HW  HW  OW  HW  HW  OW  HW  HW  OW  HW  HW  OW  HW  HW  
OW  HW  HW  OW  HW  HW  OW  HW  HW  OW  HW  HW  OW  HW  HW  OW  HW  HW  OW  HW  
HW  OW  HW  HW  OW  HW  HW  OW  HW  HW  OW  HW  HW  OW  HW  HW  OW  HW  HW  OW  
HW  HW  OW  HW  HW  OW  HW  HW  OW  HW  HW  OW  HW  HW  OW  HW  HW  OW  HW  HW  
OW  HW  HW  OW  HW  HW  OW  HW  HW  OW  HW  HW  OW  HW  HW  OW  HW  HW  OW  HW  
HW  OW  HW  HW  OW  HW  HW  OW  HW  HW  OW  HW  HW  OW  HW  HW  OW  HW  HW  OW  
HW  HW  OW  HW  HW  OW  HW  HW  OW  HW  HW  OW  HW  HW  OW  HW  HW  OW  HW  HW  
OW  HW  HW  OW  HW  HW  OW  HW  HW  OW  HW  HW  OW  HW  HW  OW  HW  HW  OW  HW  
HW  OW  HW  HW  OW  HW  HW  OW  HW  HW  OW  HW  HW  OW  HW  HW  OW  HW  HW  OW  
HW  HW  OW  HW  HW  OW  HW  HW  OW  HW  HW  OW  HW  HW  OW  HW  HW  OW  HW  HW  
OW  HW  HW  OW  HW  HW  OW  HW  HW  OW  HW  HW  OW  HW  HW  OW  HW  HW  OW  HW  
HW  OW  HW  HW  OW  HW  HW  OW  HW  HW  OW  HW  HW  OW  HW  HW  OW  HW  HW  OW  
HW  HW  OW  HW  HW  OW  HW  HW  OW  HW  HW  OW  HW  HW  OW  HW  HW  OW  HW  HW  
OW  HW  HW  OW  HW  HW  OW  HW  HW  OW  HW  HW  OW  HW  HW  OW  HW  HW  OW  HW  
HW  OW  HW  HW  OW  HW  HW  OW  HW  HW  OW  HW  HW  OW  HW  HW  OW  HW  HW  OW  
HW  HW  OW  HW  HW  OW  HW  HW  OW  HW  HW  OW  HW  HW  OW  HW  HW  OW  HW  HW  
OW  HW  HW  OW  HW  HW  OW  HW  HW  OW  HW  HW  OW  HW  HW  OW  HW  HW  OW  HW  
HW  OW  HW  HW  OW  HW  HW  OW  HW  HW  OW  HW  HW  OW  HW  HW  OW  HW  HW  OW  
HW  HW  OW  HW  HW  OW  HW  HW  OW  HW  HW  OW  HW  HW  OW  HW  HW  OW  HW  HW  
OW  HW  HW  OW  HW  HW  OW  HW  HW  OW  HW  HW  OW  HW  HW  OW  HW  HW  OW  HW  
HW  OW  HW  HW  OW  HW  HW  OW  HW  HW  OW  HW  HW  OW  HW  HW  OW  HW  HW  OW  
HW  HW  OW  HW  HW  OW  HW  HW  OW  HW  HW  OW  HW  HW  OW  HW  HW  OW  HW  HW  
OW  HW  HW  OW  HW  HW  OW  HW  HW  OW  HW  HW  OW  HW  HW  OW  HW  HW  OW  HW  
HW  OW  HW  HW  OW  HW  HW  OW  HW  HW  OW  HW  HW  OW  HW  HW  OW  HW  HW  OW  
HW  HW  OW  HW  HW  OW  HW  HW  OW  HW  HW  OW  HW  HW  OW  HW  HW  OW  HW  HW  
OW  HW  HW  OW  HW  HW  OW  HW  HW  OW  HW  HW  OW  HW  HW  OW  HW  HW  OW  HW  
HW  OW  HW  HW  OW  HW  HW  OW  HW  HW  OW  HW  HW  OW  HW  HW  OW  HW  HW  OW  
HW  HW  OW  HW  HW  OW  HW  HW  OW  HW  HW  OW  HW  HW  OW  HW  HW  OW  HW  HW  
OW  HW  HW  OW  HW  HW  OW  HW  HW  OW  HW  HW  OW  HW  HW  OW  HW  HW  OW  HW  
HW  OW  HW  HW  OW  HW  HW  OW  HW  HW  OW  HW  HW  OW  HW  HW  OW  HW  HW  OW  
HW  HW  OW  HW  HW  OW  HW  HW  OW  HW  HW  OW  HW  HW  OW  HW  HW  OW  HW  HW  
OW  HW  HW  OW  HW  HW  OW  HW  HW  OW  HW  HW  OW  HW  HW  OW  HW  HW  OW  HW  
HW  OW  HW  HW  OW  HW  HW  OW  HW  HW  OW  HW  HW  OW  HW  HW  OW  HW  HW  OW  
HW  HW  OW  HW  HW  OW  HW  HW  OW  HW  HW  OW  HW  HW  OW  HW  HW  OW  HW  HW  
OW  HW  HW  OW  HW  HW  OW  HW  HW  OW  HW  HW  OW  HW  HW  OW  HW  HW  OW  HW  
HW  OW  HW  HW  OW  HW  HW  OW  HW  HW  OW  HW  HW  OW  HW  HW  OW  HW  HW  OW  
HW  HW  OW  HW  HW  OW  HW  HW  OW  HW  HW  OW  HW  HW  OW  HW  HW  OW  HW  HW  
OW  HW  HW  OW  HW  HW  OW  HW  HW  OW  HW  HW  OW  HW  HW  OW  HW  HW  OW  HW  
HW  OW  HW  HW  OW  HW  HW  OW  HW  HW  OW  HW  HW  OW  HW  HW  OW  HW  HW  OW  
HW  HW  OW  HW  HW  OW  HW  HW  OW  HW  HW  OW  HW  HW  OW  HW  HW  OW  HW  HW  
OW  HW  HW  OW  HW  HW  OW  HW  HW  OW  HW  HW  OW  HW  HW  OW  HW  HW  OW  HW  
HW  OW  HW  HW  OW  HW  HW  OW  HW  HW  OW  HW  HW  OW  HW  HW  OW  HW  HW  OW  
HW  HW  OW  HW  HW  OW  HW  HW  OW  HW  HW  OW  HW  HW  OW  HW  HW  OW  HW  HW  
OW  HW  HW  OW  HW  HW  OW  HW  HW  OW  HW  HW  OW  HW  HW  OW  HW  HW  OW  HW  
HW  OW  HW  HW  OW  HW  HW  OW  HW  HW  OW  HW  HW  OW  HW  HW  OW  HW  HW  OW  
HW  HW  OW  HW  HW  OW  HW  HW  OW  HW  HW  OW  HW  HW  OW  HW  HW  OW  HW  HW  
OW  HW  HW  OW  HW  HW  OW  HW  HW  OW  HW  HW  OW  HW  HW  OW  HW  HW  OW  HW  
HW  OW  HW  HW  OW  HW  HW  OW  HW  HW  OW  HW  HW  OW  HW  HW  OW  HW  HW  OW  
HW  HW  OW  HW  HW  OW  HW  HW  OW  HW  HW  OW  HW  HW  OW  HW  HW  OW  HW  HW  
OW  HW  HW  OW  HW  HW  OW  HW  HW  OW  HW  HW  OW  HW  HW  OW  HW  HW  OW  HW  
HW  OW  HW  HW  OW  HW  HW  OW  HW  HW  OW  HW  HW  OW  HW  HW  OW  HW  HW  OW  
HW  HW  OW  HW  HW  OW  HW  HW  OW  HW  HW  OW  HW  HW  OW  HW  HW  OW  HW  HW  
OW  HW  HW  OW  HW  HW  OW  HW  HW  OW  HW  HW  OW  HW  HW  OW  HW  HW  OW  HW  
HW  OW  HW  HW  OW  HW  HW  OW  HW  HW  OW  HW  HW  OW  HW  HW  OW  HW  HW  OW  
HW  HW  OW  HW  HW  OW  HW  HW  OW  HW  HW  OW  HW  HW  OW  HW  HW  OW  HW  HW  
OW  HW  HW  OW  HW  HW  OW  HW  HW  OW  HW  HW  OW  HW  HW  OW  HW  HW  OW  HW  
HW  OW  HW  HW  OW  HW  HW  OW  HW  HW  OW  HW  HW  OW  HW  HW  OW  HW  HW  OW  
HW  HW  OW  HW  HW  OW  HW  HW  OW  HW  HW  OW  HW  HW  OW  HW  HW  OW  HW  HW  
OW  HW  HW  OW  HW  HW  OW  HW  HW  OW  HW  HW  OW  HW  HW  OW  HW  HW  OW  HW  
HW  OW  HW  HW  OW  HW  HW  OW  HW  HW  OW  HW  HW  OW  HW  HW  OW  HW  HW  OW  
HW  HW  OW  HW  HW  OW  HW  HW  OW  HW  HW  OW  HW  HW  OW  HW  HW  OW  HW  HW  
OW  HW  HW  OW  HW  HW  OW  HW  HW  OW  HW  HW  OW  HW  HW  OW  HW  HW  OW  HW  
HW  OW  HW  HW  OW  HW  HW  OW  HW  HW  OW  HW  HW  OW  HW  HW  OW  HW  HW  OW  
HW  HW  OW  HW  HW  OW  HW  HW  OW  HW  HW  OW  HW  HW  OW  HW  HW  OW  HW  HW  
OW  HW  HW  OW  HW  HW  OW  HW  HW  OW  HW  HW  OW  HW  HW  OW  HW  HW  OW  HW  
HW  OW  HW  HW  OW  HW  HW  OW  HW  HW  OW  HW  HW  OW  HW  HW  OW  HW  HW  OW  
HW  HW  OW  HW  HW  OW  HW  HW  OW  HW  HW  OW  HW  HW  OW  HW  HW  OW  HW  HW  
OW  HW  HW  OW  HW  HW  OW  HW  HW  OW  HW  HW  OW  HW  HW  OW  HW  HW  OW  HW  
HW  OW  HW  HW  OW  HW  HW  OW  HW  HW  OW  HW  HW  OW  HW  HW  OW  HW  HW  OW  
HW  HW  OW  HW  HW  OW  HW  HW  OW  HW  HW  OW  HW  HW  OW  HW  HW  OW  HW  HW  
OW  HW  HW  OW  HW  HW  OW  HW  HW  OW  HW  HW  OW  HW  HW  OW  HW  HW  OW  HW  
HW  OW  HW  HW  OW  HW  HW  OW  HW  HW  OW  HW  HW  OW  HW  HW  OW  HW  HW  OW  
HW  HW  OW  HW  HW  OW  HW  HW  OW  HW  HW  OW  HW  HW  OW  HW  HW  OW  HW  HW  
OW  HW  HW  OW  HW  HW  OW  HW  HW  OW  HW  HW  OW  HW  HW  OW  HW  HW  OW  HW  
HW  OW  HW  HW  OW  HW  HW  OW  HW  HW  OW  HW  HW  OW  HW  HW  OW  HW  HW  OW  
HW  HW  OW  HW  HW  OW  HW  HW  OW  HW  HW  OW  HW  HW  OW  HW  HW  OW  HW  HW  
OW  HW  HW  OW  HW  HW  OW  HW  HW  OW  HW  HW  OW  HW  HW  OW  HW  HW  OW  HW  
HW  OW  HW  HW  OW  HW  HW  OW  HW  HW  OW  HW  HW  OW  HW  HW  OW  HW  HW  OW  
HW  HW  OW  HW  HW  OW  HW  HW  OW  HW  HW  OW  HW  HW  OW  HW  HW  OW  HW  HW  
OW  HW  HW  OW  HW  HW  OW  HW  HW  OW  HW  HW  OW  HW  HW  OW  HW  HW  OW  HW  
HW  OW  HW  HW  OW  HW  HW  OW  HW  HW  OW  HW  HW  OW  HW  HW  OW  HW  HW  OW  
HW  HW  OW  HW  HW  OW  HW  HW  OW  HW  HW  OW  HW  HW  OW  HW  HW  OW  HW  HW  
OW  HW  HW  OW  HW  HW  OW  HW  HW  OW  HW  HW  OW  HW  HW  OW  HW  HW  OW  HW  
HW  OW  HW  HW  OW  HW  HW  OW  HW  HW  OW  HW  HW  OW  HW  HW  OW  HW  HW  OW  
HW  HW  OW  HW  HW  OW  HW  HW  OW  HW  HW  OW  HW  HW  OW  HW  HW  OW  HW  HW  
OW  HW  HW  OW  HW  HW  OW  HW  HW  OW  HW  HW  OW  HW  HW  OW  HW  HW  OW  HW  
HW  OW  HW  HW  OW  HW  HW  OW  HW  HW  OW  HW  HW  OW  HW  HW  OW  HW  HW  OW  
HW  HW  OW  HW  HW  OW  HW  HW  OW  HW  HW  OW  HW  HW  OW  HW  HW  OW  HW  HW  
OW  HW  HW  OW  HW  HW  OW  HW  HW  OW  HW  HW  OW  HW  HW  OW  HW  HW  OW  HW  
HW  OW  HW  HW  OW  HW  HW  OW  HW  HW  OW  HW  HW  OW  HW  HW  OW  HW  HW  OW  
HW  HW  OW  HW  HW  OW  HW  HW  OW  HW  HW  OW  HW  HW  OW  HW  HW  OW  HW  HW  
OW  HW  HW  OW  HW  HW  OW  HW  HW  OW  HW  HW  OW  HW  HW  OW  HW  HW  OW  HW  
HW  OW  HW  HW  OW  HW  HW  OW  HW  HW  OW  HW  HW  OW  HW  HW  OW  HW  HW  OW  
HW  HW  OW  HW  HW  OW  HW  HW  OW  HW  HW  OW  HW  HW  OW  HW  HW  OW  HW  HW  
OW  HW  HW  OW  HW  HW  OW  HW  HW  OW  HW  HW  OW  HW  HW  OW  HW  HW  OW  HW  
HW  OW  HW  HW  OW  HW  HW  OW  HW  HW  OW  HW  HW  OW  HW  HW  OW  HW  HW  OW  
HW  HW  OW  HW  HW  OW  HW  HW  OW  HW  HW  OW  HW  HW  OW  HW  HW  OW  HW  HW  
OW  HW  HW  OW  HW  HW  OW  HW  HW  OW  HW  HW  OW  HW  HW  OW  HW  HW  OW  HW  
HW  OW  HW  HW  OW  HW  HW  OW  HW  HW  OW  HW  HW  OW  HW  HW  OW  HW  HW  OW  
HW  HW  OW  HW  HW  OW  HW  HW  OW  HW  HW  OW  HW  HW  OW  HW  HW  OW  HW  HW  
OW  HW  HW  OW  HW  HW  OW  HW  HW  OW  HW  HW  OW  HW  HW  OW  HW  HW  OW  HW  
HW  OW  HW  HW  OW  HW  HW  OW  HW  HW  OW  HW  HW  OW  HW  HW  OW  HW  HW  OW  
HW  HW  OW  HW  HW  OW  HW  HW  OW  HW  HW  OW  HW  HW  OW  HW  HW  OW  HW  HW  
OW  HW  HW  OW  HW  HW  OW  HW  HW  OW  HW  HW  OW  HW  HW  OW  HW  HW  OW  HW  
HW  OW  HW  HW  OW  HW  HW  OW  HW  HW  OW  HW  HW  OW  HW  HW  OW  HW  HW  OW  
HW  HW  OW  HW  HW  OW  HW  HW  OW  HW  HW  OW  HW  HW  OW  HW  HW  OW  HW  HW  
OW  HW  HW  OW  HW  HW  OW  HW  HW  OW  HW  HW  OW  HW  HW  OW  HW  HW  OW  HW  
HW  OW  HW  HW  OW  HW  HW  OW  HW  HW  OW  HW  HW  OW  HW  HW  OW  HW  HW  OW  
HW  HW  OW  HW  HW  OW  HW  HW  OW  HW  HW  OW  HW  HW  OW  HW  HW  OW  HW  HW  
OW  HW  HW  OW  HW  HW  OW  HW  HW  OW  HW  HW  OW  HW  HW  OW  HW  HW  OW  HW  
HW  OW  HW  HW  OW  HW  HW  OW  HW  HW  OW  HW  HW  OW  HW  HW  OW  HW  HW  OW  
HW  HW  OW  HW  HW  OW  HW  HW  OW  HW  HW  OW  HW  HW  OW  HW  HW  OW  HW  HW  
OW  HW  HW  OW  HW  HW  OW  HW  HW  OW  HW  HW  OW  HW  HW  OW  HW  HW  OW  HW  
HW  OW  HW  HW  OW  HW  HW  OW  HW  HW  OW  HW  HW  OW  HW  HW  OW  HW  HW  OW  
HW  HW  OW  HW  HW  OW  HW  HW  OW  HW  HW  OW  HW  HW  OW  HW  HW  OW  HW  HW  
OW  HW  HW  OW  HW  HW  OW  HW  HW  OW  HW  HW  OW  HW  HW  OW  HW  HW  OW  HW  
HW  OW  HW  HW  OW  HW  HW  OW  HW  HW  OW  HW  HW  OW  HW  HW  OW  HW  HW  OW  
HW  HW  OW  HW  HW  OW  HW  HW  OW  HW  HW  OW  HW  HW  OW  HW  HW  OW  HW  HW  
OW  HW  HW  OW  HW  HW  OW  HW  HW  OW  HW  HW  OW  HW  HW  OW  HW  HW  OW  HW  
HW  OW  HW  HW  OW  HW  HW  OW  HW  HW  OW  HW  HW  OW  HW  HW  OW  HW  HW  OW  
HW  HW  OW  HW  HW  OW  HW  HW  OW  HW  HW  OW  HW  HW  OW  HW  HW  OW  HW  HW  
OW  HW  HW  OW  HW  HW  OW  HW  HW  OW  HW  HW  OW  HW  HW  OW  HW  HW  OW  HW  
HW  OW  HW  HW  OW  HW  HW  OW  HW  HW  OW  HW  HW  OW  HW  HW  OW  HW  HW  OW  
HW  HW  OW  HW  HW  OW  HW  HW  OW  HW  HW  OW  HW  HW  OW  HW  HW  OW  HW  HW  
OW  HW  HW  OW  HW  HW  OW  HW  HW  OW  HW  HW  OW  HW  HW  OW  HW  HW  OW  HW  
HW  OW  HW  HW  OW  HW  HW  OW  HW  HW  OW  HW  HW  OW  HW  HW  OW  HW  HW  OW  
HW  HW  OW  HW  HW  OW  HW  HW  OW  HW  HW  OW  HW  HW  OW  HW  HW  OW  HW  HW  
OW  HW  HW  OW  HW  HW  OW  HW  HW  OW  HW  HW  OW  HW  HW  OW  HW  HW  OW  HW  
HW  OW  HW  HW  OW  HW  HW  OW  HW  HW  OW  HW  HW  OW  HW  HW  OW  HW  HW  OW  
HW  HW  OW  HW  HW  OW  HW  HW  OW  HW  HW  OW  HW  HW  OW  HW  HW  OW  HW  HW  
OW  HW  HW  OW  HW  HW  OW  HW  HW  OW  HW  HW  OW  HW  HW  OW  HW  HW  OW  HW  
HW  OW  HW  HW  OW  HW  HW  OW  HW  HW  OW  HW  HW  OW  HW  HW  OW  HW  HW  OW  
HW  HW  OW  HW  HW  OW  HW  HW  OW  HW  HW  OW  HW  HW  OW  HW  HW  OW  HW  HW  
OW  HW  HW  OW  HW  HW  OW  HW  HW  OW  HW  HW  OW  HW  HW  OW  HW  HW  OW  HW  
HW  OW  HW  HW  OW  HW  HW  OW  HW  HW  OW  HW  HW  OW  HW  HW  OW  HW  HW  OW  
HW  HW  OW  HW  HW  OW  HW  HW  OW  HW  HW  OW  HW  HW  OW  HW  HW  OW  HW  HW  
OW  HW  HW  OW  HW  HW  OW  HW  HW  OW  HW  HW  OW  HW  HW  OW  HW  HW  OW  HW  
HW  OW  HW  HW  OW  HW  HW  OW  HW  HW  OW  HW  HW  OW  HW  HW  OW  HW  HW  OW  
HW  HW  OW  HW  HW  OW  HW  HW  OW  HW  HW  OW  HW  HW  OW  HW  HW  OW  HW  HW  
OW  HW  HW  OW  HW  HW  OW  HW  HW  OW  HW  HW  OW  HW  HW  OW  HW  HW  OW  HW  
HW  OW  HW  HW  OW  HW  HW  OW  HW  HW  OW  HW  HW  OW  HW  HW  OW  HW  HW  OW  
HW  HW  OW  HW  HW  OW  HW  HW  OW  HW  HW  OW  HW  HW  OW  HW  HW  OW  HW  HW  
OW  HW  HW  OW  HW  HW  OW  HW  HW  OW  HW  HW  OW  HW  HW  OW  HW  HW  OW  HW  
HW  OW  HW  HW  OW  HW  HW  OW  HW  HW  OW  HW  HW  OW  HW  HW  OW  HW  HW  OW  
HW  HW  OW  HW  HW  OW  HW  HW  OW  HW  HW  OW  HW  HW  OW  HW  HW  OW  HW  HW  
OW  HW  HW  OW  HW  HW  OW  HW  HW  OW  HW  HW  OW  HW  HW  OW  HW  HW  OW  HW  
HW  OW  HW  HW  OW  HW  HW  OW  HW  HW  OW  HW  HW  OW  HW  HW  OW  HW  HW  OW  
HW  HW  OW  HW  HW  OW  HW  HW  OW  HW  HW  OW  HW  HW  OW  HW  HW  OW  HW  HW  
OW  HW  HW  OW  HW  HW  OW  HW  HW  OW  HW  HW  OW  HW  HW  OW  HW  HW  OW  HW  
HW  OW  HW  HW  OW  HW  HW  OW  HW  HW  OW  HW  HW  OW  HW  HW  OW  HW  HW  OW  
HW  HW  OW  HW  HW  OW  HW  HW  OW  HW  HW  OW  HW  HW  OW  HW  HW  OW  HW  HW  
OW  HW  HW  OW  HW  HW  OW  HW  HW  OW  HW  HW  OW  HW  HW  OW  HW  HW  OW  HW  
HW  OW  HW  HW  OW  HW  HW  OW  HW  HW  OW  HW  HW  OW  HW  HW  OW  HW  HW  OW  
HW  HW  OW  HW  HW  OW  HW  HW  OW  HW  HW  OW  HW  HW  OW  HW  HW  OW  HW  HW  
OW  HW  HW  OW  HW  HW  OW  HW  HW  OW  HW  HW  OW  HW  HW  OW  HW  HW  OW  HW  
HW  OW  HW  HW  OW  HW  HW  OW  HW  HW  OW  HW  HW  OW  HW  HW  OW  HW  HW  OW  
HW  HW  OW  HW  HW  OW  HW  HW  OW  HW  HW  OW  HW  HW  OW  HW  HW  OW  HW  HW  
OW  HW  HW  OW  HW  HW  OW  HW  HW  OW  HW  HW  OW  HW  HW  OW  HW  HW  OW  HW  
HW  OW  HW  HW  OW  HW  HW  OW  HW  HW  OW  HW  HW  OW  HW  HW  OW  HW  HW  OW  
HW  HW  OW  HW  HW  OW  HW  HW  OW  HW  HW  OW  HW  HW  OW  HW  HW  OW  HW  HW  
OW  HW  HW  OW  HW  HW  OW  HW  HW  OW  HW  HW  OW  HW  HW  OW  HW  HW  OW  HW  
HW  OW  HW  HW  OW  HW  HW  OW  HW  HW  OW  HW  HW  OW  HW  HW  OW  HW  HW  OW  
HW  HW  OW  HW  HW  OW  HW  HW  OW  HW  HW  OW  HW  HW  OW  HW  HW  OW  HW  HW  
OW  HW  HW  OW  HW  HW  OW  HW  HW  OW  HW  HW  OW  HW  HW  OW  HW  HW  OW  HW  
HW  OW  HW  HW  OW  HW  HW  OW  HW  HW  OW  HW  HW  OW  HW  HW  OW  HW  HW  OW  
HW  HW  OW  HW  HW  OW  HW  HW  OW  HW  HW  OW  HW  HW  OW  HW  HW  OW  HW  HW  
OW  HW  HW  OW  HW  HW  OW  HW  HW  OW  HW  HW  OW  HW  HW  OW  HW  HW  OW  HW  
HW  OW  HW  HW  OW  HW  HW  OW  HW  HW  OW  HW  HW  OW  HW  HW  OW  HW  HW  OW  
HW  HW  OW  HW  HW  OW  HW  HW  OW  HW  HW  OW  HW  HW  OW  HW  HW  OW  HW  HW  
OW  HW  HW  OW  HW  HW  OW  HW  HW  OW  HW  HW  OW  HW  HW  OW  HW  HW  OW  HW  
HW  OW  HW  HW  OW  HW  HW  OW  HW  HW  OW  HW  HW  OW  HW  HW  OW  HW  HW  OW  
HW  HW  OW  HW  HW  OW  HW  HW  OW  HW  HW  OW  HW  HW  OW  HW  HW  OW  HW  HW  
OW  HW  HW  OW  HW  HW  OW  HW  HW  OW  HW  HW  OW  HW  HW  OW  HW  HW  OW  HW  
HW  OW  HW  HW  OW  HW  HW  OW  HW  HW  OW  HW  HW  OW  HW  HW  OW  HW  HW  OW  
HW  HW  OW  HW  HW  OW  HW  HW  OW  HW  HW  OW  HW  HW  OW  HW  HW  OW  HW  HW  
OW  HW  HW  OW  HW  HW  OW  HW  HW  OW  HW  HW  OW  HW  HW  OW  HW  HW  OW  HW  
HW  OW  HW  HW  OW  HW  HW  OW  HW  HW  OW  HW  HW  OW  HW  HW  OW  HW  HW  OW  
HW  HW  OW  HW  HW  OW  HW  HW  OW  HW  HW  OW  HW  HW  OW  HW  HW  OW  HW  HW  
OW  HW  HW  OW  HW  HW  OW  HW  HW  OW  HW  HW  OW  HW  HW  OW  HW  HW  OW  HW  
HW  OW  HW  HW  OW  HW  HW  OW  HW  HW  OW  HW  HW  OW  HW  HW  OW  HW  HW  OW  
HW  HW  OW  HW  HW  OW  HW  HW  OW  HW  HW  OW  HW  HW  OW  HW  HW  OW  HW  HW  
OW  HW  HW  OW  HW  HW  OW  HW  HW  OW  HW  HW  OW  HW  HW  OW  HW  HW  OW  HW  
HW  OW  HW  HW  OW  HW  HW  OW  HW  HW  OW  HW  HW  OW  HW  HW  OW  HW  HW  OW  
HW  HW  OW  HW  HW  OW  HW  HW  OW  HW  HW  OW  HW  HW  OW  HW  HW  OW  HW  HW  
OW  HW  HW  OW  HW  HW  OW  HW  HW  OW  HW  HW  OW  HW  HW  OW  HW  HW  OW  HW  
HW  OW  HW  HW  OW  HW  HW  OW  HW  HW  OW  HW  HW  OW  HW  HW  OW  HW  HW  OW  
HW  HW  OW  HW  HW  OW  HW  HW  OW  HW  HW  OW  HW  HW  OW  HW  HW  OW  HW  HW  
OW  HW  HW  OW  HW  HW  OW  HW  HW  OW  HW  HW  OW  HW  HW  OW  HW  HW  OW  HW  
HW  OW  HW  HW  OW  HW  HW  OW  HW  HW  OW  HW  HW  OW  HW  HW  OW  HW  HW  OW  
HW  HW  OW  HW  HW  OW  HW  HW  OW  HW  HW  OW  HW  HW  OW  HW  HW  OW  HW  HW  
OW  HW  HW  OW  HW  HW  OW  HW  HW  OW  HW  HW  OW  HW  HW  OW  HW  HW  OW  HW  
HW  OW  HW  HW  OW  HW  HW  OW  HW  HW  OW  HW  HW  OW  HW  HW  OW  HW  HW  OW  
HW  HW  OW  HW  HW  OW  HW  HW  OW  HW  HW  OW  HW  HW  OW  HW  HW  OW  HW  HW  
OW  HW  HW  OW  HW  HW  OW  HW  HW  OW  HW  HW  OW  HW  HW  OW  HW  HW  OW  HW  
HW  OW  HW  HW  OW  HW  HW  OW  HW  HW  OW  HW  HW  OW  HW  HW  OW  HW  HW  OW  
HW  HW  OW  HW  HW  OW  HW  HW  OW  HW  HW  OW  HW  HW  OW  HW  HW  OW  HW  HW  
OW  HW  HW  OW  HW  HW  OW  HW  HW  OW  HW  HW  OW  HW  HW  OW  HW  HW  OW  HW  
HW  OW  HW  HW  OW  HW  HW  OW  HW  HW  OW  HW  HW  OW  HW  HW  OW  HW  HW  OW  
HW  HW  OW  HW  HW  OW  HW  HW  OW  HW  HW  OW  HW  HW  OW  HW  HW  OW  HW  HW  
OW  HW  HW  OW  HW  HW  OW  HW  HW  OW  HW  HW  OW  HW  HW  OW  HW  HW  OW  HW  
HW  OW  HW  HW  OW  HW  HW  OW  HW  HW  OW  HW  HW  OW  HW  HW  OW  HW  HW  OW  
HW  HW  OW  HW  HW  OW  HW  HW  OW  HW  HW  OW  HW  HW  OW  HW  HW  OW  HW  HW  
OW  HW  HW  OW  HW  HW  OW  HW  HW  OW  HW  HW  OW  HW  HW  OW  HW  HW  OW  HW  
HW  OW  HW  HW  OW  HW  HW  OW  HW  HW  OW  HW  HW  OW  HW  HW  OW  HW  HW  OW  
HW  HW  OW  HW  HW  OW  HW  HW  OW  HW  HW  OW  HW  HW  OW  HW  HW  OW  HW  HW  
OW  HW  HW  OW  HW  HW  OW  HW  HW  OW  HW  HW  OW  HW  HW  OW  HW  HW  OW  HW  
HW  OW  HW  HW  OW  HW  HW  OW  HW  HW  OW  HW  HW  OW  HW  HW  OW  HW  HW  OW  
HW  HW  OW  HW  HW  OW  HW  HW  OW  HW  HW  OW  HW  HW  OW  HW  HW  OW  HW  HW  
OW  HW  HW  OW  HW  HW  OW  HW  HW  OW  HW  HW  OW  HW  HW  OW  HW  HW  OW  HW  
HW  OW  HW  HW  OW  HW  HW  OW  HW  HW  OW  HW  HW  OW  HW  HW  OW  HW  HW  OW  
HW  HW  OW  HW  HW  OW  HW  HW  OW  HW  HW  OW  HW  HW  OW  HW  HW  OW  HW  HW  
OW  HW  HW  OW  HW  HW  OW  HW  HW  OW  HW  HW  OW  HW  HW  OW  HW  HW  OW  HW  
HW  OW  HW  HW  OW  HW  HW  OW  HW  HW  OW  HW  HW  OW  HW  HW  OW  HW  HW  OW  
HW  HW  OW  HW  HW  OW  HW  HW  OW  HW  HW  OW  HW  HW  OW  HW  HW  OW  HW  HW  
OW  HW  HW  OW  HW  HW  OW  HW  HW  OW  HW  HW  OW  HW  HW  OW  HW  HW  OW  HW  
HW  OW  HW  HW  OW  HW  HW  OW  HW  HW  OW  HW  HW  OW  HW  HW  OW  HW  HW  OW  
HW  HW  OW  HW  HW  OW  HW  HW  OW  HW  HW  OW  HW  HW  OW  HW  HW  OW  HW  HW  
OW  HW  HW  OW  HW  HW  OW  HW  HW  OW  HW  HW  OW  HW  HW  OW  HW  HW  OW  HW  
HW  OW  HW  HW  OW  HW  HW  OW  HW  HW  OW  HW  HW  OW  HW  HW  OW  HW  HW  OW  
HW  HW  OW  HW  HW  OW  HW  HW  OW  HW  HW  OW  HW  HW  OW  HW  HW  OW  HW  HW  
OW  HW  HW  OW  HW  HW  OW  HW  HW  OW  HW  HW  OW  HW  HW  OW  HW  HW  OW  HW  
HW  OW  HW  HW  OW  HW  HW  OW  HW  HW  OW  HW  HW  OW  HW  HW  OW  HW  HW  OW  
HW  HW  OW  HW  HW  OW  HW  HW  OW  HW  HW  OW  HW  HW  OW  HW  HW  OW  HW  HW  
OW  HW  HW  OW  HW  HW  OW  HW  HW  OW  HW  HW  OW  HW  HW  OW  HW  HW  OW  HW  
HW  OW  HW  HW  OW  HW  HW  OW  HW  HW  OW  HW  HW  OW  HW  HW  OW  HW  HW  OW  
HW  HW  OW  HW  HW  OW  HW  HW  OW  HW  HW  OW  HW  HW  OW  HW  HW  OW  HW  HW  
OW  HW  HW  OW  HW  HW  OW  HW  HW  OW  HW  HW  OW  HW  HW  OW  HW  HW  OW  HW  
HW  OW  HW  HW  OW  HW  HW  OW  HW  HW  OW  HW  HW  OW  HW  HW  OW  HW  HW  OW  
HW  HW  OW  HW  HW  OW  HW  HW  OW  HW  HW  OW  HW  HW  OW  HW  HW  OW  HW  HW  
OW  HW  HW  OW  HW  HW  OW  HW  HW  OW  HW  HW  OW  HW  HW  OW  HW  HW  OW  HW  
HW  OW  HW  HW  OW  HW  HW  OW  HW  HW  OW  HW  HW  OW  HW  HW  OW  HW  HW  OW  
HW  HW  OW  HW  HW  OW  HW  HW  OW  HW  HW  OW  HW  HW  OW  HW  HW  OW  HW  HW  
OW  HW  HW  OW  HW  HW  OW  HW  HW  OW  HW  HW  OW  HW  HW  OW  HW  HW  OW  HW  
HW  OW  HW  HW  OW  HW  HW  OW  HW  HW  OW  HW  HW  OW  HW  HW  OW  HW  HW  OW  
HW  HW  OW  HW  HW  OW  HW  HW  OW  HW  HW  OW  HW  HW  OW  HW  HW  OW  HW  HW  
OW  HW  HW  OW  HW  HW  OW  HW  HW  OW  HW  HW  OW  HW  HW  OW  HW  HW  OW  HW  
HW  OW  HW  HW  OW  HW  HW  OW  HW  HW  OW  HW  HW  OW  HW  HW  OW  HW  HW  OW  
HW  HW  OW  HW  HW  OW  HW  HW  OW  HW  HW  OW  HW  HW  OW  HW  HW  OW  HW  HW  
OW  HW  HW  OW  HW  HW  OW  HW  HW  OW  HW  HW  OW  HW  HW  OW  HW  HW  OW  HW  
HW  OW  HW  HW  OW  HW  HW  OW  HW  HW  OW  HW  HW  OW  HW  HW  OW  HW  HW  OW  
HW  HW  OW  HW  HW  OW  HW  HW  OW  HW  HW  OW  HW  HW  OW  HW  HW  OW  HW  HW  
OW  HW  HW  OW  HW  HW  OW  HW  HW  OW  HW  HW  OW  HW  HW  OW  HW  HW  OW  HW  
HW  OW  HW  HW  OW  HW  HW  OW  HW  HW  OW  HW  HW  OW  HW  HW  OW  HW  HW  OW  
HW  HW  OW  HW  HW  OW  HW  HW  OW  HW  HW  OW  HW  HW  OW  HW  HW  OW  HW  HW  
OW  HW  HW  OW  HW  HW  OW  HW  HW  OW  HW  HW  OW  HW  HW  OW  HW  HW  OW  HW  
HW  OW  HW  HW  OW  HW  HW  OW  HW  HW  OW  HW  HW  OW  HW  HW  OW  HW  HW  OW  
HW  HW  OW  HW  HW  OW  HW  HW  OW  HW  HW  OW  HW  HW  OW  HW  HW  OW  HW  HW  
OW  HW  HW  OW  HW  HW  OW  HW  HW  OW  HW  HW  OW  HW  HW  OW  HW  HW  OW  HW  
HW  OW  HW  HW  OW  HW  HW  OW  HW  HW  OW  HW  HW  OW  HW  HW  OW  HW  HW  OW  
HW  HW  OW  HW  HW  OW  HW  HW  OW  HW  HW  OW  HW  HW  OW  HW  HW  OW  HW  HW  
OW  HW  HW  OW  HW  HW  OW  HW  HW  OW  HW  HW  OW  HW  HW  OW  HW  HW  OW  HW  
HW  OW  HW  HW  OW  HW  HW  OW  HW  HW  OW  HW  HW  OW  HW  HW  OW  HW  HW  OW  
HW  HW  OW  HW  HW  OW  HW  HW  OW  HW  HW  OW  HW  HW  OW  HW  HW  OW  HW  HW  
OW  HW  HW  OW  HW  HW  OW  HW  HW  OW  HW  HW  OW  HW  HW  OW  HW  HW  OW  HW  
HW  OW  HW  HW  OW  HW  HW  OW  HW  HW  OW  HW  HW  OW  HW  HW  OW  HW  HW  OW  
HW  HW  OW  HW  HW  OW  HW  HW  OW  HW  HW  OW  HW  HW  OW  HW  HW  OW  HW  HW  
OW  HW  HW  OW  HW  HW  OW  HW  HW  OW  HW  HW  OW  HW  HW  OW  HW  HW  OW  HW  
HW  OW  HW  HW  OW  HW  HW  OW  HW  HW  OW  HW  HW  OW  HW  HW  OW  HW  HW  OW  
HW  HW  OW  HW  HW  OW  HW  HW  OW  HW  HW  OW  HW  HW  OW  HW  HW  OW  HW  HW  
OW  HW  HW  OW  HW  HW  OW  HW  HW  OW  HW  HW  OW  HW  HW  OW  HW  HW  OW  HW  
HW  OW  HW  HW  OW  HW  HW  OW  HW  HW  OW  HW  HW  OW  HW  HW  OW  HW  HW  OW  
HW  HW  OW  HW  HW  OW  HW  HW  OW  HW  HW  OW  HW  HW  OW  HW  HW  OW  HW  HW  
OW  HW  HW  OW  HW  HW  OW  HW  HW  OW  HW  HW  OW  HW  HW  OW  HW  HW  OW  HW  
HW  OW  HW  HW  OW  HW  HW  OW  HW  HW  OW  HW  HW  OW  HW  HW  OW  HW  HW  OW  
HW  HW  OW  HW  HW  OW  HW  HW  OW  HW  HW  OW  HW  HW  OW  HW  HW  OW  HW  HW  
OW  HW  HW  OW  HW  HW  OW  HW  HW  OW  HW  HW  OW  HW  HW  OW  HW  HW  OW  HW  
HW  OW  HW  HW  OW  HW  HW  OW  HW  HW  OW  HW  HW  OW  HW  HW  OW  HW  HW  OW  
HW  HW  OW  HW  HW  OW  HW  HW  OW  HW  HW  OW  HW  HW  OW  HW  HW  OW  HW  HW  
OW  HW  HW  OW  HW  HW  OW  HW  HW  OW  HW  HW  OW  HW  HW  OW  HW  HW  OW  HW  
HW  OW  HW  HW  OW  HW  HW  OW  HW  HW  OW  HW  HW  OW  HW  HW  OW  HW  HW  OW  
HW  HW  OW  HW  HW  OW  HW  HW  OW  HW  HW  OW  HW  HW  OW  HW  HW  OW  HW  HW  
OW  HW  HW  OW  HW  HW  OW  HW  HW  OW  HW  HW  OW  HW  HW  OW  HW  HW  OW  HW  
HW  OW  HW  HW  OW  HW  HW  OW  HW  HW  OW  HW  HW  OW  HW  HW  OW  HW  HW  OW  
HW  HW  OW  HW  HW  OW  HW  HW  OW  HW  HW  OW  HW  HW  OW  HW  HW  OW  HW  HW  
OW  HW  HW  OW  HW  HW  OW  HW  HW  OW  HW  HW  OW  HW  HW  OW  HW  HW  OW  HW  
HW  OW  HW  HW  OW  HW  HW  OW  HW  HW  OW  HW  HW  OW  HW  HW  OW  HW  HW  OW  
HW  HW  OW  HW  HW  OW  HW  HW  OW  HW  HW  OW  HW  HW  OW  HW  HW  OW  HW  HW  
OW  HW  HW  OW  HW  HW  OW  HW  HW  OW  HW  HW  OW  HW  HW  OW  HW  HW  OW  HW  
HW  OW  HW  HW  OW  HW  HW  OW  HW  HW  OW  HW  HW  OW  HW  HW  OW  HW  HW  OW  
HW  HW  OW  HW  HW  OW  HW  HW  OW  HW  HW  OW  HW  HW  OW  HW  HW  OW  HW  HW  
OW  HW  HW  OW  HW  HW  OW  HW  HW  OW  HW  HW  OW  HW  HW  OW  HW  HW  OW  HW  
HW  OW  HW  HW  OW  HW  HW  OW  HW  HW  OW  HW  HW  OW  HW  HW  OW  HW  HW  OW  
HW  HW  OW  HW  HW  OW  HW  HW  OW  HW  HW  OW  HW  HW  OW  HW  HW  OW  HW  HW  
OW  HW  HW  OW  HW  HW  OW  HW  HW  OW  HW  HW  OW  HW  HW  OW  HW  HW  OW  HW  
HW  OW  HW  HW  OW  HW  HW  OW  HW  HW  OW  HW  HW  OW  HW  HW  OW  HW  HW  OW  
HW  HW  OW  HW  HW  OW  HW  HW  OW  HW  HW  OW  HW  HW  OW  HW  HW  OW  HW  HW  
OW  HW  HW  OW  HW  HW  OW  HW  HW  OW  HW  HW  OW  HW  HW  OW  HW  HW  OW  HW  
HW  OW  HW  HW  OW  HW  HW  OW  HW  HW  OW  HW  HW  OW  HW  HW  OW  HW  HW  OW  
HW  HW  OW  HW  HW  OW  HW  HW  OW  HW  HW  OW  HW  HW  OW  HW  HW  OW  HW  HW  
OW  HW  HW  OW  HW  HW  OW  HW  HW  OW  HW  HW  OW  HW  HW  OW  HW  HW  OW  HW  
HW  OW  HW  HW  OW  HW  HW  OW  HW  HW  OW  HW  HW  OW  HW  HW  OW  HW  HW  OW  
HW  HW  OW  HW  HW  OW  HW  HW  OW  HW  HW  OW  HW  HW  OW  HW  HW  OW  HW  HW  
OW  HW  HW  OW  HW  HW  OW  HW  HW  OW  HW  HW  OW  HW  HW  OW  HW  HW  OW  HW  
HW  OW  HW  HW  OW  HW  HW  OW  HW  HW  OW  HW  HW  OW  HW  HW  OW  HW  HW  OW  
HW  HW  OW  HW  HW  OW  HW  HW  OW  HW  HW  OW  HW  HW  OW  HW  HW  OW  HW  HW  
OW  HW  HW  OW  HW  HW  OW  HW  HW  OW  HW  HW  OW  HW  HW  OW  HW  HW  OW  HW  
HW  OW  HW  HW  OW  HW  HW  OW  HW  HW  OW  HW  HW  OW  HW  HW  OW  HW  HW  OW  
HW  HW  OW  HW  HW  OW  HW  HW  OW  HW  HW  OW  HW  HW  OW  HW  HW  OW  HW  HW  
OW  HW  HW  OW  HW  HW  OW  HW  HW  OW  HW  HW  OW  HW  HW  OW  HW  HW  OW  HW  
HW  OW  HW  HW  OW  HW  HW  OW  HW  HW  OW  HW  HW  OW  HW  HW  OW  HW  HW  OW  
HW  HW  OW  HW  HW  OW  HW  HW  OW  HW  HW  OW  HW  HW  OW  HW  HW  OW  HW  HW  
OW  HW  HW  OW  HW  HW  OW  HW  HW  OW  HW  HW  OW  HW  HW  OW  HW  HW  OW  HW  
HW  OW  HW  HW  OW  HW  HW  OW  HW  HW  OW  HW  HW  OW  HW  HW  OW  HW  HW  OW  
HW  HW  OW  HW  HW  OW  HW  HW  OW  HW  HW  OW  HW  HW  OW  HW  HW  OW  HW  HW  
OW  HW  HW  OW  HW  HW  OW  HW  HW  OW  HW  HW  OW  HW  HW  OW  HW  HW  OW  HW  
HW  OW  HW  HW  OW  HW  HW  OW  HW  HW  OW  HW  HW  OW  HW  HW  OW  HW  HW  OW  
HW  HW  OW  HW  HW  OW  HW  HW  OW  HW  HW  OW  HW  HW  OW  HW  HW  OW  HW  HW  
OW  HW  HW  OW  HW  HW  OW  HW  HW  OW  HW  HW  OW  HW  HW  OW  HW  HW  OW  HW  
HW  OW  HW  HW  OW  HW  HW  OW  HW  HW  OW  HW  HW  OW  HW  HW  OW  HW  HW  OW  
HW  HW  OW  HW  HW  OW  HW  HW  OW  HW  HW  OW  HW  HW  OW  HW  HW  OW  HW  HW  
OW  HW  HW  OW  HW  HW  OW  HW  HW  OW  HW  HW  OW  HW  HW  OW  HW  HW  OW  HW  
HW  OW  HW  HW  OW  HW  HW  OW  HW  HW  OW  HW  HW  OW  HW  HW  OW  HW  HW  OW  
HW  HW  OW  HW  HW  OW  HW  HW  OW  HW  HW  OW  HW  HW  OW  HW  HW  OW  HW  HW  
OW  HW  HW  OW  HW  HW  OW  HW  HW  OW  HW  HW  OW  HW  HW  OW  HW  HW  OW  HW  
HW  OW  HW  HW  OW  HW  HW  OW  HW  HW  OW  HW  HW  OW  HW  HW  OW  HW  HW  OW  
HW  HW  OW  HW  HW  OW  HW  HW  OW  HW  HW  OW  HW  HW  OW  HW  HW  OW  HW  HW  
OW  HW  HW  OW  HW  HW  OW  HW  HW  OW  HW  HW  OW  HW  HW  OW  HW  HW  OW  HW  
HW  OW  HW  HW  OW  HW  HW  OW  HW  HW  OW  HW  HW  OW  HW  HW  OW  HW  HW  OW  
HW  HW  OW  HW  HW  OW  HW  HW  OW  HW  HW  OW  HW  HW  OW  HW  HW  OW  HW  HW  
OW  HW  HW  OW  HW  HW  OW  HW  HW  OW  HW  HW  OW  HW  HW  OW  HW  HW  OW  HW  
HW  OW  HW  HW  OW  HW  HW  OW  HW  HW  OW  HW  HW  OW  HW  HW  OW  HW  HW  OW  
HW  HW  OW  HW  HW  OW  HW  HW  OW  HW  HW  OW  HW  HW  OW  HW  HW  OW  HW  HW  
OW  HW  HW  OW  HW  HW  OW  HW  HW  OW  HW  HW  OW  HW  HW  OW  HW  HW  OW  HW  
HW  OW  HW  HW  OW  HW  HW  OW  HW  HW  OW  HW  HW  OW  HW  HW  OW  HW  HW  OW  
HW  HW  OW  HW  HW  OW  HW  HW  OW  HW  HW  OW  HW  HW  OW  HW  HW  OW  HW  HW  
OW  HW  HW  OW  HW  HW  OW  HW  HW  OW  HW  HW  OW  HW  HW  OW  HW  HW  OW  HW  
HW  OW  HW  HW  OW  HW  HW  OW  HW  HW  OW  HW  HW  OW  HW  HW  OW  HW  HW  OW  
HW  HW  OW  HW  HW  OW  HW  HW  OW  HW  HW  OW  HW  HW  OW  HW  HW  OW  HW  HW  
OW  HW  HW  OW  HW  HW  OW  HW  HW  OW  HW  HW  OW  HW  HW  OW  HW  HW  OW  HW  
HW  OW  HW  HW  OW  HW  HW  OW  HW  HW  OW  HW  HW  OW  HW  HW  OW  HW  HW  OW  
HW  HW  OW  HW  HW  OW  HW  HW  OW  HW  HW  OW  HW  HW  OW  HW  HW  OW  HW  HW  
OW  HW  HW  OW  HW  HW  OW  HW  HW  OW  HW  HW  OW  HW  HW  OW  HW  HW  OW  HW  
HW  OW  HW  HW  OW  HW  HW  OW  HW  HW  OW  HW  HW  OW  HW  HW  OW  HW  HW  OW  
HW  HW  OW  HW  HW  OW  HW  HW  OW  HW  HW  OW  HW  HW  OW  HW  HW  OW  HW  HW  
OW  HW  HW  OW  HW  HW  OW  HW  HW  OW  HW  HW  OW  HW  HW  OW  HW  HW  OW  HW  
HW  OW  HW  HW  OW  HW  HW  OW  HW  HW  OW  HW  HW  OW  HW  HW  OW  HW  HW  OW  
HW  HW  OW  HW  HW  OW  HW  HW  OW  HW  HW  OW  HW  HW  OW  HW  HW  OW  HW  HW  
OW  HW  HW  OW  HW  HW  OW  HW  HW  OW  HW  HW  OW  HW  HW  OW  HW  HW  OW  HW  
HW  OW  HW  HW  OW  HW  HW  OW  HW  HW  OW  HW  HW  OW  HW  HW  OW  HW  HW  OW  
HW  HW  OW  HW  HW  OW  HW  HW  OW  HW  HW  OW  HW  HW  OW  HW  HW  OW  HW  HW  
OW  HW  HW  OW  HW  HW  OW  HW  HW  OW  HW  HW  OW  HW  HW  OW  HW  HW  OW  HW  
HW  OW  HW  HW  OW  HW  HW  OW  HW  HW  OW  HW  HW  OW  HW  HW  OW  HW  HW  OW  
HW  HW  OW  HW  HW  OW  HW  HW  OW  HW  HW  OW  HW  HW  OW  HW  HW  OW  HW  HW  
OW  HW  HW  OW  HW  HW  OW  HW  HW  OW  HW  HW  OW  HW  HW  OW  HW  HW  OW  HW  
HW  OW  HW  HW  OW  HW  HW  OW  HW  HW  OW  HW  HW  OW  HW  HW  OW  HW  HW  OW  
HW  HW  OW  HW  HW  OW  HW  HW  OW  HW  HW  OW  HW  HW  OW  HW  HW  OW  HW  HW  
OW  HW  HW  OW  HW  HW  OW  HW  HW  OW  HW  HW  OW  HW  HW  OW  HW  HW  OW  HW  
HW  OW  HW  HW  OW  HW  HW  OW  HW  HW  OW  HW  HW  OW  HW  HW  OW  HW  HW  OW  
HW  HW  OW  HW  HW  OW  HW  HW  OW  HW  HW  OW  HW  HW  OW  HW  HW  OW  HW  HW  
OW  HW  HW  OW  HW  HW  OW  HW  HW  OW  HW  HW  OW  HW  HW  OW  HW  HW  OW  HW  
HW  OW  HW  HW  OW  HW  HW  OW  HW  HW  OW  HW  HW  OW  HW  HW  OW  HW  HW  OW  
HW  HW  OW  HW  HW  OW  HW  HW  OW  HW  HW  OW  HW  HW  OW  HW  HW  OW  HW  HW  
OW  HW  HW  OW  HW  HW  OW  HW  HW  OW  HW  HW  OW  HW  HW  OW  HW  HW  OW  HW  
HW  OW  HW  HW  OW  HW  HW  OW  HW  HW  OW  HW  HW  OW  HW  HW  OW  HW  HW  OW  
HW  HW  OW  HW  HW  OW  HW  HW  OW  HW  HW  OW  HW  HW  OW  HW  HW  OW  HW  HW  
OW  HW  HW  OW  HW  HW  OW  HW  HW  OW  HW  HW  OW  HW  HW  OW  HW  HW  OW  HW  
HW  OW  HW  HW  OW  HW  HW  OW  HW  HW  OW  HW  HW  OW  HW  HW  OW  HW  HW  OW  
HW  HW  OW  HW  HW  OW  HW  HW  OW  HW  HW  OW  HW  HW  OW  HW  HW  OW  HW  HW  
OW  HW  HW  OW  HW  HW  OW  HW  HW  OW  HW  HW  OW  HW  HW  OW  HW  HW  OW  HW  
HW  OW  HW  HW  OW  HW  HW  OW  HW  HW  OW  HW  HW  OW  HW  HW  OW  HW  HW  OW  
HW  HW  OW  HW  HW  OW  HW  HW  OW  HW  HW  OW  HW  HW  OW  HW  HW  OW  HW  HW  
OW  HW  HW  OW  HW  HW  OW  HW  HW  OW  HW  HW  OW  HW  HW  OW  HW  HW  OW  HW  
HW  OW  HW  HW  OW  HW  HW  OW  HW  HW  OW  HW  HW  OW  HW  HW  OW  HW  HW  OW  
HW  HW  OW  HW  HW  OW  HW  HW  OW  HW  HW  OW  HW  HW  OW  HW  HW  OW  HW  HW  
OW  HW  HW  OW  HW  HW  OW  HW  HW  OW  HW  HW  OW  HW  HW  OW  HW  HW  OW  HW  
HW  OW  HW  HW  OW  HW  HW  OW  HW  HW  OW  HW  HW  OW  HW  HW  OW  HW  HW  OW  
HW  HW  OW  HW  HW  OW  HW  HW  OW  HW  HW  OW  HW  HW  OW  HW  HW  OW  HW  HW  
OW  HW  HW  OW  HW  HW  OW  HW  HW  OW  HW  HW  OW  HW  HW  OW  HW  HW  OW  HW  
HW  OW  HW  HW  OW  HW  HW  OW  HW  HW  OW  HW  HW  OW  HW  HW  OW  HW  HW  OW  
HW  HW  OW  HW  HW  OW  HW  HW  OW  HW  HW  OW  HW  HW  OW  HW  HW  OW  HW  HW  
OW  HW  HW  OW  HW  HW  OW  HW  HW  OW  HW  HW  OW  HW  HW  OW  HW  HW  OW  HW  
HW  OW  HW  HW  OW  HW  HW  OW  HW  HW  OW  HW  HW  OW  HW  HW  OW  HW  HW  OW  
HW  HW  OW  HW  HW  OW  HW  HW  OW  HW  HW  OW  HW  HW  OW  HW  HW  OW  HW  HW  
OW  HW  HW  OW  HW  HW  OW  HW  HW  OW  HW  HW  OW  HW  HW  OW  HW  HW  OW  HW  
HW  OW  HW  HW  OW  HW  HW  OW  HW  HW  OW  HW  HW  OW  HW  HW  OW  HW  HW  OW  
HW  HW  OW  HW  HW  OW  HW  HW  OW  HW  HW  OW  HW  HW  OW  HW  HW  OW  HW  HW  
OW  HW  HW  OW  HW  HW  OW  HW  HW  OW  HW  HW  OW  HW  HW  OW  HW  HW  OW  HW  
HW  OW  HW  HW  OW  HW  HW  OW  HW  HW  OW  HW  HW  OW  HW  HW  OW  HW  HW  OW  
HW  HW  OW  HW  HW  OW  HW  HW  OW  HW  HW  OW  HW  HW  OW  HW  HW  OW  HW  HW  
OW  HW  HW  OW  HW  HW  OW  HW  HW  OW  HW  HW  OW  HW  HW  OW  HW  HW  OW  HW  
HW  OW  HW  HW  OW  HW  HW  OW  HW  HW  OW  HW  HW  OW  HW  HW  OW  HW  HW  OW  
HW  HW  OW  HW  HW  OW  HW  HW  OW  HW  HW  OW  HW  HW  OW  HW  HW  OW  HW  HW  
OW  HW  HW  OW  HW  HW  OW  HW  HW  OW  HW  HW  OW  HW  HW  OW  HW  HW  OW  HW  
HW  OW  HW  HW  OW  HW  HW  OW  HW  HW  OW  HW  HW  OW  HW  HW  OW  HW  HW  OW  
HW  HW  OW  HW  HW  OW  HW  HW  OW  HW  HW  OW  HW  HW  OW  HW  HW  OW  HW  HW  
OW  HW  HW  OW  HW  HW  OW  HW  HW  OW  HW  HW  OW  HW  HW  OW  HW  HW  OW  HW  
HW  OW  HW  HW  OW  HW  HW  OW  HW  HW  OW  HW  HW  OW  HW  HW  OW  HW  HW  OW  
HW  HW  OW  HW  HW  OW  HW  HW  OW  HW  HW  OW  HW  HW  OW  HW  HW  OW  HW  HW  
OW  HW  HW  OW  HW  HW  OW  HW  HW  OW  HW  HW  OW  HW  HW  OW  HW  HW  OW  HW  
HW  OW  HW  HW  OW  HW  HW  OW  HW  HW  OW  HW  HW  OW  HW  HW  OW  HW  HW  OW  
HW  HW  OW  HW  HW  OW  HW  HW  OW  HW  HW  OW  HW  HW  OW  HW  HW  OW  HW  HW  
OW  HW  HW  OW  HW  HW  OW  HW  HW  OW  HW  HW  OW  HW  HW  OW  HW  HW  OW  HW  
HW  OW  HW  HW  OW  HW  HW  OW  HW  HW  OW  HW  HW  OW  HW  HW  OW  HW  HW  OW  
HW  HW  OW  HW  HW  OW  HW  HW  OW  HW  HW  OW  HW  HW  OW  HW  HW  OW  HW  HW  
OW  HW  HW  OW  HW  HW  OW  HW  HW  OW  HW  HW  OW  HW  HW  OW  HW  HW  OW  HW  
HW  OW  HW  HW  OW  HW  HW  OW  HW  HW  OW  HW  HW  OW  HW  HW  OW  HW  HW  OW  
HW  HW  OW  HW  HW  OW  HW  HW  OW  HW  HW  OW  HW  HW  OW  HW  HW  OW  HW  HW  
OW  HW  HW  OW  HW  HW  OW  HW  HW  OW  HW  HW  OW  HW  HW  OW  HW  HW  OW  HW  
HW  OW  HW  HW  OW  HW  HW  OW  HW  HW  OW  HW  HW  OW  HW  HW  OW  HW  HW  OW  
HW  HW  OW  HW  HW  OW  HW  HW  OW  HW  HW  OW  HW  HW  OW  HW  HW  OW  HW  HW  
OW  HW  HW  OW  HW  HW  OW  HW  HW  OW  HW  HW  OW  HW  HW  OW  HW  HW  OW  HW  
HW  OW  HW  HW  OW  HW  HW  OW  HW  HW  OW  HW  HW  OW  HW  HW  OW  HW  HW  OW  
HW  HW  OW  HW  HW  OW  HW  HW  OW  HW  HW  OW  HW  HW  OW  HW  HW  OW  HW  HW  
OW  HW  HW  OW  HW  HW  OW  HW  HW  OW  HW  HW  OW  HW  HW  OW  HW  HW  OW  HW  
HW  OW  HW  HW  OW  HW  HW  OW  HW  HW  OW  HW  HW  OW  HW  HW  OW  HW  HW  OW  
HW  HW  OW  HW  HW  OW  HW  HW  OW  HW  HW  OW  HW  HW  OW  HW  HW  OW  HW  HW  
OW  HW  HW  OW  HW  HW  OW  HW  HW  OW  HW  HW  OW  HW  HW  OW  HW  HW  OW  HW  
HW  OW  HW  HW  OW  HW  HW  OW  HW  HW  OW  HW  HW  OW  HW  HW  OW  HW  HW  OW  
HW  HW  OW  HW  HW  OW  HW  HW  OW  HW  HW  OW  HW  HW  OW  HW  HW  OW  HW  HW  
OW  HW  HW  OW  HW  HW  OW  HW  HW  OW  HW  HW  OW  HW  HW  OW  HW  HW  OW  HW  
HW  OW  HW  HW  OW  HW  HW  OW  HW  HW  OW  HW  HW  OW  HW  HW  OW  HW  HW  OW  
HW  HW  OW  HW  HW  OW  HW  HW  OW  HW  HW  OW  HW  HW  OW  HW  HW  OW  HW  HW  
OW  HW  HW  OW  HW  HW  OW  HW  HW  OW  HW  HW  OW  HW  HW  OW  HW  HW  OW  HW  
HW  OW  HW  HW  OW  HW  HW  OW  HW  HW  OW  HW  HW  OW  HW  HW  OW  HW  HW  OW  
HW  HW  OW  HW  HW  OW  HW  HW  OW  HW  HW  OW  HW  HW  OW  HW  HW  OW  HW  HW  
OW  HW  HW  OW  HW  HW  OW  HW  HW  OW  HW  HW  OW  HW  HW  OW  HW  HW  OW  HW  
HW  OW  HW  HW  OW  HW  HW  OW  HW  HW  OW  HW  HW  OW  HW  HW  OW  HW  HW  OW  
HW  HW  OW  HW  HW  OW  HW  HW  OW  HW  HW  OW  HW  HW  OW  HW  HW  OW  HW  HW  
OW  HW  HW  OW  HW  HW  OW  HW  HW  OW  HW  HW  OW  HW  HW  OW  HW  HW  OW  HW  
HW  OW  HW  HW  OW  HW  HW  OW  HW  HW  OW  HW  HW  OW  HW  HW  OW  HW  HW  OW  
HW  HW  OW  HW  HW  OW  HW  HW  OW  HW  HW  OW  HW  HW  OW  HW  HW  OW  HW  HW  
OW  HW  HW  OW  HW  HW  OW  HW  HW  OW  HW  HW  OW  HW  HW  OW  HW  HW  OW  HW  
HW  OW  HW  HW  OW  HW  HW  OW  HW  HW  OW  HW  HW  OW  HW  HW  OW  HW  HW  OW  
HW  HW  OW  HW  HW  OW  HW  HW  OW  HW  HW  OW  HW  HW  OW  HW  HW  OW  HW  HW  
OW  HW  HW  OW  HW  HW  OW  HW  HW  OW  HW  HW  OW  HW  HW  OW  HW  HW  OW  HW  
HW  OW  HW  HW  OW  HW  HW  OW  HW  HW  OW  HW  HW  OW  HW  HW  OW  HW  HW  OW  
HW  HW  OW  HW  HW  OW  HW  HW  OW  HW  HW  OW  HW  HW  OW  HW  HW  OW  HW  HW  
OW  HW  HW  OW  HW  HW  OW  HW  HW  OW  HW  HW  OW  HW  HW  OW  HW  HW  OW  HW  
HW  OW  HW  HW  OW  HW  HW  OW  HW  HW  OW  HW  HW  OW  HW  HW  OW  HW  HW  OW  
HW  HW  OW  HW  HW  OW  HW  HW  OW  HW  HW  OW  HW  HW  OW  HW  HW  OW  HW  HW  
OW  HW  HW  OW  HW  HW  OW  HW  HW  OW  HW  HW  OW  HW  HW  OW  HW  HW  OW  HW  
HW  OW  HW  HW  OW  HW  HW  OW  HW  HW  OW  HW  HW  OW  HW  HW  OW  HW  HW  OW  
HW  HW  OW  HW  HW  OW  HW  HW  OW  HW  HW  OW  HW  HW  OW  HW  HW  OW  HW  HW  
OW  HW  HW  OW  HW  HW  OW  HW  HW  OW  HW  HW  OW  HW  HW  OW  HW  HW  OW  HW  
HW  OW  HW  HW  OW  HW  HW  OW  HW  HW  OW  HW  HW  OW  HW  HW  OW  HW  HW  OW  
HW  HW  OW  HW  HW  OW  HW  HW  OW  HW  HW  OW  HW  HW  OW  HW  HW  OW  HW  HW  
OW  HW  HW  OW  HW  HW  OW  HW  HW  OW  HW  HW  OW  HW  HW  OW  HW  HW  OW  HW  
HW  OW  HW  HW  OW  HW  HW  OW  HW  HW  OW  HW  HW  OW  HW  HW  OW  HW  HW  OW  
HW  HW  OW  HW  HW  OW  HW  HW  OW  HW  HW  OW  HW  HW  OW  HW  HW  OW  HW  HW  
OW  HW  HW  OW  HW  HW  OW  HW  HW  OW  HW  HW  OW  HW  HW  OW  HW  HW  OW  HW  
HW  OW  HW  HW  OW  HW  HW  OW  HW  HW  OW  HW  HW  OW  HW  HW  OW  HW  HW  OW  
HW  HW  OW  HW  HW  OW  HW  HW  OW  HW  HW  OW  HW  HW  OW  HW  HW  OW  HW  HW  
OW  HW  HW  OW  HW  HW  OW  HW  HW  OW  HW  HW  OW  HW  HW  OW  HW  HW  OW  HW  
HW  OW  HW  HW  OW  HW  HW  OW  HW  HW  OW  HW  HW  OW  HW  HW  OW  HW  HW  OW  
HW  HW  OW  HW  HW  OW  HW  HW  OW  HW  HW  OW  HW  HW  OW  HW  HW  OW  HW  HW  
OW  HW  HW  OW  HW  HW  OW  HW  HW  OW  HW  HW  OW  HW  HW  OW  HW  HW  OW  HW  
HW  OW  HW  HW  OW  HW  HW  OW  HW  HW  OW  HW  HW  OW  HW  HW  OW  HW  HW  OW  
HW  HW  OW  HW  HW  OW  HW  HW  OW  HW  HW  OW  HW  HW  OW  HW  HW  OW  HW  HW  
OW  HW  HW  OW  HW  HW  OW  HW  HW  OW  HW  HW  OW  HW  HW  OW  HW  HW  OW  HW  
HW  OW  HW  HW  OW  HW  HW  OW  HW  HW  OW  HW  HW  OW  HW  HW  OW  HW  HW  OW  
HW  HW  OW  HW  HW  OW  HW  HW  OW  HW  HW  OW  HW  HW  OW  HW  HW  OW  HW  HW  
OW  HW  HW  OW  HW  HW  OW  HW  HW  OW  HW  HW  OW  HW  HW  OW  HW  HW  OW  HW  
HW  OW  HW  HW  OW  HW  HW  OW  HW  HW  OW  HW  HW  OW  HW  HW  OW  HW  HW  OW  
HW  HW  OW  HW  HW  OW  HW  HW  OW  HW  HW  OW  HW  HW  OW  HW  HW  OW  HW  HW  
OW  HW  HW  OW  HW  HW  OW  HW  HW  OW  HW  HW  OW  HW  HW  OW  HW  HW  OW  HW  
HW  OW  HW  HW  OW  HW  HW  OW  HW  HW  OW  HW  HW  OW  HW  HW  OW  HW  HW  OW  
HW  HW  OW  HW  HW  OW  HW  HW  OW  HW  HW  OW  HW  HW  OW  HW  HW  OW  HW  HW  
OW  HW  HW  OW  HW  HW  OW  HW  HW  OW  HW  HW  OW  HW  HW  OW  HW  HW  OW  HW  
HW  OW  HW  HW  OW  HW  HW  OW  HW  HW  OW  HW  HW  OW  HW  HW  OW  HW  HW  OW  
HW  HW  OW  HW  HW  OW  HW  HW  OW  HW  HW  OW  HW  HW  OW  HW  HW  OW  HW  HW  
OW  HW  HW  OW  HW  HW  OW  HW  HW  OW  HW  HW  OW  HW  HW  OW  HW  HW  OW  HW  
HW  OW  HW  HW  OW  HW  HW  OW  HW  HW  OW  HW  HW  OW  HW  HW  OW  HW  HW  OW  
HW  HW  OW  HW  HW  OW  HW  HW  OW  HW  HW  OW  HW  HW  OW  HW  HW  OW  HW  HW  
OW  HW  HW  OW  HW  HW  OW  HW  HW  OW  HW  HW  OW  HW  HW  OW  HW  HW  OW  HW  
HW  OW  HW  HW  OW  HW  HW  OW  HW  HW  OW  HW  HW  OW  HW  HW  OW  HW  HW  OW  
HW  HW  OW  HW  HW  OW  HW  HW  OW  HW  HW  OW  HW  HW  OW  HW  HW  OW  HW  HW  
OW  HW  HW  OW  HW  HW  OW  HW  HW  OW  HW  HW  OW  HW  HW  OW  HW  HW  OW  HW  
HW  OW  HW  HW  OW  HW  HW  OW  HW  HW  OW  HW  HW  OW  HW  HW  OW  HW  HW  OW  
HW  HW  OW  HW  HW  OW  HW  HW  OW  HW  HW  OW  HW  HW  OW  HW  HW  OW  HW  HW  
OW  HW  HW  OW  HW  HW  OW  HW  HW  OW  HW  HW  OW  HW  HW  OW  HW  HW  OW  HW  
HW  OW  HW  HW  OW  HW  HW  OW  HW  HW  OW  HW  HW  OW  HW  HW  OW  HW  HW  OW  
HW  HW  OW  HW  HW  OW  HW  HW  OW  HW  HW  OW  HW  HW  OW  HW  HW  OW  HW  HW  
OW  HW  HW  OW  HW  HW  OW  HW  HW  OW  HW  HW  OW  HW  HW  OW  HW  HW  OW  HW  
HW  OW  HW  HW  OW  HW  HW  OW  HW  HW  OW  HW  HW  OW  HW  HW  OW  HW  HW  OW  
HW  HW  OW  HW  HW  OW  HW  HW  OW  HW  HW  OW  HW  HW  OW  HW  HW  OW  HW  HW  
OW  HW  HW  OW  HW  HW  OW  HW  HW  OW  HW  HW  OW  HW  HW  OW  HW  HW  OW  HW  
HW  OW  HW  HW  OW  HW  HW  OW  HW  HW  OW  HW  HW  OW  HW  HW  OW  HW  HW  OW  
HW  HW  OW  HW  HW  OW  HW  HW  OW  HW  HW  OW  HW  HW  OW  HW  HW  OW  HW  HW  
OW  HW  HW  OW  HW  HW  OW  HW  HW  OW  HW  HW  OW  HW  HW  OW  HW  HW  OW  HW  
HW  OW  HW  HW  OW  HW  HW  OW  HW  HW  OW  HW  HW  OW  HW  HW  OW  HW  HW  OW  
HW  HW  OW  HW  HW  OW  HW  HW  OW  HW  HW  OW  HW  HW  OW  HW  HW  OW  HW  HW  
OW  HW  HW  OW  HW  HW  OW  HW  HW  OW  HW  HW  OW  HW  HW  OW  HW  HW  OW  HW  
HW  OW  HW  HW  OW  HW  HW  OW  HW  HW  OW  HW  HW  OW  HW  HW  OW  HW  HW  OW  
HW  HW  OW  HW  HW  OW  HW  HW  OW  HW  HW  OW  HW  HW  OW  HW  HW  OW  HW  HW  
OW  HW  HW  OW  HW  HW  OW  HW  HW  OW  HW  HW  OW  HW  HW  OW  HW  HW  OW  HW  
HW  OW  HW  HW  OW  HW  HW  OW  HW  HW  OW  HW  HW  OW  HW  HW  OW  HW  HW  OW  
HW  HW  OW  HW  HW  OW  HW  HW  OW  HW  HW  OW  HW  HW  OW  HW  HW  OW  HW  HW  
OW  HW  HW  OW  HW  HW  OW  HW  HW  OW  HW  HW  OW  HW  HW  OW  HW  HW  OW  HW  
HW  OW  HW  HW  OW  HW  HW  OW  HW  HW  OW  HW  HW  OW  HW  HW  OW  HW  HW  OW  
HW  HW  OW  HW  HW  OW  HW  HW  OW  HW  HW  OW  HW  HW  OW  HW  HW  OW  HW  HW  
OW  HW  HW  OW  HW  HW  OW  HW  HW  OW  HW  HW  OW  HW  HW  OW  HW  HW  OW  HW  
HW  OW  HW  HW  OW  HW  HW  OW  HW  HW  OW  HW  HW  OW  HW  HW  OW  HW  HW  OW  
HW  HW  OW  HW  HW  OW  HW  HW  OW  HW  HW  OW  HW  HW  OW  HW  HW  OW  HW  HW  
OW  HW  HW  OW  HW  HW  OW  HW  HW  OW  HW  HW  OW  HW  HW  OW  HW  HW  OW  HW  
HW  OW  HW  HW  OW  HW  HW  OW  HW  HW  OW  HW  HW  OW  HW  HW  OW  HW  HW  OW  
HW  HW  OW  HW  HW  OW  HW  HW  OW  HW  HW  OW  HW  HW  OW  HW  HW  OW  HW  HW  
OW  HW  HW  OW  HW  HW  OW  HW  HW  OW  HW  HW  OW  HW  HW  OW  HW  HW  OW  HW  
HW  OW  HW  HW  OW  HW  HW  OW  HW  HW  OW  HW  HW  OW  HW  HW  OW  HW  HW  OW  
HW  HW  OW  HW  HW  OW  HW  HW  OW  HW  HW  OW  HW  HW  OW  HW  HW  OW  HW  HW  
OW  HW  HW  OW  HW  HW  OW  HW  HW  OW  HW  HW  OW  HW  HW  OW  HW  HW  OW  HW  
HW  OW  HW  HW  OW  HW  HW  OW  HW  HW  OW  HW  HW  OW  HW  HW  OW  HW  HW  OW  
HW  HW  OW  HW  HW  OW  HW  HW  OW  HW  HW  OW  HW  HW  OW  HW  HW  OW  HW  HW  
OW  HW  HW  OW  HW  HW  OW  HW  HW  OW  HW  HW  OW  HW  HW  OW  HW  HW  OW  HW  
HW  OW  HW  HW  OW  HW  HW  OW  HW  HW  OW  HW  HW  OW  HW  HW  OW  HW  HW  OW  
HW  HW  OW  HW  HW  OW  HW  HW  OW  HW  HW  OW  HW  HW  OW  HW  HW  OW  HW  HW  
OW  HW  HW  OW  HW  HW  OW  HW  HW  OW  HW  HW  OW  HW  HW  OW  HW  HW  OW  HW  
HW  OW  HW  HW  OW  HW  HW  OW  HW  HW  OW  HW  HW  OW  HW  HW  OW  HW  HW  OW  
HW  HW  OW  HW  HW  OW  HW  HW  OW  HW  HW  OW  HW  HW  OW  HW  HW  OW  HW  HW  
OW  HW  HW  OW  HW  HW  OW  HW  HW  OW  HW  HW  OW  HW  HW  OW  HW  HW  OW  HW  
HW  OW  HW  HW  OW  HW  HW  OW  HW  HW  OW  HW  HW  OW  HW  HW  OW  HW  HW  OW  
HW  HW  OW  HW  HW  OW  HW  HW  OW  HW  HW  OW  HW  HW  OW  HW  HW  OW  HW  HW  
OW  HW  HW  OW  HW  HW  OW  HW  HW  OW  HW  HW  OW  HW  HW  OW  HW  HW  OW  HW  
HW  OW  HW  HW  OW  HW  HW  OW  HW  HW  OW  HW  HW  OW  HW  HW  OW  HW  HW  OW  
HW  HW  OW  HW  HW  OW  HW  HW  OW  HW  HW  OW  HW  HW  OW  HW  HW  OW  HW  HW  
OW  HW  HW  OW  HW  HW  OW  HW  HW  OW  HW  HW  OW  HW  HW  OW  HW  HW  OW  HW  
HW  OW  HW  HW  OW  HW  HW  OW  HW  HW  OW  HW  HW  OW  HW  HW  OW  HW  HW  OW  
HW  HW  OW  HW  HW  OW  HW  HW  OW  HW  HW  OW  HW  HW  OW  HW  HW  OW  HW  HW  
OW  HW  HW  OW  HW  HW  OW  HW  HW  OW  HW  HW  OW  HW  HW  OW  HW  HW  OW  HW  
HW  OW  HW  HW  OW  HW  HW  OW  HW  HW  OW  HW  HW  OW  HW  HW  OW  HW  HW  OW  
HW  HW  OW  HW  HW  OW  HW  HW  OW  HW  HW  OW  HW  HW  OW  HW  HW  OW  HW  HW  
OW  HW  HW  OW  HW  HW  OW  HW  HW  OW  HW  HW  OW  HW  HW  OW  HW  HW  OW  HW  
HW  OW  HW  HW  OW  HW  HW  OW  HW  HW  OW  HW  HW  OW  HW  HW  OW  HW  HW  OW  
HW  HW  OW  HW  HW  OW  HW  HW  OW  HW  HW  OW  HW  HW  OW  HW  HW  OW  HW  HW  
OW  HW  HW  OW  HW  HW  OW  HW  HW  OW  HW  HW  OW  HW  HW  OW  HW  HW  OW  HW  
HW  OW  HW  HW  OW  HW  HW  OW  HW  HW  OW  HW  HW  OW  HW  HW  OW  HW  HW  OW  
HW  HW  OW  HW  HW  OW  HW  HW  OW  HW  HW  OW  HW  HW  OW  HW  HW  OW  HW  HW  
OW  HW  HW  OW  HW  HW  OW  HW  HW  OW  HW  HW  OW  HW  HW  OW  HW  HW  OW  HW  
HW  OW  HW  HW  OW  HW  HW  OW  HW  HW  OW  HW  HW  OW  HW  HW  OW  HW  HW  OW  
HW  HW  OW  HW  HW  OW  HW  HW  OW  HW  HW  OW  HW  HW  OW  HW  HW  OW  HW  HW  
OW  HW  HW  OW  HW  HW  OW  HW  HW  OW  HW  HW  OW  HW  HW  OW  HW  HW  OW  HW  
HW  OW  HW  HW  OW  HW  HW  OW  HW  HW  OW  HW  HW  OW  HW  HW  OW  HW  HW  OW  
HW  HW  OW  HW  HW  OW  HW  HW  OW  HW  HW  OW  HW  HW  OW  HW  HW  OW  HW  HW  
OW  HW  HW  OW  HW  HW  OW  HW  HW  OW  HW  HW  OW  HW  HW  OW  HW  HW  OW  HW  
HW  OW  HW  HW  OW  HW  HW  OW  HW  HW  OW  HW  HW  OW  HW  HW  OW  HW  HW  OW  
HW  HW  OW  HW  HW  OW  HW  HW  OW  HW  HW  OW  HW  HW  OW  HW  HW  OW  HW  HW  
OW  HW  HW  OW  HW  HW  OW  HW  HW  OW  HW  HW  OW  HW  HW  OW  HW  HW  OW  HW  
HW  OW  HW  HW  OW  HW  HW  OW  HW  HW  OW  HW  HW  OW  HW  HW  OW  HW  HW  OW  
HW  HW  OW  HW  HW  OW  HW  HW  OW  HW  HW  OW  HW  HW  OW  HW  HW  OW  HW  HW  
OW  HW  HW  OW  HW  HW  OW  HW  HW  OW  HW  HW  OW  HW  HW  OW  HW  HW  OW  HW  
HW  OW  HW  HW  OW  HW  HW  OW  HW  HW  OW  HW  HW  OW  HW  HW  OW  HW  HW  OW  
HW  HW  OW  HW  HW  OW  HW  HW  OW  HW  HW  OW  HW  HW  OW  HW  HW  OW  HW  HW  
OW  HW  HW  OW  HW  HW  OW  HW  HW  OW  HW  HW  OW  HW  HW  OW  HW  HW  OW  HW  
HW  OW  HW  HW  OW  HW  HW  OW  HW  HW  OW  HW  HW  OW  HW  HW  OW  HW  HW  OW  
HW  HW  OW  HW  HW  OW  HW  HW  OW  HW  HW  OW  HW  HW  OW  HW  HW  OW  HW  HW  
OW  HW  HW  OW  HW  HW  OW  HW  HW  OW  HW  HW  OW  HW  HW  OW  HW  HW  OW  HW  
HW  OW  HW  HW  OW  HW  HW  OW  HW  HW  OW  HW  HW  OW  HW  HW  OW  HW  HW  OW  
HW  HW  OW  HW  HW  OW  HW  HW  OW  HW  HW  OW  HW  HW  OW  HW  HW  OW  HW  HW  
OW  HW  HW  OW  HW  HW  OW  HW  HW  OW  HW  HW  OW  HW  HW  OW  HW  HW  OW  HW  
HW  OW  HW  HW  OW  HW  HW  OW  HW  HW  OW  HW  HW  OW  HW  HW  OW  HW  HW  OW  
HW  HW  OW  HW  HW  OW  HW  HW  OW  HW  HW  OW  HW  HW  OW  HW  HW  OW  HW  HW  
OW  HW  HW  OW  HW  HW  OW  HW  HW  OW  HW  HW  OW  HW  HW  OW  HW  HW  OW  HW  
HW  OW  HW  HW  OW  HW  HW  OW  HW  HW  OW  HW  HW  OW  HW  HW  OW  HW  HW  OW  
HW  HW  OW  HW  HW  OW  HW  HW  OW  HW  HW  OW  HW  HW  OW  HW  HW  OW  HW  HW  
OW  HW  HW  OW  HW  HW  OW  HW  HW  OW  HW  HW  OW  HW  HW  OW  HW  HW  OW  HW  
HW  OW  HW  HW  OW  HW  HW  OW  HW  HW  OW  HW  HW  OW  HW  HW  OW  HW  HW  OW  
HW  HW  OW  HW  HW  OW  HW  HW  OW  HW  HW  OW  HW  HW  OW  HW  HW  OW  HW  HW  
OW  HW  HW  OW  HW  HW  OW  HW  HW  OW  HW  HW  OW  HW  HW  OW  HW  HW  OW  HW  
HW  OW  HW  HW  OW  HW  HW  OW  HW  HW  OW  HW  HW  OW  HW  HW  OW  HW  HW  OW  
HW  HW  OW  HW  HW  OW  HW  HW  OW  HW  HW  OW  HW  HW  OW  HW  HW  OW  HW  HW  
OW  HW  HW  OW  HW  HW  OW  HW  HW  OW  HW  HW  OW  HW  HW  OW  HW  HW  OW  HW  
HW  OW  HW  HW  OW  HW  HW  OW  HW  HW  OW  HW  HW  OW  HW  HW  OW  HW  HW  OW  
HW  HW  OW  HW  HW  OW  HW  HW  OW  HW  HW  OW  HW  HW  OW  HW  HW  OW  HW  HW  
OW  HW  HW  OW  HW  HW  OW  HW  HW  OW  HW  HW  OW  HW  HW  OW  HW  HW  OW  HW  
HW  OW  HW  HW  OW  HW  HW  OW  HW  HW  OW  HW  HW  OW  HW  HW  OW  HW  HW  OW  
HW  HW  OW  HW  HW  OW  HW  HW  OW  HW  HW  OW  HW  HW  OW  HW  HW  OW  HW  HW  
OW  HW  HW  OW  HW  HW  OW  HW  HW  OW  HW  HW  OW  HW  HW  OW  HW  HW  OW  HW  
HW  OW  HW  HW  OW  HW  HW  OW  HW  HW  OW  HW  HW  OW  HW  HW  OW  HW  HW  OW  
HW  HW  OW  HW  HW  OW  HW  HW  OW  HW  HW  OW  HW  HW  OW  HW  HW  OW  HW  HW  
OW  HW  HW  OW  HW  HW  OW  HW  HW  OW  HW  HW  OW  HW  HW  OW  HW  HW  OW  HW  
HW  OW  HW  HW  OW  HW  HW  OW  HW  HW  OW  HW  HW  OW  HW  HW  OW  HW  HW  OW  
HW  HW  OW  HW  HW  OW  HW  HW  OW  HW  HW  OW  HW  HW  OW  HW  HW  OW  HW  HW  
OW  HW  HW  OW  HW  HW  OW  HW  HW  OW  HW  HW  OW  HW  HW  OW  HW  HW  OW  HW  
HW  OW  HW  HW  OW  HW  HW  OW  HW  HW  OW  HW  HW  OW  HW  HW  OW  HW  HW  OW  
HW  HW  OW  HW  HW  OW  HW  HW  OW  HW  HW  OW  HW  HW  OW  HW  HW  OW  HW  HW  
OW  HW  HW  OW  HW  HW  OW  HW  HW  OW  HW  HW  OW  HW  HW  OW  HW  HW  OW  HW  
HW  OW  HW  HW  OW  HW  HW  OW  HW  HW  OW  HW  HW  OW  HW  HW  OW  HW  HW  OW  
HW  HW  OW  HW  HW  OW  HW  HW  OW  HW  HW  OW  HW  HW  OW  HW  HW  OW  HW  HW  
OW  HW  HW  OW  HW  HW  OW  HW  HW  OW  HW  HW  OW  HW  HW  OW  HW  HW  OW  HW  
HW  OW  HW  HW  OW  HW  HW  OW  HW  HW  OW  HW  HW  OW  HW  HW  OW  HW  HW  OW  
HW  HW  OW  HW  HW  OW  HW  HW  OW  HW  HW  OW  HW  HW  OW  HW  HW  OW  HW  HW  
OW  HW  HW  OW  HW  HW  OW  HW  HW  OW  HW  HW  OW  HW  HW  OW  HW  HW  OW  HW  
HW  OW  HW  HW  OW  HW  HW  OW  HW  HW  OW  HW  HW  OW  HW  HW  OW  HW  HW  OW  
HW  HW  OW  HW  HW  OW  HW  HW  OW  HW  HW  OW  HW  HW  OW  HW  HW  OW  HW  HW  
OW  HW  HW  OW  HW  HW  OW  HW  HW  OW  HW  HW  OW  HW  HW  OW  HW  HW  OW  HW  
HW  OW  HW  HW  OW  HW  HW  OW  HW  HW  OW  HW  HW  OW  HW  HW  OW  HW  HW  OW  
HW  HW  OW  HW  HW  OW  HW  HW  OW  HW  HW  OW  HW  HW  OW  HW  HW  OW  HW  HW  
OW  HW  HW  OW  HW  HW  OW  HW  HW  OW  HW  HW  OW  HW  HW  OW  HW  HW  OW  HW  
HW  OW  HW  HW  OW  HW  HW  OW  HW  HW  OW  HW  HW  OW  HW  HW  OW  HW  HW  OW  
HW  HW  OW  HW  HW  OW  HW  HW  OW  HW  HW  OW  HW  HW  OW  HW  HW  OW  HW  HW  
OW  HW  HW  OW  HW  HW  OW  HW  HW  OW  HW  HW  OW  HW  HW  OW  HW  HW  OW  HW  
HW  OW  HW  HW  OW  HW  HW  OW  HW  HW  OW  HW  HW  OW  HW  HW  OW  HW  HW  OW  
HW  HW  OW  HW  HW  OW  HW  HW  OW  HW  HW  OW  HW  HW  OW  HW  HW  OW  HW  HW  
OW  HW  HW  OW  HW  HW  OW  HW  HW  OW  HW  HW  OW  HW  HW  OW  HW  HW  OW  HW  
HW  OW  HW  HW  OW  HW  HW  OW  HW  HW  OW  HW  HW  OW  HW  HW  OW  HW  HW  OW  
HW  HW  OW  HW  HW  OW  HW  HW  OW  HW  HW  OW  HW  HW  OW  HW  HW  OW  HW  HW  
OW  HW  HW  OW  HW  HW  OW  HW  HW  OW  HW  HW  OW  HW  HW  OW  HW  HW  OW  HW  
HW  OW  HW  HW  OW  HW  HW  OW  HW  HW  OW  HW  HW  OW  HW  HW  OW  HW  HW  OW  
HW  HW  OW  HW  HW  OW  HW  HW  OW  HW  HW  OW  HW  HW  OW  HW  HW  OW  HW  HW  
OW  HW  HW  OW  HW  HW  OW  HW  HW  OW  HW  HW  OW  HW  HW  OW  HW  HW  OW  HW  
HW  OW  HW  HW  OW  HW  HW  OW  HW  HW  OW  HW  HW  OW  HW  HW  OW  HW  HW  OW  
HW  HW  OW  HW  HW  OW  HW  HW  OW  HW  HW  OW  HW  HW  OW  HW  HW  OW  HW  HW  
OW  HW  HW  OW  HW  HW  OW  HW  HW  OW  HW  HW  OW  HW  HW  OW  HW  HW  OW  HW  
HW  OW  HW  HW  OW  HW  HW  OW  HW  HW  OW  HW  HW  OW  HW  HW  OW  HW  HW  OW  
HW  HW  OW  HW  HW  OW  HW  HW  OW  HW  HW  OW  HW  HW  OW  HW  HW  OW  HW  HW  
OW  HW  HW  OW  HW  HW  OW  HW  HW  OW  HW  HW  OW  HW  HW  OW  HW  HW  OW  HW  
HW  OW  HW  HW  OW  HW  HW  OW  HW  HW  OW  HW  HW  OW  HW  HW  OW  HW  HW  OW  
HW  HW  OW  HW  HW  OW  HW  HW  OW  HW  HW  OW  HW  HW  OW  HW  HW  OW  HW  HW  
OW  HW  HW  OW  HW  HW  OW  HW  HW  OW  HW  HW  OW  HW  HW  OW  HW  HW  OW  HW  
HW  OW  HW  HW  OW  HW  HW  OW  HW  HW  OW  HW  HW  OW  HW  HW  OW  HW  HW  OW  
HW  HW  OW  HW  HW  OW  HW  HW  OW  HW  HW  OW  HW  HW  OW  HW  HW  OW  HW  HW  
OW  HW  HW  OW  HW  HW  OW  HW  HW  OW  HW  HW  OW  HW  HW  OW  HW  HW  OW  HW  
HW  OW  HW  HW  OW  HW  HW  OW  HW  HW  OW  HW  HW  OW  HW  HW  OW  HW  HW  OW  
HW  HW  OW  HW  HW  OW  HW  HW  OW  HW  HW  OW  HW  HW  OW  HW  HW  OW  HW  HW  
OW  HW  HW  OW  HW  HW  OW  HW  HW  OW  HW  HW  OW  HW  HW  OW  HW  HW  OW  HW  
HW  OW  HW  HW  OW  HW  HW  OW  HW  HW  OW  HW  HW  OW  HW  HW  OW  HW  HW  OW  
HW  HW  OW  HW  HW  OW  HW  HW  OW  HW  HW  OW  HW  HW  OW  HW  HW  OW  HW  HW  
OW  HW  HW  OW  HW  HW  OW  HW  HW  OW  HW  HW  OW  HW  HW  OW  HW  HW  OW  HW  
HW  OW  HW  HW  OW  HW  HW  OW  HW  HW  OW  HW  HW  OW  HW  HW  OW  HW  HW  OW  
HW  HW  OW  HW  HW  OW  HW  HW  OW  HW  HW  OW  HW  HW  OW  HW  HW  OW  HW  HW  
OW  HW  HW  OW  HW  HW  OW  HW  HW  OW  HW  HW  OW  HW  HW  OW  HW  HW  OW  HW  
HW  OW  HW  HW  OW  HW  HW  OW  HW  HW  OW  HW  HW  OW  HW  HW  OW  HW  HW  OW  
HW  HW  OW  HW  HW  OW  HW  HW  OW  HW  HW  OW  HW  HW  OW  HW  HW  OW  HW  HW  
OW  HW  HW  OW  HW  HW  OW  HW  HW  OW  HW  HW  OW  HW  HW  OW  HW  HW  OW  HW  
HW  OW  HW  HW  OW  HW  HW  OW  HW  HW  OW  HW  HW  OW  HW  HW  OW  HW  HW  OW  
HW  HW  OW  HW  HW  OW  HW  HW  OW  HW  HW  OW  HW  HW  OW  HW  HW  OW  HW  HW  
OW  HW  HW  OW  HW  HW  OW  HW  HW  OW  HW  HW  OW  HW  HW  OW  HW  HW  OW  HW  
HW  OW  HW  HW  OW  HW  HW  OW  HW  HW  OW  HW  HW  OW  HW  HW  OW  HW  HW  OW  
HW  HW  OW  HW  HW  OW  HW  HW  OW  HW  HW  OW  HW  HW  OW  HW  HW  OW  HW  HW  
OW  HW  HW  OW  HW  HW  OW  HW  HW  OW  HW  HW  OW  HW  HW  OW  HW  HW  OW  HW  
HW  OW  HW  HW  OW  HW  HW  OW  HW  HW  OW  HW  HW  OW  HW  HW  OW  HW  HW  OW  
HW  HW  OW  HW  HW  OW  HW  HW  OW  HW  HW  OW  HW  HW  OW  HW  HW  OW  HW  HW  
OW  HW  HW  OW  HW  HW  OW  HW  HW  OW  HW  HW  OW  HW  HW  OW  HW  HW  OW  HW  
HW  OW  HW  HW  OW  HW  HW  OW  HW  HW  OW  HW  HW  OW  HW  HW  OW  HW  HW  OW  
HW  HW  OW  HW  HW  OW  HW  HW  OW  HW  HW  OW  HW  HW  OW  HW  HW  OW  HW  HW  
OW  HW  HW  OW  HW  HW  OW  HW  HW  OW  HW  HW  OW  HW  HW  OW  HW  HW  OW  HW  
HW  OW  HW  HW  OW  HW  HW  OW  HW  HW  OW  HW  HW  OW  HW  HW  OW  HW  HW  OW  
HW  HW  OW  HW  HW  OW  HW  HW  OW  HW  HW  OW  HW  HW  OW  HW  HW  OW  HW  HW  
OW  HW  HW  OW  HW  HW  OW  HW  HW  OW  HW  HW  OW  HW  HW  OW  HW  HW  OW  HW  
HW  OW  HW  HW  OW  HW  HW  OW  HW  HW  OW  HW  HW  OW  HW  HW  OW  HW  HW  OW  
HW  HW  OW  HW  HW  OW  HW  HW  OW  HW  HW  OW  HW  HW  OW  HW  HW  OW  HW  HW  
OW  HW  HW  OW  HW  HW  OW  HW  HW  OW  HW  HW  OW  HW  HW  OW  HW  HW  OW  HW  
HW  OW  HW  HW  OW  HW  HW  OW  HW  HW  OW  HW  HW  OW  HW  HW  OW  HW  HW  OW  
HW  HW  OW  HW  HW  OW  HW  HW  OW  HW  HW  OW  HW  HW  OW  HW  HW  OW  HW  HW  
OW  HW  HW  OW  HW  HW  OW  HW  HW  OW  HW  HW  OW  HW  HW  OW  HW  HW  OW  HW  
HW  OW  HW  HW  OW  HW  HW  OW  HW  HW  OW  HW  HW  OW  HW  HW  OW  HW  HW  OW  
HW  HW  OW  HW  HW  OW  HW  HW  OW  HW  HW  OW  HW  HW  OW  HW  HW  OW  HW  HW  
OW  HW  HW  OW  HW  HW  OW  HW  HW  OW  HW  HW  OW  HW  HW  OW  HW  HW  OW  HW  
HW  OW  HW  HW  OW  HW  HW  OW  HW  HW  OW  HW  HW  OW  HW  HW  OW  HW  HW  OW  
HW  HW  OW  HW  HW  OW  HW  HW  OW  HW  HW  OW  HW  HW  OW  HW  HW  OW  HW  HW  
OW  HW  HW  OW  HW  HW  OW  HW  HW  OW  HW  HW  OW  HW  HW  OW  HW  HW  OW  HW  
HW  OW  HW  HW  OW  HW  HW  OW  HW  HW  OW  HW  HW  OW  HW  HW  OW  HW  HW  OW  
HW  HW  OW  HW  HW  OW  HW  HW  OW  HW  HW  OW  HW  HW  OW  HW  HW  OW  HW  HW  
OW  HW  HW  OW  HW  HW  OW  HW  HW  OW  HW  HW  OW  HW  HW  OW  HW  HW  OW  HW  
HW  OW  HW  HW  OW  HW  HW  OW  HW  HW  OW  HW  HW  OW  HW  HW  OW  HW  HW  OW  
HW  HW  OW  HW  HW  OW  HW  HW  OW  HW  HW  OW  HW  HW  OW  HW  HW  OW  HW  HW  
OW  HW  HW  OW  HW  HW  OW  HW  HW  OW  HW  HW  OW  HW  HW  OW  HW  HW  OW  HW  
HW  OW  HW  HW  OW  HW  HW  OW  HW  HW  OW  HW  HW  OW  HW  HW  OW  HW  HW  OW  
HW  HW  OW  HW  HW  OW  HW  HW  OW  HW  HW  OW  HW  HW  OW  HW  HW  OW  HW  HW  
OW  HW  HW  OW  HW  HW  OW  HW  HW  OW  HW  HW  OW  HW  HW  OW  HW  HW  OW  HW  
HW  OW  HW  HW  OW  HW  HW  OW  HW  HW  OW  HW  HW  OW  HW  HW  OW  HW  HW  OW  
HW  HW  OW  HW  HW  OW  HW  HW  OW  HW  HW  OW  HW  HW  OW  HW  HW  OW  HW  HW  
OW  HW  HW  OW  HW  HW  OW  HW  HW  OW  HW  HW  OW  HW  HW  OW  HW  HW  OW  HW  
HW  OW  HW  HW  OW  HW  HW  OW  HW  HW  OW  HW  HW  OW  HW  HW  OW  HW  HW  OW  
HW  HW  OW  HW  HW  OW  HW  HW  OW  HW  HW  OW  HW  HW  OW  HW  HW  OW  HW  HW  
OW  HW  HW  OW  HW  HW  OW  HW  HW  OW  HW  HW  OW  HW  HW  OW  HW  HW  OW  HW  
HW  OW  HW  HW  OW  HW  HW  OW  HW  HW  OW  HW  HW  OW  HW  HW  OW  HW  HW  OW  
HW  HW  OW  HW  HW  OW  HW  HW  OW  HW  HW  OW  HW  HW  OW  HW  HW  OW  HW  HW  
OW  HW  HW  OW  HW  HW  OW  HW  HW  OW  HW  HW  OW  HW  HW  OW  HW  HW  OW  HW  
HW  OW  HW  HW  OW  HW  HW  OW  HW  HW  OW  HW  HW  OW  HW  HW  OW  HW  HW  OW  
HW  HW  OW  HW  HW  OW  HW  HW  OW  HW  HW  OW  HW  HW  OW  HW  HW  OW  HW  HW  
OW  HW  HW  OW  HW  HW  OW  HW  HW  OW  HW  HW  OW  HW  HW  OW  HW  HW  OW  HW  
HW  OW  HW  HW  OW  HW  HW  OW  HW  HW  OW  HW  HW  OW  HW  HW  OW  HW  HW  OW  
HW  HW  OW  HW  HW  OW  HW  HW  OW  HW  HW  OW  HW  HW  OW  HW  HW  OW  HW  HW  
OW  HW  HW  OW  HW  HW  OW  HW  HW  OW  HW  HW  OW  HW  HW  OW  HW  HW  OW  HW  
HW  OW  HW  HW  OW  HW  HW  OW  HW  HW  OW  HW  HW  OW  HW  HW  OW  HW  HW  OW  
HW  HW  OW  HW  HW  OW  HW  HW  OW  HW  HW  OW  HW  HW  OW  HW  HW  OW  HW  HW  
OW  HW  HW  OW  HW  HW  OW  HW  HW  OW  HW  HW  OW  HW  HW  OW  HW  HW  OW  HW  
HW  OW  HW  HW  OW  HW  HW  OW  HW  HW  OW  HW  HW  OW  HW  HW  OW  HW  HW  OW  
HW  HW  OW  HW  HW  OW  HW  HW  OW  HW  HW  OW  HW  HW  OW  HW  HW  OW  HW  HW  
OW  HW  HW  OW  HW  HW  OW  HW  HW  OW  HW  HW  OW  HW  HW  OW  HW  HW  OW  HW  
HW  OW  HW  HW  OW  HW  HW  OW  HW  HW  OW  HW  HW  OW  HW  HW  OW  HW  HW  OW  
HW  HW  OW  HW  HW  OW  HW  HW  OW  HW  HW  OW  HW  HW  OW  HW  HW  OW  HW  HW  
OW  HW  HW  OW  HW  HW  OW  HW  HW  OW  HW  HW  OW  HW  HW  OW  HW  HW  OW  HW  
HW  OW  HW  HW  OW  HW  HW  OW  HW  HW  OW  HW  HW  OW  HW  HW  OW  HW  HW  OW  
HW  HW  OW  HW  HW  OW  HW  HW  OW  HW  HW  OW  HW  HW  OW  HW  HW  OW  HW  HW  
OW  HW  HW  OW  HW  HW  OW  HW  HW  OW  HW  HW  OW  HW  HW  OW  HW  HW  OW  HW  
HW  OW  HW  HW  OW  HW  HW  OW  HW  HW  OW  HW  HW  OW  HW  HW  OW  HW  HW  OW  
HW  HW  OW  HW  HW  OW  HW  HW  OW  HW  HW  OW  HW  HW  OW  HW  HW  OW  HW  HW  
OW  HW  HW  OW  HW  HW  OW  HW  HW  OW  HW  HW  OW  HW  HW  OW  HW  HW  OW  HW  
HW  OW  HW  HW  OW  HW  HW  OW  HW  HW  OW  HW  HW  OW  HW  HW  OW  HW  HW  OW  
HW  HW  OW  HW  HW  OW  HW  HW  OW  HW  HW  OW  HW  HW  OW  HW  HW  OW  HW  HW  
OW  HW  HW  OW  HW  HW  OW  HW  HW  OW  HW  HW  OW  HW  HW  OW  HW  HW  OW  HW  
HW  OW  HW  HW  OW  HW  HW  OW  HW  HW  OW  HW  HW  OW  HW  HW  OW  HW  HW  OW  
HW  HW  OW  HW  HW  OW  HW  HW  OW  HW  HW  OW  HW  HW  OW  HW  HW  OW  HW  HW  
OW  HW  HW  OW  HW  HW  OW  HW  HW  OW  HW  HW  OW  HW  HW  OW  HW  HW  OW  HW  
HW  OW  HW  HW  OW  HW  HW  OW  HW  HW  OW  HW  HW  OW  HW  HW  OW  HW  HW  OW  
HW  HW  OW  HW  HW  OW  HW  HW  OW  HW  HW  OW  HW  HW  OW  HW  HW  OW  HW  HW  
OW  HW  HW  OW  HW  HW  OW  HW  HW  OW  HW  HW  OW  HW  HW  OW  HW  HW  OW  HW  
HW  OW  HW  HW  OW  HW  HW  OW  HW  HW  OW  HW  HW  OW  HW  HW  OW  HW  HW  OW  
HW  HW  OW  HW  HW  OW  HW  HW  OW  HW  HW  OW  HW  HW  OW  HW  HW  OW  HW  HW  
OW  HW  HW  OW  HW  HW  OW  HW  HW  OW  HW  HW  OW  HW  HW  OW  HW  HW  OW  HW  
HW  OW  HW  HW  OW  HW  HW  OW  HW  HW  OW  HW  HW  OW  HW  HW  OW  HW  HW  OW  
HW  HW  OW  HW  HW  OW  HW  HW  OW  HW  HW  OW  HW  HW  OW  HW  HW  OW  HW  HW  
OW  HW  HW  OW  HW  HW  OW  HW  HW  OW  HW  HW  OW  HW  HW  OW  HW  HW  OW  HW  
HW  OW  HW  HW  OW  HW  HW  OW  HW  HW  OW  HW  HW  OW  HW  HW  OW  HW  HW  OW  
HW  HW  OW  HW  HW  OW  HW  HW  OW  HW  HW  OW  HW  HW  OW  HW  HW  OW  HW  HW  
OW  HW  HW  OW  HW  HW  OW  HW  HW  OW  HW  HW  OW  HW  HW  OW  HW  HW  OW  HW  
HW  OW  HW  HW  OW  HW  HW  OW  HW  HW  OW  HW  HW  OW  HW  HW  OW  HW  HW  OW  
HW  HW  OW  HW  HW  OW  HW  HW  OW  HW  HW  OW  HW  HW  OW  HW  HW  OW  HW  HW  
OW  HW  HW  OW  HW  HW  OW  HW  HW  OW  HW  HW  OW  HW  HW  OW  HW  HW  OW  HW  
HW  OW  HW  HW  OW  HW  HW  OW  HW  HW  OW  HW  HW  OW  HW  HW  OW  HW  HW  OW  
HW  HW  OW  HW  HW  OW  HW  HW  OW  HW  HW  OW  HW  HW  OW  HW  HW  OW  HW  HW  
OW  HW  HW  OW  HW  HW  OW  HW  HW  OW  HW  HW  OW  HW  HW  OW  HW  HW  OW  HW  
HW  OW  HW  HW  OW  HW  HW  OW  HW  HW  OW  HW  HW  OW  HW  HW  OW  HW  HW  OW  
HW  HW  OW  HW  HW  OW  HW  HW  OW  HW  HW  OW  HW  HW  OW  HW  HW  OW  HW  HW  
OW  HW  HW  OW  HW  HW  OW  HW  HW  OW  HW  HW  OW  HW  HW  OW  HW  HW  OW  HW  
HW  OW  HW  HW  OW  HW  HW  OW  HW  HW  OW  HW  HW  OW  HW  HW  OW  HW  HW  OW  
HW  HW  OW  HW  HW  OW  HW  HW  OW  HW  HW  OW  HW  HW  OW  HW  HW  OW  HW  HW  
OW  HW  HW  OW  HW  HW  OW  HW  HW  OW  HW  HW  OW  HW  HW  OW  HW  HW  OW  HW  
HW  OW  HW  HW  OW  HW  HW  OW  HW  HW  OW  HW  HW  OW  HW  HW  OW  HW  HW  OW  
HW  HW  OW  HW  HW  OW  HW  HW  OW  HW  HW  OW  HW  HW  OW  HW  HW  OW  HW  HW  
OW  HW  HW  OW  HW  HW  OW  HW  HW  OW  HW  HW  OW  HW  HW  OW  HW  HW  OW  HW  
HW  OW  HW  HW  OW  HW  HW  OW  HW  HW  OW  HW  HW  OW  HW  HW  OW  HW  HW  OW  
HW  HW  OW  HW  HW  OW  HW  HW  OW  HW  HW  OW  HW  HW  OW  HW  HW  OW  HW  HW  
OW  HW  HW  OW  HW  HW  OW  HW  HW  OW  HW  HW  OW  HW  HW  OW  HW  HW  OW  HW  
HW  OW  HW  HW  OW  HW  HW  OW  HW  HW  OW  HW  HW  OW  HW  HW  OW  HW  HW  OW  
HW  HW  OW  HW  HW  OW  HW  HW  OW  HW  HW  OW  HW  HW  OW  HW  HW  OW  HW  HW  
OW  HW  HW  OW  HW  HW  OW  HW  HW  OW  HW  HW  OW  HW  HW  OW  HW  HW  OW  HW  
HW  OW  HW  HW  OW  HW  HW  OW  HW  HW  OW  HW  HW  OW  HW  HW  OW  HW  HW  OW  
HW  HW  OW  HW  HW  OW  HW  HW  OW  HW  HW  OW  HW  HW  OW  HW  HW  OW  HW  HW  
OW  HW  HW  OW  HW  HW  OW  HW  HW  OW  HW  HW  OW  HW  HW  OW  HW  HW  OW  HW  
HW  OW  HW  HW  OW  HW  HW  OW  HW  HW  OW  HW  HW  OW  HW  HW  OW  HW  HW  OW  
HW  HW  OW  HW  HW  OW  HW  HW  OW  HW  HW  OW  HW  HW  OW  HW  HW  OW  HW  HW  
OW  HW  HW  OW  HW  HW  OW  HW  HW  OW  HW  HW  OW  HW  HW  OW  HW  HW  OW  HW  
HW  OW  HW  HW  OW  HW  HW  OW  HW  HW  OW  HW  HW  OW  HW  HW  OW  HW  HW  OW  
HW  HW  OW  HW  HW  OW  HW  HW  OW  HW  HW  OW  HW  HW  OW  HW  HW  OW  HW  HW  
OW  HW  HW  OW  HW  HW  OW  HW  HW  OW  HW  HW  OW  HW  HW  OW  HW  HW  OW  HW  
HW  OW  HW  HW  OW  HW  HW  OW  HW  HW  OW  HW  HW  OW  HW  HW  OW  HW  HW  OW  
HW  HW  OW  HW  HW  OW  HW  HW  OW  HW  HW  OW  HW  HW  OW  HW  HW  OW  HW  HW  
OW  HW  HW  OW  HW  HW  OW  HW  HW  OW  HW  HW  OW  HW  HW  OW  HW  HW  OW  HW  
HW  OW  HW  HW  OW  HW  HW  OW  HW  HW  OW  HW  HW  OW  HW  HW  OW  HW  HW  OW  
HW  HW  OW  HW  HW  OW  HW  HW  OW  HW  HW  OW  HW  HW  OW  HW  HW  OW  HW  HW  
OW  HW  HW  OW  HW  HW  OW  HW  HW  OW  HW  HW  OW  HW  HW  OW  HW  HW  OW  HW  
HW  OW  HW  HW  OW  HW  HW  OW  HW  HW  OW  HW  HW  OW  HW  HW  OW  HW  HW  OW  
HW  HW  OW  HW  HW  OW  HW  HW  OW  HW  HW  OW  HW  HW  OW  HW  HW  OW  HW  HW  
OW  HW  HW  OW  HW  HW  OW  HW  HW  OW  HW  HW  OW  HW  HW  OW  HW  HW  OW  HW  
HW  OW  HW  HW  OW  HW  HW  OW  HW  HW  OW  HW  HW  OW  HW  HW  OW  HW  HW  OW  
HW  HW  OW  HW  HW  OW  HW  HW  OW  HW  HW  OW  HW  HW  OW  HW  HW  OW  HW  HW  
OW  HW  HW  OW  HW  HW  OW  HW  HW  OW  HW  HW  OW  HW  HW  OW  HW  HW  OW  HW  
HW  OW  HW  HW  OW  HW  HW  OW  HW  HW  OW  HW  HW  OW  HW  HW  OW  HW  HW  OW  
HW  HW  OW  HW  HW  OW  HW  HW  OW  HW  HW  OW  HW  HW  OW  HW  HW  OW  HW  HW  
OW  HW  HW  OW  HW  HW  OW  HW  HW  OW  HW  HW  OW  HW  HW  OW  HW  HW  OW  HW  
HW  OW  HW  HW  OW  HW  HW  OW  HW  HW  OW  HW  HW  OW  HW  HW  OW  HW  HW  OW  
HW  HW  OW  HW  HW  OW  HW  HW  OW  HW  HW  OW  HW  HW  OW  HW  HW  OW  HW  HW  
OW  HW  HW  OW  HW  HW  OW  HW  HW  OW  HW  HW  OW  HW  HW  OW  HW  HW  OW  HW  
HW  OW  HW  HW  OW  HW  HW  OW  HW  HW  OW  HW  HW  OW  HW  HW  OW  HW  HW  OW  
HW  HW  OW  HW  HW  OW  HW  HW  OW  HW  HW  OW  HW  HW  OW  HW  HW  OW  HW  HW  
OW  HW  HW  OW  HW  HW  OW  HW  HW  OW  HW  HW  OW  HW  HW  OW  HW  HW  OW  HW  
HW  OW  HW  HW  OW  HW  HW  OW  HW  HW  OW  HW  HW  OW  HW  HW  OW  HW  HW  OW  
HW  HW  OW  HW  HW  OW  HW  HW  OW  HW  HW  OW  HW  HW  OW  HW  HW  OW  HW  HW  
OW  HW  HW  OW  HW  HW  OW  HW  HW  OW  HW  HW  OW  HW  HW  OW  HW  HW  OW  HW  
HW  OW  HW  HW  OW  HW  HW  OW  HW  HW  OW  HW  HW  OW  HW  HW  OW  HW  HW  OW  
HW  HW  OW  HW  HW  OW  HW  HW  OW  HW  HW  OW  HW  HW  OW  HW  HW  OW  HW  HW  
OW  HW  HW  OW  HW  HW  OW  HW  HW  OW  HW  HW  OW  HW  HW  OW  HW  HW  OW  HW  
HW  OW  HW  HW  OW  HW  HW  OW  HW  HW  OW  HW  HW  OW  HW  HW  OW  HW  HW  OW  
HW  HW  OW  HW  HW  OW  HW  HW  OW  HW  HW  OW  HW  HW  OW  HW  HW  OW  HW  HW  
OW  HW  HW  OW  HW  HW  OW  HW  HW  OW  HW  HW  OW  HW  HW  OW  HW  HW  OW  HW  
HW  OW  HW  HW  OW  HW  HW  OW  HW  HW  OW  HW  HW  OW  HW  HW  OW  HW  HW  OW  
HW  HW  OW  HW  HW  OW  HW  HW  OW  HW  HW  OW  HW  HW  OW  HW  HW  OW  HW  HW  
OW  HW  HW  OW  HW  HW  OW  HW  HW  OW  HW  HW  OW  HW  HW  OW  HW  HW  OW  HW  
HW  OW  HW  HW  OW  HW  HW  OW  HW  HW  OW  HW  HW  OW  HW  HW  OW  HW  HW  OW  
HW  HW  OW  HW  HW  OW  HW  HW  OW  HW  HW  OW  HW  HW  OW  HW  HW  OW  HW  HW  
OW  HW  HW  OW  HW  HW  OW  HW  HW  OW  HW  HW  OW  HW  HW  OW  HW  HW  OW  HW  
HW  OW  HW  HW  OW  HW  HW  OW  HW  HW  OW  HW  HW  OW  HW  HW  OW  HW  HW  OW  
HW  HW  OW  HW  HW  OW  HW  HW  OW  HW  HW  OW  HW  HW  OW  HW  HW  OW  HW  HW  
OW  HW  HW  OW  HW  HW  OW  HW  HW  OW  HW  HW  OW  HW  HW  OW  HW  HW  OW  HW  
HW  OW  HW  HW  OW  HW  HW  OW  HW  HW  OW  HW  HW  OW  HW  HW  OW  HW  HW  OW  
HW  HW  OW  HW  HW  OW  HW  HW  OW  HW  HW  OW  HW  HW  OW  HW  HW  OW  HW  HW  
OW  HW  HW  OW  HW  HW  OW  HW  HW  OW  HW  HW  OW  HW  HW  OW  HW  HW  OW  HW  
HW  OW  HW  HW  OW  HW  HW  OW  HW  HW  OW  HW  HW  OW  HW  HW  OW  HW  HW  OW  
HW  HW  OW  HW  HW  OW  HW  HW  OW  HW  HW  OW  HW  HW  OW  HW  HW  OW  HW  HW  
OW  HW  HW  OW  HW  HW  OW  HW  HW  OW  HW  HW  OW  HW  HW  OW  HW  HW  OW  HW  
HW  OW  HW  HW  OW  HW  HW  OW  HW  HW  OW  HW  HW  OW  HW  HW  OW  HW  HW  OW  
HW  HW  OW  HW  HW  OW  HW  HW  OW  HW  HW  OW  HW  HW  OW  HW  HW  OW  HW  HW  
OW  HW  HW  OW  HW  HW  OW  HW  HW  OW  HW  HW  OW  HW  HW  OW  HW  HW  OW  HW  
HW  OW  HW  HW  OW  HW  HW  OW  HW  HW  OW  HW  HW  OW  HW  HW  OW  HW  HW  OW  
HW  HW  OW  HW  HW  OW  HW  HW  OW  HW  HW  OW  HW  HW  OW  HW  HW  OW  HW  HW  
OW  HW  HW  OW  HW  HW  OW  HW  HW  OW  HW  HW  OW  HW  HW  OW  HW  HW  OW  HW  
HW  OW  HW  HW  OW  HW  HW  OW  HW  HW  OW  HW  HW  OW  HW  HW  OW  HW  HW  OW  
HW  HW  OW  HW  HW  OW  HW  HW  OW  HW  HW  OW  HW  HW  OW  HW  HW  OW  HW  HW  
OW  HW  HW  OW  HW  HW  OW  HW  HW  OW  HW  HW  OW  HW  HW  OW  HW  HW  OW  HW  
HW  OW  HW  HW  OW  HW  HW  OW  HW  HW  OW  HW  HW  OW  HW  HW  OW  HW  HW  OW  
HW  HW  OW  HW  HW  OW  HW  HW  OW  HW  HW  OW  HW  HW  OW  HW  HW  OW  HW  HW  
OW  HW  HW  OW  HW  HW  OW  HW  HW  OW  HW  HW  OW  HW  HW  OW  HW  HW  OW  HW  
HW  OW  HW  HW  OW  HW  HW  OW  HW  HW  OW  HW  HW  OW  HW  HW  OW  HW  HW  OW  
HW  HW  OW  HW  HW  OW  HW  HW  OW  HW  HW  OW  HW  HW  OW  HW  HW  OW  HW  HW  
OW  HW  HW  OW  HW  HW  OW  HW  HW  OW  HW  HW  OW  HW  HW  OW  HW  HW  OW  HW  
HW  OW  HW  HW  OW  HW  HW  OW  HW  HW  OW  HW  HW  OW  HW  HW  OW  HW  HW  OW  
HW  HW  OW  HW  HW  OW  HW  HW  OW  HW  HW  OW  HW  HW  OW  HW  HW  OW  HW  HW  
OW  HW  HW  OW  HW  HW  OW  HW  HW  OW  HW  HW  OW  HW  HW  OW  HW  HW  OW  HW  
HW  OW  HW  HW  OW  HW  HW  OW  HW  HW  OW  HW  HW  OW  HW  HW  OW  HW  HW  OW  
HW  HW  OW  HW  HW  OW  HW  HW  OW  HW  HW  OW  HW  HW  OW  HW  HW  OW  HW  HW  
OW  HW  HW  OW  HW  HW  OW  HW  HW  OW  HW  HW  OW  HW  HW  OW  HW  HW  OW  HW  
HW  OW  HW  HW  OW  HW  HW  OW  HW  HW  OW  HW  HW  OW  HW  HW  OW  HW  HW  OW  
HW  HW  OW  HW  HW  OW  HW  HW  OW  HW  HW  OW  HW  HW  OW  HW  HW  OW  HW  HW  
OW  HW  HW  OW  HW  HW  OW  HW  HW  OW  HW  HW  OW  HW  HW  OW  HW  HW  OW  HW  
HW  OW  HW  HW  OW  HW  HW  OW  HW  HW  OW  HW  HW  OW  HW  HW  OW  HW  HW  OW  
HW  HW  OW  HW  HW  OW  HW  HW  OW  HW  HW  OW  HW  HW  OW  HW  HW  OW  HW  HW  
OW  HW  HW  OW  HW  HW  OW  HW  HW  OW  HW  HW  OW  HW  HW  OW  HW  HW  OW  HW  
HW  OW  HW  HW  OW  HW  HW  OW  HW  HW  OW  HW  HW  OW  HW  HW  OW  HW  HW  OW  
HW  HW  OW  HW  HW  OW  HW  HW  OW  HW  HW  OW  HW  HW  OW  HW  HW  OW  HW  HW  
OW  HW  HW  OW  HW  HW  OW  HW  HW  OW  HW  HW  OW  HW  HW  OW  HW  HW  OW  HW  
HW  OW  HW  HW  OW  HW  HW  OW  HW  HW  OW  HW  HW  OW  HW  HW  OW  HW  HW  OW  
HW  HW  OW  HW  HW  OW  HW  HW  OW  HW  HW  OW  HW  HW  OW  HW  HW  OW  HW  HW  
OW  HW  HW  OW  HW  HW  OW  HW  HW  OW  HW  HW  OW  HW  HW  OW  HW  HW  OW  HW  
HW  OW  HW  HW  OW  HW  HW  OW  HW  HW  OW  HW  HW  OW  HW  HW  OW  HW  HW  OW  
HW  HW  OW  HW  HW  OW  HW  HW  OW  HW  HW  OW  HW  HW  OW  HW  HW  OW  HW  HW  
OW  HW  HW  OW  HW  HW  OW  HW  HW  OW  HW  HW  OW  HW  HW  OW  HW  HW  OW  HW  
HW  OW  HW  HW  OW  HW  HW  OW  HW  HW  OW  HW  HW  OW  HW  HW  OW  HW  HW  OW  
HW  HW  OW  HW  HW  OW  HW  HW  OW  HW  HW  OW  HW  HW  OW  HW  HW  OW  HW  HW  
OW  HW  HW  OW  HW  HW  OW  HW  HW  OW  HW  HW  OW  HW  HW  OW  HW  HW  OW  HW  
HW  OW  HW  HW  OW  HW  HW  OW  HW  HW  OW  HW  HW  OW  HW  HW  OW  HW  HW  OW  
HW  HW  OW  HW  HW  OW  HW  HW  OW  HW  HW  OW  HW  HW  OW  HW  HW  OW  HW  HW  
OW  HW  HW  OW  HW  HW  OW  HW  HW  OW  HW  HW  OW  HW  HW  OW  HW  HW  OW  HW  
HW  OW  HW  HW  OW  HW  HW  OW  HW  HW  OW  HW  HW  OW  HW  HW  OW  HW  HW  OW  
HW  HW  OW  HW  HW  OW  HW  HW  OW  HW  HW  OW  HW  HW  OW  HW  HW  OW  HW  HW  
OW  HW  HW  OW  HW  HW  OW  HW  HW  OW  HW  HW  OW  HW  HW  OW  HW  HW  OW  HW  
HW  OW  HW  HW  OW  HW  HW  OW  HW  HW  OW  HW  HW  OW  HW  HW  OW  HW  HW  OW  
HW  HW  OW  HW  HW  OW  HW  HW  OW  HW  HW  OW  HW  HW  OW  HW  HW  OW  HW  HW  
OW  HW  HW  OW  HW  HW  OW  HW  HW  OW  HW  HW  OW  HW  HW  OW  HW  HW  OW  HW  
HW  OW  HW  HW  OW  HW  HW  OW  HW  HW  OW  HW  HW  OW  HW  HW  OW  HW  HW  OW  
HW  HW  OW  HW  HW  OW  HW  HW  OW  HW  HW  OW  HW  HW  OW  HW  HW  OW  HW  HW  
OW  HW  HW  OW  HW  HW  OW  HW  HW  OW  HW  HW  OW  HW  HW  OW  HW  HW  OW  HW  
HW  OW  HW  HW  OW  HW  HW  OW  HW  HW  OW  HW  HW  OW  HW  HW  OW  HW  HW  OW  
HW  HW  OW  HW  HW  OW  HW  HW  OW  HW  HW  OW  HW  HW  OW  HW  HW  OW  HW  HW  
OW  HW  HW  OW  HW  HW  OW  HW  HW  OW  HW  HW  OW  HW  HW  OW  HW  HW  OW  HW  
HW  OW  HW  HW  OW  HW  HW  OW  HW  HW  OW  HW  HW  OW  HW  HW  OW  HW  HW  OW  
HW  HW  OW  HW  HW  OW  HW  HW  OW  HW  HW  OW  HW  HW  OW  HW  HW  OW  HW  HW  
OW  HW  HW  OW  HW  HW  OW  HW  HW  OW  HW  HW  OW  HW  HW  OW  HW  HW  OW  HW  
HW  OW  HW  HW  OW  HW  HW  OW  HW  HW  OW  HW  HW  OW  HW  HW  OW  HW  HW  OW  
HW  HW  OW  HW  HW  OW  HW  HW  OW  HW  HW  OW  HW  HW  OW  HW  HW  OW  HW  HW  
OW  HW  HW  OW  HW  HW  OW  HW  HW  OW  HW  HW  OW  HW  HW  OW  HW  HW  OW  HW  
HW  OW  HW  HW  OW  HW  HW  OW  HW  HW  OW  HW  HW  OW  HW  HW  OW  HW  HW  OW  
HW  HW  OW  HW  HW  OW  HW  HW  OW  HW  HW  OW  HW  HW  OW  HW  HW  OW  HW  HW  
OW  HW  HW  OW  HW  HW  OW  HW  HW  OW  HW  HW  OW  HW  HW  OW  HW  HW  OW  HW  
HW  OW  HW  HW  OW  HW  HW  OW  HW  HW  OW  HW  HW  OW  HW  HW  OW  HW  HW  OW  
HW  HW  OW  HW  HW  OW  HW  HW  OW  HW  HW  OW  HW  HW  OW  HW  HW  OW  HW  HW  
OW  HW  HW  OW  HW  HW  OW  HW  HW  OW  HW  HW  OW  HW  HW  OW  HW  HW  OW  HW  
HW  OW  HW  HW  OW  HW  HW  OW  HW  HW  OW  HW  HW  OW  HW  HW  OW  HW  HW  OW  
HW  HW  OW  HW  HW  OW  HW  HW  OW  HW  HW  OW  HW  HW  OW  HW  HW  OW  HW  HW  
OW  HW  HW  OW  HW  HW  OW  HW  HW  OW  HW  HW  OW  HW  HW  OW  HW  HW  OW  HW  
HW  OW  HW  HW  OW  HW  HW  OW  HW  HW  OW  HW  HW  OW  HW  HW  OW  HW  HW  OW  
HW  HW  OW  HW  HW  OW  HW  HW  OW  HW  HW  OW  HW  HW  OW  HW  HW  OW  HW  HW  
OW  HW  HW  OW  HW  HW  OW  HW  HW  OW  HW  HW  OW  HW  HW  OW  HW  HW  OW  HW  
HW  OW  HW  HW  OW  HW  HW  OW  HW  HW  OW  HW  HW  OW  HW  HW  OW  HW  HW  OW  
HW  HW  OW  HW  HW  OW  HW  HW  OW  HW  HW  OW  HW  HW  OW  HW  HW  OW  HW  HW  
OW  HW  HW  OW  HW  HW  OW  HW  HW  OW  HW  HW  OW  HW  HW  OW  HW  HW  OW  HW  
HW  OW  HW  HW  OW  HW  HW  OW  HW  HW  OW  HW  HW  OW  HW  HW  OW  HW  HW  OW  
HW  HW  OW  HW  HW  OW  HW  HW  OW  HW  HW  OW  HW  HW  OW  HW  HW  OW  HW  HW  
OW  HW  HW  OW  HW  HW  OW  HW  HW  OW  HW  HW  OW  HW  HW  OW  HW  HW  OW  HW  
HW  OW  HW  HW  OW  HW  HW  OW  HW  HW  OW  HW  HW  OW  HW  HW  OW  HW  HW  OW  
HW  HW  OW  HW  HW  OW  HW  HW  OW  HW  HW  OW  HW  HW  OW  HW  HW  OW  HW  HW  
OW  HW  HW  OW  HW  HW  OW  HW  HW  OW  HW  HW  OW  HW  HW  OW  HW  HW  OW  HW  
HW  OW  HW  HW  OW  HW  HW  OW  HW  HW  OW  HW  HW  OW  HW  HW  OW  HW  HW  OW  
HW  HW  OW  HW  HW  OW  HW  HW  OW  HW  HW  OW  HW  HW  OW  HW  HW  OW  HW  HW  
OW  HW  HW  OW  HW  HW  OW  HW  HW  OW  HW  HW  OW  HW  HW  OW  HW  HW  OW  HW  
HW  OW  HW  HW  OW  HW  HW  OW  HW  HW  OW  HW  HW  OW  HW  HW  OW  HW  HW  OW  
HW  HW  OW  HW  HW  OW  HW  HW  OW  HW  HW  OW  HW  HW  OW  HW  HW  OW  HW  HW  
OW  HW  HW  OW  HW  HW  OW  HW  HW  OW  HW  HW  OW  HW  HW  OW  HW  HW  OW  HW  
HW  OW  HW  HW  OW  HW  HW  OW  HW  HW  OW  HW  HW  OW  HW  HW  OW  HW  HW  OW  
HW  HW  OW  HW  HW  OW  HW  HW  OW  HW  HW  OW  HW  HW  OW  HW  HW  OW  HW  HW  
OW  HW  HW  OW  HW  HW  OW  HW  HW  OW  HW  HW  OW  HW  HW  OW  HW  HW  OW  HW  
HW  OW  HW  HW  OW  HW  HW  OW  HW  HW  OW  HW  HW  OW  HW  HW  OW  HW  HW  OW  
HW  HW  OW  HW  HW  OW  HW  HW  OW  HW  HW  OW  HW  HW  OW  HW  HW  OW  HW  HW  
OW  HW  HW  OW  HW  HW  OW  HW  HW  OW  HW  HW  OW  HW  HW  OW  HW  HW  OW  HW  
HW  OW  HW  HW  OW  HW  HW  OW  HW  HW  OW  HW  HW  OW  HW  HW  OW  HW  HW  OW  
HW  HW  OW  HW  HW  OW  HW  HW  OW  HW  HW  OW  HW  HW  OW  HW  HW  OW  HW  HW  
OW  HW  HW  OW  HW  HW  OW  HW  HW  OW  HW  HW  OW  HW  HW  OW  HW  HW  OW  HW  
HW  OW  HW  HW  OW  HW  HW  OW  HW  HW  OW  HW  HW  OW  HW  HW  OW  HW  HW  OW  
HW  HW  OW  HW  HW  OW  HW  HW  OW  HW  HW  OW  HW  HW  OW  HW  HW  OW  HW  HW  
OW  HW  HW  OW  HW  HW  OW  HW  HW  OW  HW  HW  OW  HW  HW  OW  HW  HW  OW  HW  
HW  OW  HW  HW  OW  HW  HW  OW  HW  HW  OW  HW  HW  OW  HW  HW  OW  HW  HW  OW  
HW  HW  OW  HW  HW  OW  HW  HW  OW  HW  HW  OW  HW  HW  OW  HW  HW  OW  HW  HW  
OW  HW  HW  OW  HW  HW  OW  HW  HW  OW  HW  HW  OW  HW  HW  OW  HW  HW  OW  HW  
HW  OW  HW  HW  OW  HW  HW  OW  HW  HW  OW  HW  HW  OW  HW  HW  OW  HW  HW  OW  
HW  HW  OW  HW  HW  OW  HW  HW  OW  HW  HW  OW  HW  HW  OW  HW  HW  OW  HW  HW  
OW  HW  HW  OW  HW  HW  OW  HW  HW  OW  HW  HW  OW  HW  HW  OW  HW  HW  OW  HW  
HW  OW  HW  HW  OW  HW  HW  OW  HW  HW  OW  HW  HW  OW  HW  HW  OW  HW  HW  OW  
HW  HW  OW  HW  HW  OW  HW  HW  OW  HW  HW  OW  HW  HW  OW  HW  HW  OW  HW  HW  
OW  HW  HW  OW  HW  HW  OW  HW  HW  OW  HW  HW  OW  HW  HW  OW  HW  HW  OW  HW  
HW  OW  HW  HW  OW  HW  HW  OW  HW  HW  OW  HW  HW  OW  HW  HW  OW  HW  HW  OW  
HW  HW  OW  HW  HW  OW  HW  HW  OW  HW  HW  OW  HW  HW  OW  HW  HW  OW  HW  HW  
OW  HW  HW  OW  HW  HW  OW  HW  HW  OW  HW  HW  OW  HW  HW  OW  HW  HW  OW  HW  
HW  OW  HW  HW  OW  HW  HW  OW  HW  HW  OW  HW  HW  OW  HW  HW  OW  HW  HW  OW  
HW  HW  OW  HW  HW  OW  HW  HW  OW  HW  HW  OW  HW  HW  OW  HW  HW  OW  HW  HW  
OW  HW  HW  OW  HW  HW  OW  HW  HW  OW  HW  HW  OW  HW  HW  OW  HW  HW  OW  HW  
HW  OW  HW  HW  OW  HW  HW  OW  HW  HW  OW  HW  HW  OW  HW  HW  OW  HW  HW  OW  
HW  HW  OW  HW  HW  OW  HW  HW  OW  HW  HW  OW  HW  HW  OW  HW  HW  OW  HW  HW  
OW  HW  HW  OW  HW  HW  OW  HW  HW  OW  HW  HW  OW  HW  HW  OW  HW  HW  OW  HW  
HW  OW  HW  HW  OW  HW  HW  OW  HW  HW  OW  HW  HW  OW  HW  HW  OW  HW  HW  OW  
HW  HW  OW  HW  HW  OW  HW  HW  OW  HW  HW  OW  HW  HW  OW  HW  HW  OW  HW  HW  
OW  HW  HW  OW  HW  HW  OW  HW  HW  OW  HW  HW  OW  HW  HW  OW  HW  HW  OW  HW  
HW  OW  HW  HW  OW  HW  HW  OW  HW  HW  OW  HW  HW  OW  HW  HW  OW  HW  HW  OW  
HW  HW  OW  HW  HW  OW  HW  HW  OW  HW  HW  OW  HW  HW  OW  HW  HW  OW  HW  HW  
OW  HW  HW  OW  HW  HW  OW  HW  HW  OW  HW  HW  OW  HW  HW  OW  HW  HW  OW  HW  
HW  OW  HW  HW  OW  HW  HW  OW  HW  HW  OW  HW  HW  OW  HW  HW  OW  HW  HW  OW  
HW  HW  OW  HW  HW  OW  HW  HW  OW  HW  HW  OW  HW  HW  OW  HW  HW  OW  HW  HW  
OW  HW  HW  OW  HW  HW  OW  HW  HW  OW  HW  HW  OW  HW  HW  OW  HW  HW  OW  HW  
HW  OW  HW  HW  OW  HW  HW  OW  HW  HW  OW  HW  HW  OW  HW  HW  OW  HW  HW  OW  
HW  HW  OW  HW  HW  OW  HW  HW  OW  HW  HW  OW  HW  HW  OW  HW  HW  OW  HW  HW  
OW  HW  HW  OW  HW  HW  OW  HW  HW  OW  HW  HW  OW  HW  HW  OW  HW  HW  OW  HW  
HW  OW  HW  HW  OW  HW  HW  OW  HW  HW  OW  HW  HW  OW  HW  HW  OW  HW  HW  OW  
HW  HW  OW  HW  HW  OW  HW  HW  OW  HW  HW  OW  HW  HW  OW  HW  HW  OW  HW  HW  
OW  HW  HW  OW  HW  HW  OW  HW  HW  OW  HW  HW  OW  HW  HW  OW  HW  HW  OW  HW  
HW  OW  HW  HW  OW  HW  HW  OW  HW  HW  OW  HW  HW  OW  HW  HW  OW  HW  HW  OW  
HW  HW  OW  HW  HW  OW  HW  HW  OW  HW  HW  OW  HW  HW  OW  HW  HW  OW  HW  HW  
OW  HW  HW  OW  HW  HW  OW  HW  HW  OW  HW  HW  OW  HW  HW  OW  HW  HW  OW  HW  
HW  OW  HW  HW  OW  HW  HW  OW  HW  HW  OW  HW  HW  OW  HW  HW  OW  HW  HW  OW  
HW  HW  OW  HW  HW  OW  HW  HW  OW  HW  HW  OW  HW  HW  OW  HW  HW  OW  HW  HW  
OW  HW  HW  OW  HW  HW  OW  HW  HW  OW  HW  HW  OW  HW  HW  OW  HW  HW  OW  HW  
HW  OW  HW  HW  OW  HW  HW  OW  HW  HW  OW  HW  HW  OW  HW  HW  OW  HW  HW  OW  
HW  HW  OW  HW  HW  OW  HW  HW  OW  HW  HW  OW  HW  HW  OW  HW  HW  OW  HW  HW  
OW  HW  HW  OW  HW  HW  OW  HW  HW  OW  HW  HW  OW  HW  HW  OW  HW  HW  OW  HW  
HW  OW  HW  HW  OW  HW  HW  OW  HW  HW  OW  HW  HW  OW  HW  HW  OW  HW  HW  OW  
HW  HW  OW  HW  HW  OW  HW  HW  OW  HW  HW  OW  HW  HW  OW  HW  HW  OW  HW  HW  
OW  HW  HW  OW  HW  HW  OW  HW  HW  OW  HW  HW  OW  HW  HW  OW  HW  HW  OW  HW  
HW  OW  HW  HW  OW  HW  HW  OW  HW  HW  OW  HW  HW  OW  HW  HW  OW  HW  HW  OW  
HW  HW  OW  HW  HW  OW  HW  HW  OW  HW  HW  OW  HW  HW  OW  HW  HW  OW  HW  HW  
OW  HW  HW  OW  HW  HW  OW  HW  HW  OW  HW  HW  OW  HW  HW  OW  HW  HW  OW  HW  
HW  OW  HW  HW  OW  HW  HW  OW  HW  HW  OW  HW  HW  OW  HW  HW  OW  HW  HW  OW  
HW  HW  OW  HW  HW  OW  HW  HW  OW  HW  HW  OW  HW  HW  OW  HW  HW  OW  HW  HW  
OW  HW  HW  OW  HW  HW  OW  HW  HW  OW  HW  HW  OW  HW  HW  OW  HW  HW  OW  HW  
HW  OW  HW  HW  OW  HW  HW  OW  HW  HW  OW  HW  HW  OW  HW  HW  OW  HW  HW  OW  
HW  HW  OW  HW  HW  OW  HW  HW  OW  HW  HW  OW  HW  HW  OW  HW  HW  OW  HW  HW  
OW  HW  HW  OW  HW  HW  OW  HW  HW  OW  HW  HW  OW  HW  HW  OW  HW  HW  OW  HW  
HW  OW  HW  HW  OW  HW  HW  OW  HW  HW  OW  HW  HW  OW  HW  HW  OW  HW  HW  OW  
HW  HW  OW  HW  HW  OW  HW  HW  OW  HW  HW  OW  HW  HW  OW  HW  HW  OW  HW  HW  
OW  HW  HW  OW  HW  HW  OW  HW  HW  OW  HW  HW  OW  HW  HW  OW  HW  HW  OW  HW  
HW  OW  HW  HW  OW  HW  HW  OW  HW  HW  OW  HW  HW  OW  HW  HW  OW  HW  HW  OW  
HW  HW  OW  HW  HW  OW  HW  HW  OW  HW  HW  OW  HW  HW  OW  HW  HW  OW  HW  HW  
OW  HW  HW  OW  HW  HW  OW  HW  HW  OW  HW  HW  OW  HW  HW  OW  HW  HW  OW  HW  
HW  OW  HW  HW  OW  HW  HW  OW  HW  HW  OW  HW  HW  OW  HW  HW  OW  HW  HW  OW  
HW  HW  OW  HW  HW  OW  HW  HW  OW  HW  HW  OW  HW  HW  OW  HW  HW  OW  HW  HW  
OW  HW  HW  OW  HW  HW  OW  HW  HW  OW  HW  HW  OW  HW  HW  OW  HW  HW  OW  HW  
HW  OW  HW  HW  OW  HW  HW  OW  HW  HW  OW  HW  HW  OW  HW  HW  OW  HW  HW  OW  
HW  HW  OW  HW  HW  OW  HW  HW  OW  HW  HW  OW  HW  HW  OW  HW  HW  OW  HW  HW  
OW  HW  HW  OW  HW  HW  OW  HW  HW  OW  HW  HW  OW  HW  HW  OW  HW  HW  OW  HW  
HW  OW  HW  HW  OW  HW  HW  OW  HW  HW  OW  HW  HW  OW  HW  HW  OW  HW  HW  OW  
HW  HW  OW  HW  HW  OW  HW  HW  OW  HW  HW  OW  HW  HW  OW  HW  HW  OW  HW  HW  
OW  HW  HW  OW  HW  HW  OW  HW  HW  OW  HW  HW  OW  HW  HW  OW  HW  HW  OW  HW  
HW  OW  HW  HW  OW  HW  HW  OW  HW  HW  OW  HW  HW  OW  HW  HW  OW  HW  HW  OW  
HW  HW  OW  HW  HW  OW  HW  HW  OW  HW  HW  OW  HW  HW  OW  HW  HW  OW  HW  HW  
OW  HW  HW  OW  HW  HW  OW  HW  HW  OW  HW  HW  OW  HW  HW  OW  HW  HW  OW  HW  
HW  OW  HW  HW  OW  HW  HW  OW  HW  HW  OW  HW  HW  OW  HW  HW  OW  HW  HW  OW  
HW  HW  OW  HW  HW  OW  HW  HW  OW  HW  HW  OW  HW  HW  OW  HW  HW  OW  HW  HW  
OW  HW  HW  OW  HW  HW  OW  HW  HW  OW  HW  HW  OW  HW  HW  OW  HW  HW  OW  HW  
HW  OW  HW  HW  OW  HW  HW  OW  HW  HW  OW  HW  HW  OW  HW  HW  OW  HW  HW  OW  
HW  HW  OW  HW  HW  OW  HW  HW  OW  HW  HW  OW  HW  HW  OW  HW  HW  OW  HW  HW  
OW  HW  HW  OW  HW  HW  OW  HW  HW  OW  HW  HW  OW  HW  HW  OW  HW  HW  OW  HW  
HW  OW  HW  HW  OW  HW  HW  OW  HW  HW  OW  HW  HW  OW  HW  HW  OW  HW  HW  OW  
HW  HW  OW  HW  HW  OW  HW  HW  OW  HW  HW  OW  HW  HW  OW  HW  HW  OW  HW  HW  
OW  HW  HW  OW  HW  HW  OW  HW  HW  OW  HW  HW  OW  HW  HW  OW  HW  HW  OW  HW  
HW  OW  HW  HW  OW  HW  HW  OW  HW  HW  OW  HW  HW  OW  HW  HW  OW  HW  HW  OW  
HW  HW  OW  HW  HW  OW  HW  HW  OW  HW  HW  OW  HW  HW  OW  HW  HW  OW  HW  HW  
OW  HW  HW  OW  HW  HW  OW  HW  HW  OW  HW  HW  OW  HW  HW  OW  HW  HW  OW  HW  
HW  OW  HW  HW  OW  HW  HW  OW  HW  HW  OW  HW  HW  OW  HW  HW  OW  HW  HW  OW  
HW  HW  OW  HW  HW  OW  HW  HW  OW  HW  HW  OW  HW  HW  OW  HW  HW  OW  HW  HW  
OW  HW  HW  OW  HW  HW  OW  HW  HW  OW  HW  HW  OW  HW  HW  OW  HW  HW  OW  HW  
HW  OW  HW  HW  OW  HW  HW  OW  HW  HW  OW  HW  HW  OW  HW  HW  OW  HW  HW  OW  
HW  HW  OW  HW  HW  OW  HW  HW  OW  HW  HW  OW  HW  HW  OW  HW  HW  OW  HW  HW  
OW  HW  HW  OW  HW  HW  OW  HW  HW  OW  HW  HW  OW  HW  HW  OW  HW  HW  OW  HW  
HW  OW  HW  HW  OW  HW  HW  OW  HW  HW  OW  HW  HW  OW  HW  HW  OW  HW  HW  OW  
HW  HW  OW  HW  HW  OW  HW  HW  OW  HW  HW  OW  HW  HW  OW  HW  HW  OW  HW  HW  
OW  HW  HW  OW  HW  HW  OW  HW  HW  OW  HW  HW  OW  HW  HW  OW  HW  HW  OW  HW  
HW  OW  HW  HW  OW  HW  HW  OW  HW  HW  OW  HW  HW  OW  HW  HW  OW  HW  HW  OW  
HW  HW  OW  HW  HW  OW  HW  HW  OW  HW  HW  OW  HW  HW  OW  HW  HW  OW  HW  HW  
OW  HW  HW  OW  HW  HW  OW  HW  HW  OW  HW  HW  OW  HW  HW  OW  HW  HW  OW  HW  
HW  OW  HW  HW  OW  HW  HW  OW  HW  HW  OW  HW  HW  OW  HW  HW  OW  HW  HW  OW  
HW  HW  OW  HW  HW  OW  HW  HW  OW  HW  HW  OW  HW  HW  OW  HW  HW  OW  HW  HW  
OW  HW  HW  OW  HW  HW  OW  HW  HW  OW  HW  HW  OW  HW  HW  OW  HW  HW  OW  HW  
HW  OW  HW  HW  OW  HW  HW  OW  HW  HW  OW  HW  HW  OW  HW  HW  OW  HW  HW  OW  
HW  HW  OW  HW  HW  OW  HW  HW  OW  HW  HW  OW  HW  HW  OW  HW  HW  OW  HW  HW  
OW  HW  HW  OW  HW  HW  OW  HW  HW  OW  HW  HW  OW  HW  HW  OW  HW  HW  OW  HW  
HW  OW  HW  HW  OW  HW  HW  OW  HW  HW  OW  HW  HW  OW  HW  HW  OW  HW  HW  OW  
HW  HW  OW  HW  HW  OW  HW  HW  OW  HW  HW  OW  HW  HW  OW  HW  HW  OW  HW  HW  
OW  HW  HW  OW  HW  HW  OW  HW  HW  OW  HW  HW  OW  HW  HW  OW  HW  HW  OW  HW  
HW  OW  HW  HW  OW  HW  HW  OW  HW  HW  OW  HW  HW  OW  HW  HW  OW  HW  HW  OW  
HW  HW  OW  HW  HW  OW  HW  HW  OW  HW  HW  OW  HW  HW  OW  HW  HW  OW  HW  HW  
OW  HW  HW  OW  HW  HW  OW  HW  HW  OW  HW  HW  OW  HW  HW  OW  HW  HW  OW  HW  
HW  OW  HW  HW  OW  HW  HW  OW  HW  HW  OW  HW  HW  OW  HW  HW  OW  HW  HW  OW  
HW  HW  OW  HW  HW  OW  HW  HW  OW  HW  HW  OW  HW  HW  OW  HW  HW  OW  HW  HW  
OW  HW  HW  OW  HW  HW  OW  HW  HW  OW  HW  HW  OW  HW  HW  OW  HW  HW  OW  HW  
HW  OW  HW  HW  OW  HW  HW  OW  HW  HW  OW  HW  HW  OW  HW  HW  OW  HW  HW  OW  
HW  HW  OW  HW  HW  OW  HW  HW  OW  HW  HW  OW  HW  HW  OW  HW  HW  OW  HW  HW  
OW  HW  HW  OW  HW  HW  OW  HW  HW  OW  HW  HW  OW  HW  HW  OW  HW  HW  OW  HW  
HW  OW  HW  HW  OW  HW  HW  OW  HW  HW  OW  HW  HW  OW  HW  HW  OW  HW  HW  OW  
HW  HW  OW  HW  HW  OW  HW  HW  OW  HW  HW  OW  HW  HW  OW  HW  HW  OW  HW  HW  
OW  HW  HW  OW  HW  HW  OW  HW  HW  OW  HW  HW  OW  HW  HW  OW  HW  HW  OW  HW  
HW  OW  HW  HW  OW  HW  HW  OW  HW  HW  OW  HW  HW  OW  HW  HW  OW  HW  HW  OW  
HW  HW  OW  HW  HW  OW  HW  HW  OW  HW  HW  OW  HW  HW  OW  HW  HW  OW  HW  HW  
OW  HW  HW  OW  HW  HW  OW  HW  HW  OW  HW  HW  OW  HW  HW  OW  HW  HW  OW  HW  
HW  OW  HW  HW  OW  HW  HW  OW  HW  HW  OW  HW  HW  OW  HW  HW  OW  HW  HW  OW  
HW  HW  OW  HW  HW  OW  HW  HW  OW  HW  HW  OW  HW  HW  OW  HW  HW  OW  HW  HW  
OW  HW  HW  OW  HW  HW  OW  HW  HW  OW  HW  HW  OW  HW  HW  OW  HW  HW  OW  HW  
HW  OW  HW  HW  OW  HW  HW  OW  HW  HW  OW  HW  HW  OW  HW  HW  OW  HW  HW  OW  
HW  HW  OW  HW  HW  OW  HW  HW  OW  HW  HW  OW  HW  HW  OW  HW  HW  OW  HW  HW  
OW  HW  HW  OW  HW  HW  OW  HW  HW  OW  HW  HW  OW  HW  HW  OW  HW  HW  OW  HW  
HW  OW  HW  HW  OW  HW  HW  OW  HW  HW  OW  HW  HW  OW  HW  HW  OW  HW  HW  OW  
HW  HW  OW  HW  HW  OW  HW  HW  OW  HW  HW  OW  HW  HW  OW  HW  HW  OW  HW  HW  
OW  HW  HW  OW  HW  HW  OW  HW  HW  OW  HW  HW  OW  HW  HW  OW  HW  HW  OW  HW  
HW  OW  HW  HW  OW  HW  HW  OW  HW  HW  OW  HW  HW  OW  HW  HW  OW  HW  HW  OW  
HW  HW  OW  HW  HW  OW  HW  HW  OW  HW  HW  OW  HW  HW  OW  HW  HW  OW  HW  HW  
OW  HW  HW  OW  HW  HW  OW  HW  HW  OW  HW  HW  OW  HW  HW  OW  HW  HW  OW  HW  
HW  OW  HW  HW  OW  HW  HW  OW  HW  HW  OW  HW  HW  OW  HW  HW  OW  HW  HW  OW  
HW  HW  OW  HW  HW  OW  HW  HW  OW  HW  HW  OW  HW  HW  OW  HW  HW  OW  HW  HW  
OW  HW  HW  OW  HW  HW  OW  HW  HW  OW  HW  HW  OW  HW  HW  OW  HW  HW  OW  HW  
HW  OW  HW  HW  OW  HW  HW  OW  HW  HW  OW  HW  HW  OW  HW  HW  OW  HW  HW  OW  
HW  HW  OW  HW  HW  OW  HW  HW  OW  HW  HW  OW  HW  HW  OW  HW  HW  OW  HW  HW  
OW  HW  HW  OW  HW  HW  OW  HW  HW  OW  HW  HW  OW  HW  HW  OW  HW  HW  OW  HW  
HW  OW  HW  HW  OW  HW  HW  OW  HW  HW  OW  HW  HW  OW  HW  HW  OW  HW  HW  OW  
HW  HW  OW  HW  HW  OW  HW  HW  OW  HW  HW  OW  HW  HW  OW  HW  HW  OW  HW  HW  
OW  HW  HW  OW  HW  HW  OW  HW  HW  OW  HW  HW  OW  HW  HW  OW  HW  HW  OW  HW  
HW  OW  HW  HW  OW  HW  HW  OW  HW  HW  OW  HW  HW  OW  HW  HW  OW  HW  HW  OW  
HW  HW  OW  HW  HW  OW  HW  HW  OW  HW  HW  OW  HW  HW  OW  HW  HW  OW  HW  HW  
OW  HW  HW  OW  HW  HW  OW  HW  HW  OW  HW  HW  OW  HW  HW  OW  HW  HW  OW  HW  
HW  OW  HW  HW  OW  HW  HW  OW  HW  HW  OW  HW  HW  OW  HW  HW  OW  HW  HW  OW  
HW  HW  OW  HW  HW  OW  HW  HW  OW  HW  HW  OW  HW  HW  OW  HW  HW  OW  HW  HW  
OW  HW  HW  OW  HW  HW  OW  HW  HW  OW  HW  HW  OW  HW  HW  OW  HW  HW  OW  HW  
HW  OW  HW  HW  OW  HW  HW  OW  HW  HW  OW  HW  HW  OW  HW  HW  OW  HW  HW  OW  
HW  HW  OW  HW  HW  OW  HW  HW  OW  HW  HW  OW  HW  HW  OW  HW  HW  OW  HW  HW  
OW  HW  HW  OW  HW  HW  OW  HW  HW  OW  HW  HW  OW  HW  HW  OW  HW  HW  OW  HW  
HW  OW  HW  HW  OW  HW  HW  OW  HW  HW  OW  HW  HW  OW  HW  HW  OW  HW  HW  OW  
HW  HW  OW  HW  HW  OW  HW  HW  OW  HW  HW  OW  HW  HW  OW  HW  HW  OW  HW  HW  
OW  HW  HW  OW  HW  HW  OW  HW  HW  OW  HW  HW  OW  HW  HW  OW  HW  HW  OW  HW  
HW  OW  HW  HW  OW  HW  HW  OW  HW  HW  OW  HW  HW  OW  HW  HW  OW  HW  HW  OW  
HW  HW  OW  HW  HW  OW  HW  HW  OW  HW  HW  OW  HW  HW  OW  HW  HW  OW  HW  HW  
OW  HW  HW  OW  HW  HW  OW  HW  HW  OW  HW  HW  OW  HW  HW  OW  HW  HW  OW  HW  
HW  OW  HW  HW  OW  HW  HW  OW  HW  HW  OW  HW  HW  OW  HW  HW  OW  HW  HW  OW  
HW  HW  OW  HW  HW  OW  HW  HW  OW  HW  HW  OW  HW  HW  OW  HW  HW  OW  HW  HW  
OW  HW  HW  OW  HW  HW  OW  HW  HW  OW  HW  HW  OW  HW  HW  OW  HW  HW  OW  HW  
HW  OW  HW  HW  OW  HW  HW  OW  HW  HW  OW  HW  HW  OW  HW  HW  OW  HW  HW  OW  
HW  HW  OW  HW  HW  OW  HW  HW  OW  HW  HW  OW  HW  HW  OW  HW  HW  OW  HW  HW  
OW  HW  HW  OW  HW  HW  OW  HW  HW  OW  HW  HW  OW  HW  HW  OW  HW  HW  OW  HW  
HW  OW  HW  HW  OW  HW  HW  OW  HW  HW  OW  HW  HW  OW  HW  HW  OW  HW  HW  OW  
HW  HW  OW  HW  HW  OW  HW  HW  OW  HW  HW  OW  HW  HW  OW  HW  HW  OW  HW  HW  
OW  HW  HW  OW  HW  HW  OW  HW  HW  OW  HW  HW  OW  HW  HW  OW  HW  HW  OW  HW  
HW  OW  HW  HW  OW  HW  HW  OW  HW  HW  OW  HW  HW  OW  HW  HW  OW  HW  HW  OW  
HW  HW  OW  HW  HW  OW  HW  HW  OW  HW  HW  OW  HW  HW  OW  HW  HW  OW  HW  HW  
OW  HW  HW  OW  HW  HW  OW  HW  HW  OW  HW  HW  OW  HW  HW  OW  HW  HW  OW  HW  
HW  OW  HW  HW  OW  HW  HW  OW  HW  HW  OW  HW  HW  OW  HW  HW  OW  HW  HW  OW  
HW  HW  OW  HW  HW  OW  HW  HW  OW  HW  HW  OW  HW  HW  OW  HW  HW  OW  HW  HW  
OW  HW  HW  OW  HW  HW  OW  HW  HW  OW  HW  HW  OW  HW  HW  OW  HW  HW  OW  HW  
HW  OW  HW  HW  OW  HW  HW  OW  HW  HW  OW  HW  HW  OW  HW  HW  OW  HW  HW  OW  
HW  HW  OW  HW  HW  OW  HW  HW  OW  HW  HW  OW  HW  HW  OW  HW  HW  OW  HW  HW  
OW  HW  HW  OW  HW  HW  OW  HW  HW  OW  HW  HW  OW  HW  HW  OW  HW  HW  OW  HW  
HW  OW  HW  HW  OW  HW  HW  OW  HW  HW  OW  HW  HW  OW  HW  HW  OW  HW  HW  OW  
HW  HW  OW  HW  HW  OW  HW  HW  OW  HW  HW  OW  HW  HW  OW  HW  HW  OW  HW  HW  
OW  HW  HW  OW  HW  HW  OW  HW  HW  OW  HW  HW  OW  HW  HW  OW  HW  HW  OW  HW  
HW  OW  HW  HW  OW  HW  HW  OW  HW  HW  OW  HW  HW  OW  HW  HW  OW  HW  HW  OW  
HW  HW  OW  HW  HW  OW  HW  HW  OW  HW  HW  OW  HW  HW  OW  HW  HW  OW  HW  HW  
OW  HW  HW  OW  HW  HW  OW  HW  HW  OW  HW  HW  OW  HW  HW  OW  HW  HW  OW  HW  
HW  OW  HW  HW  OW  HW  HW  OW  HW  HW  OW  HW  HW  OW  HW  HW  OW  HW  HW  OW  
HW  HW  OW  HW  HW  OW  HW  HW  OW  HW  HW  OW  HW  HW  OW  HW  HW  OW  HW  HW  
OW  HW  HW  OW  HW  HW  OW  HW  HW  OW  HW  HW  OW  HW  HW  OW  HW  HW  OW  HW  
HW  OW  HW  HW  OW  HW  HW  OW  HW  HW  OW  HW  HW  OW  HW  HW  OW  HW  HW  OW  
HW  HW  OW  HW  HW  OW  HW  HW  OW  HW  HW  OW  HW  HW  OW  HW  HW  OW  HW  HW  
OW  HW  HW  OW  HW  HW  OW  HW  HW  OW  HW  HW  OW  HW  HW  OW  HW  HW  OW  HW  
HW  OW  HW  HW  OW  HW  HW  OW  HW  HW  OW  HW  HW  OW  HW  HW  OW  HW  HW  OW  
HW  HW  OW  HW  HW  OW  HW  HW  OW  HW  HW  OW  HW  HW  OW  HW  HW  OW  HW  HW  
OW  HW  HW  OW  HW  HW  OW  HW  HW  OW  HW  HW  OW  HW  HW  OW  HW  HW  OW  HW  
HW  OW  HW  HW  OW  HW  HW  OW  HW  HW  OW  HW  HW  OW  HW  HW  OW  HW  HW  OW  
HW  HW  OW  HW  HW  OW  HW  HW  OW  HW  HW  OW  HW  HW  OW  HW  HW  OW  HW  HW  
OW  HW  HW  OW  HW  HW  OW  HW  HW  OW  HW  HW  OW  HW  HW  OW  HW  HW  OW  HW  
HW  OW  HW  HW  OW  HW  HW  OW  HW  HW  OW  HW  HW  OW  HW  HW  OW  HW  HW  OW  
HW  HW  OW  HW  HW  OW  HW  HW  OW  HW  HW  OW  HW  HW  OW  HW  HW  OW  HW  HW  
OW  HW  HW  OW  HW  HW  OW  HW  HW  OW  HW  HW  OW  HW  HW  OW  HW  HW  OW  HW  
HW  OW  HW  HW  OW  HW  HW  OW  HW  HW  OW  HW  HW  OW  HW  HW  OW  HW  HW  OW  
HW  HW  OW  HW  HW  OW  HW  HW  OW  HW  HW  OW  HW  HW  OW  HW  HW  OW  HW  HW  
OW  HW  HW  OW  HW  HW  OW  HW  HW  OW  HW  HW  OW  HW  HW  OW  HW  HW  OW  HW  
HW  OW  HW  HW  OW  HW  HW  OW  HW  HW  OW  HW  HW  OW  HW  HW  OW  HW  HW  OW  
HW  HW  OW  HW  HW  OW  HW  HW  OW  HW  HW  OW  HW  HW  OW  HW  HW  OW  HW  HW  
OW  HW  HW  OW  HW  HW  OW  HW  HW  OW  HW  HW  OW  HW  HW  OW  HW  HW  OW  HW  
HW  OW  HW  HW  OW  HW  HW  OW  HW  HW  OW  HW  HW  OW  HW  HW  OW  HW  HW  OW  
HW  HW  OW  HW  HW  OW  HW  HW  OW  HW  HW  OW  HW  HW  OW  HW  HW  OW  HW  HW  
OW  HW  HW  OW  HW  HW  OW  HW  HW  OW  HW  HW  OW  HW  HW  OW  HW  HW  OW  HW  
HW  OW  HW  HW  OW  HW  HW  OW  HW  HW  OW  HW  HW  OW  HW  HW  OW  HW  HW  OW  
HW  HW  OW  HW  HW  OW  HW  HW  OW  HW  HW  OW  HW  HW  OW  HW  HW  OW  HW  HW  
OW  HW  HW  OW  HW  HW  OW  HW  HW  OW  HW  HW  OW  HW  HW  OW  HW  HW  OW  HW  
HW  OW  HW  HW  OW  HW  HW  OW  HW  HW  OW  HW  HW  OW  HW  HW  OW  HW  HW  OW  
HW  HW  OW  HW  HW  OW  HW  HW  OW  HW  HW  OW  HW  HW  OW  HW  HW  OW  HW  HW  
OW  HW  HW  OW  HW  HW  OW  HW  HW  OW  HW  HW  OW  HW  HW  OW  HW  HW  OW  HW  
HW  OW  HW  HW  OW  HW  HW  OW  HW  HW  OW  HW  HW  OW  HW  HW  OW  HW  HW  OW  
HW  HW  OW  HW  HW  OW  HW  HW  OW  HW  HW  OW  HW  HW  OW  HW  HW  OW  HW  HW  
OW  HW  HW  OW  HW  HW  OW  HW  HW  OW  HW  HW  OW  HW  HW  OW  HW  HW  OW  HW  
HW  OW  HW  HW  OW  HW  HW  OW  HW  HW  OW  HW  HW  OW  HW  HW  OW  HW  HW  OW  
HW  HW  OW  HW  HW  OW  HW  HW  OW  HW  HW  OW  HW  HW  OW  HW  HW  OW  HW  HW  
OW  HW  HW  OW  HW  HW  OW  HW  HW  OW  HW  HW  OW  HW  HW  OW  HW  HW  OW  HW  
HW  OW  HW  HW  OW  HW  HW  OW  HW  HW  OW  HW  HW  OW  HW  HW  OW  HW  HW  OW  
HW  HW  OW  HW  HW  OW  HW  HW  OW  HW  HW  OW  HW  HW  OW  HW  HW  OW  HW  HW  
OW  HW  HW  OW  HW  HW  OW  HW  HW  OW  HW  HW  OW  HW  HW  OW  HW  HW  OW  HW  
HW  OW  HW  HW  OW  HW  HW  OW  HW  HW  OW  HW  HW  OW  HW  HW  OW  HW  HW  OW  
HW  HW  OW  HW  HW  OW  HW  HW  OW  HW  HW  OW  HW  HW  OW  HW  HW  OW  HW  HW  
OW  HW  HW  OW  HW  HW  OW  HW  HW  OW  HW  HW  OW  HW  HW  OW  HW  HW  OW  HW  
HW  OW  HW  HW  OW  HW  HW  OW  HW  HW  OW  HW  HW  OW  HW  HW  OW  HW  HW  OW  
HW  HW  OW  HW  HW  OW  HW  HW  OW  HW  HW  OW  HW  HW  OW  HW  HW  OW  HW  HW  
OW  HW  HW  OW  HW  HW  OW  HW  HW  OW  HW  HW  OW  HW  HW  OW  HW  HW  OW  HW  
HW  OW  HW  HW  OW  HW  HW  OW  HW  HW  OW  HW  HW  OW  HW  HW  OW  HW  HW  OW  
HW  HW  OW  HW  HW  OW  HW  HW  OW  HW  HW  OW  HW  HW  OW  HW  HW  OW  HW  HW  
OW  HW  HW  OW  HW  HW  OW  HW  HW  OW  HW  HW  OW  HW  HW  OW  HW  HW  OW  HW  
HW  OW  HW  HW  OW  HW  HW  OW  HW  HW  OW  HW  HW  OW  HW  HW  OW  HW  HW  OW  
HW  HW  OW  HW  HW  OW  HW  HW  OW  HW  HW  OW  HW  HW  OW  HW  HW  OW  HW  HW  
OW  HW  HW  OW  HW  HW  OW  HW  HW  OW  HW  HW  OW  HW  HW  OW  HW  HW  OW  HW  
HW  OW  HW  HW  OW  HW  HW  OW  HW  HW  OW  HW  HW  OW  HW  HW  OW  HW  HW  OW  
HW  HW  OW  HW  HW  OW  HW  HW  OW  HW  HW  OW  HW  HW  OW  HW  HW  OW  HW  HW  
OW  HW  HW  OW  HW  HW  OW  HW  HW  OW  HW  HW  OW  HW  HW  OW  HW  HW  OW  HW  
HW  OW  HW  HW  OW  HW  HW  OW  HW  HW  OW  HW  HW  OW  HW  HW  OW  HW  HW  OW  
HW  HW  OW  HW  HW  OW  HW  HW  OW  HW  HW  OW  HW  HW  OW  HW  HW  OW  HW  HW  
OW  HW  HW  OW  HW  HW  OW  HW  HW  OW  HW  HW  OW  HW  HW  OW  HW  HW  OW  HW  
HW  OW  HW  HW  OW  HW  HW  OW  HW  HW  OW  HW  HW  OW  HW  HW  OW  HW  HW  OW  
HW  HW  OW  HW  HW  OW  HW  HW  OW  HW  HW  OW  HW  HW  OW  HW  HW  OW  HW  HW  
OW  HW  HW  OW  HW  HW  OW  HW  HW  OW  HW  HW  OW  HW  HW  OW  HW  HW  OW  HW  
HW  OW  HW  HW  OW  HW  HW  OW  HW  HW  OW  HW  HW  OW  HW  HW  OW  HW  HW  OW  
HW  HW  OW  HW  HW  OW  HW  HW  OW  HW  HW  OW  HW  HW  OW  HW  HW  OW  HW  HW  
OW  HW  HW  OW  HW  HW  OW  HW  HW  OW  HW  HW  OW  HW  HW  OW  HW  HW  OW  HW  
HW  OW  HW  HW  OW  HW  HW  OW  HW  HW  OW  HW  HW  OW  HW  HW  OW  HW  HW  OW  
HW  HW  OW  HW  HW  OW  HW  HW  OW  HW  HW  OW  HW  HW  OW  HW  HW  OW  HW  HW  
OW  HW  HW  OW  HW  HW  OW  HW  HW  OW  HW  HW  OW  HW  HW  OW  HW  HW  OW  HW  
HW  OW  HW  HW  OW  HW  HW  OW  HW  HW  OW  HW  HW  OW  HW  HW  OW  HW  HW  OW  
HW  HW  OW  HW  HW  OW  HW  HW  OW  HW  HW  OW  HW  HW  OW  HW  HW  OW  HW  HW  
OW  HW  HW  OW  HW  HW  OW  HW  HW  OW  HW  HW  OW  HW  HW  OW  HW  HW  OW  HW  
HW  OW  HW  HW  OW  HW  HW  OW  HW  HW  OW  HW  HW  OW  HW  HW  OW  HW  HW  OW  
HW  HW  OW  HW  HW  OW  HW  HW  OW  HW  HW  OW  HW  HW  OW  HW  HW  OW  HW  HW  
OW  HW  HW  OW  HW  HW  OW  HW  HW  OW  HW  HW  OW  HW  HW  OW  HW  HW  OW  HW  
HW  OW  HW  HW  OW  HW  HW  OW  HW  HW  OW  HW  HW  OW  HW  HW  OW  HW  HW  OW  
HW  HW  OW  HW  HW  OW  HW  HW  OW  HW  HW  OW  HW  HW  OW  HW  HW  OW  HW  HW  
OW  HW  HW  OW  HW  HW  OW  HW  HW  OW  HW  HW  OW  HW  HW  OW  HW  HW  OW  HW  
HW  OW  HW  HW  OW  HW  HW  OW  HW  HW  OW  HW  HW  OW  HW  HW  OW  HW  HW  OW  
HW  HW  OW  HW  HW  OW  HW  HW  OW  HW  HW  OW  HW  HW  OW  HW  HW  OW  HW  HW  
OW  HW  HW  OW  HW  HW  OW  HW  HW  OW  HW  HW  OW  HW  HW  OW  HW  HW  OW  HW  
HW  OW  HW  HW  OW  HW  HW  OW  HW  HW  OW  HW  HW  OW  HW  HW  OW  HW  HW  OW  
HW  HW  OW  HW  HW  OW  HW  HW  OW  HW  HW  OW  HW  HW  OW  HW  HW  OW  HW  HW  
OW  HW  HW  OW  HW  HW  OW  HW  HW  OW  HW  HW  OW  HW  HW  OW  HW  HW  OW  HW  
HW  OW  HW  HW  OW  HW  HW  OW  HW  HW  OW  HW  HW  OW  HW  HW  OW  HW  HW  OW  
HW  HW  OW  HW  HW  OW  HW  HW  OW  HW  HW  OW  HW  HW  OW  HW  HW  OW  HW  HW  
OW  HW  HW  OW  HW  HW  OW  HW  HW  OW  HW  HW  OW  HW  HW  OW  HW  HW  OW  HW  
HW  OW  HW  HW  OW  HW  HW  OW  HW  HW  OW  HW  HW  OW  HW  HW  OW  HW  HW  OW  
HW  HW  OW  HW  HW  OW  HW  HW  OW  HW  HW  OW  HW  HW  OW  HW  HW  OW  HW  HW  
OW  HW  HW  OW  HW  HW  OW  HW  HW  OW  HW  HW  OW  HW  HW  OW  HW  HW  OW  HW  
HW  OW  HW  HW  OW  HW  HW  OW  HW  HW  OW  HW  HW  OW  HW  HW  OW  HW  HW  OW  
HW  HW  OW  HW  HW  OW  HW  HW  OW  HW  HW  OW  HW  HW  OW  HW  HW  OW  HW  HW  
OW  HW  HW  OW  HW  HW  OW  HW  HW  OW  HW  HW  OW  HW  HW  OW  HW  HW  OW  HW  
HW  OW  HW  HW  OW  HW  HW  OW  HW  HW  OW  HW  HW  OW  HW  HW  OW  HW  HW  OW  
HW  HW  OW  HW  HW  OW  HW  HW  OW  HW  HW  OW  HW  HW  OW  HW  HW  OW  HW  HW  
OW  HW  HW  OW  HW  HW  OW  HW  HW  OW  HW  HW  OW  HW  HW  OW  HW  HW  OW  HW  
HW  OW  HW  HW  OW  HW  HW  OW  HW  HW  OW  HW  HW  OW  HW  HW  OW  HW  HW  OW  
HW  HW  OW  HW  HW  OW  HW  HW  OW  HW  HW  OW  HW  HW  OW  HW  HW  OW  HW  HW  
OW  HW  HW  OW  HW  HW  OW  HW  HW  OW  HW  HW  OW  HW  HW  OW  HW  HW  OW  HW  
HW  OW  HW  HW  OW  HW  HW  OW  HW  HW  OW  HW  HW  OW  HW  HW  OW  HW  HW  OW  
HW  HW  OW  HW  HW  OW  HW  HW  OW  HW  HW  OW  HW  HW  OW  HW  HW  OW  HW  HW  
OW  HW  HW  OW  HW  HW  OW  HW  HW  OW  HW  HW  OW  HW  HW  OW  HW  HW  OW  HW  
HW  OW  HW  HW  OW  HW  HW  OW  HW  HW  OW  HW  HW  OW  HW  HW  OW  HW  HW  OW  
HW  HW  OW  HW  HW  OW  HW  HW  OW  HW  HW  OW  HW  HW  OW  HW  HW  OW  HW  HW  
OW  HW  HW  OW  HW  HW  OW  HW  HW  OW  HW  HW  OW  HW  HW  OW  HW  HW  OW  HW  
HW  OW  HW  HW  OW  HW  HW  OW  HW  HW  OW  HW  HW  OW  HW  HW  OW  HW  HW  OW  
HW  HW  OW  HW  HW  OW  HW  HW  OW  HW  HW  OW  HW  HW  OW  HW  HW  OW  HW  HW  
OW  HW  HW  OW  HW  HW  OW  HW  HW  OW  HW  HW  OW  HW  HW  OW  HW  HW  OW  HW  
HW  OW  HW  HW  OW  HW  HW  OW  HW  HW  OW  HW  HW  OW  HW  HW  OW  HW  HW  OW  
HW  HW  OW  HW  HW  OW  HW  HW  OW  HW  HW  OW  HW  HW  OW  HW  HW  OW  HW  HW  
OW  HW  HW  OW  HW  HW  OW  HW  HW  OW  HW  HW  OW  HW  HW  OW  HW  HW  OW  HW  
HW  OW  HW  HW  OW  HW  HW  OW  HW  HW  OW  HW  HW  OW  HW  HW  OW  HW  HW  OW  
HW  HW  OW  HW  HW  OW  HW  HW  OW  HW  HW  OW  HW  HW  OW  HW  HW  OW  HW  HW  
OW  HW  HW  OW  HW  HW  OW  HW  HW  OW  HW  HW  OW  HW  HW  OW  HW  HW  OW  HW  
HW  OW  HW  HW  OW  HW  HW  OW  HW  HW  OW  HW  HW  OW  HW  HW  OW  HW  HW  OW  
HW  HW  OW  HW  HW  OW  HW  HW  OW  HW  HW  OW  HW  HW  OW  HW  HW  OW  HW  HW  
OW  HW  HW  OW  HW  HW  OW  HW  HW  OW  HW  HW  OW  HW  HW  OW  HW  HW  OW  HW  
HW  OW  HW  HW  OW  HW  HW  OW  HW  HW  OW  HW  HW  OW  HW  HW  OW  HW  HW  OW  
HW  HW  OW  HW  HW  OW  HW  HW  OW  HW  HW  OW  HW  HW  OW  HW  HW  OW  HW  HW  
OW  HW  HW  OW  HW  HW  OW  HW  HW  OW  HW  HW  OW  HW  HW  OW  HW  HW  OW  HW  
HW  OW  HW  HW  OW  HW  HW  OW  HW  HW  OW  HW  HW  OW  HW  HW  OW  HW  HW  OW  
HW  HW  OW  HW  HW  OW  HW  HW  OW  HW  HW  OW  HW  HW  OW  HW  HW  OW  HW  HW  
OW  HW  HW  OW  HW  HW  OW  HW  HW  OW  HW  HW  OW  HW  HW  OW  HW  HW  OW  HW  
HW  OW  HW  HW  OW  HW  HW  OW  HW  HW  OW  HW  HW  OW  HW  HW  OW  HW  HW  OW  
HW  HW  OW  HW  HW  OW  HW  HW  OW  HW  HW  OW  HW  HW  OW  HW  HW  OW  HW  HW  
OW  HW  HW  OW  HW  HW  OW  HW  HW  OW  HW  HW  OW  HW  HW  OW  HW  HW  OW  HW  
HW  OW  HW  HW  OW  HW  HW  OW  HW  HW  OW  HW  HW  OW  HW  HW  OW  HW  HW  OW  
HW  HW  OW  HW  HW  OW  HW  HW  OW  HW  HW  OW  HW  HW  OW  HW  HW  OW  HW  HW  
OW  HW  HW  OW  HW  HW  OW  HW  HW  OW  HW  HW  OW  HW  HW  OW  HW  HW  OW  HW  
HW  OW  HW  HW  OW  HW  HW  OW  HW  HW  OW  HW  HW  OW  HW  HW  OW  HW  HW  OW  
HW  HW  OW  HW  HW  OW  HW  HW  OW  HW  HW  OW  HW  HW  OW  HW  HW  OW  HW  HW  
OW  HW  HW  OW  HW  HW  OW  HW  HW  OW  HW  HW  OW  HW  HW  OW  HW  HW  OW  HW  
HW  OW  HW  HW  OW  HW  HW  OW  HW  HW  OW  HW  HW  OW  HW  HW  OW  HW  HW  OW  
HW  HW  OW  HW  HW  OW  HW  HW  OW  HW  HW  OW  HW  HW  OW  HW  HW  OW  HW  HW  
OW  HW  HW  OW  HW  HW  OW  HW  HW  OW  HW  HW  OW  HW  HW  OW  HW  HW  OW  HW  
HW  OW  HW  HW  OW  HW  HW  OW  HW  HW  OW  HW  HW  OW  HW  HW  OW  HW  HW  OW  
HW  HW  OW  HW  HW  OW  HW  HW  OW  HW  HW  OW  HW  HW  OW  HW  HW  OW  HW  HW  
OW  HW  HW  OW  HW  HW  OW  HW  HW  OW  HW  HW  OW  HW  HW  OW  HW  HW  OW  HW  
HW  OW  HW  HW  OW  HW  HW  OW  HW  HW  OW  HW  HW  OW  HW  HW  OW  HW  HW  OW  
HW  HW  OW  HW  HW  OW  HW  HW  OW  HW  HW  OW  HW  HW  OW  HW  HW  OW  HW  HW  
OW  HW  HW  OW  HW  HW  OW  HW  HW  OW  HW  HW  OW  HW  HW  OW  HW  HW  OW  HW  
HW  OW  HW  HW  OW  HW  HW  OW  HW  HW  OW  HW  HW  OW  HW  HW  OW  HW  HW  OW  
HW  HW  OW  HW  HW  OW  HW  HW  OW  HW  HW  OW  HW  HW  OW  HW  HW  OW  HW  HW  
OW  HW  HW  OW  HW  HW  OW  HW  HW  OW  HW  HW  OW  HW  HW  OW  HW  HW  OW  HW  
HW  OW  HW  HW  OW  HW  HW  OW  HW  HW  OW  HW  HW  OW  HW  HW  OW  HW  HW  OW  
HW  HW  OW  HW  HW  OW  HW  HW  OW  HW  HW  OW  HW  HW  OW  HW  HW  OW  HW  HW  
OW  HW  HW  OW  HW  HW  OW  HW  HW  OW  HW  HW  OW  HW  HW  OW  HW  HW  OW  HW  
HW  OW  HW  HW  OW  HW  HW  OW  HW  HW  OW  HW  HW  OW  HW  HW  OW  HW  HW  OW  
HW  HW  OW  HW  HW  OW  HW  HW  OW  HW  HW  OW  HW  HW  OW  HW  HW  OW  HW  HW  
OW  HW  HW  OW  HW  HW  OW  HW  HW  OW  HW  HW  OW  HW  HW  OW  HW  HW  OW  HW  
HW  OW  HW  HW  OW  HW  HW  OW  HW  HW  OW  HW  HW  OW  HW  HW  OW  HW  HW  OW  
HW  HW  OW  HW  HW  OW  HW  HW  OW  HW  HW  OW  HW  HW  OW  HW  HW  OW  HW  HW  
OW  HW  HW  OW  HW  HW  OW  HW  HW  OW  HW  HW  OW  HW  HW  OW  HW  HW  OW  HW  
HW  OW  HW  HW  OW  HW  HW  OW  HW  HW  OW  HW  HW  OW  HW  HW  OW  HW  HW  OW  
HW  HW  OW  HW  HW  OW  HW  HW  OW  HW  HW  OW  HW  HW  OW  HW  HW  OW  HW  HW  
OW  HW  HW  OW  HW  HW  OW  HW  HW  OW  HW  HW  OW  HW  HW  OW  HW  HW  OW  HW  
HW  OW  HW  HW  OW  HW  HW  OW  HW  HW  OW  HW  HW  OW  HW  HW  OW  HW  HW  OW  
HW  HW  OW  HW  HW  OW  HW  HW  OW  HW  HW  OW  HW  HW  OW  HW  HW  OW  HW  HW  
OW  HW  HW  OW  HW  HW  OW  HW  HW  OW  HW  HW  OW  HW  HW  OW  HW  HW  OW  HW  
HW  OW  HW  HW  OW  HW  HW  OW  HW  HW  OW  HW  HW  OW  HW  HW  OW  HW  HW  OW  
HW  HW  OW  HW  HW  OW  HW  HW  OW  HW  HW  OW  HW  HW  OW  HW  HW  OW  HW  HW  
OW  HW  HW  OW  HW  HW  OW  HW  HW  OW  HW  HW  OW  HW  HW  OW  HW  HW  OW  HW  
HW  OW  HW  HW  OW  HW  HW  OW  HW  HW  OW  HW  HW  OW  HW  HW  OW  HW  HW  OW  
HW  HW  OW  HW  HW  OW  HW  HW  OW  HW  HW  OW  HW  HW  OW  HW  HW  OW  HW  HW  
OW  HW  HW  OW  HW  HW  OW  HW  HW  OW  HW  HW  OW  HW  HW  OW  HW  HW  OW  HW  
HW  OW  HW  HW  OW  HW  HW  OW  HW  HW  OW  HW  HW  OW  HW  HW  OW  HW  HW  OW  
HW  HW  OW  HW  HW  OW  HW  HW  OW  HW  HW  OW  HW  HW  OW  HW  HW  OW  HW  HW  
OW  HW  HW  OW  HW  HW  OW  HW  HW  OW  HW  HW  OW  HW  HW  OW  HW  HW  OW  HW  
HW  OW  HW  HW  OW  HW  HW  OW  HW  HW  OW  HW  HW  OW  HW  HW  OW  HW  HW  OW  
HW  HW  OW  HW  HW  OW  HW  HW  OW  HW  HW  OW  HW  HW  OW  HW  HW  OW  HW  HW  
OW  HW  HW  OW  HW  HW  OW  HW  HW  OW  HW  HW  OW  HW  HW  OW  HW  HW  OW  HW  
HW  OW  HW  HW  OW  HW  HW  OW  HW  HW  OW  HW  HW  OW  HW  HW  OW  HW  HW  OW  
HW  HW  OW  HW  HW  OW  HW  HW  OW  HW  HW  OW  HW  HW  OW  HW  HW  OW  HW  HW  
OW  HW  HW  OW  HW  HW  OW  HW  HW  OW  HW  HW  OW  HW  HW  OW  HW  HW  OW  HW  
HW  OW  HW  HW  OW  HW  HW  OW  HW  HW  OW  HW  HW  OW  HW  HW  OW  HW  HW  OW  
HW  HW  OW  HW  HW  OW  HW  HW  OW  HW  HW  OW  HW  HW  OW  HW  HW  OW  HW  HW  
OW  HW  HW  OW  HW  HW  OW  HW  HW  OW  HW  HW  OW  HW  HW  OW  HW  HW  OW  HW  
HW  OW  HW  HW  OW  HW  HW  OW  HW  HW  OW  HW  HW  OW  HW  HW  OW  HW  HW  OW  
HW  HW  OW  HW  HW  OW  HW  HW  OW  HW  HW  OW  HW  HW  OW  HW  HW  OW  HW  HW  
OW  HW  HW  OW  HW  HW  OW  HW  HW  OW  HW  HW  OW  HW  HW  OW  HW  HW  OW  HW  
HW  OW  HW  HW  OW  HW  HW  OW  HW  HW  OW  HW  HW  OW  HW  HW  OW  HW  HW  OW  
HW  HW  OW  HW  HW  OW  HW  HW  OW  HW  HW  OW  HW  HW  OW  HW  HW  OW  HW  HW  
OW  HW  HW  OW  HW  HW  OW  HW  HW  OW  HW  HW  OW  HW  HW  OW  HW  HW  OW  HW  
HW  OW  HW  HW  OW  HW  HW  OW  HW  HW  OW  HW  HW  OW  HW  HW  OW  HW  HW  OW  
HW  HW  OW  HW  HW  OW  HW  HW  OW  HW  HW  OW  HW  HW  OW  HW  HW  OW  HW  HW  
OW  HW  HW  OW  HW  HW  OW  HW  HW  OW  HW  HW  OW  HW  HW  OW  HW  HW  OW  HW  
HW  OW  HW  HW  OW  HW  HW  OW  HW  HW  OW  HW  HW  OW  HW  HW  OW  HW  HW  OW  
HW  HW  OW  HW  HW  OW  HW  HW  OW  HW  HW  OW  HW  HW  OW  HW  HW  OW  HW  HW  
OW  HW  HW  OW  HW  HW  OW  HW  HW  OW  HW  HW  OW  HW  HW  OW  HW  HW  OW  HW  
HW  OW  HW  HW  OW  HW  HW  OW  HW  HW  OW  HW  HW  OW  HW  HW  OW  HW  HW  OW  
HW  HW  OW  HW  HW  OW  HW  HW  OW  HW  HW  OW  HW  HW  OW  HW  HW  OW  HW  HW  
OW  HW  HW  OW  HW  HW  OW  HW  HW  OW  HW  HW  OW  HW  HW  OW  HW  HW  OW  HW  
HW  OW  HW  HW  OW  HW  HW  OW  HW  HW  OW  HW  HW  OW  HW  HW  OW  HW  HW  OW  
HW  HW  OW  HW  HW  OW  HW  HW  OW  HW  HW  OW  HW  HW  OW  HW  HW  OW  HW  HW  
OW  HW  HW  OW  HW  HW  OW  HW  HW  OW  HW  HW  OW  HW  HW  OW  HW  HW  OW  HW  
HW  OW  HW  HW  OW  HW  HW  OW  HW  HW  OW  HW  HW  OW  HW  HW  OW  HW  HW  OW  
HW  HW  OW  HW  HW  OW  HW  HW  OW  HW  HW  OW  HW  HW  OW  HW  HW  OW  HW  HW  
OW  HW  HW  OW  HW  HW  OW  HW  HW  OW  HW  HW  OW  HW  HW  OW  HW  HW  OW  HW  
HW  OW  HW  HW  OW  HW  HW  OW  HW  HW  OW  HW  HW  OW  HW  HW  OW  HW  HW  OW  
HW  HW  OW  HW  HW  OW  HW  HW  OW  HW  HW  OW  HW  HW  OW  HW  HW  OW  HW  HW  
OW  HW  HW  OW  HW  HW  OW  HW  HW  OW  HW  HW  OW  HW  HW  OW  HW  HW  OW  HW  
HW  OW  HW  HW  OW  HW  HW  OW  HW  HW  OW  HW  HW  OW  HW  HW  OW  HW  HW  OW  
HW  HW  OW  HW  HW  OW  HW  HW  OW  HW  HW  OW  HW  HW  OW  HW  HW  OW  HW  HW  
OW  HW  HW  OW  HW  HW  OW  HW  HW  OW  HW  HW  OW  HW  HW  OW  HW  HW  OW  HW  
HW  OW  HW  HW  OW  HW  HW  OW  HW  HW  OW  HW  HW  OW  HW  HW  OW  HW  HW  OW  
HW  HW  OW  HW  HW  OW  HW  HW  OW  HW  HW  OW  HW  HW  OW  HW  HW  OW  HW  HW  
OW  HW  HW  OW  HW  HW  OW  HW  HW  OW  HW  HW  OW  HW  HW  OW  HW  HW  OW  HW  
HW  OW  HW  HW  OW  HW  HW  OW  HW  HW  OW  HW  HW  OW  HW  HW  OW  HW  HW  OW  
HW  HW  OW  HW  HW  OW  HW  HW  OW  HW  HW  OW  HW  HW  OW  HW  HW  OW  HW  HW  
OW  HW  HW  OW  HW  HW  OW  HW  HW  OW  HW  HW  OW  HW  HW  OW  HW  HW  OW  HW  
HW  OW  HW  HW  OW  HW  HW  OW  HW  HW  OW  HW  HW  OW  HW  HW  OW  HW  HW  OW  
HW  HW  OW  HW  HW  OW  HW  HW  OW  HW  HW  OW  HW  HW  OW  HW  HW  OW  HW  HW  
OW  HW  HW  OW  HW  HW  OW  HW  HW  OW  HW  HW  OW  HW  HW  OW  HW  HW  OW  HW  
HW  OW  HW  HW  OW  HW  HW  OW  HW  HW  OW  HW  HW  OW  HW  HW  OW  HW  HW  OW  
HW  HW  OW  HW  HW  OW  HW  HW  OW  HW  HW  OW  HW  HW  OW  HW  HW  OW  HW  HW  
OW  HW  HW  OW  HW  HW  OW  HW  HW  OW  HW  HW  OW  HW  HW  OW  HW  HW  OW  HW  
HW  OW  HW  HW  OW  HW  HW  OW  HW  HW  OW  HW  HW  OW  HW  HW  OW  HW  HW  OW  
HW  HW  OW  HW  HW  OW  HW  HW  OW  HW  HW  OW  HW  HW  OW  HW  HW  OW  HW  HW  
OW  HW  HW  OW  HW  HW  OW  HW  HW  OW  HW  HW  OW  HW  HW  OW  HW  HW  OW  HW  
HW  OW  HW  HW  OW  HW  HW  OW  HW  HW  OW  HW  HW  OW  HW  HW  OW  HW  HW  OW  
HW  HW  OW  HW  HW  OW  HW  HW  OW  HW  HW  OW  HW  HW  OW  HW  HW  OW  HW  HW  
OW  HW  HW  OW  HW  HW  OW  HW  HW  OW  HW  HW  OW  HW  HW  OW  HW  HW  OW  HW  
HW  OW  HW  HW  OW  HW  HW  OW  HW  HW  OW  HW  HW  OW  HW  HW  OW  HW  HW  OW  
HW  HW  OW  HW  HW  OW  HW  HW  OW  HW  HW  OW  HW  HW  OW  HW  HW  OW  HW  HW  
OW  HW  HW  OW  HW  HW  OW  HW  HW  OW  HW  HW  OW  HW  HW  OW  HW  HW  OW  HW  
HW  OW  HW  HW  OW  HW  HW  OW  HW  HW  OW  HW  HW  OW  HW  HW  OW  HW  HW  OW  
HW  HW  OW  HW  HW  OW  HW  HW  OW  HW  HW  OW  HW  HW  OW  HW  HW  OW  HW  HW  
OW  HW  HW  OW  HW  HW  OW  HW  HW  OW  HW  HW  OW  HW  HW  OW  HW  HW  OW  HW  
HW  OW  HW  HW  OW  HW  HW  OW  HW  HW  OW  HW  HW  OW  HW  HW  OW  HW  HW  OW  
HW  HW  OW  HW  HW  OW  HW  HW  OW  HW  HW  OW  HW  HW  OW  HW  HW  OW  HW  HW  
OW  HW  HW  OW  HW  HW  OW  HW  HW  OW  HW  HW  OW  HW  HW  OW  HW  HW  OW  HW  
HW  OW  HW  HW  OW  HW  HW  OW  HW  HW  OW  HW  HW  OW  HW  HW  OW  HW  HW  OW  
HW  HW  OW  HW  HW  OW  HW  HW  OW  HW  HW  OW  HW  HW  OW  HW  HW  OW  HW  HW  
OW  HW  HW  OW  HW  HW  OW  HW  HW  OW  HW  HW  OW  HW  HW  OW  HW  HW  OW  HW  
HW  OW  HW  HW  OW  HW  HW  OW  HW  HW  OW  HW  HW  OW  HW  HW  OW  HW  HW  OW  
HW  HW  OW  HW  HW  OW  HW  HW  OW  HW  HW  OW  HW  HW  OW  HW  HW  OW  HW  HW  
OW  HW  HW  OW  HW  HW  OW  HW  HW  OW  HW  HW  OW  HW  HW  OW  HW  HW  OW  HW  
HW  OW  HW  HW  OW  HW  HW  OW  HW  HW  OW  HW  HW  OW  HW  HW  OW  HW  HW  OW  
HW  HW  OW  HW  HW  OW  HW  HW  OW  HW  HW  OW  HW  HW  OW  HW  HW  OW  HW  HW  
OW  HW  HW  OW  HW  HW  OW  HW  HW  OW  HW  HW  OW  HW  HW  OW  HW  HW  OW  HW  
HW  OW  HW  HW  OW  HW  HW  OW  HW  HW  OW  HW  HW  OW  HW  HW  OW  HW  HW  OW  
HW  HW  OW  HW  HW  OW  HW  HW  OW  HW  HW  OW  HW  HW  OW  HW  HW  OW  HW  HW  
OW  HW  HW  OW  HW  HW  OW  HW  HW  OW  HW  HW  OW  HW  HW  OW  HW  HW  OW  HW  
HW  OW  HW  HW  OW  HW  HW  OW  HW  HW  OW  HW  HW  OW  HW  HW  OW  HW  HW  OW  
HW  HW  OW  HW  HW  OW  HW  HW  OW  HW  HW  OW  HW  HW  OW  HW  HW  OW  HW  HW  
OW  HW  HW  OW  HW  HW  OW  HW  HW  OW  HW  HW  OW  HW  HW  OW  HW  HW  OW  HW  
HW  OW  HW  HW  OW  HW  HW  OW  HW  HW  OW  HW  HW  OW  HW  HW  OW  HW  HW  OW  
HW  HW  OW  HW  HW  OW  HW  HW  OW  HW  HW  OW  HW  HW  OW  HW  HW  OW  HW  HW  
OW  HW  HW  OW  HW  HW  OW  HW  HW  OW  HW  HW  OW  HW  HW  OW  HW  HW  OW  HW  
HW  OW  HW  HW  OW  HW  HW  OW  HW  HW  OW  HW  HW  OW  HW  HW  OW  HW  HW  OW  
HW  HW  OW  HW  HW  OW  HW  HW  OW  HW  HW  OW  HW  HW  OW  HW  HW  OW  HW  HW  
OW  HW  HW  OW  HW  HW  OW  HW  HW  OW  HW  HW  OW  HW  HW  OW  HW  HW  OW  HW  
HW  OW  HW  HW  OW  HW  HW  OW  HW  HW  OW  HW  HW  OW  HW  HW  OW  HW  HW  OW  
HW  HW  OW  HW  HW  OW  HW  HW  OW  HW  HW  OW  HW  HW  OW  HW  HW  OW  HW  HW  
OW  HW  HW  OW  HW  HW  OW  HW  HW  OW  HW  HW  OW  HW  HW  OW  HW  HW  OW  HW  
HW  OW  HW  HW  OW  HW  HW  OW  HW  HW  OW  HW  HW  OW  HW  HW  OW  HW  HW  OW  
HW  HW  OW  HW  HW  OW  HW  HW  OW  HW  HW  OW  HW  HW  OW  HW  HW  OW  HW  HW  
OW  HW  HW  OW  HW  HW  OW  HW  HW  OW  HW  HW  OW  HW  HW  OW  HW  HW  OW  HW  
HW  OW  HW  HW  OW  HW  HW  OW  HW  HW  OW  HW  HW  OW  HW  HW  OW  HW  HW  OW  
HW  HW  OW  HW  HW  OW  HW  HW  OW  HW  HW  OW  HW  HW  OW  HW  HW  OW  HW  HW  
OW  HW  HW  OW  HW  HW  OW  HW  HW  OW  HW  HW  OW  HW  HW  OW  HW  HW  OW  HW  
HW  OW  HW  HW  OW  HW  HW  OW  HW  HW  OW  HW  HW  OW  HW  HW  OW  HW  HW  OW  
HW  HW  OW  HW  HW  OW  HW  HW  OW  HW  HW  OW  HW  HW  OW  HW  HW  OW  HW  HW  
OW  HW  HW  OW  HW  HW  OW  HW  HW  OW  HW  HW  OW  HW  HW  OW  HW  HW  OW  HW  
HW  OW  HW  HW  OW  HW  HW  OW  HW  HW  OW  HW  HW  OW  HW  HW  OW  HW  HW  OW  
HW  HW  OW  HW  HW  OW  HW  HW  OW  HW  HW  OW  HW  HW  OW  HW  HW  OW  HW  HW  
OW  HW  HW  OW  HW  HW  OW  HW  HW  OW  HW  HW  OW  HW  HW  OW  HW  HW  OW  HW  
HW  OW  HW  HW  OW  HW  HW  OW  HW  HW  OW  HW  HW  OW  HW  HW  OW  HW  HW  OW  
HW  HW  OW  HW  HW  OW  HW  HW  OW  HW  HW  OW  HW  HW  OW  HW  HW  OW  HW  HW  
OW  HW  HW  OW  HW  HW  OW  HW  HW  OW  HW  HW  OW  HW  HW  OW  HW  HW  OW  HW  
HW  OW  HW  HW  OW  HW  HW  OW  HW  HW  OW  HW  HW  OW  HW  HW  OW  HW  HW  OW  
HW  HW  OW  HW  HW  OW  HW  HW  OW  HW  HW  OW  HW  HW  OW  HW  HW  OW  HW  HW  
OW  HW  HW  OW  HW  HW  OW  HW  HW  OW  HW  HW  OW  HW  HW  OW  HW  HW  OW  HW  
HW  OW  HW  HW  OW  HW  HW  OW  HW  HW  OW  HW  HW  OW  HW  HW  OW  HW  HW  OW  
HW  HW  OW  HW  HW  OW  HW  HW  OW  HW  HW  OW  HW  HW  OW  HW  HW  OW  HW  HW  
OW  HW  HW  OW  HW  HW  OW  HW  HW  OW  HW  HW  OW  HW  HW  OW  HW  HW  OW  HW  
HW  OW  HW  HW  OW  HW  HW  OW  HW  HW  OW  HW  HW  OW  HW  HW  OW  HW  HW  OW  
HW  HW  OW  HW  HW  OW  HW  HW  OW  HW  HW  OW  HW  HW  OW  HW  HW  OW  HW  HW  
OW  HW  HW  OW  HW  HW  OW  HW  HW  OW  HW  HW  OW  HW  HW  OW  HW  HW  OW  HW  
HW  OW  HW  HW  OW  HW  HW  OW  HW  HW  OW  HW  HW  OW  HW  HW  OW  HW  HW  OW  
HW  HW  OW  HW  HW  OW  HW  HW  OW  HW  HW  OW  HW  HW  OW  HW  HW  OW  HW  HW  
OW  HW  HW  OW  HW  HW  OW  HW  HW  OW  HW  HW  OW  HW  HW  OW  HW  HW  OW  HW  
HW  OW  HW  HW  OW  HW  HW  OW  HW  HW  OW  HW  HW  OW  HW  HW  OW  HW  HW  OW  
HW  HW  OW  HW  HW  OW  HW  HW  OW  HW  HW  OW  HW  HW  OW  HW  HW  OW  HW  HW  
OW  HW  HW  OW  HW  HW  OW  HW  HW  OW  HW  HW  OW  HW  HW  OW  HW  HW  OW  HW  
HW  OW  HW  HW  OW  HW  HW  OW  HW  HW  OW  HW  HW  OW  HW  HW  OW  HW  HW  OW  
HW  HW  OW  HW  HW  OW  HW  HW  OW  HW  HW  OW  HW  HW  OW  HW  HW  OW  HW  HW  
OW  HW  HW  OW  HW  HW  OW  HW  HW  OW  HW  HW  OW  HW  HW  OW  HW  HW  OW  HW  
HW  OW  HW  HW  OW  HW  HW  OW  HW  HW  OW  HW  HW  OW  HW  HW  OW  HW  HW  OW  
HW  HW  OW  HW  HW  OW  HW  HW  OW  HW  HW  OW  HW  HW  OW  HW  HW  OW  HW  HW  
OW  HW  HW  OW  HW  HW  OW  HW  HW  OW  HW  HW  OW  HW  HW  OW  HW  HW  OW  HW  
HW  OW  HW  HW  OW  HW  HW  OW  HW  HW  OW  HW  HW  OW  HW  HW  OW  HW  HW  OW  
HW  HW  OW  HW  HW  OW  HW  HW  OW  HW  HW  OW  HW  HW  OW  HW  HW  OW  HW  HW  
OW  HW  HW  OW  HW  HW  OW  HW  HW  OW  HW  HW  OW  HW  HW  OW  HW  HW  OW  HW  
HW  OW  HW  HW  OW  HW  HW  OW  HW  HW  OW  HW  HW  OW  HW  HW  OW  HW  HW  OW  
HW  HW  OW  HW  HW  OW  HW  HW  OW  HW  HW  OW  HW  HW  OW  HW  HW  OW  HW  HW  
OW  HW  HW  OW  HW  HW  OW  HW  HW  OW  HW  HW  OW  HW  HW  OW  HW  HW  OW  HW  
HW  OW  HW  HW  OW  HW  HW  OW  HW  HW  OW  HW  HW  OW  HW  HW  OW  HW  HW  OW  
HW  HW  OW  HW  HW  OW  HW  HW  OW  HW  HW  OW  HW  HW  OW  HW  HW  OW  HW  HW  
OW  HW  HW  OW  HW  HW  OW  HW  HW  OW  HW  HW  OW  HW  HW  OW  HW  HW  OW  HW  
HW  OW  HW  HW  OW  HW  HW  OW  HW  HW  OW  HW  HW  OW  HW  HW  OW  HW  HW  OW  
HW  HW  OW  HW  HW  OW  HW  HW  OW  HW  HW  OW  HW  HW  OW  HW  HW  OW  HW  HW  
OW  HW  HW  OW  HW  HW  OW  HW  HW  OW  HW  HW  OW  HW  HW  OW  HW  HW  OW  HW  
HW  OW  HW  HW  OW  HW  HW  OW  HW  HW  OW  HW  HW  OW  HW  HW  OW  HW  HW  OW  
HW  HW  OW  HW  HW  OW  HW  HW  OW  HW  HW  OW  HW  HW  OW  HW  HW  OW  HW  HW  
OW  HW  HW  OW  HW  HW  OW  HW  HW  OW  HW  HW  OW  HW  HW  OW  HW  HW  OW  HW  
HW  OW  HW  HW  OW  HW  HW  OW  HW  HW  OW  HW  HW  OW  HW  HW  OW  HW  HW  OW  
HW  HW  OW  HW  HW  OW  HW  HW  OW  HW  HW  OW  HW  HW  OW  HW  HW  OW  HW  HW  
OW  HW  HW  OW  HW  HW  OW  HW  HW  OW  HW  HW  OW  HW  HW  OW  HW  HW  OW  HW  
HW  OW  HW  HW  OW  HW  HW  OW  HW  HW  OW  HW  HW  OW  HW  HW  OW  HW  HW  OW  
HW  HW  OW  HW  HW  OW  HW  HW  OW  HW  HW  OW  HW  HW  OW  HW  HW  OW  HW  HW  
OW  HW  HW  OW  HW  HW  OW  HW  HW  OW  HW  HW  OW  HW  HW  OW  HW  HW  OW  HW  
HW  OW  HW  HW  OW  HW  HW  OW  HW  HW  OW  HW  HW  OW  HW  HW  OW  HW  HW  OW  
HW  HW  OW  HW  HW  OW  HW  HW  OW  HW  HW  OW  HW  HW  OW  HW  HW  OW  HW  HW  
OW  HW  HW  OW  HW  HW  OW  HW  HW  OW  HW  HW  OW  HW  HW  OW  HW  HW  OW  HW  
HW  OW  HW  HW  OW  HW  HW  OW  HW  HW  OW  HW  HW  OW  HW  HW  OW  HW  HW  OW  
HW  HW  OW  HW  HW  OW  HW  HW  OW  HW  HW  OW  HW  HW  OW  HW  HW  OW  HW  HW  
OW  HW  HW  OW  HW  HW  OW  HW  HW  OW  HW  HW  OW  HW  HW  OW  HW  HW  OW  HW  
HW  OW  HW  HW  OW  HW  HW  OW  HW  HW  OW  HW  HW  OW  HW  HW  OW  HW  HW  OW  
HW  HW  OW  HW  HW  OW  HW  HW  OW  HW  HW  OW  HW  HW  OW  HW  HW  OW  HW  HW  
OW  HW  HW  OW  HW  HW  OW  HW  HW  OW  HW  HW  OW  HW  HW  OW  HW  HW  OW  HW  
HW  OW  HW  HW  OW  HW  HW  OW  HW  HW  OW  HW  HW  OW  HW  HW  OW  HW  HW  OW  
HW  HW  OW  HW  HW  OW  HW  HW  OW  HW  HW  OW  HW  HW  OW  HW  HW  OW  HW  HW  
OW  HW  HW  OW  HW  HW  OW  HW  HW  OW  HW  HW  OW  HW  HW  OW  HW  HW  OW  HW  
HW  OW  HW  HW  OW  HW  HW  OW  HW  HW  OW  HW  HW  OW  HW  HW  OW  HW  HW  OW  
HW  HW  OW  HW  HW  OW  HW  HW  OW  HW  HW  OW  HW  HW  OW  HW  HW  OW  HW  HW  
OW  HW  HW  OW  HW  HW  OW  HW  HW  OW  HW  HW  OW  HW  HW  OW  HW  HW  OW  HW  
HW  OW  HW  HW  OW  HW  HW  OW  HW  HW  OW  HW  HW  OW  HW  HW  OW  HW  HW  OW  
HW  HW  OW  HW  HW  OW  HW  HW  OW  HW  HW  OW  HW  HW  OW  HW  HW  OW  HW  HW  
OW  HW  HW  OW  HW  HW  OW  HW  HW  OW  HW  HW  OW  HW  HW  OW  HW  HW  OW  HW  
HW  OW  HW  HW  OW  HW  HW  OW  HW  HW  OW  HW  HW  OW  HW  HW  OW  HW  HW  OW  
HW  HW  OW  HW  HW  OW  HW  HW  OW  HW  HW  OW  HW  HW  OW  HW  HW  OW  HW  HW  
OW  HW  HW  OW  HW  HW  OW  HW  HW  OW  HW  HW  OW  HW  HW  OW  HW  HW  OW  HW  
HW  OW  HW  HW  OW  HW  HW  OW  HW  HW  OW  HW  HW  OW  HW  HW  OW  HW  HW  OW  
HW  HW  OW  HW  HW  OW  HW  HW  OW  HW  HW  OW  HW  HW  OW  HW  HW  OW  HW  HW  
OW  HW  HW  OW  HW  HW  OW  HW  HW  OW  HW  HW  OW  HW  HW  OW  HW  HW  OW  HW  
HW  OW  HW  HW  OW  HW  HW  OW  HW  HW  OW  HW  HW  OW  HW  HW  OW  HW  HW  OW  
HW  HW  OW  HW  HW  OW  HW  HW  OW  HW  HW  OW  HW  HW  OW  HW  HW  OW  HW  HW  
OW  HW  HW  OW  HW  HW  OW  HW  HW  OW  HW  HW  OW  HW  HW  OW  HW  HW  OW  HW  
HW  OW  HW  HW  OW  HW  HW  OW  HW  HW  OW  HW  HW  OW  HW  HW  OW  HW  HW  OW  
HW  HW  OW  HW  HW  OW  HW  HW  OW  HW  HW  OW  HW  HW  OW  HW  HW  OW  HW  HW  
OW  HW  HW  OW  HW  HW  OW  HW  HW  OW  HW  HW  OW  HW  HW  OW  HW  HW  OW  HW  
HW  OW  HW  HW  OW  HW  HW  OW  HW  HW  OW  HW  HW  OW  HW  HW  OW  HW  HW  OW  
HW  HW  OW  HW  HW  OW  HW  HW  OW  HW  HW  OW  HW  HW  OW  HW  HW  OW  HW  HW  
OW  HW  HW  OW  HW  HW  OW  HW  HW  OW  HW  HW  OW  HW  HW  OW  HW  HW  OW  HW  
HW  OW  HW  HW  OW  HW  HW  OW  HW  HW  OW  HW  HW  OW  HW  HW  OW  HW  HW  OW  
HW  HW  OW  HW  HW  OW  HW  HW  OW  HW  HW  OW  HW  HW  OW  HW  HW  OW  HW  HW  
OW  HW  HW  OW  HW  HW  OW  HW  HW  OW  HW  HW  OW  HW  HW  OW  HW  HW  OW  HW  
HW  OW  HW  HW  OW  HW  HW  OW  HW  HW  OW  HW  HW  OW  HW  HW  OW  HW  HW  OW  
HW  HW  OW  HW  HW  OW  HW  HW  OW  HW  HW  OW  HW  HW  OW  HW  HW  OW  HW  HW  
OW  HW  HW  OW  HW  HW  OW  HW  HW  OW  HW  HW  OW  HW  HW  OW  HW  HW  OW  HW  
HW  OW  HW  HW  OW  HW  HW  OW  HW  HW  OW  HW  HW  OW  HW  HW  OW  HW  HW  OW  
HW  HW  OW  HW  HW  OW  HW  HW  OW  HW  HW  OW  HW  HW  OW  HW  HW  OW  HW  HW  
OW  HW  HW  OW  HW  HW  OW  HW  HW  OW  HW  HW  OW  HW  HW  OW  HW  HW  OW  HW  
HW  OW  HW  HW  OW  HW  HW  OW  HW  HW  OW  HW  HW  OW  HW  HW  OW  HW  HW  OW  
HW  HW  OW  HW  HW  OW  HW  HW  OW  HW  HW  OW  HW  HW  OW  HW  HW  OW  HW  HW  
OW  HW  HW  OW  HW  HW  OW  HW  HW  OW  HW  HW  OW  HW  HW  OW  HW  HW  OW  HW  
HW  OW  HW  HW  OW  HW  HW  OW  HW  HW  OW  HW  HW  OW  HW  HW  OW  HW  HW  OW  
HW  HW  OW  HW  HW  OW  HW  HW  OW  HW  HW  OW  HW  HW  OW  HW  HW  OW  HW  HW  
OW  HW  HW  OW  HW  HW  OW  HW  HW  OW  HW  HW  OW  HW  HW  OW  HW  HW  OW  HW  
HW  OW  HW  HW  OW  HW  HW  OW  HW  HW  OW  HW  HW  OW  HW  HW  OW  HW  HW  OW  
HW  HW  OW  HW  HW  OW  HW  HW  OW  HW  HW  OW  HW  HW  OW  HW  HW  OW  HW  HW  
OW  HW  HW  OW  HW  HW  OW  HW  HW  OW  HW  HW  OW  HW  HW  OW  HW  HW  OW  HW  
HW  OW  HW  HW  OW  HW  HW  OW  HW  HW  OW  HW  HW  OW  HW  HW  OW  HW  HW  OW  
HW  HW  OW  HW  HW  OW  HW  HW  OW  HW  HW  OW  HW  HW  OW  HW  HW  OW  HW  HW  
OW  HW  HW  OW  HW  HW  OW  HW  HW  OW  HW  HW  OW  HW  HW  OW  HW  HW  OW  HW  
HW  OW  HW  HW  OW  HW  HW  OW  HW  HW  OW  HW  HW  OW  HW  HW  OW  HW  HW  OW  
HW  HW  OW  HW  HW  OW  HW  HW  OW  HW  HW  OW  HW  HW  OW  HW  HW  OW  HW  HW  
OW  HW  HW  OW  HW  HW  OW  HW  HW  OW  HW  HW  OW  HW  HW  OW  HW  HW  OW  HW  
HW  OW  HW  HW  OW  HW  HW  OW  HW  HW  OW  HW  HW  OW  HW  HW  OW  HW  HW  OW  
HW  HW  OW  HW  HW  OW  HW  HW  OW  HW  HW  OW  HW  HW  OW  HW  HW  OW  HW  HW  
OW  HW  HW  OW  HW  HW  OW  HW  HW  OW  HW  HW  OW  HW  HW  OW  HW  HW  OW  HW  
HW  OW  HW  HW  OW  HW  HW  OW  HW  HW  OW  HW  HW  OW  HW  HW  OW  HW  HW  OW  
HW  HW  OW  HW  HW  OW  HW  HW  OW  HW  HW  OW  HW  HW  OW  HW  HW  OW  HW  HW  
OW  HW  HW  OW  HW  HW  OW  HW  HW  OW  HW  HW  OW  HW  HW  OW  HW  HW  OW  HW  
HW  OW  HW  HW  OW  HW  HW  OW  HW  HW  OW  HW  HW  OW  HW  HW  OW  HW  HW  OW  
HW  HW  OW  HW  HW  OW  HW  HW  OW  HW  HW  OW  HW  HW  OW  HW  HW  OW  HW  HW  
OW  HW  HW  OW  HW  HW  OW  HW  HW  OW  HW  HW  OW  HW  HW  OW  HW  HW  OW  HW  
HW  OW  HW  HW  OW  HW  HW  OW  HW  HW  OW  HW  HW  OW  HW  HW  OW  HW  HW  OW  
HW  HW  OW  HW  HW  OW  HW  HW  OW  HW  HW  OW  HW  HW  OW  HW  HW  OW  HW  HW  
OW  HW  HW  OW  HW  HW  OW  HW  HW  OW  HW  HW  OW  HW  HW  OW  HW  HW  OW  HW  
HW  OW  HW  HW  OW  HW  HW  OW  HW  HW  OW  HW  HW  OW  HW  HW  OW  HW  HW  OW  
HW  HW  OW  HW  HW  OW  HW  HW  OW  HW  HW  OW  HW  HW  OW  HW  HW  OW  HW  HW  
OW  HW  HW  OW  HW  HW  OW  HW  HW  OW  HW  HW  OW  HW  HW  OW  HW  HW  OW  HW  
HW  OW  HW  HW  OW  HW  HW  OW  HW  HW  OW  HW  HW  OW  HW  HW  OW  HW  HW  OW  
HW  HW  OW  HW  HW  OW  HW  HW  OW  HW  HW  OW  HW  HW  OW  HW  HW  OW  HW  HW  
OW  HW  HW  OW  HW  HW  OW  HW  HW  OW  HW  HW  OW  HW  HW  OW  HW  HW  OW  HW  
HW  OW  HW  HW  OW  HW  HW  OW  HW  HW  OW  HW  HW  OW  HW  HW  OW  HW  HW  OW  
HW  HW  OW  HW  HW  OW  HW  HW  OW  HW  HW  OW  HW  HW  OW  HW  HW  OW  HW  HW  
OW  HW  HW  OW  HW  HW  OW  HW  HW  OW  HW  HW  OW  HW  HW  OW  HW  HW  OW  HW  
HW  OW  HW  HW  OW  HW  HW  OW  HW  HW  OW  HW  HW  OW  HW  HW  OW  HW  HW  OW  
HW  HW  OW  HW  HW  OW  HW  HW  OW  HW  HW  OW  HW  HW  OW  HW  HW  OW  HW  HW  
OW  HW  HW  OW  HW  HW  OW  HW  HW  OW  HW  HW  OW  HW  HW  OW  HW  HW  OW  HW  
HW  OW  HW  HW  OW  HW  HW  OW  HW  HW  OW  HW  HW  OW  HW  HW  OW  HW  HW  OW  
HW  HW  OW  HW  HW  OW  HW  HW  OW  HW  HW  OW  HW  HW  OW  HW  HW  OW  HW  HW  
OW  HW  HW  OW  HW  HW  OW  HW  HW  OW  HW  HW  OW  HW  HW  OW  HW  HW  OW  HW  
HW  OW  HW  HW  OW  HW  HW  OW  HW  HW  OW  HW  HW  OW  HW  HW  OW  HW  HW  OW  
HW  HW  OW  HW  HW  OW  HW  HW  OW  HW  HW  OW  HW  HW  OW  HW  HW  OW  HW  HW  
OW  HW  HW  OW  HW  HW  OW  HW  HW  OW  HW  HW  OW  HW  HW  OW  HW  HW  OW  HW  
HW  OW  HW  HW  OW  HW  HW  OW  HW  HW  OW  HW  HW  OW  HW  HW  OW  HW  HW  OW  
HW  HW  OW  HW  HW  OW  HW  HW  OW  HW  HW  OW  HW  HW  OW  HW  HW  OW  HW  HW  
OW  HW  HW  OW  HW  HW  OW  HW  HW  OW  HW  HW  OW  HW  HW  OW  HW  HW  OW  HW  
HW  OW  HW  HW  OW  HW  HW  OW  HW  HW  OW  HW  HW  OW  HW  HW  OW  HW  HW  OW  
HW  HW  OW  HW  HW  OW  HW  HW  OW  HW  HW  OW  HW  HW  OW  HW  HW  OW  HW  HW  
OW  HW  HW  OW  HW  HW  OW  HW  HW  OW  HW  HW  OW  HW  HW  OW  HW  HW  OW  HW  
HW  OW  HW  HW  OW  HW  HW  OW  HW  HW  OW  HW  HW  OW  HW  HW  OW  HW  HW  OW  
HW  HW  OW  HW  HW  OW  HW  HW  OW  HW  HW  OW  HW  HW  OW  HW  HW  OW  HW  HW  
OW  HW  HW  OW  HW  HW  OW  HW  HW  OW  HW  HW  OW  HW  HW  OW  HW  HW  OW  HW  
HW  OW  HW  HW  OW  HW  HW  OW  HW  HW  OW  HW  HW  OW  HW  HW  OW  HW  HW  OW  
HW  HW  OW  HW  HW  OW  HW  HW  OW  HW  HW  OW  HW  HW  OW  HW  HW  OW  HW  HW  
OW  HW  HW  OW  HW  HW  OW  HW  HW  OW  HW  HW  OW  HW  HW  OW  HW  HW  OW  HW  
HW  OW  HW  HW  OW  HW  HW  OW  HW  HW  OW  HW  HW  OW  HW  HW  OW  HW  HW  OW  
HW  HW  OW  HW  HW  OW  HW  HW  OW  HW  HW  OW  HW  HW  OW  HW  HW  OW  HW  HW  
OW  HW  HW  OW  HW  HW  OW  HW  HW  OW  HW  HW  OW  HW  HW  OW  HW  HW  OW  HW  
HW  OW  HW  HW  OW  HW  HW  OW  HW  HW  OW  HW  HW  OW  HW  HW  OW  HW  HW  OW  
HW  HW  OW  HW  HW  OW  HW  HW  OW  HW  HW  OW  HW  HW  OW  HW  HW  OW  HW  HW  
OW  HW  HW  OW  HW  HW  OW  HW  HW  OW  HW  HW  OW  HW  HW  OW  HW  HW  OW  HW  
HW  OW  HW  HW  OW  HW  HW  OW  HW  HW  OW  HW  HW  OW  HW  HW  OW  HW  HW  OW  
HW  HW  OW  HW  HW  OW  HW  HW  OW  HW  HW  OW  HW  HW  OW  HW  HW  OW  HW  HW  
OW  HW  HW  OW  HW  HW  OW  HW  HW  OW  HW  HW  OW  HW  HW  OW  HW  HW  OW  HW  
HW  OW  HW  HW  OW  HW  HW  OW  HW  HW  OW  HW  HW  OW  HW  HW  OW  HW  HW  OW  
HW  HW  OW  HW  HW  OW  HW  HW  OW  HW  HW  OW  HW  HW  OW  HW  HW  OW  HW  HW  
OW  HW  HW  OW  HW  HW  OW  HW  HW  OW  HW  HW  OW  HW  HW  OW  HW  HW  OW  HW  
HW  OW  HW  HW  OW  HW  HW  OW  HW  HW  OW  HW  HW  OW  HW  HW  OW  HW  HW  OW  
HW  HW  OW  HW  HW  OW  HW  HW  OW  HW  HW  OW  HW  HW  OW  HW  HW  OW  HW  HW  
OW  HW  HW  OW  HW  HW  OW  HW  HW  OW  HW  HW  OW  HW  HW  OW  HW  HW  OW  HW  
HW  OW  HW  HW  OW  HW  HW  OW  HW  HW  OW  HW  HW  OW  HW  HW  OW  HW  HW  OW  
HW  HW  OW  HW  HW  OW  HW  HW  OW  HW  HW  OW  HW  HW  OW  HW  HW  OW  HW  HW  
OW  HW  HW  OW  HW  HW  OW  HW  HW  OW  HW  HW  OW  HW  HW  OW  HW  HW  OW  HW  
HW  OW  HW  HW  OW  HW  HW  OW  HW  HW  OW  HW  HW  OW  HW  HW  OW  HW  HW  OW  
HW  HW  OW  HW  HW  OW  HW  HW  OW  HW  HW  OW  HW  HW  OW  HW  HW  OW  HW  HW  
OW  HW  HW  OW  HW  HW  OW  HW  HW  OW  HW  HW  OW  HW  HW  OW  HW  HW  OW  HW  
HW  OW  HW  HW  OW  HW  HW  OW  HW  HW  OW  HW  HW  OW  HW  HW  OW  HW  HW  OW  
HW  HW  OW  HW  HW  OW  HW  HW  OW  HW  HW  OW  HW  HW  OW  HW  HW  OW  HW  HW  
OW  HW  HW  OW  HW  HW  OW  HW  HW  OW  HW  HW  OW  HW  HW  OW  HW  HW  OW  HW  
HW  OW  HW  HW  OW  HW  HW  OW  HW  HW  OW  HW  HW  OW  HW  HW  OW  HW  HW  OW  
HW  HW  OW  HW  HW  OW  HW  HW  OW  HW  HW  OW  HW  HW  OW  HW  HW  OW  HW  HW  
OW  HW  HW  OW  HW  HW  OW  HW  HW  OW  HW  HW  OW  HW  HW  OW  HW  HW  OW  HW  
HW  OW  HW  HW  OW  HW  HW  OW  HW  HW  OW  HW  HW  OW  HW  HW  OW  HW  HW  OW  
HW  HW  OW  HW  HW  OW  HW  HW  OW  HW  HW  OW  HW  HW  OW  HW  HW  OW  HW  HW  
OW  HW  HW  OW  HW  HW  OW  HW  HW  OW  HW  HW  OW  HW  HW  OW  HW  HW  OW  HW  
HW  OW  HW  HW  OW  HW  HW  OW  HW  HW  OW  HW  HW  OW  HW  HW  OW  HW  HW  OW  
HW  HW  OW  HW  HW  OW  HW  HW  OW  HW  HW  OW  HW  HW  OW  HW  HW  OW  HW  HW  
OW  HW  HW  OW  HW  HW  OW  HW  HW  OW  HW  HW  OW  HW  HW  OW  HW  HW  OW  HW  
HW  OW  HW  HW  OW  HW  HW  OW  HW  HW  OW  HW  HW  OW  HW  HW  OW  HW  HW  OW  
HW  HW  OW  HW  HW  OW  HW  HW  OW  HW  HW  OW  HW  HW  OW  HW  HW  OW  HW  HW  
OW  HW  HW  OW  HW  HW  OW  HW  HW  OW  HW  HW  OW  HW  HW  OW  HW  HW  OW  HW  
HW  OW  HW  HW  OW  HW  HW  OW  HW  HW  OW  HW  HW  OW  HW  HW  OW  HW  HW  OW  
HW  HW  OW  HW  HW  OW  HW  HW  OW  HW  HW  OW  HW  HW  OW  HW  HW  OW  HW  HW  
OW  HW  HW  OW  HW  HW  OW  HW  HW  OW  HW  HW  OW  HW  HW  OW  HW  HW  OW  HW  
HW  OW  HW  HW  OW  HW  HW  OW  HW  HW  OW  HW  HW  OW  HW  HW  OW  HW  HW  OW  
HW  HW  OW  HW  HW  OW  HW  HW  OW  HW  HW  OW  HW  HW  OW  HW  HW  OW  HW  HW  
OW  HW  HW  OW  HW  HW  OW  HW  HW  OW  HW  HW  OW  HW  HW  OW  HW  HW  OW  HW  
HW  OW  HW  HW  OW  HW  HW  OW  HW  HW  OW  HW  HW  OW  HW  HW  OW  HW  HW  OW  
HW  HW  OW  HW  HW  OW  HW  HW  OW  HW  HW  OW  HW  HW  OW  HW  HW  OW  HW  HW  
OW  HW  HW  OW  HW  HW  OW  HW  HW  OW  HW  HW  OW  HW  HW  OW  HW  HW  OW  HW  
HW  OW  HW  HW  OW  HW  HW  OW  HW  HW  OW  HW  HW  OW  HW  HW  OW  HW  HW  OW  
HW  HW  OW  HW  HW  OW  HW  HW  OW  HW  HW  OW  HW  HW  OW  HW  HW  OW  HW  HW  
OW  HW  HW  OW  HW  HW  OW  HW  HW  OW  HW  HW  OW  HW  HW  OW  HW  HW  OW  HW  
HW  OW  HW  HW  OW  HW  HW  OW  HW  HW  OW  HW  HW  OW  HW  HW  OW  HW  HW  OW  
HW  HW  OW  HW  HW  OW  HW  HW  OW  HW  HW  OW  HW  HW  OW  HW  HW  OW  HW  HW  
OW  HW  HW  OW  HW  HW  OW  HW  HW  OW  HW  HW  OW  HW  HW  OW  HW  HW  OW  HW  
HW  OW  HW  HW  OW  HW  HW  OW  HW  HW  OW  HW  HW  OW  HW  HW  OW  HW  HW  OW  
HW  HW  OW  HW  HW  OW  HW  HW  OW  HW  HW  OW  HW  HW  OW  HW  HW  OW  HW  HW  
OW  HW  HW  OW  HW  HW  OW  HW  HW  OW  HW  HW  OW  HW  HW  OW  HW  HW  OW  HW  
HW  OW  HW  HW  OW  HW  HW  OW  HW  HW  OW  HW  HW  OW  HW  HW  OW  HW  HW  OW  
HW  HW  OW  HW  HW  OW  HW  HW  OW  HW  HW  OW  HW  HW  OW  HW  HW  OW  HW  HW  
OW  HW  HW  OW  HW  HW  OW  HW  HW  OW  HW  HW  OW  HW  HW  OW  HW  HW  OW  HW  
HW  OW  HW  HW  OW  HW  HW  OW  HW  HW  OW  HW  HW  OW  HW  HW  OW  HW  HW  OW  
HW  HW  OW  HW  HW  OW  HW  HW  OW  HW  HW  OW  HW  HW  OW  HW  HW  OW  HW  HW  
OW  HW  HW  OW  HW  HW  OW  HW  HW  OW  HW  HW  OW  HW  HW  OW  HW  HW  OW  HW  
HW  OW  HW  HW  OW  HW  HW  OW  HW  HW  OW  HW  HW  OW  HW  HW  OW  HW  HW  OW  
HW  HW  OW  HW  HW  OW  HW  HW  OW  HW  HW  OW  HW  HW  OW  HW  HW  OW  HW  HW  
OW  HW  HW  OW  HW  HW  OW  HW  HW  OW  HW  HW  OW  HW  HW  OW  HW  HW  OW  HW  
HW  OW  HW  HW  OW  HW  HW  OW  HW  HW  OW  HW  HW  OW  HW  HW  OW  HW  HW  OW  
HW  HW  OW  HW  HW  OW  HW  HW  OW  HW  HW  OW  HW  HW  OW  HW  HW  OW  HW  HW  
OW  HW  HW  OW  HW  HW  OW  HW  HW  OW  HW  HW  OW  HW  HW  OW  HW  HW  OW  HW  
HW  OW  HW  HW  OW  HW  HW  OW  HW  HW  OW  HW  HW  OW  HW  HW  OW  HW  HW  OW  
HW  HW  OW  HW  HW  OW  HW  HW  OW  HW  HW  OW  HW  HW  OW  HW  HW  OW  HW  HW  
OW  HW  HW  OW  HW  HW  OW  HW  HW  OW  HW  HW  OW  HW  HW  OW  HW  HW  OW  HW  
HW  OW  HW  HW  OW  HW  HW  OW  HW  HW  OW  HW  HW  OW  HW  HW  OW  HW  HW  OW  
HW  HW  OW  HW  HW  OW  HW  HW  OW  HW  HW  OW  HW  HW  OW  HW  HW  OW  HW  HW  
OW  HW  HW  OW  HW  HW  OW  HW  HW  OW  HW  HW  OW  HW  HW  OW  HW  HW  OW  HW  
HW  OW  HW  HW  OW  HW  HW  OW  HW  HW  OW  HW  HW  OW  HW  HW  OW  HW  HW  OW  
HW  HW  OW  HW  HW  OW  HW  HW  OW  HW  HW  OW  HW  HW  OW  HW  HW  OW  HW  HW  
OW  HW  HW  OW  HW  HW  OW  HW  HW  OW  HW  HW  OW  HW  HW  OW  HW  HW  OW  HW  
HW  OW  HW  HW  OW  HW  HW  OW  HW  HW  OW  HW  HW  OW  HW  HW  OW  HW  HW  OW  
HW  HW  OW  HW  HW  OW  HW  HW  OW  HW  HW  OW  HW  HW  OW  HW  HW  OW  HW  HW  
OW  HW  HW  OW  HW  HW  OW  HW  HW  OW  HW  HW  OW  HW  HW  OW  HW  HW  OW  HW  
HW  OW  HW  HW  OW  HW  HW  OW  HW  HW  OW  HW  HW  OW  HW  HW  OW  HW  HW  OW  
HW  HW  OW  HW  HW  OW  HW  HW  OW  HW  HW  OW  HW  HW  OW  HW  HW  OW  HW  HW  
OW  HW  HW  OW  HW  HW  OW  HW  HW  OW  HW  HW  OW  HW  HW  OW  HW  HW  OW  HW  
HW  OW  HW  HW  OW  HW  HW  OW  HW  HW  OW  HW  HW  OW  HW  HW  OW  HW  HW  OW  
HW  HW  OW  HW  HW  OW  HW  HW  OW  HW  HW  OW  HW  HW  OW  HW  HW  OW  HW  HW  
OW  HW  HW  OW  HW  HW  OW  HW  HW  OW  HW  HW  OW  HW  HW  OW  HW  HW  OW  HW  
HW  OW  HW  HW  OW  HW  HW  OW  HW  HW  OW  HW  HW  OW  HW  HW  OW  HW  HW  OW  
HW  HW  OW  HW  HW  OW  HW  HW  OW  HW  HW  OW  HW  HW  OW  HW  HW  OW  HW  HW  
OW  HW  HW  OW  HW  HW  OW  HW  HW  OW  HW  HW  OW  HW  HW  OW  HW  HW  OW  HW  
HW  OW  HW  HW  OW  HW  HW  OW  HW  HW  OW  HW  HW  OW  HW  HW  OW  HW  HW  OW  
HW  HW  OW  HW  HW  OW  HW  HW  OW  HW  HW  OW  HW  HW  OW  HW  HW  OW  HW  HW  
OW  HW  HW  OW  HW  HW  OW  HW  HW  OW  HW  HW  OW  HW  HW  OW  HW  HW  OW  HW  
HW  OW  HW  HW  OW  HW  HW  OW  HW  HW  OW  HW  HW  OW  HW  HW  OW  HW  HW  OW  
HW  HW  OW  HW  HW  OW  HW  HW  OW  HW  HW  OW  HW  HW  OW  HW  HW  OW  HW  HW  
OW  HW  HW  OW  HW  HW  OW  HW  HW  OW  HW  HW  OW  HW  HW  OW  HW  HW  OW  HW  
HW  OW  HW  HW  OW  HW  HW  OW  HW  HW  OW  HW  HW  OW  HW  HW  OW  HW  HW  OW  
HW  HW  OW  HW  HW  OW  HW  HW  OW  HW  HW  OW  HW  HW  OW  HW  HW  OW  HW  HW  
OW  HW  HW  OW  HW  HW  OW  HW  HW  OW  HW  HW  OW  HW  HW  OW  HW  HW  OW  HW  
HW  OW  HW  HW  OW  HW  HW  OW  HW  HW  OW  HW  HW  OW  HW  HW  OW  HW  HW  OW  
HW  HW  OW  HW  HW  OW  HW  HW  OW  HW  HW  OW  HW  HW  OW  HW  HW  OW  HW  HW  
OW  HW  HW  OW  HW  HW  OW  HW  HW  OW  HW  HW  OW  HW  HW  OW  HW  HW  OW  HW  
HW  OW  HW  HW  OW  HW  HW  OW  HW  HW  OW  HW  HW  OW  HW  HW  OW  HW  HW  OW  
HW  HW  OW  HW  HW  OW  HW  HW  OW  HW  HW  OW  HW  HW  OW  HW  HW  OW  HW  HW  
OW  HW  HW  OW  HW  HW  OW  HW  HW  OW  HW  HW  OW  HW  HW  OW  HW  HW  OW  HW  
HW  OW  HW  HW  OW  HW  HW  OW  HW  HW  OW  HW  HW  OW  HW  HW  OW  HW  HW  OW  
HW  HW  OW  HW  HW  OW  HW  HW  OW  HW  HW  OW  HW  HW  OW  HW  HW  OW  HW  HW  
OW  HW  HW  OW  HW  HW  OW  HW  HW  OW  HW  HW  OW  HW  HW  OW  HW  HW  OW  HW  
HW  OW  HW  HW  OW  HW  HW  OW  HW  HW  OW  HW  HW  OW  HW  HW  OW  HW  HW  OW  
HW  HW  OW  HW  HW  OW  HW  HW  OW  HW  HW  OW  HW  HW  OW  HW  HW  OW  HW  HW  
OW  HW  HW  OW  HW  HW  OW  HW  HW  OW  HW  HW  OW  HW  HW  OW  HW  HW  OW  HW  
HW  OW  HW  HW  OW  HW  HW  OW  HW  HW  OW  HW  HW  OW  HW  HW  OW  HW  HW  OW  
HW  HW  OW  HW  HW  OW  HW  HW  OW  HW  HW  OW  HW  HW  OW  HW  HW  OW  HW  HW  
OW  HW  HW  OW  HW  HW  OW  HW  HW  OW  HW  HW  OW  HW  HW  OW  HW  HW  OW  HW  
HW  OW  HW  HW  OW  HW  HW  OW  HW  HW  OW  HW  HW  OW  HW  HW  OW  HW  HW  OW  
HW  HW  OW  HW  HW  OW  HW  HW  OW  HW  HW  OW  HW  HW  OW  HW  HW  OW  HW  HW  
OW  HW  HW  OW  HW  HW  OW  HW  HW  OW  HW  HW  OW  HW  HW  OW  HW  HW  OW  HW  
HW  OW  HW  HW  OW  HW  HW  OW  HW  HW  OW  HW  HW  OW  HW  HW  OW  HW  HW  OW  
HW  HW  OW  HW  HW  OW  HW  HW  OW  HW  HW  OW  HW  HW  OW  HW  HW  OW  HW  HW  
OW  HW  HW  OW  HW  HW  OW  HW  HW  OW  HW  HW  OW  HW  HW  OW  HW  HW  OW  HW  
HW  OW  HW  HW  OW  HW  HW  OW  HW  HW  OW  HW  HW  OW  HW  HW  OW  HW  HW  OW  
HW  HW  OW  HW  HW  OW  HW  HW  OW  HW  HW  OW  HW  HW  OW  HW  HW  OW  HW  HW  
OW  HW  HW  OW  HW  HW  OW  HW  HW  OW  HW  HW  OW  HW  HW  OW  HW  HW  OW  HW  
HW  OW  HW  HW  OW  HW  HW  OW  HW  HW  OW  HW  HW  OW  HW  HW  OW  HW  HW  OW  
HW  HW  OW  HW  HW  OW  HW  HW  OW  HW  HW  OW  HW  HW  OW  HW  HW  OW  HW  HW  
OW  HW  HW  OW  HW  HW  OW  HW  HW  OW  HW  HW  OW  HW  HW  OW  HW  HW  OW  HW  
HW  OW  HW  HW  OW  HW  HW  OW  HW  HW  OW  HW  HW  OW  HW  HW  OW  HW  HW  OW  
HW  HW  OW  HW  HW  OW  HW  HW  OW  HW  HW  OW  HW  HW  OW  HW  HW  OW  HW  HW  
OW  HW  HW  OW  HW  HW  OW  HW  HW  OW  HW  HW  OW  HW  HW  OW  HW  HW  OW  HW  
HW  OW  HW  HW  OW  HW  HW  OW  HW  HW  OW  HW  HW  OW  HW  HW  OW  HW  HW  OW  
HW  HW  OW  HW  HW  OW  HW  HW  OW  HW  HW  OW  HW  HW  OW  HW  HW  OW  HW  HW  
OW  HW  HW  OW  HW  HW  OW  HW  HW  OW  HW  HW  OW  HW  HW  OW  HW  HW  OW  HW  
HW  OW  HW  HW  OW  HW  HW  OW  HW  HW  OW  HW  HW  OW  HW  HW  OW  HW  HW  OW  
HW  HW  OW  HW  HW  OW  HW  HW  OW  HW  HW  OW  HW  HW  OW  HW  HW  OW  HW  HW  
OW  HW  HW  OW  HW  HW  OW  HW  HW  OW  HW  HW  OW  HW  HW  OW  HW  HW  OW  HW  
HW  OW  HW  HW  OW  HW  HW  OW  HW  HW  OW  HW  HW  OW  HW  HW  OW  HW  HW  OW  
HW  HW  OW  HW  HW  OW  HW  HW  OW  HW  HW  OW  HW  HW  OW  HW  HW  OW  HW  HW  
OW  HW  HW  OW  HW  HW  OW  HW  HW  OW  HW  HW  OW  HW  HW  OW  HW  HW  OW  HW  
HW  OW  HW  HW  OW  HW  HW  OW  HW  HW  OW  HW  HW  OW  HW  HW  OW  HW  HW  OW  
HW  HW  OW  HW  HW  OW  HW  HW  OW  HW  HW  OW  HW  HW  OW  HW  HW  OW  HW  HW  
OW  HW  HW  OW  HW  HW  OW  HW  HW  OW  HW  HW  OW  HW  HW  OW  HW  HW  OW  HW  
HW  OW  HW  HW  OW  HW  HW  OW  HW  HW  OW  HW  HW  OW  HW  HW  OW  HW  HW  OW  
HW  HW  OW  HW  HW  OW  HW  HW  OW  HW  HW  OW  HW  HW  OW  HW  HW  OW  HW  HW  
OW  HW  HW  OW  HW  HW  OW  HW  HW  OW  HW  HW  OW  HW  HW  OW  HW  HW  OW  HW  
HW  OW  HW  HW  OW  HW  HW  OW  HW  HW  OW  HW  HW  OW  HW  HW  OW  HW  HW  OW  
HW  HW  OW  HW  HW  OW  HW  HW  OW  HW  HW  OW  HW  HW  OW  HW  HW  OW  HW  HW  
OW  HW  HW  OW  HW  HW  OW  HW  HW  OW  HW  HW  OW  HW  HW  OW  HW  HW  OW  HW  
HW  OW  HW  HW  OW  HW  HW  OW  HW  HW  OW  HW  HW  OW  HW  HW  OW  HW  HW  OW  
HW  HW  OW  HW  HW  OW  HW  HW  OW  HW  HW  OW  HW  HW  OW  HW  HW  OW  HW  HW  
OW  HW  HW  OW  HW  HW  OW  HW  HW  OW  HW  HW  OW  HW  HW  OW  HW  HW  OW  HW  
HW  OW  HW  HW  OW  HW  HW  OW  HW  HW  OW  HW  HW  OW  HW  HW  OW  HW  HW  OW  
HW  HW  OW  HW  HW  OW  HW  HW  OW  HW  HW  OW  HW  HW  OW  HW  HW  OW  HW  HW  
OW  HW  HW  OW  HW  HW  OW  HW  HW  OW  HW  HW  OW  HW  HW  OW  HW  HW  OW  HW  
HW  OW  HW  HW  OW  HW  HW  OW  HW  HW  OW  HW  HW  OW  HW  HW  OW  HW  HW  OW  
HW  HW  OW  HW  HW  OW  HW  HW  OW  HW  HW  OW  HW  HW  OW  HW  HW  OW  HW  HW  
OW  HW  HW  OW  HW  HW  OW  HW  HW  OW  HW  HW  OW  HW  HW  OW  HW  HW  OW  HW  
HW  OW  HW  HW  OW  HW  HW  OW  HW  HW  OW  HW  HW  OW  HW  HW  OW  HW  HW  OW  
HW  HW  OW  HW  HW  OW  HW  HW  OW  HW  HW  OW  HW  HW  OW  HW  HW  OW  HW  HW  
OW  HW  HW  OW  HW  HW  OW  HW  HW  OW  HW  HW  OW  HW  HW  OW  HW  HW  OW  HW  
HW  OW  HW  HW  OW  HW  HW  OW  HW  HW  OW  HW  HW  OW  HW  HW  OW  HW  HW  OW  
HW  HW  OW  HW  HW  OW  HW  HW  OW  HW  HW  OW  HW  HW  OW  HW  HW  OW  HW  HW  
OW  HW  HW  OW  HW  HW  OW  HW  HW  OW  HW  HW  OW  HW  HW  OW  HW  HW  OW  HW  
HW  OW  HW  HW  OW  HW  HW  OW  HW  HW  OW  HW  HW  OW  HW  HW  OW  HW  HW  OW  
HW  HW  OW  HW  HW  OW  HW  HW  OW  HW  HW  OW  HW  HW  OW  HW  HW  OW  HW  HW  
OW  HW  HW  OW  HW  HW  OW  HW  HW  OW  HW  HW  OW  HW  HW  OW  HW  HW  OW  HW  
HW  OW  HW  HW  OW  HW  HW  OW  HW  HW  OW  HW  HW  OW  HW  HW  OW  HW  HW  OW  
HW  HW  OW  HW  HW  OW  HW  HW  OW  HW  HW  OW  HW  HW  OW  HW  HW  OW  HW  HW  
OW  HW  HW  OW  HW  HW  OW  HW  HW  OW  HW  HW  OW  HW  HW  OW  HW  HW  OW  HW  
HW  OW  HW  HW  OW  HW  HW  OW  HW  HW  OW  HW  HW  OW  HW  HW  OW  HW  HW  OW  
HW  HW  OW  HW  HW  OW  HW  HW  OW  HW  HW  OW  HW  HW  OW  HW  HW  OW  HW  HW  
OW  HW  HW  OW  HW  HW  OW  HW  HW  OW  HW  HW  OW  HW  HW  OW  HW  HW  OW  HW  
HW  OW  HW  HW  OW  HW  HW  OW  HW  HW  OW  HW  HW  OW  HW  HW  OW  HW  HW  OW  
HW  HW  OW  HW  HW  OW  HW  HW  OW  HW  HW  OW  HW  HW  OW  HW  HW  OW  HW  HW  
OW  HW  HW  OW  HW  HW  OW  HW  HW  OW  HW  HW  OW  HW  HW  OW  HW  HW  OW  HW  
HW  OW  HW  HW  OW  HW  HW  OW  HW  HW  OW  HW  HW  OW  HW  HW  OW  HW  HW  OW  
HW  HW  OW  HW  HW  OW  HW  HW  OW  HW  HW  OW  HW  HW  OW  HW  HW  OW  HW  HW  
OW  HW  HW  OW  HW  HW  OW  HW  HW  OW  HW  HW  OW  HW  HW  OW  HW  HW  OW  HW  
HW  OW  HW  HW  OW  HW  HW  OW  HW  HW  OW  HW  HW  OW  HW  HW  OW  HW  HW  OW  
HW  HW  OW  HW  HW  OW  HW  HW  OW  HW  HW  OW  HW  HW  OW  HW  HW  OW  HW  HW  
OW  HW  HW  OW  HW  HW  OW  HW  HW  OW  HW  HW  OW  HW  HW  OW  HW  HW  OW  HW  
HW  OW  HW  HW  OW  HW  HW  OW  HW  HW  OW  HW  HW  OW  HW  HW  OW  HW  HW  OW  
HW  HW  OW  HW  HW  OW  HW  HW  OW  HW  HW  OW  HW  HW  OW  HW  HW  OW  HW  HW  
OW  HW  HW  OW  HW  HW  OW  HW  HW  OW  HW  HW  OW  HW  HW  OW  HW  HW  OW  HW  
HW  OW  HW  HW  OW  HW  HW  OW  HW  HW  OW  HW  HW  OW  HW  HW  OW  HW  HW  OW  
HW  HW  OW  HW  HW  OW  HW  HW  OW  HW  HW  OW  HW  HW  OW  HW  HW  OW  HW  HW  
OW  HW  HW  OW  HW  HW  OW  HW  HW  OW  HW  HW  OW  HW  HW  OW  HW  HW  OW  HW  
HW  OW  HW  HW  OW  HW  HW  OW  HW  HW  OW  HW  HW  OW  HW  HW  OW  HW  HW  OW  
HW  HW  OW  HW  HW  OW  HW  HW  OW  HW  HW  OW  HW  HW  OW  HW  HW  OW  HW  HW  
OW  HW  HW  OW  HW  HW  OW  HW  HW  OW  HW  HW  OW  HW  HW  OW  HW  HW  OW  HW  
HW  OW  HW  HW  OW  HW  HW  OW  HW  HW  OW  HW  HW  OW  HW  HW  OW  HW  HW  OW  
HW  HW  OW  HW  HW  OW  HW  HW  OW  HW  HW  OW  HW  HW  OW  HW  HW  OW  HW  HW  
OW  HW  HW  OW  HW  HW  OW  HW  HW  OW  HW  HW  OW  HW  HW  OW  HW  HW  OW  HW  
HW  OW  HW  HW  OW  HW  HW  OW  HW  HW  OW  HW  HW  OW  HW  HW  OW  HW  HW  OW  
HW  HW  OW  HW  HW  OW  HW  HW  OW  HW  HW  OW  HW  HW  OW  HW  HW  OW  HW  HW  
OW  HW  HW  OW  HW  HW  OW  HW  HW  OW  HW  HW  OW  HW  HW  OW  HW  HW  OW  HW  
HW  OW  HW  HW  OW  HW  HW  OW  HW  HW  OW  HW  HW  OW  HW  HW  OW  HW  HW  OW  
HW  HW  OW  HW  HW  OW  HW  HW  OW  HW  HW  OW  HW  HW  OW  HW  HW  OW  HW  HW  
OW  HW  HW  OW  HW  HW  OW  HW  HW  OW  HW  HW  OW  HW  HW  OW  HW  HW  OW  HW  
HW  OW  HW  HW  OW  HW  HW  OW  HW  HW  OW  HW  HW  OW  HW  HW  OW  HW  HW  OW  
HW  HW  OW  HW  HW  OW  HW  HW  OW  HW  HW  OW  HW  HW  OW  HW  HW  OW  HW  HW  
OW  HW  HW  OW  HW  HW  OW  HW  HW  OW  HW  HW  OW  HW  HW  OW  HW  HW  OW  HW  
HW  OW  HW  HW  OW  HW  HW  OW  HW  HW  OW  HW  HW  OW  HW  HW  OW  HW  HW  OW  
HW  HW  OW  HW  HW  OW  HW  HW  OW  HW  HW  OW  HW  HW  OW  HW  HW  OW  HW  HW  
OW  HW  HW  OW  HW  HW  OW  HW  HW  OW  HW  HW  OW  HW  HW  OW  HW  HW  OW  HW  
HW  OW  HW  HW  OW  HW  HW  OW  HW  HW  OW  HW  HW  OW  HW  HW  OW  HW  HW  OW  
HW  HW  OW  HW  HW  OW  HW  HW  OW  HW  HW  OW  HW  HW  OW  HW  HW  OW  HW  HW  
OW  HW  HW  OW  HW  HW  OW  HW  HW  OW  HW  HW  OW  HW  HW  OW  HW  HW  OW  HW  
HW  OW  HW  HW  OW  HW  HW  OW  HW  HW  OW  HW  HW  OW  HW  HW  OW  HW  HW  OW  
HW  HW  OW  HW  HW  OW  HW  HW  OW  HW  HW  OW  HW  HW  OW  HW  HW  OW  HW  HW  
OW  HW  HW  OW  HW  HW  OW  HW  HW  OW  HW  HW  OW  HW  HW  OW  HW  HW  OW  HW  
HW  OW  HW  HW  OW  HW  HW  OW  HW  HW  OW  HW  HW  OW  HW  HW  OW  HW  HW  OW  
HW  HW  OW  HW  HW  OW  HW  HW  OW  HW  HW  OW  HW  HW  OW  HW  HW  OW  HW  HW  
OW  HW  HW  OW  HW  HW  OW  HW  HW  OW  HW  HW  OW  HW  HW  OW  HW  HW  OW  HW  
HW  OW  HW  HW  OW  HW  HW  OW  HW  HW  OW  HW  HW  OW  HW  HW  OW  HW  HW  OW  
HW  HW  OW  HW  HW  OW  HW  HW  OW  HW  HW  OW  HW  HW  OW  HW  HW  OW  HW  HW  
OW  HW  HW  OW  HW  HW  OW  HW  HW  OW  HW  HW  OW  HW  HW  OW  HW  HW  OW  HW  
HW  OW  HW  HW  OW  HW  HW  OW  HW  HW  OW  HW  HW  OW  HW  HW  OW  HW  HW  OW  
HW  HW  OW  HW  HW  OW  HW  HW  OW  HW  HW  OW  HW  HW  OW  HW  HW  OW  HW  HW  
OW  HW  HW  OW  HW  HW  OW  HW  HW  OW  HW  HW  OW  HW  HW  OW  HW  HW  OW  HW  
HW  OW  HW  HW  OW  HW  HW  OW  HW  HW  OW  HW  HW  OW  HW  HW  OW  HW  HW  OW  
HW  HW  OW  HW  HW  OW  HW  HW  OW  HW  HW  OW  HW  HW  OW  HW  HW  OW  HW  HW  
OW  HW  HW  OW  HW  HW  OW  HW  HW  OW  HW  HW  OW  HW  HW  OW  HW  HW  OW  HW  
HW  OW  HW  HW  OW  HW  HW  OW  HW  HW  OW  HW  HW  OW  HW  HW  OW  HW  HW  OW  
HW  HW  OW  HW  HW  OW  HW  HW  OW  HW  HW  OW  HW  HW  OW  HW  HW  OW  HW  HW  
OW  HW  HW  OW  HW  HW  OW  HW  HW  OW  HW  HW  OW  HW  HW  OW  HW  HW  OW  HW  
HW  OW  HW  HW  OW  HW  HW  OW  HW  HW  OW  HW  HW  OW  HW  HW  OW  HW  HW  OW  
HW  HW  OW  HW  HW  OW  HW  HW  OW  HW  HW  OW  HW  HW  OW  HW  HW  OW  HW  HW  
OW  HW  HW  OW  HW  HW  OW  HW  HW  OW  HW  HW  OW  HW  HW  OW  HW  HW  OW  HW  
HW  OW  HW  HW  OW  HW  HW  OW  HW  HW  OW  HW  HW  OW  HW  HW  OW  HW  HW  OW  
HW  HW  OW  HW  HW  OW  HW  HW  OW  HW  HW  OW  HW  HW  OW  HW  HW  OW  HW  HW  
OW  HW  HW  OW  HW  HW  OW  HW  HW  OW  HW  HW  OW  HW  HW  OW  HW  HW  OW  HW  
HW  OW  HW  HW  OW  HW  HW  OW  HW  HW  OW  HW  HW  OW  HW  HW  OW  HW  HW  OW  
HW  HW  OW  HW  HW  OW  HW  HW  OW  HW  HW  OW  HW  HW  OW  HW  HW  OW  HW  HW  
OW  HW  HW  OW  HW  HW  OW  HW  HW  OW  HW  HW  OW  HW  HW  OW  HW  HW  OW  HW  
HW  OW  HW  HW  OW  HW  HW  OW  HW  HW  OW  HW  HW  OW  HW  HW  OW  HW  HW  OW  
HW  HW  OW  HW  HW  OW  HW  HW  OW  HW  HW  OW  HW  HW  OW  HW  HW  OW  HW  HW  
OW  HW  HW  OW  HW  HW  OW  HW  HW  OW  HW  HW  OW  HW  HW  OW  HW  HW  OW  HW  
HW  OW  HW  HW  OW  HW  HW  OW  HW  HW  OW  HW  HW  OW  HW  HW  OW  HW  HW  OW  
HW  HW  OW  HW  HW  OW  HW  HW  OW  HW  HW  OW  HW  HW  OW  HW  HW  OW  HW  HW  
OW  HW  HW  OW  HW  HW  OW  HW  HW  OW  HW  HW  OW  HW  HW  OW  HW  HW  OW  HW  
HW  OW  HW  HW  OW  HW  HW  OW  HW  HW  OW  HW  HW  OW  HW  HW  OW  HW  HW  OW  
HW  HW  OW  HW  HW  OW  HW  HW  OW  HW  HW  OW  HW  HW  OW  HW  HW  OW  HW  HW  
OW  HW  HW  OW  HW  HW  OW  HW  HW  OW  HW  HW  OW  HW  HW  OW  HW  HW  OW  HW  
HW  OW  HW  HW  OW  HW  HW  OW  HW  HW  OW  HW  HW  OW  HW  HW  OW  HW  HW  OW  
HW  HW  OW  HW  HW  OW  HW  HW  OW  HW  HW  OW  HW  HW  OW  HW  HW  OW  HW  HW  
OW  HW  HW  OW  HW  HW  OW  HW  HW  OW  HW  HW  OW  HW  HW  OW  HW  HW  OW  HW  
HW  OW  HW  HW  OW  HW  HW  OW  HW  HW  OW  HW  HW  OW  HW  HW  OW  HW  HW  OW  
HW  HW  OW  HW  HW  OW  HW  HW  OW  HW  HW  OW  HW  HW  OW  HW  HW  OW  HW  HW  
OW  HW  HW  OW  HW  HW  OW  HW  HW  OW  HW  HW  OW  HW  HW  OW  HW  HW  OW  HW  
HW  OW  HW  HW  OW  HW  HW  OW  HW  HW  OW  HW  HW  OW  HW  HW  OW  HW  HW  OW  
HW  HW  OW  HW  HW  OW  HW  HW  OW  HW  HW  OW  HW  HW  OW  HW  HW  OW  HW  HW  
OW  HW  HW  OW  HW  HW  OW  HW  HW  OW  HW  HW  OW  HW  HW  OW  HW  HW  OW  HW  
HW  OW  HW  HW  OW  HW  HW  OW  HW  HW  OW  HW  HW  OW  HW  HW  OW  HW  HW  OW  
HW  HW  OW  HW  HW  OW  HW  HW  OW  HW  HW  OW  HW  HW  OW  HW  HW  OW  HW  HW  
OW  HW  HW  OW  HW  HW  OW  HW  HW  OW  HW  HW  OW  HW  HW  OW  HW  HW  OW  HW  
HW  OW  HW  HW  OW  HW  HW  OW  HW  HW  OW  HW  HW  OW  HW  HW  OW  HW  HW  OW  
HW  HW  OW  HW  HW  OW  HW  HW  OW  HW  HW  OW  HW  HW  OW  HW  HW  OW  HW  HW  
OW  HW  HW  OW  HW  HW  OW  HW  HW  OW  HW  HW  OW  HW  HW  OW  HW  HW  OW  HW  
HW  OW  HW  HW  OW  HW  HW  OW  HW  HW  OW  HW  HW  OW  HW  HW  OW  HW  HW  OW  
HW  HW  OW  HW  HW  OW  HW  HW  OW  HW  HW  OW  HW  HW  OW  HW  HW  OW  HW  HW  
OW  HW  HW  OW  HW  HW  OW  HW  HW  OW  HW  HW  OW  HW  HW  OW  HW  HW  OW  HW  
HW  OW  HW  HW  OW  HW  HW  OW  HW  HW  OW  HW  HW  OW  HW  HW  OW  HW  HW  OW  
HW  HW  OW  HW  HW  OW  HW  HW  OW  HW  HW  OW  HW  HW  OW  HW  HW  OW  HW  HW  
OW  HW  HW  OW  HW  HW  OW  HW  HW  OW  HW  HW  OW  HW  HW  OW  HW  HW  OW  HW  
HW  OW  HW  HW  OW  HW  HW  OW  HW  HW  OW  HW  HW  OW  HW  HW  OW  HW  HW  OW  
HW  HW  OW  HW  HW  OW  HW  HW  OW  HW  HW  OW  HW  HW  OW  HW  HW  OW  HW  HW  
OW  HW  HW  OW  HW  HW  OW  HW  HW  OW  HW  HW  OW  HW  HW  OW  HW  HW  OW  HW  
HW  OW  HW  HW  OW  HW  HW  OW  HW  HW  OW  HW  HW  OW  HW  HW  OW  HW  HW  OW  
HW  HW  OW  HW  HW  OW  HW  HW  OW  HW  HW  OW  HW  HW  OW  HW  HW  OW  HW  HW  
OW  HW  HW  OW  HW  HW  OW  HW  HW  OW  HW  HW  OW  HW  HW  OW  HW  HW  OW  HW  
HW  OW  HW  HW  OW  HW  HW  OW  HW  HW  OW  HW  HW  OW  HW  HW  OW  HW  HW  OW  
HW  HW  OW  HW  HW  OW  HW  HW  OW  HW  HW  OW  HW  HW  OW  HW  HW  OW  HW  HW  
OW  HW  HW  OW  HW  HW  OW  HW  HW  OW  HW  HW  OW  HW  HW  OW  HW  HW  OW  HW  
HW  OW  HW  HW  OW  HW  HW  OW  HW  HW  OW  HW  HW  OW  HW  HW  OW  HW  HW  OW  
HW  HW  OW  HW  HW  OW  HW  HW  OW  HW  HW  OW  HW  HW  OW  HW  HW  OW  HW  HW  
OW  HW  HW  OW  HW  HW  OW  HW  HW  OW  HW  HW  OW  HW  HW  OW  HW  HW  OW  HW  
HW  OW  HW  HW  OW  HW  HW  OW  HW  HW  OW  HW  HW  OW  HW  HW  OW  HW  HW  OW  
HW  HW  OW  HW  HW  OW  HW  HW  OW  HW  HW  OW  HW  HW  OW  HW  HW  OW  HW  HW  
OW  HW  HW  OW  HW  HW  OW  HW  HW  OW  HW  HW  OW  HW  HW  OW  HW  HW  OW  HW  
HW  OW  HW  HW  OW  HW  HW  OW  HW  HW  OW  HW  HW  OW  HW  HW  OW  HW  HW  OW  
HW  HW  OW  HW  HW  OW  HW  HW  OW  HW  HW  OW  HW  HW  OW  HW  HW  OW  HW  HW  
OW  HW  HW  OW  HW  HW  OW  HW  HW  OW  HW  HW  OW  HW  HW  OW  HW  HW  OW  HW  
HW  OW  HW  HW  OW  HW  HW  OW  HW  HW  OW  HW  HW  OW  HW  HW  OW  HW  HW  OW  
HW  HW  OW  HW  HW  OW  HW  HW  OW  HW  HW  OW  HW  HW  OW  HW  HW  OW  HW  HW  
OW  HW  HW  OW  HW  HW  OW  HW  HW  OW  HW  HW  OW  HW  HW  OW  HW  HW  OW  HW  
HW  OW  HW  HW  OW  HW  HW  OW  HW  HW  OW  HW  HW  OW  HW  HW  OW  HW  HW  OW  
HW  HW  OW  HW  HW  OW  HW  HW  OW  HW  HW  OW  HW  HW  OW  HW  HW  OW  HW  HW  
OW  HW  HW  OW  HW  HW  OW  HW  HW  OW  HW  HW  OW  HW  HW  OW  HW  HW  OW  HW  
HW  OW  HW  HW  OW  HW  HW  OW  HW  HW  OW  HW  HW  OW  HW  HW  OW  HW  HW  OW  
HW  HW  OW  HW  HW  OW  HW  HW  OW  HW  HW  OW  HW  HW  OW  HW  HW  OW  HW  HW  
OW  HW  HW  OW  HW  HW  OW  HW  HW  OW  HW  HW  OW  HW  HW  OW  HW  HW  OW  HW  
HW  OW  HW  HW  OW  HW  HW  OW  HW  HW  OW  HW  HW  OW  HW  HW  OW  HW  HW  OW  
HW  HW  OW  HW  HW  OW  HW  HW  OW  HW  HW  OW  HW  HW  OW  HW  HW  OW  HW  HW  
OW  HW  HW  OW  HW  HW  OW  HW  HW  OW  HW  HW  OW  HW  HW  OW  HW  HW  OW  HW  
HW  OW  HW  HW  OW  HW  HW  OW  HW  HW  OW  HW  HW  OW  HW  HW  OW  HW  HW  OW  
HW  HW  OW  HW  HW  OW  HW  HW  OW  HW  HW  OW  HW  HW  OW  HW  HW  OW  HW  HW  
OW  HW  HW  OW  HW  HW  OW  HW  HW  OW  HW  HW  OW  HW  HW  OW  HW  HW  OW  HW  
HW  OW  HW  HW  OW  HW  HW  OW  HW  HW  OW  HW  HW  OW  HW  HW  OW  HW  HW  OW  
HW  HW  OW  HW  HW  OW  HW  HW  OW  HW  HW  OW  HW  HW  OW  HW  HW  OW  HW  HW  
OW  HW  HW  OW  HW  HW  OW  HW  HW  OW  HW  HW  OW  HW  HW  OW  HW  HW  OW  HW  
HW  OW  HW  HW  OW  HW  HW  OW  HW  HW  OW  HW  HW  OW  HW  HW  OW  HW  HW  OW  
HW  HW  OW  HW  HW  OW  HW  HW  OW  HW  HW  OW  HW  HW  OW  HW  HW  OW  HW  HW  
OW  HW  HW  OW  HW  HW  OW  HW  HW  OW  HW  HW  OW  HW  HW  OW  HW  HW  OW  HW  
HW  OW  HW  HW  OW  HW  HW  OW  HW  HW  OW  HW  HW  OW  HW  HW  OW  HW  HW  OW  
HW  HW  OW  HW  HW  OW  HW  HW  OW  HW  HW  OW  HW  HW  OW  HW  HW  OW  HW  HW  
OW  HW  HW  OW  HW  HW  OW  HW  HW  OW  HW  HW  OW  HW  HW  OW  HW  HW  OW  HW  
HW  OW  HW  HW  OW  HW  HW  OW  HW  HW  OW  HW  HW  OW  HW  HW  OW  HW  HW  OW  
HW  HW  OW  HW  HW  OW  HW  HW  OW  HW  HW  OW  HW  HW  OW  HW  HW  OW  HW  HW  
OW  HW  HW  OW  HW  HW  OW  HW  HW  OW  HW  HW  OW  HW  HW  OW  HW  HW  OW  HW  
HW  OW  HW  HW  OW  HW  HW  OW  HW  HW  OW  HW  HW  OW  HW  HW  OW  HW  HW  OW  
HW  HW  OW  HW  HW  OW  HW  HW  OW  HW  HW  OW  HW  HW  OW  HW  HW  OW  HW  HW  
OW  HW  HW  OW  HW  HW  OW  HW  HW  OW  HW  HW  OW  HW  HW  OW  HW  HW  OW  HW  
HW  OW  HW  HW  OW  HW  HW  OW  HW  HW  OW  HW  HW  OW  HW  HW  OW  HW  HW  OW  
HW  HW  OW  HW  HW  OW  HW  HW  OW  HW  HW  OW  HW  HW  OW  HW  HW  OW  HW  HW  
OW  HW  HW  OW  HW  HW  OW  HW  HW  OW  HW  HW  OW  HW  HW  OW  HW  HW  OW  HW  
HW  OW  HW  HW  OW  HW  HW  OW  HW  HW  OW  HW  HW  OW  HW  HW  OW  HW  HW  OW  
HW  HW  OW  HW  HW  OW  HW  HW  OW  HW  HW  OW  HW  HW  OW  HW  HW  OW  HW  HW  
OW  HW  HW  OW  HW  HW  OW  HW  HW  OW  HW  HW  OW  HW  HW  OW  HW  HW  OW  HW  
HW  OW  HW  HW  OW  HW  HW  OW  HW  HW  OW  HW  HW  OW  HW  HW  OW  HW  HW  OW  
HW  HW  OW  HW  HW  OW  HW  HW  OW  HW  HW  OW  HW  HW  OW  HW  HW  OW  HW  HW  
OW  HW  HW  OW  HW  HW  OW  HW  HW  OW  HW  HW  OW  HW  HW  OW  HW  HW  OW  HW  
HW  OW  HW  HW  OW  HW  HW  OW  HW  HW  OW  HW  HW  OW  HW  HW  OW  HW  HW  OW  
HW  HW  OW  HW  HW  OW  HW  HW  OW  HW  HW  OW  HW  HW  OW  HW  HW  OW  HW  HW  
OW  HW  HW  OW  HW  HW  OW  HW  HW  OW  HW  HW  OW  HW  HW  OW  HW  HW  OW  HW  
HW  OW  HW  HW  OW  HW  HW  OW  HW  HW  OW  HW  HW  OW  HW  HW  OW  HW  HW  OW  
HW  HW  OW  HW  HW  OW  HW  HW  OW  HW  HW  OW  HW  HW  OW  HW  HW  OW  HW  HW  
OW  HW  HW  OW  HW  HW  OW  HW  HW  OW  HW  HW  OW  HW  HW  OW  HW  HW  OW  HW  
HW  OW  HW  HW  OW  HW  HW  OW  HW  HW  OW  HW  HW  OW  HW  HW  OW  HW  HW  OW  
HW  HW  OW  HW  HW  OW  HW  HW  OW  HW  HW  OW  HW  HW  OW  HW  HW  OW  HW  HW  
OW  HW  HW  OW  HW  HW  OW  HW  HW  OW  HW  HW  OW  HW  HW  OW  HW  HW  OW  HW  
HW  OW  HW  HW  OW  HW  HW  OW  HW  HW  OW  HW  HW  OW  HW  HW  OW  HW  HW  OW  
HW  HW  OW  HW  HW  OW  HW  HW  OW  HW  HW  OW  HW  HW  OW  HW  HW  OW  HW  HW  
OW  HW  HW  OW  HW  HW  OW  HW  HW  OW  HW  HW  OW  HW  HW  OW  HW  HW  OW  HW  
HW  OW  HW  HW  OW  HW  HW  OW  HW  HW  OW  HW  HW  OW  HW  HW  OW  HW  HW  OW  
HW  HW  OW  HW  HW  OW  HW  HW  OW  HW  HW  OW  HW  HW  OW  HW  HW  OW  HW  HW  
OW  HW  HW  OW  HW  HW  OW  HW  HW  OW  HW  HW  OW  HW  HW  OW  HW  HW  OW  HW  
HW  OW  HW  HW  OW  HW  HW  OW  HW  HW  OW  HW  HW  OW  HW  HW  OW  HW  HW  OW  
HW  HW  OW  HW  HW  OW  HW  HW  OW  HW  HW  OW  HW  HW  OW  HW  HW  OW  HW  HW  
OW  HW  HW  OW  HW  HW  OW  HW  HW  OW  HW  HW  OW  HW  HW  OW  HW  HW  OW  HW  
HW  OW  HW  HW  OW  HW  HW  OW  HW  HW  OW  HW  HW  OW  HW  HW  OW  HW  HW  OW  
HW  HW  OW  HW  HW  OW  HW  HW  OW  HW  HW  OW  HW  HW  OW  HW  HW  OW  HW  HW  
OW  HW  HW  OW  HW  HW  OW  HW  HW  OW  HW  HW  OW  HW  HW  OW  HW  HW  OW  HW  
HW  OW  HW  HW  OW  HW  HW  OW  HW  HW  OW  HW  HW  OW  HW  HW  OW  HW  HW  OW  
HW  HW  OW  HW  HW  OW  HW  HW  OW  HW  HW  OW  HW  HW  OW  HW  HW  OW  HW  HW  
OW  HW  HW  OW  HW  HW  OW  HW  HW  OW  HW  HW  OW  HW  HW  OW  HW  HW  OW  HW  
HW  OW  HW  HW  OW  HW  HW  OW  HW  HW  OW  HW  HW  OW  HW  HW  OW  HW  HW  OW  
HW  HW  OW  HW  HW  OW  HW  HW  OW  HW  HW  OW  HW  HW  OW  HW  HW  OW  HW  HW  
OW  HW  HW  OW  HW  HW  OW  HW  HW  OW  HW  HW  OW  HW  HW  OW  HW  HW  OW  HW  
HW  OW  HW  HW  OW  HW  HW  OW  HW  HW  OW  HW  HW  OW  HW  HW  OW  HW  HW  OW  
HW  HW  OW  HW  HW  OW  HW  HW  OW  HW  HW  OW  HW  HW  OW  HW  HW  OW  HW  HW  
OW  HW  HW  OW  HW  HW  OW  HW  HW  OW  HW  HW  OW  HW  HW  OW  HW  HW  OW  HW  
HW  OW  HW  HW  OW  HW  HW  OW  HW  HW  OW  HW  HW  OW  HW  HW  OW  HW  HW  OW  
HW  HW  OW  HW  HW  OW  HW  HW  OW  HW  HW  OW  HW  HW  OW  HW  HW  OW  HW  HW  
OW  HW  HW  OW  HW  HW  OW  HW  HW  OW  HW  HW  OW  HW  HW  OW  HW  HW  OW  HW  
HW  OW  HW  HW  OW  HW  HW  OW  HW  HW  OW  HW  HW  OW  HW  HW  OW  HW  HW  OW  
HW  HW  OW  HW  HW  OW  HW  HW  OW  HW  HW  OW  HW  HW  OW  HW  HW  OW  HW  HW  
OW  HW  HW  OW  HW  HW  OW  HW  HW  OW  HW  HW  OW  HW  HW  OW  HW  HW  OW  HW  
HW  OW  HW  HW  OW  HW  HW  OW  HW  HW  OW  HW  HW  OW  HW  HW  OW  HW  HW  OW  
HW  HW  OW  HW  HW  OW  HW  HW  OW  HW  HW  OW  HW  HW  OW  HW  HW  OW  HW  HW  
OW  HW  HW  OW  HW  HW  OW  HW  HW  OW  HW  HW  OW  HW  HW  OW  HW  HW  OW  HW  
HW  OW  HW  HW  OW  HW  HW  OW  HW  HW  OW  HW  HW  OW  HW  HW  OW  HW  HW  OW  
HW  HW  OW  HW  HW  OW  HW  HW  OW  HW  HW  OW  HW  HW  OW  HW  HW  OW  HW  HW  
OW  HW  HW  OW  HW  HW  OW  HW  HW  OW  HW  HW  OW  HW  HW  OW  HW  HW  OW  HW  
HW  OW  HW  HW  OW  HW  HW  OW  HW  HW  OW  HW  HW  OW  HW  HW  OW  HW  HW  OW  
HW  HW  OW  HW  HW  OW  HW  HW  OW  HW  HW  OW  HW  HW  OW  HW  HW  OW  HW  HW  
OW  HW  HW  OW  HW  HW  OW  HW  HW  OW  HW  HW  OW  HW  HW  OW  HW  HW  OW  HW  
HW  OW  HW  HW  OW  HW  HW  OW  HW  HW  OW  HW  HW  OW  HW  HW  OW  HW  HW  OW  
HW  HW  OW  HW  HW  OW  HW  HW  OW  HW  HW  OW  HW  HW  OW  HW  HW  OW  HW  HW  
OW  HW  HW  OW  HW  HW  OW  HW  HW  OW  HW  HW  OW  HW  HW  OW  HW  HW  OW  HW  
HW  OW  HW  HW  OW  HW  HW  OW  HW  HW  OW  HW  HW  OW  HW  HW  OW  HW  HW  OW  
HW  HW  OW  HW  HW  OW  HW  HW  OW  HW  HW  OW  HW  HW  OW  HW  HW  OW  HW  HW  
OW  HW  HW  OW  HW  HW  OW  HW  HW  OW  HW  HW  OW  HW  HW  OW  HW  HW  OW  HW  
HW  OW  HW  HW  OW  HW  HW  OW  HW  HW  OW  HW  HW  OW  HW  HW  OW  HW  HW  OW  
HW  HW  OW  HW  HW  OW  HW  HW  OW  HW  HW  OW  HW  HW  OW  HW  HW  OW  HW  HW  
OW  HW  HW  OW  HW  HW  OW  HW  HW  OW  HW  HW  OW  HW  HW  OW  HW  HW  OW  HW  
HW  OW  HW  HW  OW  HW  HW  OW  HW  HW  OW  HW  HW  OW  HW  HW  OW  HW  HW  OW  
HW  HW  OW  HW  HW  OW  HW  HW  OW  HW  HW  OW  HW  HW  OW  HW  HW  OW  HW  HW  
OW  HW  HW  OW  HW  HW  OW  HW  HW  OW  HW  HW  OW  HW  HW  OW  HW  HW  OW  HW  
HW  OW  HW  HW  OW  HW  HW  OW  HW  HW  OW  HW  HW  OW  HW  HW  OW  HW  HW  OW  
HW  HW  OW  HW  HW  OW  HW  HW  OW  HW  HW  OW  HW  HW  OW  HW  HW  OW  HW  HW  
OW  HW  HW  OW  HW  HW  OW  HW  HW  OW  HW  HW  OW  HW  HW  OW  HW  HW  OW  HW  
HW  OW  HW  HW  OW  HW  HW  OW  HW  HW  OW  HW  HW  OW  HW  HW  OW  HW  HW  OW  
HW  HW  OW  HW  HW  OW  HW  HW  OW  HW  HW  OW  HW  HW  OW  HW  HW  OW  HW  HW  
OW  HW  HW  OW  HW  HW  OW  HW  HW  OW  HW  HW  OW  HW  HW  OW  HW  HW  OW  HW  
HW  OW  HW  HW  OW  HW  HW  OW  HW  HW  OW  HW  HW  OW  HW  HW  OW  HW  HW  OW  
HW  HW  OW  HW  HW  OW  HW  HW  OW  HW  HW  OW  HW  HW  OW  HW  HW  OW  HW  HW  
OW  HW  HW  OW  HW  HW  OW  HW  HW  OW  HW  HW  OW  HW  HW  OW  HW  HW  OW  HW  
HW  OW  HW  HW  OW  HW  HW  OW  HW  HW  OW  HW  HW  OW  HW  HW  OW  HW  HW  OW  
HW  HW  OW  HW  HW  OW  HW  HW  OW  HW  HW  OW  HW  HW  OW  HW  HW  OW  HW  HW  
OW  HW  HW  OW  HW  HW  OW  HW  HW  OW  HW  HW  OW  HW  HW  OW  HW  HW  OW  HW  
HW  OW  HW  HW  OW  HW  HW  OW  HW  HW  OW  HW  HW  OW  HW  HW  OW  HW  HW  OW  
HW  HW  OW  HW  HW  OW  HW  HW  OW  HW  HW  OW  HW  HW  OW  HW  HW  OW  HW  HW  
OW  HW  HW  OW  HW  HW  OW  HW  HW  OW  HW  HW  OW  HW  HW  OW  HW  HW  OW  HW  
HW  OW  HW  HW  OW  HW  HW  OW  HW  HW  OW  HW  HW  OW  HW  HW  OW  HW  HW  OW  
HW  HW  OW  HW  HW  OW  HW  HW  OW  HW  HW  OW  HW  HW  OW  HW  HW  OW  HW  HW  
OW  HW  HW  OW  HW  HW  OW  HW  HW  OW  HW  HW  OW  HW  HW  OW  HW  HW  OW  HW  
HW  OW  HW  HW  OW  HW  HW  OW  HW  HW  OW  HW  HW  OW  HW  HW  OW  HW  HW  OW  
HW  HW  OW  HW  HW  OW  HW  HW  OW  HW  HW  OW  HW  HW  OW  HW  HW  OW  HW  HW  
OW  HW  HW  OW  HW  HW  OW  HW  HW  OW  HW  HW  OW  HW  HW  OW  HW  HW  OW  HW  
HW  OW  HW  HW  OW  HW  HW  OW  HW  HW  OW  HW  HW  OW  HW  HW  OW  HW  HW  OW  
HW  HW  OW  HW  HW  OW  HW  HW  OW  HW  HW  OW  HW  HW  OW  HW  HW  OW  HW  HW  
OW  HW  HW  OW  HW  HW  OW  HW  HW  OW  HW  HW  OW  HW  HW  OW  HW  HW  OW  HW  
HW  OW  HW  HW  OW  HW  HW  OW  HW  HW  OW  HW  HW  OW  HW  HW  OW  HW  HW  OW  
HW  HW  OW  HW  HW  OW  HW  HW  OW  HW  HW  OW  HW  HW  OW  HW  HW  OW  HW  HW  
OW  HW  HW  OW  HW  HW  OW  HW  HW  OW  HW  HW  OW  HW  HW  OW  HW  HW  OW  HW  
HW  OW  HW  HW  OW  HW  HW  OW  HW  HW  OW  HW  HW  OW  HW  HW  OW  HW  HW  OW  
HW  HW  OW  HW  HW  OW  HW  HW  OW  HW  HW  OW  HW  HW  OW  HW  HW  OW  HW  HW  
OW  HW  HW  OW  HW  HW  OW  HW  HW  OW  HW  HW  OW  HW  HW  OW  HW  HW  OW  HW  
HW  OW  HW  HW  OW  HW  HW  OW  HW  HW  OW  HW  HW  OW  HW  HW  OW  HW  HW  OW  
HW  HW  OW  HW  HW  OW  HW  HW  OW  HW  HW  OW  HW  HW  OW  HW  HW  OW  HW  HW  
OW  HW  HW  OW  HW  HW  OW  HW  HW  OW  HW  HW  OW  HW  HW  OW  HW  HW  OW  HW  
HW  OW  HW  HW  OW  HW  HW  OW  HW  HW  OW  HW  HW  OW  HW  HW  OW  HW  HW  OW  
HW  HW  OW  HW  HW  OW  HW  HW  OW  HW  HW  OW  HW  HW  OW  HW  HW  OW  HW  HW  
OW  HW  HW  OW  HW  HW  OW  HW  HW  OW  HW  HW  OW  HW  HW  OW  HW  HW  OW  HW  
HW  OW  HW  HW  OW  HW  HW  OW  HW  HW  OW  HW  HW  OW  HW  HW  OW  HW  HW  OW  
HW  HW  OW  HW  HW  OW  HW  HW  OW  HW  HW  OW  HW  HW  OW  HW  HW  OW  HW  HW  
OW  HW  HW  OW  HW  HW  OW  HW  HW  OW  HW  HW  OW  HW  HW  OW  HW  HW  OW  HW  
HW  OW  HW  HW  OW  HW  HW  OW  HW  HW  OW  HW  HW  OW  HW  HW  OW  HW  HW  OW  
HW  HW  OW  HW  HW  OW  HW  HW  OW  HW  HW  OW  HW  HW  OW  HW  HW  OW  HW  HW  
OW  HW  HW  OW  HW  HW  OW  HW  HW  OW  HW  HW  OW  HW  HW  OW  HW  HW  OW  HW  
HW  OW  HW  HW  OW  HW  HW  OW  HW  HW  OW  HW  HW  OW  HW  HW  OW  HW  HW  OW  
HW  HW  OW  HW  HW  OW  HW  HW  OW  HW  HW  OW  HW  HW  OW  HW  HW  OW  HW  HW  
OW  HW  HW  OW  HW  HW  OW  HW  HW  OW  HW  HW  OW  HW  HW  OW  HW  HW  OW  HW  
HW  OW  HW  HW  OW  HW  HW  OW  HW  HW  OW  HW  HW  OW  HW  HW  OW  HW  HW  OW  
HW  HW  OW  HW  HW  OW  HW  HW  OW  HW  HW  OW  HW  HW  OW  HW  HW  OW  HW  HW  
OW  HW  HW  OW  HW  HW  OW  HW  HW  OW  HW  HW  OW  HW  HW  OW  HW  HW  OW  HW  
HW  OW  HW  HW  OW  HW  HW  OW  HW  HW  OW  HW  HW  OW  HW  HW  OW  HW  HW  OW  
HW  HW  OW  HW  HW  OW  HW  HW  OW  HW  HW  OW  HW  HW  OW  HW  HW  OW  HW  HW  
OW  HW  HW  OW  HW  HW  OW  HW  HW  OW  HW  HW  OW  HW  HW  OW  HW  HW  OW  HW  
HW  OW  HW  HW  OW  HW  HW  OW  HW  HW  OW  HW  HW  OW  HW  HW  OW  HW  HW  OW  
HW  HW  OW  HW  HW  OW  HW  HW  OW  HW  HW  OW  HW  HW  OW  HW  HW  OW  HW  HW  
OW  HW  HW  OW  HW  HW  OW  HW  HW  OW  HW  HW  OW  HW  HW  OW  HW  HW  OW  HW  
HW  OW  HW  HW  OW  HW  HW  OW  HW  HW  OW  HW  HW  OW  HW  HW  OW  HW  HW  OW  
HW  HW  OW  HW  HW  OW  HW  HW  OW  HW  HW  OW  HW  HW  OW  HW  HW  OW  HW  HW  
OW  HW  HW  OW  HW  HW  OW  HW  HW  OW  HW  HW  OW  HW  HW  OW  HW  HW  OW  HW  
HW  OW  HW  HW  OW  HW  HW  OW  HW  HW  OW  HW  HW  OW  HW  HW  OW  HW  HW  OW  
HW  HW  OW  HW  HW  OW  HW  HW  OW  HW  HW  OW  HW  HW  OW  HW  HW  OW  HW  HW  
OW  HW  HW  OW  HW  HW  OW  HW  HW  OW  HW  HW  OW  HW  HW  OW  HW  HW  OW  HW  
HW  OW  HW  HW  OW  HW  HW  OW  HW  HW  OW  HW  HW  OW  HW  HW  OW  HW  HW  OW  
HW  HW  OW  HW  HW  OW  HW  HW  OW  HW  HW  OW  HW  HW  OW  HW  HW  OW  HW  HW  
OW  HW  HW  OW  HW  HW  OW  HW  HW  OW  HW  HW  OW  HW  HW  OW  HW  HW  OW  HW  
HW  OW  HW  HW  OW  HW  HW  OW  HW  HW  OW  HW  HW  OW  HW  HW  OW  HW  HW  OW  
HW  HW  OW  HW  HW  OW  HW  HW  OW  HW  HW  OW  HW  HW  OW  HW  HW  OW  HW  HW  
OW  HW  HW  OW  HW  HW  OW  HW  HW  OW  HW  HW  OW  HW  HW  OW  HW  HW  OW  HW  
HW  OW  HW  HW  OW  HW  HW  OW  HW  HW  OW  HW  HW  OW  HW  HW  OW  HW  HW  OW  
HW  HW  OW  HW  HW  OW  HW  HW  OW  HW  HW  OW  HW  HW  OW  HW  HW  OW  HW  HW  
OW  HW  HW  OW  HW  HW  OW  HW  HW  OW  HW  HW  OW  HW  HW  OW  HW  HW  OW  HW  
HW  OW  HW  HW  OW  HW  HW  OW  HW  HW  OW  HW  HW  OW  HW  HW  OW  HW  HW  OW  
HW  HW  OW  HW  HW  OW  HW  HW  OW  HW  HW  OW  HW  HW  OW  HW  HW  OW  HW  HW  
OW  HW  HW  OW  HW  HW  OW  HW  HW  OW  HW  HW  OW  HW  HW  OW  HW  HW  OW  HW  
HW  OW  HW  HW  OW  HW  HW  OW  HW  HW  OW  HW  HW  OW  HW  HW  OW  HW  HW  OW  
HW  HW  OW  HW  HW  OW  HW  HW  OW  HW  HW  OW  HW  HW  OW  HW  HW  OW  HW  HW  
OW  HW  HW  OW  HW  HW  OW  HW  HW  OW  HW  HW  OW  HW  HW  OW  HW  HW  OW  HW  
HW  OW  HW  HW  OW  HW  HW  OW  HW  HW  OW  HW  HW  OW  HW  HW  OW  HW  HW  OW  
HW  HW  OW  HW  HW  OW  HW  HW  OW  HW  HW  OW  HW  HW  OW  HW  HW  OW  HW  HW  
OW  HW  HW  OW  HW  HW  OW  HW  HW  OW  HW  HW  OW  HW  HW  OW  HW  HW  OW  HW  
HW  OW  HW  HW  OW  HW  HW  OW  HW  HW  OW  HW  HW  OW  HW  HW  OW  HW  HW  OW  
HW  HW  OW  HW  HW  OW  HW  HW  OW  HW  HW  OW  HW  HW  OW  HW  HW  OW  HW  HW  
OW  HW  HW  OW  HW  HW  OW  HW  HW  OW  HW  HW  OW  HW  HW  OW  HW  HW  OW  HW  
HW  OW  HW  HW  OW  HW  HW  OW  HW  HW  OW  HW  HW  OW  HW  HW  OW  HW  HW  OW  
HW  HW  OW  HW  HW  OW  HW  HW  OW  HW  HW  OW  HW  HW  OW  HW  HW  OW  HW  HW  
OW  HW  HW  OW  HW  HW  OW  HW  HW  OW  HW  HW  OW  HW  HW  OW  HW  HW  OW  HW  
HW  OW  HW  HW  OW  HW  HW  OW  HW  HW  OW  HW  HW  OW  HW  HW  OW  HW  HW  OW  
HW  HW  OW  HW  HW  OW  HW  HW  OW  HW  HW  OW  HW  HW  OW  HW  HW  OW  HW  HW  
OW  HW  HW  OW  HW  HW  OW  HW  HW  OW  HW  HW  OW  HW  HW  OW  HW  HW  OW  HW  
HW  OW  HW  HW  OW  HW  HW  OW  HW  HW  OW  HW  HW  OW  HW  HW  OW  HW  HW  OW  
HW  HW  OW  HW  HW  OW  HW  HW  OW  HW  HW  OW  HW  HW  OW  HW  HW  OW  HW  HW  
OW  HW  HW  OW  HW  HW  OW  HW  HW  OW  HW  HW  OW  HW  HW  OW  HW  HW  OW  HW  
HW  OW  HW  HW  OW  HW  HW  OW  HW  HW  OW  HW  HW  OW  HW  HW  OW  HW  HW  OW  
HW  HW  OW  HW  HW  OW  HW  HW  OW  HW  HW  OW  HW  HW  OW  HW  HW  OW  HW  HW  
OW  HW  HW  OW  HW  HW  OW  HW  HW  OW  HW  HW  OW  HW  HW  OW  HW  HW  OW  HW  
HW  OW  HW  HW  OW  HW  HW  OW  HW  HW  OW  HW  HW  OW  HW  HW  OW  HW  HW  OW  
HW  HW  OW  HW  HW  OW  HW  HW  OW  HW  HW  OW  HW  HW  OW  HW  HW  OW  HW  HW  
OW  HW  HW  OW  HW  HW  OW  HW  HW  OW  HW  HW  OW  HW  HW  OW  HW  HW  OW  HW  
HW  OW  HW  HW  OW  HW  HW  OW  HW  HW  OW  HW  HW  OW  HW  HW  OW  HW  HW  OW  
HW  HW  OW  HW  HW  OW  HW  HW  OW  HW  HW  OW  HW  HW  OW  HW  HW  OW  HW  HW  
OW  HW  HW  OW  HW  HW  OW  HW  HW  OW  HW  HW  OW  HW  HW  OW  HW  HW  OW  HW  
HW  OW  HW  HW  OW  HW  HW  OW  HW  HW  OW  HW  HW  OW  HW  HW  OW  HW  HW  OW  
HW  HW  OW  HW  HW  OW  HW  HW  OW  HW  HW  OW  HW  HW  OW  HW  HW  OW  HW  HW  
OW  HW  HW  OW  HW  HW  OW  HW  HW  OW  HW  HW  OW  HW  HW  OW  HW  HW  OW  HW  
HW  OW  HW  HW  OW  HW  HW  OW  HW  HW  OW  HW  HW  OW  HW  HW  OW  HW  HW  OW  
HW  HW  OW  HW  HW  OW  HW  HW  OW  HW  HW  OW  HW  HW  OW  HW  HW  OW  HW  HW  
OW  HW  HW  OW  HW  HW  OW  HW  HW  OW  HW  HW  OW  HW  HW  OW  HW  HW  OW  HW  
HW  OW  HW  HW  OW  HW  HW  OW  HW  HW  OW  HW  HW  OW  HW  HW  OW  HW  HW  OW  
HW  HW  OW  HW  HW  OW  HW  HW  OW  HW  HW  OW  HW  HW  OW  HW  HW  OW  HW  HW  
OW  HW  HW  OW  HW  HW  OW  HW  HW  OW  HW  HW  OW  HW  HW  OW  HW  HW  OW  HW  
HW  OW  HW  HW  OW  HW  HW  OW  HW  HW  OW  HW  HW  OW  HW  HW  OW  HW  HW  OW  
HW  HW  OW  HW  HW  OW  HW  HW  OW  HW  HW  OW  HW  HW  OW  HW  HW  OW  HW  HW  
OW  HW  HW  OW  HW  HW  OW  HW  HW  OW  HW  HW  OW  HW  HW  OW  HW  HW  OW  HW  
HW  OW  HW  HW  OW  HW  HW  OW  HW  HW  OW  HW  HW  OW  HW  HW  OW  HW  HW  OW  
HW  HW  OW  HW  HW  OW  HW  HW  OW  HW  HW  OW  HW  HW  OW  HW  HW  OW  HW  HW  
OW  HW  HW  OW  HW  HW  OW  HW  HW  OW  HW  HW  OW  HW  HW  OW  HW  HW  OW  HW  
HW  OW  HW  HW  OW  HW  HW  OW  HW  HW  OW  HW  HW  OW  HW  HW  OW  HW  HW  OW  
HW  HW  OW  HW  HW  OW  HW  HW  OW  HW  HW  OW  HW  HW  OW  HW  HW  OW  HW  HW  
OW  HW  HW  OW  HW  HW  OW  HW  HW  OW  HW  HW  OW  HW  HW  OW  HW  HW  OW  HW  
HW  OW  HW  HW  OW  HW  HW  OW  HW  HW  OW  HW  HW  OW  HW  HW  OW  HW  HW  OW  
HW  HW  OW  HW  HW  OW  HW  HW  OW  HW  HW  OW  HW  HW  OW  HW  HW  OW  HW  HW  
OW  HW  HW  OW  HW  HW  OW  HW  HW  OW  HW  HW  OW  HW  HW  OW  HW  HW  OW  HW  
HW  OW  HW  HW  OW  HW  HW  OW  HW  HW  OW  HW  HW  OW  HW  HW  OW  HW  HW  OW  
HW  HW  OW  HW  HW  OW  HW  HW  OW  HW  HW  OW  HW  HW  OW  HW  HW  OW  HW  HW  
OW  HW  HW  OW  HW  HW  OW  HW  HW  OW  HW  HW  OW  HW  HW  OW  HW  HW  OW  HW  
HW  OW  HW  HW  OW  HW  HW  OW  HW  HW  OW  HW  HW  OW  HW  HW  OW  HW  HW  OW  
HW  HW  OW  HW  HW  OW  HW  HW  OW  HW  HW  OW  HW  HW  OW  HW  HW  OW  HW  HW  
OW  HW  HW  OW  HW  HW  OW  HW  HW  OW  HW  HW  OW  HW  HW  OW  HW  HW  OW  HW  
HW  OW  HW  HW  OW  HW  HW  OW  HW  HW  OW  HW  HW  OW  HW  HW  OW  HW  HW  OW  
HW  HW  OW  HW  HW  OW  HW  HW  OW  HW  HW  OW  HW  HW  OW  HW  HW  OW  HW  HW  
OW  HW  HW  OW  HW  HW  OW  HW  HW  OW  HW  HW  OW  HW  HW  OW  HW  HW  OW  HW  
HW  OW  HW  HW  OW  HW  HW  OW  HW  HW  OW  HW  HW  OW  HW  HW  OW  HW  HW  OW  
HW  HW  OW  HW  HW  OW  HW  HW  OW  HW  HW  OW  HW  HW  OW  HW  HW  OW  HW  HW  
OW  HW  HW  OW  HW  HW  OW  HW  HW  OW  HW  HW  OW  HW  HW  OW  HW  HW  OW  HW  
HW  OW  HW  HW  OW  HW  HW  OW  HW  HW  OW  HW  HW  OW  HW  HW  OW  HW  HW  OW  
HW  HW  OW  HW  HW  OW  HW  HW  OW  HW  HW  OW  HW  HW  OW  HW  HW  OW  HW  HW  
OW  HW  HW  OW  HW  HW  OW  HW  HW  OW  HW  HW  OW  HW  HW  OW  HW  HW  OW  HW  
HW  OW  HW  HW  OW  HW  HW  OW  HW  HW  OW  HW  HW  OW  HW  HW  OW  HW  HW  OW  
HW  HW  OW  HW  HW  OW  HW  HW  OW  HW  HW  OW  HW  HW  OW  HW  HW  OW  HW  HW  
OW  HW  HW  OW  HW  HW  OW  HW  HW  OW  HW  HW  OW  HW  HW  OW  HW  HW  OW  HW  
HW  OW  HW  HW  OW  HW  HW  OW  HW  HW  OW  HW  HW  OW  HW  HW  OW  HW  HW  OW  
HW  HW  OW  HW  HW  OW  HW  HW  OW  HW  HW  OW  HW  HW  OW  HW  HW  OW  HW  HW  
OW  HW  HW  OW  HW  HW  OW  HW  HW  OW  HW  HW  OW  HW  HW  OW  HW  HW  OW  HW  
HW  OW  HW  HW  OW  HW  HW  OW  HW  HW  OW  HW  HW  OW  HW  HW  OW  HW  HW  OW  
HW  HW  OW  HW  HW  OW  HW  HW  OW  HW  HW  OW  HW  HW  OW  HW  HW  OW  HW  HW  
OW  HW  HW  OW  HW  HW  OW  HW  HW  OW  HW  HW  OW  HW  HW  OW  HW  HW  OW  HW  
HW  OW  HW  HW  OW  HW  HW  OW  HW  HW  OW  HW  HW  OW  HW  HW  OW  HW  HW  OW  
HW  HW  OW  HW  HW  OW  HW  HW  OW  HW  HW  OW  HW  HW  OW  HW  HW  OW  HW  HW  
OW  HW  HW  OW  HW  HW  OW  HW  HW  OW  HW  HW  OW  HW  HW  OW  HW  HW  OW  HW  
HW  OW  HW  HW  OW  HW  HW  OW  HW  HW  OW  HW  HW  OW  HW  HW  OW  HW  HW  OW  
HW  HW  OW  HW  HW  OW  HW  HW  OW  HW  HW  OW  HW  HW  OW  HW  HW  OW  HW  HW  
OW  HW  HW  OW  HW  HW  OW  HW  HW  OW  HW  HW  OW  HW  HW  OW  HW  HW  OW  HW  
HW  OW  HW  HW  OW  HW  HW  OW  HW  HW  OW  HW  HW  OW  HW  HW  OW  HW  HW  OW  
HW  HW  OW  HW  HW  OW  HW  HW  OW  HW  HW  OW  HW  HW  OW  HW  HW  OW  HW  HW  
OW  HW  HW  OW  HW  HW  OW  HW  HW  OW  HW  HW  OW  HW  HW  OW  HW  HW  OW  HW  
HW  OW  HW  HW  OW  HW  HW  OW  HW  HW  OW  HW  HW  OW  HW  HW  OW  HW  HW  OW  
HW  HW  OW  HW  HW  OW  HW  HW  OW  HW  HW  OW  HW  HW  OW  HW  HW  OW  HW  HW  
OW  HW  HW  OW  HW  HW  OW  HW  HW  OW  HW  HW  OW  HW  HW  OW  HW  HW  OW  HW  
HW  OW  HW  HW  OW  HW  HW  OW  HW  HW  OW  HW  HW  OW  HW  HW  OW  HW  HW  OW  
HW  HW  OW  HW  HW  OW  HW  HW  OW  HW  HW  OW  HW  HW  OW  HW  HW  OW  HW  HW  
OW  HW  HW  OW  HW  HW  OW  HW  HW  OW  HW  HW  OW  HW  HW  OW  HW  HW  OW  HW  
HW  OW  HW  HW  OW  HW  HW  OW  HW  HW  OW  HW  HW  OW  HW  HW  OW  HW  HW  OW  
HW  HW  OW  HW  HW  OW  HW  HW  OW  HW  HW  OW  HW  HW  OW  HW  HW  OW  HW  HW  
OW  HW  HW  OW  HW  HW  OW  HW  HW  OW  HW  HW  OW  HW  HW  OW  HW  HW  OW  HW  
HW  OW  HW  HW  OW  HW  HW  OW  HW  HW  OW  HW  HW  OW  HW  HW  OW  HW  HW  OW  
HW  HW  OW  HW  HW  OW  HW  HW  OW  HW  HW  OW  HW  HW  OW  HW  HW  OW  HW  HW  
OW  HW  HW  OW  HW  HW  OW  HW  HW  OW  HW  HW  OW  HW  HW  OW  HW  HW  OW  HW  
HW  OW  HW  HW  OW  HW  HW  OW  HW  HW  OW  HW  HW  OW  HW  HW  OW  HW  HW  OW  
HW  HW  OW  HW  HW  OW  HW  HW  OW  HW  HW  OW  HW  HW  OW  HW  HW  OW  HW  HW  
OW  HW  HW  OW  HW  HW  OW  HW  HW  OW  HW  HW  OW  HW  HW  OW  HW  HW  OW  HW  
HW  OW  HW  HW  OW  HW  HW  OW  HW  HW  OW  HW  HW  OW  HW  HW  OW  HW  HW  OW  
HW  HW  OW  HW  HW  OW  HW  HW  OW  HW  HW  OW  HW  HW  OW  HW  HW  OW  HW  HW  
OW  HW  HW  OW  HW  HW  OW  HW  HW  OW  HW  HW  OW  HW  HW  OW  HW  HW  OW  HW  
HW  OW  HW  HW  OW  HW  HW  OW  HW  HW  OW  HW  HW  OW  HW  HW  OW  HW  HW  OW  
HW  HW  OW  HW  HW  OW  HW  HW  OW  HW  HW  OW  HW  HW  OW  HW  HW  OW  HW  HW  
OW  HW  HW  OW  HW  HW  OW  HW  HW  OW  HW  HW  OW  HW  HW  OW  HW  HW  OW  HW  
HW  OW  HW  HW  OW  HW  HW  OW  HW  HW  OW  HW  HW  OW  HW  HW  OW  HW  HW  OW  
HW  HW  OW  HW  HW  OW  HW  HW  OW  HW  HW  OW  HW  HW  OW  HW  HW  OW  HW  HW  
OW  HW  HW  OW  HW  HW  OW  HW  HW  OW  HW  HW  OW  HW  HW  OW  HW  HW  OW  HW  
HW  OW  HW  HW  OW  HW  HW  OW  HW  HW  OW  HW  HW  OW  HW  HW  OW  HW  HW  OW  
HW  HW  OW  HW  HW  OW  HW  HW  OW  HW  HW  OW  HW  HW  OW  HW  HW  OW  HW  HW  
OW  HW  HW  OW  HW  HW  OW  HW  HW  OW  HW  HW  OW  HW  HW  OW  HW  HW  OW  HW  
HW  OW  HW  HW  OW  HW  HW  OW  HW  HW  OW  HW  HW  OW  HW  HW  OW  HW  HW  OW  
HW  HW  OW  HW  HW  OW  HW  HW  OW  HW  HW  OW  HW  HW  OW  HW  HW  OW  HW  HW  
OW  HW  HW  OW  HW  HW  OW  HW  HW  OW  HW  HW  OW  HW  HW  OW  HW  HW  OW  HW  
HW  OW  HW  HW  OW  HW  HW  OW  HW  HW  OW  HW  HW  OW  HW  HW  OW  HW  HW  OW  
HW  HW  OW  HW  HW  OW  HW  HW  OW  HW  HW  OW  HW  HW  OW  HW  HW  OW  HW  HW  
OW  HW  HW  OW  HW  HW  OW  HW  HW  OW  HW  HW  OW  HW  HW  OW  HW  HW  OW  HW  
HW  OW  HW  HW  OW  HW  HW  OW  HW  HW  OW  HW  HW  OW  HW  HW  OW  HW  HW  OW  
HW  HW  OW  HW  HW  OW  HW  HW  OW  HW  HW  OW  HW  HW  OW  HW  HW  OW  HW  HW  
OW  HW  HW  OW  HW  HW  OW  HW  HW  OW  HW  HW  OW  HW  HW  OW  HW  HW  OW  HW  
HW  OW  HW  HW  OW  HW  HW  OW  HW  HW  OW  HW  HW  OW  HW  HW  OW  HW  HW  OW  
HW  HW  OW  HW  HW  OW  HW  HW  OW  HW  HW  OW  HW  HW  OW  HW  HW  OW  HW  HW  
OW  HW  HW  OW  HW  HW  OW  HW  HW  OW  HW  HW  OW  HW  HW  OW  HW  HW  OW  HW  
HW  OW  HW  HW  OW  HW  HW  OW  HW  HW  OW  HW  HW  OW  HW  HW  OW  HW  HW  OW  
HW  HW  OW  HW  HW  OW  HW  HW  OW  HW  HW  OW  HW  HW  OW  HW  HW  OW  HW  HW  
OW  HW  HW  OW  HW  HW  OW  HW  HW  OW  HW  HW  OW  HW  HW  OW  HW  HW  OW  HW  
HW  OW  HW  HW  OW  HW  HW  OW  HW  HW  OW  HW  HW  OW  HW  HW  OW  HW  HW  OW  
HW  HW  OW  HW  HW  OW  HW  HW  OW  HW  HW  OW  HW  HW  OW  HW  HW  OW  HW  HW  
OW  HW  HW  OW  HW  HW  OW  HW  HW  OW  HW  HW  OW  HW  HW  OW  HW  HW  OW  HW  
HW  OW  HW  HW  OW  HW  HW  OW  HW  HW  OW  HW  HW  OW  HW  HW  OW  HW  HW  OW  
HW  HW  OW  HW  HW  OW  HW  HW  OW  HW  HW  OW  HW  HW  OW  HW  HW  OW  HW  HW  
OW  HW  HW  OW  HW  HW  OW  HW  HW  OW  HW  HW  OW  HW  HW  OW  HW  HW  OW  HW  
HW  OW  HW  HW  OW  HW  HW  OW  HW  HW  OW  HW  HW  OW  HW  HW  OW  HW  HW  OW  
HW  HW  OW  HW  HW  OW  HW  HW  OW  HW  HW  OW  HW  HW  OW  HW  HW  OW  HW  HW  
OW  HW  HW  OW  HW  HW  OW  HW  HW  OW  HW  HW  OW  HW  HW  OW  HW  HW  OW  HW  
HW  OW  HW  HW  OW  HW  HW  OW  HW  HW  OW  HW  HW  OW  HW  HW  OW  HW  HW  OW  
HW  HW  OW  HW  HW  OW  HW  HW  OW  HW  HW  OW  HW  HW  OW  HW  HW  OW  HW  HW  
OW  HW  HW  OW  HW  HW  OW  HW  HW  OW  HW  HW  OW  HW  HW  OW  HW  HW  OW  HW  
HW  OW  HW  HW  OW  HW  HW  OW  HW  HW  OW  HW  HW  OW  HW  HW  OW  HW  HW  OW  
HW  HW  OW  HW  HW  OW  HW  HW  OW  HW  HW  OW  HW  HW  OW  HW  HW  OW  HW  HW  
OW  HW  HW  OW  HW  HW  OW  HW  HW  OW  HW  HW  OW  HW  HW  OW  HW  HW  OW  HW  
HW  OW  HW  HW  OW  HW  HW  OW  HW  HW  OW  HW  HW  OW  HW  HW  OW  HW  HW  OW  
HW  HW  OW  HW  HW  OW  HW  HW  OW  HW  HW  OW  HW  HW  OW  HW  HW  OW  HW  HW  
OW  HW  HW  OW  HW  HW  OW  HW  HW  OW  HW  HW  OW  HW  HW  OW  HW  HW  OW  HW  
HW  OW  HW  HW  OW  HW  HW  OW  HW  HW  OW  HW  HW  OW  HW  HW  OW  HW  HW  OW  
HW  HW  OW  HW  HW  OW  HW  HW  OW  HW  HW  OW  HW  HW  OW  HW  HW  OW  HW  HW  
OW  HW  HW  OW  HW  HW  OW  HW  HW  OW  HW  HW  OW  HW  HW  OW  HW  HW  OW  HW  
HW  OW  HW  HW  OW  HW  HW  OW  HW  HW  OW  HW  HW  OW  HW  HW  OW  HW  HW  OW  
HW  HW  OW  HW  HW  OW  HW  HW  OW  HW  HW  OW  HW  HW  OW  HW  HW  OW  HW  HW  
OW  HW  HW  OW  HW  HW  OW  HW  HW  OW  HW  HW  OW  HW  HW  OW  HW  HW  OW  HW  
HW  OW  HW  HW  OW  HW  HW  OW  HW  HW  OW  HW  HW  OW  HW  HW  OW  HW  HW  OW  
HW  HW  OW  HW  HW  OW  HW  HW  OW  HW  HW  OW  HW  HW  OW  HW  HW  OW  HW  HW  
OW  HW  HW  OW  HW  HW  OW  HW  HW  OW  HW  HW  OW  HW  HW  OW  HW  HW  OW  HW  
HW  OW  HW  HW  OW  HW  HW  OW  HW  HW  OW  HW  HW  OW  HW  HW  OW  HW  HW  OW  
HW  HW  OW  HW  HW  OW  HW  HW  OW  HW  HW  OW  HW  HW  OW  HW  HW  OW  HW  HW  
OW  HW  HW  OW  HW  HW  OW  HW  HW  OW  HW  HW  OW  HW  HW  OW  HW  HW  OW  HW  
HW  OW  HW  HW  OW  HW  HW  OW  HW  HW  OW  HW  HW  OW  HW  HW  OW  HW  HW  OW  
HW  HW  OW  HW  HW  OW  HW  HW  OW  HW  HW  OW  HW  HW  OW  HW  HW  OW  HW  HW  
OW  HW  HW  OW  HW  HW  OW  HW  HW  OW  HW  HW  OW  HW  HW  OW  HW  HW  OW  HW  
HW  OW  HW  HW  OW  HW  HW  OW  HW  HW  OW  HW  HW  OW  HW  HW  OW  HW  HW  OW  
HW  HW  OW  HW  HW  OW  HW  HW  OW  HW  HW  OW  HW  HW  OW  HW  HW  OW  HW  HW  
OW  HW  HW  OW  HW  HW  OW  HW  HW  OW  HW  HW  OW  HW  HW  OW  HW  HW  OW  HW  
HW  OW  HW  HW  OW  HW  HW  OW  HW  HW  OW  HW  HW  OW  HW  HW  OW  HW  HW  OW  
HW  HW  OW  HW  HW  OW  HW  HW  OW  HW  HW  OW  HW  HW  OW  HW  HW  OW  HW  HW  
OW  HW  HW  OW  HW  HW  OW  HW  HW  OW  HW  HW  OW  HW  HW  OW  HW  HW  OW  HW  
HW  OW  HW  HW  OW  HW  HW  OW  HW  HW  OW  HW  HW  OW  HW  HW  OW  HW  HW  OW  
HW  HW  OW  HW  HW  OW  HW  HW  OW  HW  HW  OW  HW  HW  OW  HW  HW  OW  HW  HW  
OW  HW  HW  OW  HW  HW  OW  HW  HW  OW  HW  HW  OW  HW  HW  OW  HW  HW  OW  HW  
HW  OW  HW  HW  OW  HW  HW  OW  HW  HW  OW  HW  HW  OW  HW  HW  OW  HW  HW  OW  
HW  HW  OW  HW  HW  OW  HW  HW  OW  HW  HW  OW  HW  HW  OW  HW  HW  OW  HW  HW  
OW  HW  HW  OW  HW  HW  OW  HW  HW  OW  HW  HW  OW  HW  HW  OW  HW  HW  OW  HW  
HW  OW  HW  HW  OW  HW  HW  OW  HW  HW  OW  HW  HW  OW  HW  HW  OW  HW  HW  OW  
HW  HW  OW  HW  HW  OW  HW  HW  OW  HW  HW  OW  HW  HW  OW  HW  HW  OW  HW  HW  
OW  HW  HW  OW  HW  HW  OW  HW  HW  OW  HW  HW  OW  HW  HW  OW  HW  HW  OW  HW  
HW  OW  HW  HW  OW  HW  HW  OW  HW  HW  OW  HW  HW  OW  HW  HW  OW  HW  HW  OW  
HW  HW  OW  HW  HW  OW  HW  HW  OW  HW  HW  OW  HW  HW  OW  HW  HW  OW  HW  HW  
OW  HW  HW  OW  HW  HW  OW  HW  HW  OW  HW  HW  OW  HW  HW  OW  HW  HW  OW  HW  
HW  OW  HW  HW  OW  HW  HW  OW  HW  HW  OW  HW  HW  OW  HW  HW  OW  HW  HW  OW  
HW  HW  OW  HW  HW  OW  HW  HW  OW  HW  HW  OW  HW  HW  OW  HW  HW  OW  HW  HW  
OW  HW  HW  OW  HW  HW  OW  HW  HW  OW  HW  HW  OW  HW  HW  OW  HW  HW  OW  HW  
HW  OW  HW  HW  OW  HW  HW  OW  HW  HW  OW  HW  HW  OW  HW  HW  OW  HW  HW  OW  
HW  HW  OW  HW  HW  OW  HW  HW  OW  HW  HW  OW  HW  HW  OW  HW  HW  OW  HW  HW  
OW  HW  HW  OW  HW  HW  OW  HW  HW  OW  HW  HW  OW  HW  HW  OW  HW  HW  OW  HW  
HW  OW  HW  HW  OW  HW  HW  OW  HW  HW  OW  HW  HW  OW  HW  HW  OW  HW  HW  OW  
HW  HW  OW  HW  HW  OW  HW  HW  OW  HW  HW  OW  HW  HW  OW  HW  HW  OW  HW  HW  
OW  HW  HW  OW  HW  HW  OW  HW  HW  OW  HW  HW  OW  HW  HW  OW  HW  HW  OW  HW  
HW  OW  HW  HW  OW  HW  HW  OW  HW  HW  OW  HW  HW  OW  HW  HW  OW  HW  HW  OW  
HW  HW  OW  HW  HW  OW  HW  HW  OW  HW  HW  OW  HW  HW  OW  HW  HW  OW  HW  HW  
OW  HW  HW  OW  HW  HW  OW  HW  HW  OW  HW  HW  OW  HW  HW  OW  HW  HW  OW  HW  
HW  OW  HW  HW  OW  HW  HW  OW  HW  HW  OW  HW  HW  OW  HW  HW  OW  HW  HW  OW  
HW  HW  OW  HW  HW  OW  HW  HW  OW  HW  HW  OW  HW  HW  OW  HW  HW  OW  HW  HW  
OW  HW  HW  OW  HW  HW  OW  HW  HW  OW  HW  HW  OW  HW  HW  OW  HW  HW  OW  HW  
HW  OW  HW  HW  OW  HW  HW  OW  HW  HW  OW  HW  HW  OW  HW  HW  OW  HW  HW  OW  
HW  HW  OW  HW  HW  OW  HW  HW  OW  HW  HW  OW  HW  HW  OW  HW  HW  OW  HW  HW  
OW  HW  HW  OW  HW  HW  OW  HW  HW  OW  HW  HW  OW  HW  HW  OW  HW  HW  OW  HW  
HW  OW  HW  HW  OW  HW  HW  OW  HW  HW  OW  HW  HW  OW  HW  HW  OW  HW  HW  OW  
HW  HW  OW  HW  HW  OW  HW  HW  OW  HW  HW  OW  HW  HW  OW  HW  HW  OW  HW  HW  
OW  HW  HW  OW  HW  HW  OW  HW  HW  OW  HW  HW  OW  HW  HW  OW  HW  HW  OW  HW  
HW  OW  HW  HW  OW  HW  HW  OW  HW  HW  OW  HW  HW  OW  HW  HW  OW  HW  HW  OW  
HW  HW  OW  HW  HW  OW  HW  HW  OW  HW  HW  OW  HW  HW  OW  HW  HW  OW  HW  HW  
OW  HW  HW  OW  HW  HW  OW  HW  HW  OW  HW  HW  OW  HW  HW  OW  HW  HW  OW  HW  
HW  OW  HW  HW  OW  HW  HW  OW  HW  HW  OW  HW  HW  OW  HW  HW  OW  HW  HW  OW  
HW  HW  OW  HW  HW  OW  HW  HW  OW  HW  HW  OW  HW  HW  OW  HW  HW  OW  HW  HW  
OW  HW  HW  OW  HW  HW  OW  HW  HW  OW  HW  HW  OW  HW  HW  OW  HW  HW  OW  HW  
HW  OW  HW  HW  OW  HW  HW  OW  HW  HW  OW  HW  HW  OW  HW  HW  OW  HW  HW  OW  
HW  HW  OW  HW  HW  OW  HW  HW  OW  HW  HW  OW  HW  HW  OW  HW  HW  OW  HW  HW  
OW  HW  HW  OW  HW  HW  OW  HW  HW  OW  HW  HW  OW  HW  HW  OW  HW  HW  OW  HW  
HW  OW  HW  HW  OW  HW  HW  OW  HW  HW  OW  HW  HW  OW  HW  HW  OW  HW  HW  OW  
HW  HW  OW  HW  HW  OW  HW  HW  OW  HW  HW  OW  HW  HW  OW  HW  HW  OW  HW  HW  
OW  HW  HW  OW  HW  HW  OW  HW  HW  OW  HW  HW  OW  HW  HW  OW  HW  HW  OW  HW  
HW  OW  HW  HW  OW  HW  HW  OW  HW  HW  OW  HW  HW  OW  HW  HW  OW  HW  HW  OW  
HW  HW  OW  HW  HW  OW  HW  HW  OW  HW  HW  OW  HW  HW  OW  HW  HW  OW  HW  HW  
OW  HW  HW  OW  HW  HW  OW  HW  HW  OW  HW  HW  OW  HW  HW  OW  HW  HW  OW  HW  
HW  OW  HW  HW  OW  HW  HW  OW  HW  HW  OW  HW  HW  OW  HW  HW  OW  HW  HW  OW  
HW  HW  OW  HW  HW  OW  HW  HW  OW  HW  HW  OW  HW  HW  OW  HW  HW  OW  HW  HW  
OW  HW  HW  OW  HW  HW  OW  HW  HW  OW  HW  HW  OW  HW  HW  OW  HW  HW  OW  HW  
HW  OW  HW  HW  OW  HW  HW  OW  HW  HW  OW  HW  HW  OW  HW  HW  OW  HW  HW  OW  
HW  HW  OW  HW  HW  OW  HW  HW  OW  HW  HW  OW  HW  HW  OW  HW  HW  OW  HW  HW  
OW  HW  HW  OW  HW  HW  OW  HW  HW  OW  HW  HW  OW  HW  HW  OW  HW  HW  OW  HW  
HW  OW  HW  HW  OW  HW  HW  OW  HW  HW  OW  HW  HW  OW  HW  HW  OW  HW  HW  OW  
HW  HW  OW  HW  HW  OW  HW  HW  OW  HW  HW  OW  HW  HW  OW  HW  HW  OW  HW  HW  
OW  HW  HW  OW  HW  HW  OW  HW  HW  OW  HW  HW  OW  HW  HW  OW  HW  HW  OW  HW  
HW  OW  HW  HW  OW  HW  HW  OW  HW  HW  OW  HW  HW  OW  HW  HW  OW  HW  HW  OW  
HW  HW  OW  HW  HW  OW  HW  HW  OW  HW  HW  OW  HW  HW  OW  HW  HW  OW  HW  HW  
OW  HW  HW  OW  HW  HW  OW  HW  HW  OW  HW  HW  OW  HW  HW  OW  HW  HW  OW  HW  
HW  OW  HW  HW  OW  HW  HW  OW  HW  HW  OW  HW  HW  OW  HW  HW  OW  HW  HW  OW  
HW  HW  OW  HW  HW  OW  HW  HW  OW  HW  HW  OW  HW  HW  OW  HW  HW  OW  HW  HW  
OW  HW  HW  OW  HW  HW  OW  HW  HW  OW  HW  HW  OW  HW  HW  OW  HW  HW  OW  HW  
HW  OW  HW  HW  OW  HW  HW  OW  HW  HW  OW  HW  HW  OW  HW  HW  OW  HW  HW  OW  
HW  HW  OW  HW  HW  OW  HW  HW  OW  HW  HW  OW  HW  HW  OW  HW  HW  OW  HW  HW  
OW  HW  HW  OW  HW  HW  OW  HW  HW  OW  HW  HW  OW  HW  HW  OW  HW  HW  OW  HW  
HW  OW  HW  HW  OW  HW  HW  OW  HW  HW  OW  HW  HW  OW  HW  HW  OW  HW  HW  OW  
HW  HW  OW  HW  HW  OW  HW  HW  OW  HW  HW  OW  HW  HW  OW  HW  HW  OW  HW  HW  
OW  HW  HW  OW  HW  HW  OW  HW  HW  OW  HW  HW  OW  HW  HW  OW  HW  HW  OW  HW  
HW  OW  HW  HW  OW  HW  HW  OW  HW  HW  OW  HW  HW  OW  HW  HW  OW  HW  HW  OW  
HW  HW  OW  HW  HW  OW  HW  HW  OW  HW  HW  OW  HW  HW  OW  HW  HW  OW  HW  HW  
OW  HW  HW  OW  HW  HW  OW  HW  HW  OW  HW  HW  OW  HW  HW  OW  HW  HW  OW  HW  
HW  OW  HW  HW  OW  HW  HW  OW  HW  HW  OW  HW  HW  OW  HW  HW  OW  HW  HW  OW  
HW  HW  OW  HW  HW  OW  HW  HW  OW  HW  HW  OW  HW  HW  OW  HW  HW  OW  HW  HW  
OW  HW  HW  OW  HW  HW  OW  HW  HW  OW  HW  HW  OW  HW  HW  OW  HW  HW  OW  HW  
HW  OW  HW  HW  OW  HW  HW  OW  HW  HW  OW  HW  HW  OW  HW  HW  OW  HW  HW  OW  
HW  HW  OW  HW  HW  OW  HW  HW  OW  HW  HW  OW  HW  HW  OW  HW  HW  OW  HW  HW  
OW  HW  HW  OW  HW  HW  OW  HW  HW  OW  HW  HW  OW  HW  HW  OW  HW  HW  OW  HW  
HW  OW  HW  HW  OW  HW  HW  OW  HW  HW  OW  HW  HW  OW  HW  HW  OW  HW  HW  OW  
HW  HW  OW  HW  HW  OW  HW  HW  OW  HW  HW  OW  HW  HW  OW  HW  HW  OW  HW  HW  
OW  HW  HW  OW  HW  HW  OW  HW  HW  OW  HW  HW  OW  HW  HW  OW  HW  HW  OW  HW  
HW  OW  HW  HW  OW  HW  HW  OW  HW  HW  OW  HW  HW  OW  HW  HW  OW  HW  HW  OW  
HW  HW  OW  HW  HW  OW  HW  HW  OW  HW  HW  OW  HW  HW  OW  HW  HW  OW  HW  HW  
OW  HW  HW  OW  HW  HW  OW  HW  HW  OW  HW  HW  OW  HW  HW  OW  HW  HW  OW  HW  
HW  OW  HW  HW  OW  HW  HW  OW  HW  HW  OW  HW  HW  OW  HW  HW  OW  HW  HW  OW  
HW  HW  OW  HW  HW  OW  HW  HW  OW  HW  HW  OW  HW  HW  OW  HW  HW  OW  HW  HW  
OW  HW  HW  OW  HW  HW  OW  HW  HW  OW  HW  HW  OW  HW  HW  OW  HW  HW  OW  HW  
HW  OW  HW  HW  OW  HW  HW  OW  HW  HW  OW  HW  HW  OW  HW  HW  OW  HW  HW  OW  
HW  HW  OW  HW  HW  OW  HW  HW  OW  HW  HW  OW  HW  HW  OW  HW  HW  OW  HW  HW  
OW  HW  HW  OW  HW  HW  OW  HW  HW  OW  HW  HW  OW  HW  HW  OW  HW  HW  OW  HW  
HW  OW  HW  HW  OW  HW  HW  OW  HW  HW  OW  HW  HW  OW  HW  HW  OW  HW  HW  OW  
HW  HW  OW  HW  HW  OW  HW  HW  OW  HW  HW  OW  HW  HW  OW  HW  HW  OW  HW  HW  
OW  HW  HW  OW  HW  HW  OW  HW  HW  OW  HW  HW  OW  HW  HW  OW  HW  HW  OW  HW  
HW  OW  HW  HW  OW  HW  HW  OW  HW  HW  OW  HW  HW  OW  HW  HW  OW  HW  HW  OW  
HW  HW  OW  HW  HW  OW  HW  HW  OW  HW  HW  OW  HW  HW  OW  HW  HW  OW  HW  HW  
OW  HW  HW  OW  HW  HW  OW  HW  HW  OW  HW  HW  OW  HW  HW  OW  HW  HW  OW  HW  
HW  OW  HW  HW  OW  HW  HW  OW  HW  HW  OW  HW  HW  OW  HW  HW  OW  HW  HW  OW  
HW  HW  OW  HW  HW  OW  HW  HW  OW  HW  HW  OW  HW  HW  OW  HW  HW  OW  HW  HW  
OW  HW  HW  OW  HW  HW  OW  HW  HW  OW  HW  HW  OW  HW  HW  OW  HW  HW  OW  HW  
HW  OW  HW  HW  OW  HW  HW  OW  HW  HW  OW  HW  HW  OW  HW  HW  OW  HW  HW  OW  
HW  HW  OW  HW  HW  OW  HW  HW  OW  HW  HW  OW  HW  HW  OW  HW  HW  OW  HW  HW  
OW  HW  HW  OW  HW  HW  OW  HW  HW  OW  HW  HW  OW  HW  HW  OW  HW  HW  OW  HW  
HW  OW  HW  HW  OW  HW  HW  OW  HW  HW  OW  HW  HW  OW  HW  HW  OW  HW  HW  OW  
HW  HW  OW  HW  HW  OW  HW  HW  OW  HW  HW  OW  HW  HW  OW  HW  HW  OW  HW  HW  
OW  HW  HW  OW  HW  HW  OW  HW  HW  OW  HW  HW  OW  HW  HW  OW  HW  HW  OW  HW  
HW  OW  HW  HW  OW  HW  HW  OW  HW  HW  OW  HW  HW  OW  HW  HW  OW  HW  HW  OW  
HW  HW  OW  HW  HW  OW  HW  HW  OW  HW  HW  OW  HW  HW  OW  HW  HW  OW  HW  HW  
OW  HW  HW  OW  HW  HW  OW  HW  HW  OW  HW  HW  OW  HW  HW  OW  HW  HW  OW  HW  
HW  OW  HW  HW  OW  HW  HW  OW  HW  HW  OW  HW  HW  OW  HW  HW  OW  HW  HW  OW  
HW  HW  OW  HW  HW  OW  HW  HW  OW  HW  HW  OW  HW  HW  OW  HW  HW  OW  HW  HW  
OW  HW  HW  OW  HW  HW  OW  HW  HW  OW  HW  HW  OW  HW  HW  OW  HW  HW  OW  HW  
HW  OW  HW  HW  OW  HW  HW  OW  HW  HW  OW  HW  HW  OW  HW  HW  OW  HW  HW  OW  
HW  HW  OW  HW  HW  OW  HW  HW  OW  HW  HW  OW  HW  HW  OW  HW  HW  OW  HW  HW  
OW  HW  HW  OW  HW  HW  OW  HW  HW  OW  HW  HW  OW  HW  HW  OW  HW  HW  OW  HW  
HW  OW  HW  HW  OW  HW  HW  OW  HW  HW  OW  HW  HW  OW  HW  HW  OW  HW  HW  OW  
HW  HW  OW  HW  HW  OW  HW  HW  OW  HW  HW  OW  HW  HW  OW  HW  HW  OW  HW  HW  
OW  HW  HW  OW  HW  HW  OW  HW  HW  OW  HW  HW  OW  HW  HW  OW  HW  HW  OW  HW  
HW  OW  HW  HW  OW  HW  HW  OW  HW  HW  OW  HW  HW  OW  HW  HW  OW  HW  HW  OW  
HW  HW  OW  HW  HW  OW  HW  HW  OW  HW  HW  OW  HW  HW  OW  HW  HW  OW  HW  HW  
OW  HW  HW  OW  HW  HW  OW  HW  HW  OW  HW  HW  OW  HW  HW  OW  HW  HW  OW  HW  
HW  OW  HW  HW  OW  HW  HW  OW  HW  HW  OW  HW  HW  OW  HW  HW  OW  HW  HW  OW  
HW  HW  OW  HW  HW  OW  HW  HW  OW  HW  HW  OW  HW  HW  OW  HW  HW  OW  HW  HW  
OW  HW  HW  OW  HW  HW  OW  HW  HW  OW  HW  HW  OW  HW  HW  OW  HW  HW  OW  HW  
HW  OW  HW  HW  OW  HW  HW  OW  HW  HW  OW  HW  HW  OW  HW  HW  OW  HW  HW  OW  
HW  HW  OW  HW  HW  OW  HW  HW  OW  HW  HW  OW  HW  HW  OW  HW  HW  OW  HW  HW  
OW  HW  HW  OW  HW  HW  OW  HW  HW  OW  HW  HW  OW  HW  HW  OW  HW  HW  OW  HW  
HW  OW  HW  HW  OW  HW  HW  OW  HW  HW  OW  HW  HW  OW  HW  HW  OW  HW  HW  OW  
HW  HW  OW  HW  HW  OW  HW  HW  OW  HW  HW  OW  HW  HW  OW  HW  HW  OW  HW  HW  
OW  HW  HW  OW  HW  HW  OW  HW  HW  OW  HW  HW  OW  HW  HW  OW  HW  HW  OW  HW  
HW  OW  HW  HW  OW  HW  HW  OW  HW  HW  OW  HW  HW  OW  HW  HW  OW  HW  HW  OW  
HW  HW  OW  HW  HW  OW  HW  HW  OW  HW  HW  OW  HW  HW  OW  HW  HW  OW  HW  HW  
OW  HW  HW  OW  HW  HW  OW  HW  HW  OW  HW  HW  OW  HW  HW  OW  HW  HW  OW  HW  
HW  OW  HW  HW  OW  HW  HW  OW  HW  HW  OW  HW  HW  OW  HW  HW  OW  HW  HW  OW  
HW  HW  OW  HW  HW  OW  HW  HW  OW  HW  HW  OW  HW  HW  OW  HW  HW  OW  HW  HW  
OW  HW  HW  OW  HW  HW  OW  HW  HW  OW  HW  HW  OW  HW  HW  OW  HW  HW  OW  HW  
HW  OW  HW  HW  OW  HW  HW  OW  HW  HW  OW  HW  HW  OW  HW  HW  OW  HW  HW  OW  
HW  HW  OW  HW  HW  OW  HW  HW  OW  HW  HW  OW  HW  HW  OW  HW  HW  OW  HW  HW  
OW  HW  HW  OW  HW  HW  OW  HW  HW  OW  HW  HW  OW  HW  HW  OW  HW  HW  OW  HW  
HW  OW  HW  HW  OW  HW  HW  OW  HW  HW  OW  HW  HW  OW  HW  HW  OW  HW  HW  OW  
HW  HW  OW  HW  HW  OW  HW  HW  OW  HW  HW  OW  HW  HW  OW  HW  HW  OW  HW  HW  
OW  HW  HW  OW  HW  HW  OW  HW  HW  OW  HW  HW  OW  HW  HW  OW  HW  HW  OW  HW  
HW  OW  HW  HW  OW  HW  HW  OW  HW  HW  OW  HW  HW  OW  HW  HW  OW  HW  HW  OW  
HW  HW  OW  HW  HW  OW  HW  HW  OW  HW  HW  OW  HW  HW  OW  HW  HW  OW  HW  HW  
OW  HW  HW  OW  HW  HW  OW  HW  HW  OW  HW  HW  OW  HW  HW  OW  HW  HW  OW  HW  
HW  OW  HW  HW  OW  HW  HW  OW  HW  HW  OW  HW  HW  OW  HW  HW  OW  HW  HW  OW  
HW  HW  OW  HW  HW  OW  HW  HW  OW  HW  HW  OW  HW  HW  OW  HW  HW  OW  HW  HW  
OW  HW  HW  OW  HW  HW  OW  HW  HW  OW  HW  HW  OW  HW  HW  OW  HW  HW  OW  HW  
HW  OW  HW  HW  OW  HW  HW  OW  HW  HW  OW  HW  HW  OW  HW  HW  OW  HW  HW  OW  
HW  HW  OW  HW  HW  OW  HW  HW  OW  HW  HW  OW  HW  HW  OW  HW  HW  OW  HW  HW  
OW  HW  HW  OW  HW  HW  OW  HW  HW  OW  HW  HW  OW  HW  HW  OW  HW  HW  OW  HW  
HW  OW  HW  HW  OW  HW  HW  OW  HW  HW  OW  HW  HW  OW  HW  HW  OW  HW  HW  OW  
HW  HW  OW  HW  HW  OW  HW  HW  OW  HW  HW  OW  HW  HW  OW  HW  HW  OW  HW  HW  
OW  HW  HW  OW  HW  HW  OW  HW  HW  OW  HW  HW  OW  HW  HW  OW  HW  HW  OW  HW  
HW  OW  HW  HW  OW  HW  HW  OW  HW  HW  OW  HW  HW  OW  HW  HW  OW  HW  HW  OW  
HW  HW  OW  HW  HW  OW  HW  HW  OW  HW  HW  OW  HW  HW  OW  HW  HW  OW  HW  HW  
OW  HW  HW  OW  HW  HW  OW  HW  HW  OW  HW  HW  OW  HW  HW  OW  HW  HW  OW  HW  
HW  OW  HW  HW  OW  HW  HW  OW  HW  HW  OW  HW  HW  OW  HW  HW  OW  HW  HW  OW  
HW  HW  OW  HW  HW  OW  HW  HW  OW  HW  HW  OW  HW  HW  OW  HW  HW  OW  HW  HW  
OW  HW  HW  OW  HW  HW  OW  HW  HW  OW  HW  HW  OW  HW  HW  OW  HW  HW  OW  HW  
HW  OW  HW  HW  OW  HW  HW  OW  HW  HW  OW  HW  HW  OW  HW  HW  OW  HW  HW  OW  
HW  HW  OW  HW  HW  OW  HW  HW  OW  HW  HW  OW  HW  HW  OW  HW  HW  OW  HW  HW  
OW  HW  HW  OW  HW  HW  OW  HW  HW  OW  HW  HW  OW  HW  HW  OW  HW  HW  OW  HW  
HW  OW  HW  HW  OW  HW  HW  OW  HW  HW  OW  HW  HW  OW  HW  HW  OW  HW  HW  OW  
HW  HW  OW  HW  HW  OW  HW  HW  OW  HW  HW  OW  HW  HW  OW  HW  HW  OW  HW  HW  
OW  HW  HW  OW  HW  HW  OW  HW  HW  OW  HW  HW  OW  HW  HW  OW  HW  HW  OW  HW  
HW  OW  HW  HW  OW  HW  HW  OW  HW  HW  OW  HW  HW  OW  HW  HW  OW  HW  HW  OW  
HW  HW  OW  HW  HW  OW  HW  HW  OW  HW  HW  OW  HW  HW  OW  HW  HW  OW  HW  HW  
OW  HW  HW  OW  HW  HW  OW  HW  HW  OW  HW  HW  OW  HW  HW  OW  HW  HW  OW  HW  
HW  OW  HW  HW  OW  HW  HW  OW  HW  HW  OW  HW  HW  OW  HW  HW  OW  HW  HW  OW  
HW  HW  OW  HW  HW  OW  HW  HW  OW  HW  HW  OW  HW  HW  OW  HW  HW  OW  HW  HW  
OW  HW  HW  OW  HW  HW  OW  HW  HW  OW  HW  HW  OW  HW  HW  OW  HW  HW  OW  HW  
HW  OW  HW  HW  OW  HW  HW  OW  HW  HW  OW  HW  HW  OW  HW  HW  OW  HW  HW  OW  
HW  HW  OW  HW  HW  OW  HW  HW  OW  HW  HW  OW  HW  HW  OW  HW  HW  OW  HW  HW  
OW  HW  HW  OW  HW  HW  OW  HW  HW  OW  HW  HW  OW  HW  HW  OW  HW  HW  OW  HW  
HW  OW  HW  HW  OW  HW  HW  OW  HW  HW  OW  HW  HW  OW  HW  HW  OW  HW  HW  OW  
HW  HW  OW  HW  HW  OW  HW  HW  OW  HW  HW  OW  HW  HW  OW  HW  HW  OW  HW  HW  
OW  HW  HW  OW  HW  HW  OW  HW  HW  OW  HW  HW  OW  HW  HW  OW  HW  HW  OW  HW  
HW  OW  HW  HW  OW  HW  HW  OW  HW  HW  OW  HW  HW  OW  HW  HW  OW  HW  HW  OW  
HW  HW  OW  HW  HW  OW  HW  HW  OW  HW  HW  OW  HW  HW  OW  HW  HW  OW  HW  HW  
OW  HW  HW  OW  HW  HW  OW  HW  HW  OW  HW  HW  OW  HW  HW  OW  HW  HW  OW  HW  
HW  OW  HW  HW  OW  HW  HW  OW  HW  HW  OW  HW  HW  OW  HW  HW  OW  HW  HW  OW  
HW  HW  OW  HW  HW  OW  HW  HW  OW  HW  HW  OW  HW  HW  OW  HW  HW  OW  HW  HW  
OW  HW  HW  OW  HW  HW  OW  HW  HW  OW  HW  HW  OW  HW  HW  OW  HW  HW  OW  HW  
HW  OW  HW  HW  OW  HW  HW  OW  HW  HW  OW  HW  HW  OW  HW  HW  OW  HW  HW  OW  
HW  HW  OW  HW  HW  OW  HW  HW  OW  HW  HW  OW  HW  HW  OW  HW  HW  OW  HW  HW  
OW  HW  HW  OW  HW  HW  OW  HW  HW  OW  HW  HW  OW  HW  HW  OW  HW  HW  OW  HW  
HW  OW  HW  HW  OW  HW  HW  OW  HW  HW  OW  HW  HW  OW  HW  HW  OW  HW  HW  OW  
HW  HW  OW  HW  HW  OW  HW  HW  OW  HW  HW  OW  HW  HW  OW  HW  HW  OW  HW  HW  
OW  HW  HW  OW  HW  HW  OW  HW  HW  OW  HW  HW  OW  HW  HW  OW  HW  HW  OW  HW  
HW  OW  HW  HW  OW  HW  HW  OW  HW  HW  OW  HW  HW  OW  HW  HW  OW  HW  HW  OW  
HW  HW  OW  HW  HW  OW  HW  HW  OW  HW  HW  OW  HW  HW  OW  HW  HW  OW  HW  HW  
OW  HW  HW  OW  HW  HW  OW  HW  HW  OW  HW  HW  OW  HW  HW  OW  HW  HW  OW  HW  
HW  OW  HW  HW  OW  HW  HW  OW  HW  HW  OW  HW  HW  OW  HW  HW  OW  HW  HW  OW  
HW  HW  OW  HW  HW  OW  HW  HW  OW  HW  HW  OW  HW  HW  OW  HW  HW  OW  HW  HW  
OW  HW  HW  OW  HW  HW  OW  HW  HW  OW  HW  HW  OW  HW  HW  OW  HW  HW  OW  HW  
HW  OW  HW  HW  OW  HW  HW  OW  HW  HW  OW  HW  HW  OW  HW  HW  OW  HW  HW  OW  
HW  HW  OW  HW  HW  OW  HW  HW  OW  HW  HW  OW  HW  HW  OW  HW  HW  OW  HW  HW  
OW  HW  HW  OW  HW  HW  OW  HW  HW  OW  HW  HW  OW  HW  HW  OW  HW  HW  OW  HW  
HW  OW  HW  HW  OW  HW  HW  OW  HW  HW  OW  HW  HW  OW  HW  HW  OW  HW  HW  OW  
HW  HW  OW  HW  HW  OW  HW  HW  OW  HW  HW  OW  HW  HW  OW  HW  HW  OW  HW  HW  
OW  HW  HW  OW  HW  HW  OW  HW  HW  OW  HW  HW  OW  HW  HW  OW  HW  HW  OW  HW  
HW  OW  HW  HW  OW  HW  HW  OW  HW  HW  OW  HW  HW  OW  HW  HW  OW  HW  HW  OW  
HW  HW  OW  HW  HW  OW  HW  HW  OW  HW  HW  OW  HW  HW  OW  HW  HW  OW  HW  HW  
OW  HW  HW  OW  HW  HW  OW  HW  HW  OW  HW  HW  OW  HW  HW  OW  HW  HW  OW  HW  
HW  OW  HW  HW  OW  HW  HW  OW  HW  HW  OW  HW  HW  OW  HW  HW  OW  HW  HW  OW  
HW  HW  OW  HW  HW  OW  HW  HW  OW  HW  HW  OW  HW  HW  OW  HW  HW  OW  HW  HW  
OW  HW  HW  OW  HW  HW  OW  HW  HW  OW  HW  HW  OW  HW  HW  OW  HW  HW  OW  HW  
HW  OW  HW  HW  OW  HW  HW  OW  HW  HW  OW  HW  HW  OW  HW  HW  OW  HW  HW  OW  
HW  HW  OW  HW  HW  OW  HW  HW  OW  HW  HW  OW  HW  HW  OW  HW  HW  OW  HW  HW  
OW  HW  HW  OW  HW  HW  OW  HW  HW  OW  HW  HW  OW  HW  HW  OW  HW  HW  OW  HW  
HW  OW  HW  HW  OW  HW  HW  OW  HW  HW  OW  HW  HW  OW  HW  HW  OW  HW  HW  OW  
HW  HW  OW  HW  HW  OW  HW  HW  OW  HW  HW  OW  HW  HW  OW  HW  HW  OW  HW  HW  
OW  HW  HW  OW  HW  HW  OW  HW  HW  OW  HW  HW  OW  HW  HW  OW  HW  HW  OW  HW  
HW  OW  HW  HW  OW  HW  HW  OW  HW  HW  OW  HW  HW  OW  HW  HW  OW  HW  HW  OW  
HW  HW  OW  HW  HW  OW  HW  HW  OW  HW  HW  OW  HW  HW  OW  HW  HW  OW  HW  HW  
OW  HW  HW  OW  HW  HW  OW  HW  HW  OW  HW  HW  OW  HW  HW  OW  HW  HW  OW  HW  
HW  OW  HW  HW  OW  HW  HW  OW  HW  HW  OW  HW  HW  OW  HW  HW  OW  HW  HW  OW  
HW  HW  OW  HW  HW  OW  HW  HW  OW  HW  HW  OW  HW  HW  OW  HW  HW  OW  HW  HW  
OW  HW  HW  OW  HW  HW  OW  HW  HW  OW  HW  HW  OW  HW  HW  OW  HW  HW  OW  HW  
HW  OW  HW  HW  OW  HW  HW  OW  HW  HW  OW  HW  HW  OW  HW  HW  OW  HW  HW  OW  
HW  HW  OW  HW  HW  OW  HW  HW  OW  HW  HW  OW  HW  HW  OW  HW  HW  OW  HW  HW  
OW  HW  HW  OW  HW  HW  OW  HW  HW  OW  HW  HW  OW  HW  HW  OW  HW  HW  OW  HW  
HW  OW  HW  HW  OW  HW  HW  OW  HW  HW  OW  HW  HW  OW  HW  HW  OW  HW  HW  OW  
HW  HW  OW  HW  HW  OW  HW  HW  OW  HW  HW  OW  HW  HW  OW  HW  HW  OW  HW  HW  
OW  HW  HW  OW  HW  HW  OW  HW  HW  OW  HW  HW  OW  HW  HW  OW  HW  HW  OW  HW  
HW  OW  HW  HW  OW  HW  HW  OW  HW  HW  OW  HW  HW  OW  HW  HW  OW  HW  HW  OW  
HW  HW  OW  HW  HW  OW  HW  HW  OW  HW  HW  OW  HW  HW  OW  HW  HW  OW  HW  HW  
OW  HW  HW  OW  HW  HW  OW  HW  HW  OW  HW  HW  OW  HW  HW  OW  HW  HW  OW  HW  
HW  OW  HW  HW  OW  HW  HW  OW  HW  HW  OW  HW  HW  OW  HW  HW  OW  HW  HW  OW  
HW  HW  OW  HW  HW  OW  HW  HW  OW  HW  HW  OW  HW  HW  OW  HW  HW  OW  HW  HW  
OW  HW  HW  OW  HW  HW  OW  HW  HW  OW  HW  HW  OW  HW  HW  OW  HW  HW  OW  HW  
HW  OW  HW  HW  OW  HW  HW  OW  HW  HW  OW  HW  HW  OW  HW  HW  OW  HW  HW  OW  
HW  HW  OW  HW  HW  OW  HW  HW  OW  HW  HW  OW  HW  HW  OW  HW  HW  OW  HW  HW  
OW  HW  HW  OW  HW  HW  OW  HW  HW  OW  HW  HW  OW  HW  HW  OW  HW  HW  OW  HW  
HW  OW  HW  HW  OW  HW  HW  OW  HW  HW  OW  HW  HW  OW  HW  HW  OW  HW  HW  OW  
HW  HW  OW  HW  HW  OW  HW  HW  OW  HW  HW  OW  HW  HW  OW  HW  HW  OW  HW  HW  
OW  HW  HW  OW  HW  HW  OW  HW  HW  OW  HW  HW  OW  HW  HW  OW  HW  HW  OW  HW  
HW  OW  HW  HW  OW  HW  HW  OW  HW  HW  OW  HW  HW  OW  HW  HW  OW  HW  HW  OW  
HW  HW  OW  HW  HW  OW  HW  HW  OW  HW  HW  OW  HW  HW  OW  HW  HW  OW  HW  HW  
OW  HW  HW  OW  HW  HW  OW  HW  HW  OW  HW  HW  OW  HW  HW  OW  HW  HW  OW  HW  
HW  OW  HW  HW  OW  HW  HW  OW  HW  HW  OW  HW  HW  OW  HW  HW  OW  HW  HW  OW  
HW  HW  OW  HW  HW  OW  HW  HW  OW  HW  HW  OW  HW  HW  OW  HW  HW  OW  HW  HW  
OW  HW  HW  OW  HW  HW  OW  HW  HW  OW  HW  HW  OW  HW  HW  OW  HW  HW  OW  HW  
HW  OW  HW  HW  OW  HW  HW  OW  HW  HW  OW  HW  HW  OW  HW  HW  OW  HW  HW  OW  
HW  HW  OW  HW  HW  OW  HW  HW  OW  HW  HW  OW  HW  HW  OW  HW  HW  OW  HW  HW  
OW  HW  HW  OW  HW  HW  OW  HW  HW  OW  HW  HW  OW  HW  HW  OW  HW  HW  OW  HW  
HW  OW  HW  HW  OW  HW  HW  OW  HW  HW  OW  HW  HW  OW  HW  HW  OW  HW  HW  OW  
HW  HW  OW  HW  HW  OW  HW  HW  OW  HW  HW  OW  HW  HW  OW  HW  HW  OW  HW  HW  
OW  HW  HW  OW  HW  HW  OW  HW  HW  OW  HW  HW  OW  HW  HW  OW  HW  HW  OW  HW  
HW  OW  HW  HW  OW  HW  HW  OW  HW  HW  OW  HW  HW  OW  HW  HW  OW  HW  HW  OW  
HW  HW  OW  HW  HW  OW  HW  HW  OW  HW  HW  OW  HW  HW  OW  HW  HW  OW  HW  HW  
OW  HW  HW  OW  HW  HW  OW  HW  HW  OW  HW  HW  OW  HW  HW  OW  HW  HW  OW  HW  
HW  OW  HW  HW  OW  HW  HW  OW  HW  HW  OW  HW  HW  OW  HW  HW  OW  HW  HW  OW  
HW  HW  OW  HW  HW  OW  HW  HW  OW  HW  HW  OW  HW  HW  OW  HW  HW  OW  HW  HW  
OW  HW  HW  OW  HW  HW  OW  HW  HW  OW  HW  HW  OW  HW  HW  OW  HW  HW  OW  HW  
HW  OW  HW  HW  OW  HW  HW  OW  HW  HW  OW  HW  HW  OW  HW  HW  OW  HW  HW  OW  
HW  HW  OW  HW  HW  OW  HW  HW  OW  HW  HW  OW  HW  HW  OW  HW  HW  OW  HW  HW  
OW  HW  HW  OW  HW  HW  OW  HW  HW  OW  HW  HW  OW  HW  HW  OW  HW  HW  OW  HW  
HW  OW  HW  HW  OW  HW  HW  OW  HW  HW  OW  HW  HW  OW  HW  HW  OW  HW  HW  OW  
HW  HW  OW  HW  HW  OW  HW  HW  OW  HW  HW  OW  HW  HW  OW  HW  HW  OW  HW  HW  
OW  HW  HW  OW  HW  HW  OW  HW  HW  OW  HW  HW  OW  HW  HW  OW  HW  HW  OW  HW  
HW  OW  HW  HW  OW  HW  HW  OW  HW  HW  OW  HW  HW  OW  HW  HW  OW  HW  HW  OW  
HW  HW  OW  HW  HW  OW  HW  HW  OW  HW  HW  OW  HW  HW  OW  HW  HW  OW  HW  HW  
OW  HW  HW  OW  HW  HW  OW  HW  HW  OW  HW  HW  OW  HW  HW  OW  HW  HW  OW  HW  
HW  OW  HW  HW  OW  HW  HW  OW  HW  HW  OW  HW  HW  OW  HW  HW  OW  HW  HW  OW  
HW  HW  OW  HW  HW  OW  HW  HW  OW  HW  HW  OW  HW  HW  OW  HW  HW  OW  HW  HW  
OW  HW  HW  OW  HW  HW  OW  HW  HW  OW  HW  HW  OW  HW  HW  OW  HW  HW  OW  HW  
HW  OW  HW  HW  OW  HW  HW  OW  HW  HW  OW  HW  HW  OW  HW  HW  OW  HW  HW  OW  
HW  HW  OW  HW  HW  OW  HW  HW  OW  HW  HW  OW  HW  HW  OW  HW  HW  OW  HW  HW  
OW  HW  HW  OW  HW  HW  OW  HW  HW  OW  HW  HW  OW  HW  HW  OW  HW  HW  OW  HW  
HW  OW  HW  HW  OW  HW  HW  OW  HW  HW  OW  HW  HW  OW  HW  HW  OW  HW  HW  OW  
HW  HW  OW  HW  HW  OW  HW  HW  OW  HW  HW  OW  HW  HW  OW  HW  HW  OW  HW  HW  
OW  HW  HW  OW  HW  HW  OW  HW  HW  OW  HW  HW  OW  HW  HW  OW  HW  HW  OW  HW  
HW  OW  HW  HW  OW  HW  HW  OW  HW  HW  OW  HW  HW  OW  HW  HW  OW  HW  HW  OW  
HW  HW  OW  HW  HW  OW  HW  HW  OW  HW  HW  OW  HW  HW  OW  HW  HW  OW  HW  HW  
OW  HW  HW  OW  HW  HW  OW  HW  HW  OW  HW  HW  OW  HW  HW  OW  HW  HW  OW  HW  
HW  OW  HW  HW  OW  HW  HW  OW  HW  HW  OW  HW  HW  OW  HW  HW  OW  HW  HW  OW  
HW  HW  OW  HW  HW  OW  HW  HW  OW  HW  HW  OW  HW  HW  OW  HW  HW  OW  HW  HW  
OW  HW  HW  OW  HW  HW  OW  HW  HW  OW  HW  HW  OW  HW  HW  OW  HW  HW  OW  HW  
HW  OW  HW  HW  OW  HW  HW  OW  HW  HW  OW  HW  HW  OW  HW  HW  OW  HW  HW  OW  
HW  HW  OW  HW  HW  OW  HW  HW  OW  HW  HW  OW  HW  HW  OW  HW  HW  OW  HW  HW  
OW  HW  HW  OW  HW  HW  OW  HW  HW  OW  HW  HW  OW  HW  HW  OW  HW  HW  OW  HW  
HW  OW  HW  HW  OW  HW  HW  OW  HW  HW  OW  HW  HW  OW  HW  HW  OW  HW  HW  OW  
HW  HW  OW  HW  HW  OW  HW  HW  OW  HW  HW  OW  HW  HW  OW  HW  HW  OW  HW  HW  
OW  HW  HW  OW  HW  HW  OW  HW  HW  OW  HW  HW  OW  HW  HW  OW  HW  HW  OW  HW  
HW  OW  HW  HW  OW  HW  HW  OW  HW  HW  OW  HW  HW  OW  HW  HW  OW  HW  HW  OW  
HW  HW  OW  HW  HW  OW  HW  HW  OW  HW  HW  OW  HW  HW  OW  HW  HW  OW  HW  HW  
OW  HW  HW  OW  HW  HW  OW  HW  HW  OW  HW  HW  OW  HW  HW  OW  HW  HW  OW  HW  
HW  OW  HW  HW  OW  HW  HW  OW  HW  HW  OW  HW  HW  OW  HW  HW  OW  HW  HW  OW  
HW  HW  OW  HW  HW  OW  HW  HW  OW  HW  HW  OW  HW  HW  OW  HW  HW  OW  HW  HW  
OW  HW  HW  OW  HW  HW  OW  HW  HW  OW  HW  HW  OW  HW  HW  OW  HW  HW  OW  HW  
HW  OW  HW  HW  OW  HW  HW  OW  HW  HW  OW  HW  HW  OW  HW  HW  OW  HW  HW  OW  
HW  HW  OW  HW  HW  OW  HW  HW  OW  HW  HW  OW  HW  HW  OW  HW  HW  OW  HW  HW  
OW  HW  HW  OW  HW  HW  OW  HW  HW  OW  HW  HW  OW  HW  HW  OW  HW  HW  OW  HW  
HW  OW  HW  HW  OW  HW  HW  OW  HW  HW  OW  HW  HW  OW  HW  HW  OW  HW  HW  OW  
HW  HW  OW  HW  HW  OW  HW  HW  OW  HW  HW  OW  HW  HW  OW  HW  HW  OW  HW  HW  
OW  HW  HW  OW  HW  HW  OW  HW  HW  OW  HW  HW  OW  HW  HW  OW  HW  HW  OW  HW  
HW  OW  HW  HW  OW  HW  HW  OW  HW  HW  OW  HW  HW  OW  HW  HW  OW  HW  HW  OW  
HW  HW  OW  HW  HW  OW  HW  HW  OW  HW  HW  OW  HW  HW  OW  HW  HW  OW  HW  HW  
OW  HW  HW  OW  HW  HW  OW  HW  HW  OW  HW  HW  OW  HW  HW  OW  HW  HW  OW  HW  
HW  OW  HW  HW  OW  HW  HW  OW  HW  HW  OW  HW  HW  OW  HW  HW  OW  HW  HW  OW  
HW  HW  OW  HW  HW  OW  HW  HW  OW  HW  HW  OW  HW  HW  OW  HW  HW  OW  HW  HW  
OW  HW  HW  OW  HW  HW  OW  HW  HW  OW  HW  HW  OW  HW  HW  OW  HW  HW  OW  HW  
HW  OW  HW  HW  OW  HW  HW  OW  HW  HW  OW  HW  HW  OW  HW  HW  OW  HW  HW  OW  
HW  HW  OW  HW  HW  OW  HW  HW  OW  HW  HW  OW  HW  HW  OW  HW  HW  OW  HW  HW  
OW  HW  HW  OW  HW  HW  OW  HW  HW  OW  HW  HW  OW  HW  HW  OW  HW  HW  OW  HW  
HW  OW  HW  HW  OW  HW  HW  OW  HW  HW  OW  HW  HW  OW  HW  HW  OW  HW  HW  OW  
HW  HW  OW  HW  HW  OW  HW  HW  OW  HW  HW  OW  HW  HW  OW  HW  HW  OW  HW  HW  
OW  HW  HW  OW  HW  HW  OW  HW  HW  OW  HW  HW  OW  HW  HW  OW  HW  HW  OW  HW  
HW  OW  HW  HW  OW  HW  HW  OW  HW  HW  OW  HW  HW  OW  HW  HW  OW  HW  HW  OW  
HW  HW  OW  HW  HW  OW  HW  HW  OW  HW  HW  OW  HW  HW  OW  HW  HW  OW  HW  HW  
OW  HW  HW  OW  HW  HW  OW  HW  HW  OW  HW  HW  OW  HW  HW  OW  HW  HW  OW  HW  
HW  OW  HW  HW  OW  HW  HW  OW  HW  HW  OW  HW  HW  OW  HW  HW  OW  HW  HW  OW  
HW  HW  OW  HW  HW  OW  HW  HW  OW  HW  HW  OW  HW  HW  OW  HW  HW  OW  HW  HW  
OW  HW  HW  OW  HW  HW  OW  HW  HW  OW  HW  HW  OW  HW  HW  OW  HW  HW  OW  HW  
HW  OW  HW  HW  OW  HW  HW  OW  HW  HW  OW  HW  HW  OW  HW  HW  OW  HW  HW  OW  
HW  HW  OW  HW  HW  OW  HW  HW  OW  HW  HW  OW  HW  HW  OW  HW  HW  OW  HW  HW  
OW  HW  HW  OW  HW  HW  OW  HW  HW  OW  HW  HW  OW  HW  HW  OW  HW  HW  OW  HW  
HW  OW  HW  HW  OW  HW  HW  OW  HW  HW  OW  HW  HW  OW  HW  HW  OW  HW  HW  OW  
HW  HW  OW  HW  HW  OW  HW  HW  OW  HW  HW  OW  HW  HW  OW  HW  HW  OW  HW  HW  
OW  HW  HW  OW  HW  HW  OW  HW  HW  OW  HW  HW  OW  HW  HW  OW  HW  HW  OW  HW  
HW  OW  HW  HW  OW  HW  HW  OW  HW  HW  OW  HW  HW  OW  HW  HW  OW  HW  HW  OW  
HW  HW  OW  HW  HW  OW  HW  HW  OW  HW  HW  OW  HW  HW  OW  HW  HW  OW  HW  HW  
OW  HW  HW  OW  HW  HW  OW  HW  HW  OW  HW  HW  OW  HW  HW  OW  HW  HW  OW  HW  
HW  OW  HW  HW  OW  HW  HW  OW  HW  HW  OW  HW  HW  OW  HW  HW  OW  HW  HW  OW  
HW  HW  OW  HW  HW  OW  HW  HW  OW  HW  HW  OW  HW  HW  OW  HW  HW  OW  HW  HW  
OW  HW  HW  OW  HW  HW  OW  HW  HW  OW  HW  HW  OW  HW  HW  OW  HW  HW  OW  HW  
HW  OW  HW  HW  OW  HW  HW  OW  HW  HW  OW  HW  HW  OW  HW  HW  OW  HW  HW  OW  
HW  HW  OW  HW  HW  OW  HW  HW  OW  HW  HW  OW  HW  HW  OW  HW  HW  OW  HW  HW  
OW  HW  HW  OW  HW  HW  OW  HW  HW  OW  HW  HW  OW  HW  HW  OW  HW  HW  OW  HW  
HW  OW  HW  HW  OW  HW  HW  OW  HW  HW  OW  HW  HW  OW  HW  HW  OW  HW  HW  OW  
HW  HW  OW  HW  HW  OW  HW  HW  OW  HW  HW  OW  HW  HW  OW  HW  HW  OW  HW  HW  
OW  HW  HW  OW  HW  HW  OW  HW  HW  OW  HW  HW  OW  HW  HW  OW  HW  HW  OW  HW  
HW  OW  HW  HW  OW  HW  HW  OW  HW  HW  OW  HW  HW  OW  HW  HW  OW  HW  HW  OW  
HW  HW  OW  HW  HW  OW  HW  HW  OW  HW  HW  OW  HW  HW  OW  HW  HW  OW  HW  HW  
OW  HW  HW  OW  HW  HW  OW  HW  HW  OW  HW  HW  OW  HW  HW  OW  HW  HW  OW  HW  
HW  OW  HW  HW  OW  HW  HW  OW  HW  HW  OW  HW  HW  OW  HW  HW  OW  HW  HW  OW  
HW  HW  OW  HW  HW  OW  HW  HW  OW  HW  HW  OW  HW  HW  OW  HW  HW  OW  HW  HW  
OW  HW  HW  OW  HW  HW  OW  HW  HW  OW  HW  HW  OW  HW  HW  OW  HW  HW  OW  HW  
HW  OW  HW  HW  OW  HW  HW  OW  HW  HW  OW  HW  HW  OW  HW  HW  OW  HW  HW  OW  
HW  HW  OW  HW  HW  OW  HW  HW  OW  HW  HW  OW  HW  HW  OW  HW  HW  OW  HW  HW  
OW  HW  HW  OW  HW  HW  OW  HW  HW  OW  HW  HW  OW  HW  HW  OW  HW  HW  OW  HW  
HW  OW  HW  HW  OW  HW  HW  OW  HW  HW  OW  HW  HW  OW  HW  HW  OW  HW  HW  OW  
HW  HW  OW  HW  HW  OW  HW  HW  OW  HW  HW  OW  HW  HW  OW  HW  HW  OW  HW  HW  
OW  HW  HW  OW  HW  HW  OW  HW  HW  OW  HW  HW  OW  HW  HW  OW  HW  HW  OW  HW  
HW  OW  HW  HW  OW  HW  HW  OW  HW  HW  OW  HW  HW  OW  HW  HW  OW  HW  HW  OW  
HW  HW  OW  HW  HW  OW  HW  HW  OW  HW  HW  OW  HW  HW  OW  HW  HW  OW  HW  HW  
OW  HW  HW  OW  HW  HW  OW  HW  HW  OW  HW  HW  OW  HW  HW  OW  HW  HW  OW  HW  
HW  OW  HW  HW  OW  HW  HW  OW  HW  HW  OW  HW  HW  OW  HW  HW  OW  HW  HW  OW  
HW  HW  OW  HW  HW  OW  HW  HW  OW  HW  HW  OW  HW  HW  OW  HW  HW  OW  HW  HW  
OW  HW  HW  OW  HW  HW  OW  HW  HW  OW  HW  HW  OW  HW  HW  OW  HW  HW  OW  HW  
HW  OW  HW  HW  OW  HW  HW  OW  HW  HW  OW  HW  HW  OW  HW  HW  OW  HW  HW  OW  
HW  HW  OW  HW  HW  OW  HW  HW  OW  HW  HW  OW  HW  HW  OW  HW  HW  OW  HW  HW  
OW  HW  HW  OW  HW  HW  OW  HW  HW  OW  HW  HW  OW  HW  HW  OW  HW  HW  OW  HW  
HW  OW  HW  HW  OW  HW  HW  OW  HW  HW  OW  HW  HW  OW  HW  HW  OW  HW  HW  OW  
HW  HW  OW  HW  HW  OW  HW  HW  OW  HW  HW  OW  HW  HW  OW  HW  HW  OW  HW  HW  
OW  HW  HW  OW  HW  HW  OW  HW  HW  OW  HW  HW  OW  HW  HW  OW  HW  HW  OW  HW  
HW  OW  HW  HW  OW  HW  HW  OW  HW  HW  OW  HW  HW  OW  HW  HW  OW  HW  HW  OW  
HW  HW  OW  HW  HW  OW  HW  HW  OW  HW  HW  OW  HW  HW  OW  HW  HW  OW  HW  HW  
OW  HW  HW  OW  HW  HW  OW  HW  HW  OW  HW  HW  OW  HW  HW  OW  HW  HW  OW  HW  
HW  OW  HW  HW  OW  HW  HW  OW  HW  HW  OW  HW  HW  OW  HW  HW  OW  HW  HW  OW  
HW  HW  OW  HW  HW  OW  HW  HW  OW  HW  HW  OW  HW  HW  OW  HW  HW  OW  HW  HW  
OW  HW  HW  OW  HW  HW  OW  HW  HW  OW  HW  HW  OW  HW  HW  OW  HW  HW  OW  HW  
HW  OW  HW  HW  OW  HW  HW  OW  HW  HW  OW  HW  HW  OW  HW  HW  OW  HW  HW  OW  
HW  HW  OW  HW  HW  OW  HW  HW  OW  HW  HW  OW  HW  HW  OW  HW  HW  OW  HW  HW  
OW  HW  HW  OW  HW  HW  OW  HW  HW  OW  HW  HW  OW  HW  HW  OW  HW  HW  OW  HW  
HW  OW  HW  HW  OW  HW  HW  OW  HW  HW  OW  HW  HW  OW  HW  HW  OW  HW  HW  OW  
HW  HW  OW  HW  HW  OW  HW  HW  OW  HW  HW  OW  HW  HW  OW  HW  HW  OW  HW  HW  
OW  HW  HW  OW  HW  HW  OW  HW  HW  OW  HW  HW  OW  HW  HW  OW  HW  HW  OW  HW  
HW  OW  HW  HW  OW  HW  HW  OW  HW  HW  OW  HW  HW  OW  HW  HW  OW  HW  HW  OW  
HW  HW  OW  HW  HW  OW  HW  HW  OW  HW  HW  OW  HW  HW  OW  HW  HW  OW  HW  HW  
OW  HW  HW  OW  HW  HW  OW  HW  HW  OW  HW  HW  OW  HW  HW  OW  HW  HW  OW  HW  
HW  OW  HW  HW  OW  HW  HW  OW  HW  HW  OW  HW  HW  OW  HW  HW  OW  HW  HW  OW  
HW  HW  OW  HW  HW  OW  HW  HW  OW  HW  HW  OW  HW  HW  OW  HW  HW  OW  HW  HW  
OW  HW  HW  OW  HW  HW  OW  HW  HW  OW  HW  HW  OW  HW  HW  OW  HW  HW  OW  HW  
HW  OW  HW  HW  OW  HW  HW  OW  HW  HW  OW  HW  HW  OW  HW  HW  OW  HW  HW  OW  
HW  HW  OW  HW  HW  OW  HW  HW  OW  HW  HW  OW  HW  HW  OW  HW  HW  OW  HW  HW  
OW  HW  HW  OW  HW  HW  OW  HW  HW  OW  HW  HW  OW  HW  HW  OW  HW  HW  OW  HW  
HW  OW  HW  HW  OW  HW  HW  OW  HW  HW  OW  HW  HW  OW  HW  HW  OW  HW  HW  OW  
HW  HW  OW  HW  HW  OW  HW  HW  OW  HW  HW  OW  HW  HW  OW  HW  HW  OW  HW  HW  
OW  HW  HW  OW  HW  HW  OW  HW  HW  OW  HW  HW  OW  HW  HW  OW  HW  HW  OW  HW  
HW  OW  HW  HW  OW  HW  HW  OW  HW  HW  OW  HW  HW  OW  HW  HW  OW  HW  HW  OW  
HW  HW  OW  HW  HW  OW  HW  HW  OW  HW  HW  OW  HW  HW  OW  HW  HW  OW  HW  HW  
OW  HW  HW  OW  HW  HW  OW  HW  HW  OW  HW  HW  OW  HW  HW  OW  HW  HW  OW  HW  
HW  OW  HW  HW  OW  HW  HW  OW  HW  HW  OW  HW  HW  OW  HW  HW  OW  HW  HW  OW  
HW  HW  OW  HW  HW  OW  HW  HW  OW  HW  HW  OW  HW  HW  OW  HW  HW  OW  HW  HW  
OW  HW  HW  OW  HW  HW  OW  HW  HW  OW  HW  HW  OW  HW  HW  OW  HW  HW  OW  HW  
HW  OW  HW  HW  OW  HW  HW  OW  HW  HW  OW  HW  HW  OW  HW  HW  OW  HW  HW  OW  
HW  HW  OW  HW  HW  OW  HW  HW  OW  HW  HW  OW  HW  HW  OW  HW  HW  OW  HW  HW  
OW  HW  HW  OW  HW  HW  OW  HW  HW  OW  HW  HW  OW  HW  HW  OW  HW  HW  OW  HW  
HW  OW  HW  HW  OW  HW  HW  OW  HW  HW  OW  HW  HW  OW  HW  HW  OW  HW  HW  OW  
HW  HW  OW  HW  HW  OW  HW  HW  OW  HW  HW  OW  HW  HW  OW  HW  HW  OW  HW  HW  
OW  HW  HW  OW  HW  HW  OW  HW  HW  OW  HW  HW  OW  HW  HW  OW  HW  HW  OW  HW  
HW  OW  HW  HW  OW  HW  HW  OW  HW  HW  OW  HW  HW  OW  HW  HW  OW  HW  HW  OW  
HW  HW  OW  HW  HW  OW  HW  HW  OW  HW  HW  OW  HW  HW  OW  HW  HW  OW  HW  HW  
OW  HW  HW  OW  HW  HW  OW  HW  HW  OW  HW  HW  OW  HW  HW  OW  HW  HW  OW  HW  
HW  OW  HW  HW  OW  HW  HW  OW  HW  HW  OW  HW  HW  OW  HW  HW  OW  HW  HW  OW  
HW  HW  OW  HW  HW  OW  HW  HW  OW  HW  HW  OW  HW  HW  OW  HW  HW  OW  HW  HW  
OW  HW  HW  OW  HW  HW  OW  HW  HW  OW  HW  HW  OW  HW  HW  OW  HW  HW  OW  HW  
HW  OW  HW  HW  OW  HW  HW  OW  HW  HW  OW  HW  HW  OW  HW  HW  OW  HW  HW  OW  
HW  HW  OW  HW  HW  OW  HW  HW  OW  HW  HW  OW  HW  HW  OW  HW  HW  OW  HW  HW  
OW  HW  HW  OW  HW  HW  OW  HW  HW  OW  HW  HW  OW  HW  HW  OW  HW  HW  OW  HW  
HW  OW  HW  HW  OW  HW  HW  OW  HW  HW  OW  HW  HW  OW  HW  HW  OW  HW  HW  OW  
HW  HW  OW  HW  HW  OW  HW  HW  OW  HW  HW  OW  HW  HW  OW  HW  HW  OW  HW  HW  
OW  HW  HW  OW  HW  HW  OW  HW  HW  OW  HW  HW  OW  HW  HW  OW  HW  HW  OW  HW  
HW  OW  HW  HW  OW  HW  HW  OW  HW  HW  OW  HW  HW  OW  HW  HW  OW  HW  HW  OW  
HW  HW  OW  HW  HW  OW  HW  HW  OW  HW  HW  OW  HW  HW  OW  HW  HW  OW  HW  HW  
OW  HW  HW  OW  HW  HW  OW  HW  HW  OW  HW  HW  OW  HW  HW  OW  HW  HW  OW  HW  
HW  OW  HW  HW  OW  HW  HW  OW  HW  HW  OW  HW  HW  OW  HW  HW  OW  HW  HW  OW  
HW  HW  OW  HW  HW  OW  HW  HW  OW  HW  HW  OW  HW  HW  OW  HW  HW  OW  HW  HW  
OW  HW  HW  OW  HW  HW  OW  HW  HW  OW  HW  HW  OW  HW  HW  OW  HW  HW  OW  HW  
HW  OW  HW  HW  OW  HW  HW  OW  HW  HW  OW  HW  HW  OW  HW  HW  OW  HW  HW  OW  
HW  HW  OW  HW  HW  OW  HW  HW  OW  HW  HW  OW  HW  HW  OW  HW  HW  OW  HW  HW  
OW  HW  HW  OW  HW  HW  OW  HW  HW  OW  HW  HW  OW  HW  HW  OW  HW  HW  OW  HW  
HW  OW  HW  HW  OW  HW  HW  OW  HW  HW  OW  HW  HW  OW  HW  HW  OW  HW  HW  OW  
HW  HW  OW  HW  HW  OW  HW  HW  OW  HW  HW  OW  HW  HW  OW  HW  HW  OW  HW  HW  
OW  HW  HW  OW  HW  HW  OW  HW  HW  OW  HW  HW  OW  HW  HW  OW  HW  HW  OW  HW  
HW  OW  HW  HW  OW  HW  HW  OW  HW  HW  OW  HW  HW  OW  HW  HW  OW  HW  HW  OW  
HW  HW  OW  HW  HW  OW  HW  HW  OW  HW  HW  OW  HW  HW  OW  HW  HW  OW  HW  HW  
OW  HW  HW  OW  HW  HW  OW  HW  HW  OW  HW  HW  OW  HW  HW  OW  HW  HW  OW  HW  
HW  OW  HW  HW  OW  HW  HW  OW  HW  HW  OW  HW  HW  OW  HW  HW  OW  HW  HW  OW  
HW  HW  OW  HW  HW  OW  HW  HW  OW  HW  HW  OW  HW  HW  OW  HW  HW  OW  HW  HW  
OW  HW  HW  OW  HW  HW  OW  HW  HW  OW  HW  HW  OW  HW  HW  OW  HW  HW  OW  HW  
HW  OW  HW  HW  OW  HW  HW  OW  HW  HW  OW  HW  HW  OW  HW  HW  OW  HW  HW  OW  
HW  HW  OW  HW  HW  OW  HW  HW  OW  HW  HW  OW  HW  HW  OW  HW  HW  OW  HW  HW  
OW  HW  HW  OW  HW  HW  OW  HW  HW  OW  HW  HW  OW  HW  HW  OW  HW  HW  OW  HW  
HW  OW  HW  HW  OW  HW  HW  OW  HW  HW  OW  HW  HW  OW  HW  HW  OW  HW  HW  OW  
HW  HW  OW  HW  HW  OW  HW  HW  OW  HW  HW  OW  HW  HW  OW  HW  HW  OW  HW  HW  
OW  HW  HW  OW  HW  HW  OW  HW  HW  OW  HW  HW  OW  HW  HW  OW  HW  HW  OW  HW  
HW  OW  HW  HW  OW  HW  HW  OW  HW  HW  OW  HW  HW  OW  HW  HW  OW  HW  HW  OW  
HW  HW  OW  HW  HW  OW  HW  HW  OW  HW  HW  OW  HW  HW  OW  HW  HW  OW  HW  HW  
OW  HW  HW  OW  HW  HW  OW  HW  HW  OW  HW  HW  OW  HW  HW  OW  HW  HW  OW  HW  
HW  OW  HW  HW  OW  HW  HW  OW  HW  HW  OW  HW  HW  OW  HW  HW  OW  HW  HW  OW  
HW  HW  OW  HW  HW  OW  HW  HW  OW  HW  HW  OW  HW  HW  OW  HW  HW  OW  HW  HW  
OW  HW  HW  OW  HW  HW  OW  HW  HW  OW  HW  HW  OW  HW  HW  OW  HW  HW  OW  HW  
HW  OW  HW  HW  OW  HW  HW  OW  HW  HW  OW  HW  HW  OW  HW  HW  OW  HW  HW  OW  
HW  HW  OW  HW  HW  OW  HW  HW  OW  HW  HW  OW  HW  HW  OW  HW  HW  OW  HW  HW  
OW  HW  HW  OW  HW  HW  OW  HW  HW  OW  HW  HW  OW  HW  HW  OW  HW  HW  OW  HW  
HW  OW  HW  HW  OW  HW  HW  OW  HW  HW  OW  HW  HW  OW  HW  HW  OW  HW  HW  OW  
HW  HW  OW  HW  HW  OW  HW  HW  OW  HW  HW  OW  HW  HW  OW  HW  HW  OW  HW  HW  
OW  HW  HW  OW  HW  HW  OW  HW  HW  OW  HW  HW  OW  HW  HW  OW  HW  HW  OW  HW  
HW  OW  HW  HW  OW  HW  HW  OW  HW  HW  OW  HW  HW  OW  HW  HW  OW  HW  HW  OW  
HW  HW  OW  HW  HW  OW  HW  HW  OW  HW  HW  OW  HW  HW  OW  HW  HW  OW  HW  HW  
OW  HW  HW  OW  HW  HW  OW  HW  HW  OW  HW  HW  OW  HW  HW  OW  HW  HW  OW  HW  
HW  OW  HW  HW  OW  HW  HW  OW  HW  HW  OW  HW  HW  OW  HW  HW  OW  HW  HW  OW  
HW  HW  OW  HW  HW  OW  HW  HW  OW  HW  HW  OW  HW  HW  OW  HW  HW  OW  HW  HW  
OW  HW  HW  OW  HW  HW  OW  HW  HW  OW  HW  HW  OW  HW  HW  OW  HW  HW  OW  HW  
HW  OW  HW  HW  OW  HW  HW  OW  HW  HW  OW  HW  HW  OW  HW  HW  OW  HW  HW  OW  
HW  HW  OW  HW  HW  OW  HW  HW  OW  HW  HW  OW  HW  HW  OW  HW  HW  OW  HW  HW  
OW  HW  HW  OW  HW  HW  OW  HW  HW  OW  HW  HW  OW  HW  HW  OW  HW  HW  OW  HW  
HW  OW  HW  HW  OW  HW  HW  OW  HW  HW  OW  HW  HW  OW  HW  HW  OW  HW  HW  OW  
HW  HW  OW  HW  HW  OW  HW  HW  OW  HW  HW  OW  HW  HW  OW  HW  HW  OW  HW  HW  
OW  HW  HW  OW  HW  HW  OW  HW  HW  OW  HW  HW  OW  HW  HW  OW  HW  HW  OW  HW  
HW  OW  HW  HW  OW  HW  HW  OW  HW  HW  OW  HW  HW  OW  HW  HW  OW  HW  HW  OW  
HW  HW  OW  HW  HW  OW  HW  HW  OW  HW  HW  OW  HW  HW  OW  HW  HW  OW  HW  HW  
OW  HW  HW  OW  HW  HW  OW  HW  HW  OW  HW  HW  OW  HW  HW  OW  HW  HW  OW  HW  
HW  OW  HW  HW  OW  HW  HW  OW  HW  HW  OW  HW  HW  OW  HW  HW  OW  HW  HW  OW  
HW  HW  OW  HW  HW  OW  HW  HW  OW  HW  HW  OW  HW  HW  OW  HW  HW  OW  HW  HW  
OW  HW  HW  OW  HW  HW  OW  HW  HW  OW  HW  HW  OW  HW  HW  OW  HW  HW  OW  HW  
HW  OW  HW  HW  OW  HW  HW  OW  HW  HW  OW  HW  HW  OW  HW  HW  OW  HW  HW  OW  
HW  HW  OW  HW  HW  OW  HW  HW  OW  HW  HW  OW  HW  HW  OW  HW  HW  OW  HW  HW  
OW  HW  HW  OW  HW  HW  OW  HW  HW  OW  HW  HW  OW  HW  HW  OW  HW  HW  OW  HW  
HW  OW  HW  HW  OW  HW  HW  OW  HW  HW  OW  HW  HW  OW  HW  HW  OW  HW  HW  OW  
HW  HW  OW  HW  HW  OW  HW  HW  OW  HW  HW  OW  HW  HW  OW  HW  HW  OW  HW  HW  
OW  HW  HW  OW  HW  HW  OW  HW  HW  OW  HW  HW  OW  HW  HW  OW  HW  HW  OW  HW  
HW  OW  HW  HW  OW  HW  HW  OW  HW  HW  OW  HW  HW  OW  HW  HW  OW  HW  HW  OW  
HW  HW  OW  HW  HW  OW  HW  HW  OW  HW  HW  OW  HW  HW  OW  HW  HW  OW  HW  HW  
OW  HW  HW  OW  HW  HW  OW  HW  HW  OW  HW  HW  OW  HW  HW  OW  HW  HW  OW  HW  
HW  OW  HW  HW  OW  HW  HW  OW  HW  HW  OW  HW  HW  OW  HW  HW  OW  HW  HW  OW  
HW  HW  OW  HW  HW  OW  HW  HW  OW  HW  HW  OW  HW  HW  OW  HW  HW  OW  HW  HW  
OW  HW  HW  OW  HW  HW  OW  HW  HW  OW  HW  HW  OW  HW  HW  OW  HW  HW  OW  HW  
HW  OW  HW  HW  OW  HW  HW  OW  HW  HW  OW  HW  HW  OW  HW  HW  OW  HW  HW  OW  
HW  HW  OW  HW  HW  OW  HW  HW  OW  HW  HW  OW  HW  HW  OW  HW  HW  OW  HW  HW  
OW  HW  HW  OW  HW  HW  OW  HW  HW  OW  HW  HW  OW  HW  HW  OW  HW  HW  OW  HW  
HW  OW  HW  HW  OW  HW  HW  OW  HW  HW  OW  HW  HW  OW  HW  HW  OW  HW  HW  OW  
HW  HW  OW  HW  HW  OW  HW  HW  OW  HW  HW  OW  HW  HW  OW  HW  HW  OW  HW  HW  
OW  HW  HW  OW  HW  HW  OW  HW  HW  OW  HW  HW  OW  HW  HW  OW  HW  HW  OW  HW  
HW  OW  HW  HW  OW  HW  HW  OW  HW  HW  OW  HW  HW  OW  HW  HW  OW  HW  HW  OW  
HW  HW  OW  HW  HW  OW  HW  HW  OW  HW  HW  OW  HW  HW  OW  HW  HW  OW  HW  HW  
OW  HW  HW  OW  HW  HW  OW  HW  HW  OW  HW  HW  OW  HW  HW  OW  HW  HW  OW  HW  
HW  OW  HW  HW  OW  HW  HW  OW  HW  HW  OW  HW  HW  OW  HW  HW  OW  HW  HW  OW  
HW  HW  OW  HW  HW  OW  HW  HW  OW  HW  HW  OW  HW  HW  OW  HW  HW  OW  HW  HW  
OW  HW  HW  OW  HW  HW  OW  HW  HW  OW  HW  HW  OW  HW  HW  OW  HW  HW  OW  HW  
HW  OW  HW  HW  OW  HW  HW  OW  HW  HW  OW  HW  HW  OW  HW  HW  OW  HW  HW  OW  
HW  HW  OW  HW  HW  OW  HW  HW  OW  HW  HW  OW  HW  HW  OW  HW  HW  OW  HW  HW  
OW  HW  HW  OW  HW  HW  OW  HW  HW  OW  HW  HW  OW  HW  HW  OW  HW  HW  OW  HW  
HW  OW  HW  HW  OW  HW  HW  OW  HW  HW  OW  HW  HW  OW  HW  HW  OW  HW  HW  OW  
HW  HW  OW  HW  HW  OW  HW  HW  OW  HW  HW  OW  HW  HW  OW  HW  HW  OW  HW  HW  
OW  HW  HW  OW  HW  HW  OW  HW  HW  OW  HW  HW  OW  HW  HW  OW  HW  HW  OW  HW  
HW  OW  HW  HW  OW  HW  HW  OW  HW  HW  OW  HW  HW  OW  HW  HW  OW  HW  HW  OW  
HW  HW  OW  HW  HW  OW  HW  HW  OW  HW  HW  OW  HW  HW  OW  HW  HW  OW  HW  HW  
OW  HW  HW  OW  HW  HW  OW  HW  HW  OW  HW  HW  OW  HW  HW  OW  HW  HW  OW  HW  
HW  OW  HW  HW  OW  HW  HW  OW  HW  HW  OW  HW  HW  OW  HW  HW  OW  HW  HW  OW  
HW  HW  OW  HW  HW  OW  HW  HW  OW  HW  HW  OW  HW  HW  OW  HW  HW  OW  HW  HW  
OW  HW  HW  OW  HW  HW  OW  HW  HW  OW  HW  HW  OW  HW  HW  OW  HW  HW  OW  HW  
HW  OW  HW  HW  OW  HW  HW  OW  HW  HW  OW  HW  HW  OW  HW  HW  OW  HW  HW  OW  
HW  HW  OW  HW  HW  OW  HW  HW  OW  HW  HW  OW  HW  HW  OW  HW  HW  OW  HW  HW  
OW  HW  HW  OW  HW  HW  OW  HW  HW  OW  HW  HW  OW  HW  HW  OW  HW  HW  OW  HW  
HW  OW  HW  HW  OW  HW  HW  OW  HW  HW  OW  HW  HW  OW  HW  HW  OW  HW  HW  OW  
HW  HW  OW  HW  HW  OW  HW  HW  OW  HW  HW  OW  HW  HW  OW  HW  HW  OW  HW  HW  
OW  HW  HW  OW  HW  HW  OW  HW  HW  OW  HW  HW  OW  HW  HW  OW  HW  HW  OW  HW  
HW  OW  HW  HW  OW  HW  HW  OW  HW  HW  OW  HW  HW  OW  HW  HW  OW  HW  HW  OW  
HW  HW  OW  HW  HW  OW  HW  HW  OW  HW  HW  OW  HW  HW  OW  HW  HW  OW  HW  HW  
OW  HW  HW  OW  HW  HW  OW  HW  HW  OW  HW  HW  OW  HW  HW  OW  HW  HW  OW  HW  
HW  OW  HW  HW  OW  HW  HW  OW  HW  HW  OW  HW  HW  OW  HW  HW  OW  HW  HW  OW  
HW  HW  OW  HW  HW  OW  HW  HW  OW  HW  HW  OW  HW  HW  OW  HW  HW  OW  HW  HW  
OW  HW  HW  OW  HW  HW  OW  HW  HW  OW  HW  HW  OW  HW  HW  OW  HW  HW  OW  HW  
HW  OW  HW  HW  OW  HW  HW  OW  HW  HW  OW  HW  HW  OW  HW  HW  OW  HW  HW  OW  
HW  HW  OW  HW  HW  OW  HW  HW  OW  HW  HW  OW  HW  HW  OW  HW  HW  OW  HW  HW  
OW  HW  HW  OW  HW  HW  OW  HW  HW  OW  HW  HW  OW  HW  HW  OW  HW  HW  OW  HW  
HW  OW  HW  HW  OW  HW  HW  OW  HW  HW  OW  HW  HW  OW  HW  HW  OW  HW  HW  OW  
HW  HW  OW  HW  HW  OW  HW  HW  OW  HW  HW  OW  HW  HW  OW  HW  HW  OW  HW  HW  
OW  HW  HW  OW  HW  HW  OW  HW  HW  OW  HW  HW  OW  HW  HW  OW  HW  HW  OW  HW  
HW  OW  HW  HW  OW  HW  HW  OW  HW  HW  OW  HW  HW  OW  HW  HW  OW  HW  HW  OW  
HW  HW  OW  HW  HW  OW  HW  HW  OW  HW  HW  OW  HW  HW  OW  HW  HW  OW  HW  HW  
OW  HW  HW  OW  HW  HW  OW  HW  HW  OW  HW  HW  OW  HW  HW  OW  HW  HW  OW  HW  
HW  OW  HW  HW  OW  HW  HW  OW  HW  HW  OW  HW  HW  OW  HW  HW  OW  HW  HW  OW  
HW  HW  OW  HW  HW  OW  HW  HW  OW  HW  HW  OW  HW  HW  OW  HW  HW  OW  HW  HW  
OW  HW  HW  OW  HW  HW  OW  HW  HW  OW  HW  HW  OW  HW  HW  OW  HW  HW  OW  HW  
HW  OW  HW  HW  OW  HW  HW  OW  HW  HW  OW  HW  HW  OW  HW  HW  OW  HW  HW  OW  
HW  HW  OW  HW  HW  OW  HW  HW  OW  HW  HW  OW  HW  HW  OW  HW  HW  OW  HW  HW  
OW  HW  HW  OW  HW  HW  OW  HW  HW  OW  HW  HW  OW  HW  HW  OW  HW  HW  OW  HW  
HW  OW  HW  HW  OW  HW  HW  OW  HW  HW  OW  HW  HW  OW  HW  HW  OW  HW  HW  OW  
HW  HW  OW  HW  HW  OW  HW  HW  OW  HW  HW  OW  HW  HW  OW  HW  HW  OW  HW  HW  
OW  HW  HW  OW  HW  HW  OW  HW  HW  OW  HW  HW  OW  HW  HW  OW  HW  HW  OW  HW  
HW  OW  HW  HW  OW  HW  HW  OW  HW  HW  OW  HW  HW  OW  HW  HW  OW  HW  HW  OW  
HW  HW  OW  HW  HW  OW  HW  HW  OW  HW  HW  OW  HW  HW  OW  HW  HW  OW  HW  HW  
OW  HW  HW  OW  HW  HW  OW  HW  HW  OW  HW  HW  OW  HW  HW  OW  HW  HW  OW  HW  
HW  OW  HW  HW  OW  HW  HW  OW  HW  HW  OW  HW  HW  OW  HW  HW  OW  HW  HW  OW  
HW  HW  OW  HW  HW  OW  HW  HW  OW  HW  HW  OW  HW  HW  OW  HW  HW  OW  HW  HW  
OW  HW  HW  OW  HW  HW  OW  HW  HW  OW  HW  HW  OW  HW  HW  OW  HW  HW  OW  HW  
HW  OW  HW  HW  OW  HW  HW  OW  HW  HW  OW  HW  HW  OW  HW  HW  OW  HW  HW  OW  
HW  HW  OW  HW  HW  OW  HW  HW  OW  HW  HW  OW  HW  HW  OW  HW  HW  OW  HW  HW  
OW  HW  HW  OW  HW  HW  OW  HW  HW  OW  HW  HW  OW  HW  HW  OW  HW  HW  OW  HW  
HW  OW  HW  HW  OW  HW  HW  OW  HW  HW  OW  HW  HW  OW  HW  HW  OW  HW  HW  OW  
HW  HW  OW  HW  HW  OW  HW  HW  OW  HW  HW  OW  HW  HW  OW  HW  HW  OW  HW  HW  
OW  HW  HW  OW  HW  HW  OW  HW  HW  OW  HW  HW  OW  HW  HW  OW  HW  HW  OW  HW  
HW  OW  HW  HW  OW  HW  HW  OW  HW  HW  OW  HW  HW  OW  HW  HW  OW  HW  HW  OW  
HW  HW  OW  HW  HW  OW  HW  HW  OW  HW  HW  OW  HW  HW  OW  HW  HW  OW  HW  HW  
OW  HW  HW  OW  HW  HW  OW  HW  HW  OW  HW  HW  OW  HW  HW  OW  HW  HW  OW  HW  
HW  OW  HW  HW  OW  HW  HW  OW  HW  HW  OW  HW  HW  OW  HW  HW  OW  HW  HW  OW  
HW  HW  OW  HW  HW  OW  HW  HW  OW  HW  HW  OW  HW  HW  OW  HW  HW  OW  HW  HW  
OW  HW  HW  OW  HW  HW  OW  HW  HW  OW  HW  HW  OW  HW  HW  OW  HW  HW  OW  HW  
HW  OW  HW  HW  OW  HW  HW  OW  HW  HW  OW  HW  HW  OW  HW  HW  OW  HW  HW  OW  
HW  HW  OW  HW  HW  OW  HW  HW  OW  HW  HW  OW  HW  HW  OW  HW  HW  OW  HW  HW  
OW  HW  HW  OW  HW  HW  OW  HW  HW  OW  HW  HW  OW  HW  HW  OW  HW  HW  OW  HW  
HW  OW  HW  HW  OW  HW  HW  OW  HW  HW  OW  HW  HW  OW  HW  HW  OW  HW  HW  OW  
HW  HW  OW  HW  HW  OW  HW  HW  OW  HW  HW  OW  HW  HW  OW  HW  HW  OW  HW  HW  
OW  HW  HW  OW  HW  HW  OW  HW  HW  OW  HW  HW  OW  HW  HW  OW  HW  HW  OW  HW  
HW  OW  HW  HW  OW  HW  HW  OW  HW  HW  OW  HW  HW  OW  HW  HW  OW  HW  HW  OW  
HW  HW  OW  HW  HW  OW  HW  HW  OW  HW  HW  OW  HW  HW  OW  HW  HW  OW  HW  HW  
OW  HW  HW  OW  HW  HW  OW  HW  HW  OW  HW  HW  OW  HW  HW  OW  HW  HW  OW  HW  
HW  OW  HW  HW  OW  HW  HW  OW  HW  HW  OW  HW  HW  OW  HW  HW  OW  HW  HW  OW  
HW  HW  OW  HW  HW  OW  HW  HW  OW  HW  HW  OW  HW  HW  OW  HW  HW  OW  HW  HW  
OW  HW  HW  OW  HW  HW  OW  HW  HW  OW  HW  HW  OW  HW  HW  OW  HW  HW  OW  HW  
HW  OW  HW  HW  OW  HW  HW  OW  HW  HW  OW  HW  HW  OW  HW  HW  OW  HW  HW  OW  
HW  HW  OW  HW  HW  OW  HW  HW  OW  HW  HW  OW  HW  HW  OW  HW  HW  OW  HW  HW  
OW  HW  HW  OW  HW  HW  OW  HW  HW  OW  HW  HW  OW  HW  HW  OW  HW  HW  OW  HW  
HW  OW  HW  HW  OW  HW  HW  OW  HW  HW  OW  HW  HW  OW  HW  HW  OW  HW  HW  OW  
HW  HW  OW  HW  HW  OW  HW  HW  OW  HW  HW  OW  HW  HW  OW  HW  HW  OW  HW  HW  
OW  HW  HW  OW  HW  HW  OW  HW  HW  OW  HW  HW  OW  HW  HW  OW  HW  HW  OW  HW  
HW  OW  HW  HW  OW  HW  HW  OW  HW  HW  OW  HW  HW  OW  HW  HW  OW  HW  HW  OW  
HW  HW  OW  HW  HW  OW  HW  HW  OW  HW  HW  OW  HW  HW  OW  HW  HW  OW  HW  HW  
OW  HW  HW  OW  HW  HW  OW  HW  HW  OW  HW  HW  OW  HW  HW  OW  HW  HW  OW  HW  
HW  OW  HW  HW  OW  HW  HW  OW  HW  HW  OW  HW  HW  OW  HW  HW  OW  HW  HW  OW  
HW  HW  OW  HW  HW  OW  HW  HW  OW  HW  HW  OW  HW  HW  OW  HW  HW  OW  HW  HW  
OW  HW  HW  OW  HW  HW  OW  HW  HW  OW  HW  HW  OW  HW  HW  OW  HW  HW  OW  HW  
HW  OW  HW  HW  OW  HW  HW  OW  HW  HW  OW  HW  HW  OW  HW  HW  OW  HW  HW  OW  
HW  HW  OW  HW  HW  OW  HW  HW  OW  HW  HW  OW  HW  HW  OW  HW  HW  OW  HW  HW  
OW  HW  HW  OW  HW  HW  OW  HW  HW  OW  HW  HW  OW  HW  HW  OW  HW  HW  OW  HW  
HW  OW  HW  HW  OW  HW  HW  OW  HW  HW  OW  HW  HW  OW  HW  HW  OW  HW  HW  OW  
HW  HW  OW  HW  HW  OW  HW  HW  OW  HW  HW  OW  HW  HW  OW  HW  HW  OW  HW  HW  
OW  HW  HW  OW  HW  HW  OW  HW  HW  OW  HW  HW  OW  HW  HW  OW  HW  HW  OW  HW  
HW  OW  HW  HW  OW  HW  HW  OW  HW  HW  OW  HW  HW  OW  HW  HW  OW  HW  HW  OW  
HW  HW  OW  HW  HW  OW  HW  HW  OW  HW  HW  OW  HW  HW  OW  HW  HW  OW  HW  HW  
OW  HW  HW  OW  HW  HW  OW  HW  HW  OW  HW  HW  OW  HW  HW  OW  HW  HW  OW  HW  
HW  OW  HW  HW  OW  HW  HW  OW  HW  HW  OW  HW  HW  OW  HW  HW  OW  HW  HW  OW  
HW  HW  OW  HW  HW  OW  HW  HW  OW  HW  HW  OW  HW  HW  OW  HW  HW  OW  HW  HW  
OW  HW  HW  OW  HW  HW  OW  HW  HW  OW  HW  HW  OW  HW  HW  OW  HW  HW  OW  HW  
HW  OW  HW  HW  OW  HW  HW  OW  HW  HW  OW  HW  HW  OW  HW  HW  OW  HW  HW  OW  
HW  HW  OW  HW  HW  OW  HW  HW  OW  HW  HW  OW  HW  HW  OW  HW  HW  OW  HW  HW  
OW  HW  HW  OW  HW  HW  OW  HW  HW  OW  HW  HW  OW  HW  HW  OW  HW  HW  OW  HW  
HW  OW  HW  HW  OW  HW  HW  OW  HW  HW  OW  HW  HW  OW  HW  HW  OW  HW  HW  OW  
HW  HW  OW  HW  HW  OW  HW  HW  OW  HW  HW  OW  HW  HW  OW  HW  HW  OW  HW  HW  
OW  HW  HW  OW  HW  HW  OW  HW  HW  OW  HW  HW  OW  HW  HW  OW  HW  HW  OW  HW  
HW  OW  HW  HW  OW  HW  HW  OW  HW  HW  OW  HW  HW  OW  HW  HW  OW  HW  HW  OW  
HW  HW  OW  HW  HW  OW  HW  HW  OW  HW  HW  OW  HW  HW  OW  HW  HW  OW  HW  HW  
OW  HW  HW  OW  HW  HW  OW  HW  HW  OW  HW  HW  OW  HW  HW  OW  HW  HW  OW  HW  
HW  OW  HW  HW  OW  HW  HW  OW  HW  HW  OW  HW  HW  OW  HW  HW  OW  HW  HW  OW  
HW  HW  OW  HW  HW  OW  HW  HW  OW  HW  HW  OW  HW  HW  OW  HW  HW  OW  HW  HW  
OW  HW  HW  OW  HW  HW  OW  HW  HW  OW  HW  HW  OW  HW  HW  OW  HW  HW  OW  HW  
HW  OW  HW  HW  OW  HW  HW  OW  HW  HW  OW  HW  HW  OW  HW  HW  OW  HW  HW  OW  
HW  HW  OW  HW  HW  OW  HW  HW  OW  HW  HW  OW  HW  HW  OW  HW  HW  OW  HW  HW  
OW  HW  HW  OW  HW  HW  OW  HW  HW  OW  HW  HW  OW  HW  HW  OW  HW  HW  OW  HW  
HW  OW  HW  HW  OW  HW  HW  OW  HW  HW  OW  HW  HW  OW  HW  HW  OW  HW  HW  OW  
HW  HW  OW  HW  HW  OW  HW  HW  OW  HW  HW  OW  HW  HW  OW  HW  HW  OW  HW  HW  
OW  HW  HW  OW  HW  HW  OW  HW  HW  OW  HW  HW  OW  HW  HW  OW  HW  HW  OW  HW  
HW  OW  HW  HW  OW  HW  HW  OW  HW  HW  OW  HW  HW  OW  HW  HW  OW  HW  HW  OW  
HW  HW  OW  HW  HW  OW  HW  HW  OW  HW  HW  OW  HW  HW  OW  HW  HW  OW  HW  HW  
OW  HW  HW  OW  HW  HW  OW  HW  HW  OW  HW  HW  OW  HW  HW  OW  HW  HW  OW  HW  
HW  OW  HW  HW  OW  HW  HW  OW  HW  HW  OW  HW  HW  OW  HW  HW  OW  HW  HW  OW  
HW  HW  OW  HW  HW  OW  HW  HW  OW  HW  HW  OW  HW  HW  OW  HW  HW  OW  HW  HW  
OW  HW  HW  OW  HW  HW  OW  HW  HW  OW  HW  HW  OW  HW  HW  OW  HW  HW  OW  HW  
HW  OW  HW  HW  OW  HW  HW  OW  HW  HW  OW  HW  HW  OW  HW  HW  OW  HW  HW  OW  
HW  HW  OW  HW  HW  OW  HW  HW  OW  HW  HW  OW  HW  HW  OW  HW  HW  OW  HW  HW  
OW  HW  HW  OW  HW  HW  OW  HW  HW  OW  HW  HW  OW  HW  HW  OW  HW  HW  OW  HW  
HW  OW  HW  HW  OW  HW  HW  OW  HW  HW  OW  HW  HW  OW  HW  HW  OW  HW  HW  OW  
HW  HW  OW  HW  HW  OW  HW  HW  OW  HW  HW  OW  HW  HW  OW  HW  HW  OW  HW  HW  
OW  HW  HW  OW  HW  HW  OW  HW  HW  OW  HW  HW  OW  HW  HW  OW  HW  HW  OW  HW  
HW  OW  HW  HW  OW  HW  HW  OW  HW  HW  OW  HW  HW  OW  HW  HW  OW  HW  HW  OW  
HW  HW  OW  HW  HW  OW  HW  HW  OW  HW  HW  OW  HW  HW  OW  HW  HW  OW  HW  HW  
OW  HW  HW  OW  HW  HW  OW  HW  HW  OW  HW  HW  OW  HW  HW  OW  HW  HW  OW  HW  
HW  OW  HW  HW  OW  HW  HW  OW  HW  HW  OW  HW  HW  OW  HW  HW  OW  HW  HW  OW  
HW  HW  OW  HW  HW  OW  HW  HW  OW  HW  HW  OW  HW  HW  OW  HW  HW  OW  HW  HW  
OW  HW  HW  OW  HW  HW  OW  HW  HW  OW  HW  HW  OW  HW  HW  OW  HW  HW  OW  HW  
HW  OW  HW  HW  OW  HW  HW  OW  HW  HW  OW  HW  HW  OW  HW  HW  OW  HW  HW  OW  
HW  HW  OW  HW  HW  OW  HW  HW  OW  HW  HW  OW  HW  HW  OW  HW  HW  OW  HW  HW  
OW  HW  HW  OW  HW  HW  OW  HW  HW  OW  HW  HW  OW  HW  HW  OW  HW  HW  OW  HW  
HW  OW  HW  HW  OW  HW  HW  OW  HW  HW  OW  HW  HW  OW  HW  HW  OW  HW  HW  OW  
HW  HW  OW  HW  HW  OW  HW  HW  OW  HW  HW  OW  HW  HW  OW  HW  HW  OW  HW  HW  
OW  HW  HW  OW  HW  HW  OW  HW  HW  OW  HW  HW  OW  HW  HW  OW  HW  HW  OW  HW  
HW  OW  HW  HW  OW  HW  HW  OW  HW  HW  OW  HW  HW  OW  HW  HW  OW  HW  HW  OW  
HW  HW  OW  HW  HW  OW  HW  HW  OW  HW  HW  OW  HW  HW  OW  HW  HW  OW  HW  HW  
OW  HW  HW  OW  HW  HW  OW  HW  HW  OW  HW  HW  OW  HW  HW  OW  HW  HW  OW  HW  
HW  OW  HW  HW  OW  HW  HW  OW  HW  HW  OW  HW  HW  OW  HW  HW  OW  HW  HW  OW  
HW  HW  OW  HW  HW  OW  HW  HW  OW  HW  HW  OW  HW  HW  OW  HW  HW  OW  HW  HW  
OW  HW  HW  OW  HW  HW  OW  HW  HW  OW  HW  HW  OW  HW  HW  OW  HW  HW  OW  HW  
HW  OW  HW  HW  OW  HW  HW  OW  HW  HW  OW  HW  HW  OW  HW  HW  OW  HW  HW  OW  
HW  HW  OW  HW  HW  OW  HW  HW  OW  HW  HW  OW  HW  HW  OW  HW  HW  OW  HW  HW  
OW  HW  HW  OW  HW  HW  OW  HW  HW  OW  HW  HW  OW  HW  HW  OW  HW  HW  OW  HW  
HW  OW  HW  HW  OW  HW  HW  OW  HW  HW  OW  HW  HW  OW  HW  HW  OW  HW  HW  OW  
HW  HW  OW  HW  HW  OW  HW  HW  OW  HW  HW  OW  HW  HW  OW  HW  HW  OW  HW  HW  
OW  HW  HW  OW  HW  HW  OW  HW  HW  OW  HW  HW  OW  HW  HW  OW  HW  HW  OW  HW  
HW  OW  HW  HW  OW  HW  HW  OW  HW  HW  OW  HW  HW  OW  HW  HW  OW  HW  HW  OW  
HW  HW  OW  HW  HW  OW  HW  HW  OW  HW  HW  OW  HW  HW  OW  HW  HW  OW  HW  HW  
OW  HW  HW  OW  HW  HW  OW  HW  HW  OW  HW  HW  OW  HW  HW  OW  HW  HW  OW  HW  
HW  OW  HW  HW  OW  HW  HW  OW  HW  HW  OW  HW  HW  OW  HW  HW  OW  HW  HW  OW  
HW  HW  OW  HW  HW  OW  HW  HW  OW  HW  HW  OW  HW  HW  OW  HW  HW  OW  HW  HW  
OW  HW  HW  OW  HW  HW  OW  HW  HW  OW  HW  HW  OW  HW  HW  OW  HW  HW  OW  HW  
HW  OW  HW  HW  OW  HW  HW  OW  HW  HW  OW  HW  HW  OW  HW  HW  OW  HW  HW  OW  
HW  HW  OW  HW  HW  OW  HW  HW  OW  HW  HW  OW  HW  HW  OW  HW  HW  OW  HW  HW  
OW  HW  HW  OW  HW  HW  OW  HW  HW  OW  HW  HW  OW  HW  HW  OW  HW  HW  OW  HW  
HW  OW  HW  HW  OW  HW  HW  OW  HW  HW  OW  HW  HW  OW  HW  HW  OW  HW  HW  OW  
HW  HW  OW  HW  HW  OW  HW  HW  OW  HW  HW  OW  HW  HW  OW  HW  HW  OW  HW  HW  
OW  HW  HW  OW  HW  HW  OW  HW  HW  OW  HW  HW  OW  HW  HW  OW  HW  HW  OW  HW  
HW  OW  HW  HW  OW  HW  HW  OW  HW  HW  OW  HW  HW  OW  HW  HW  OW  HW  HW  OW  
HW  HW  OW  HW  HW  OW  HW  HW  OW  HW  HW  OW  HW  HW  OW  HW  HW  OW  HW  HW  
OW  HW  HW  OW  HW  HW  OW  HW  HW  OW  HW  HW  OW  HW  HW  OW  HW  HW  OW  HW  
HW  OW  HW  HW  OW  HW  HW  OW  HW  HW  OW  HW  HW  OW  HW  HW  OW  HW  HW  OW  
HW  HW  OW  HW  HW  OW  HW  HW  OW  HW  HW  OW  HW  HW  OW  HW  HW  OW  HW  HW  
OW  HW  HW  OW  HW  HW  OW  HW  HW  OW  HW  HW  OW  HW  HW  OW  HW  HW  OW  HW  
HW  OW  HW  HW  OW  HW  HW  OW  HW  HW  OW  HW  HW  OW  HW  HW  OW  HW  HW  OW  
HW  HW  OW  HW  HW  OW  HW  HW  OW  HW  HW  OW  HW  HW  OW  HW  HW  OW  HW  HW  
OW  HW  HW  OW  HW  HW  OW  HW  HW  OW  HW  HW  OW  HW  HW  OW  HW  HW  OW  HW  
HW  OW  HW  HW  OW  HW  HW  OW  HW  HW  OW  HW  HW  OW  HW  HW  OW  HW  HW  OW  
HW  HW  OW  HW  HW  OW  HW  HW  OW  HW  HW  OW  HW  HW  OW  HW  HW  OW  HW  HW  
OW  HW  HW  OW  HW  HW  OW  HW  HW  OW  HW  HW  OW  HW  HW  OW  HW  HW  OW  HW  
HW  OW  HW  HW  OW  HW  HW  OW  HW  HW  OW  HW  HW  OW  HW  HW  OW  HW  HW  OW  
HW  HW  OW  HW  HW  OW  HW  HW  OW  HW  HW  OW  HW  HW  OW  HW  HW  OW  HW  HW  
OW  HW  HW  OW  HW  HW  OW  HW  HW  OW  HW  HW  OW  HW  HW  OW  HW  HW  OW  HW  
HW  OW  HW  HW  OW  HW  HW  OW  HW  HW  OW  HW  HW  OW  HW  HW  OW  HW  HW  OW  
HW  HW  OW  HW  HW  OW  HW  HW  OW  HW  HW  OW  HW  HW  OW  HW  HW  OW  HW  HW  
OW  HW  HW  OW  HW  HW  OW  HW  HW  OW  HW  HW  OW  HW  HW  OW  HW  HW  OW  HW  
HW  OW  HW  HW  OW  HW  HW  OW  HW  HW  OW  HW  HW  OW  HW  HW  OW  HW  HW  OW  
HW  HW  OW  HW  HW  OW  HW  HW  OW  HW  HW  OW  HW  HW  OW  HW  HW  OW  HW  HW  
OW  HW  HW  OW  HW  HW  OW  HW  HW  OW  HW  HW  OW  HW  HW  OW  HW  HW  OW  HW  
HW  OW  HW  HW  OW  HW  HW  OW  HW  HW  OW  HW  HW  OW  HW  HW  OW  HW  HW  OW  
HW  HW  OW  HW  HW  OW  HW  HW  OW  HW  HW  OW  HW  HW  OW  HW  HW  OW  HW  HW  
OW  HW  HW  OW  HW  HW  OW  HW  HW  OW  HW  HW  OW  HW  HW  OW  HW  HW  OW  HW  
HW  OW  HW  HW  OW  HW  HW  OW  HW  HW  OW  HW  HW  OW  HW  HW  OW  HW  HW  OW  
HW  HW  OW  HW  HW  OW  HW  HW  OW  HW  HW  OW  HW  HW  OW  HW  HW  OW  HW  HW  
OW  HW  HW  OW  HW  HW  OW  HW  HW  OW  HW  HW  OW  HW  HW  OW  HW  HW  OW  HW  
HW  OW  HW  HW  OW  HW  HW  OW  HW  HW  OW  HW  HW  OW  HW  HW  OW  HW  HW  OW  
HW  HW  OW  HW  HW  OW  HW  HW  OW  HW  HW  OW  HW  HW  OW  HW  HW  OW  HW  HW  
OW  HW  HW  OW  HW  HW  OW  HW  HW  OW  HW  HW  OW  HW  HW  OW  HW  HW  OW  HW  
HW  OW  HW  HW  OW  HW  HW  OW  HW  HW  OW  HW  HW  OW  HW  HW  OW  HW  HW  OW  
HW  HW  OW  HW  HW  OW  HW  HW  OW  HW  HW  OW  HW  HW  OW  HW  HW  OW  HW  HW  
OW  HW  HW  OW  HW  HW  OW  HW  HW  OW  HW  HW  OW  HW  HW  OW  HW  HW  OW  HW  
HW  OW  HW  HW  OW  HW  HW  OW  HW  HW  OW  HW  HW  OW  HW  HW  OW  HW  HW  OW  
HW  HW  OW  HW  HW  OW  HW  HW  OW  HW  HW  OW  HW  HW  OW  HW  HW  OW  HW  HW  
OW  HW  HW  OW  HW  HW  OW  HW  HW  OW  HW  HW  OW  HW  HW  OW  HW  HW  OW  HW  
HW  OW  HW  HW  OW  HW  HW  OW  HW  HW  OW  HW  HW  OW  HW  HW  OW  HW  HW  OW  
HW  HW  OW  HW  HW  OW  HW  HW  OW  HW  HW  OW  HW  HW  OW  HW  HW  OW  HW  HW  
OW  HW  HW  OW  HW  HW  OW  HW  HW  OW  HW  HW  OW  HW  HW  OW  HW  HW  OW  HW  
HW  OW  HW  HW  OW  HW  HW  OW  HW  HW  OW  HW  HW  OW  HW  HW  OW  HW  HW  OW  
HW  HW  OW  HW  HW  OW  HW  HW  OW  HW  HW  OW  HW  HW  OW  HW  HW  OW  HW  HW  
OW  HW  HW  OW  HW  HW  OW  HW  HW  OW  HW  HW  OW  HW  HW  OW  HW  HW  OW  HW  
HW  OW  HW  HW  OW  HW  HW  OW  HW  HW  OW  HW  HW  OW  HW  HW  OW  HW  HW  OW  
HW  HW  OW  HW  HW  OW  HW  HW  OW  HW  HW  OW  HW  HW  OW  HW  HW  OW  HW  HW  
OW  HW  HW  OW  HW  HW  OW  HW  HW  OW  HW  HW  OW  HW  HW  OW  HW  HW  OW  HW  
HW  OW  HW  HW  OW  HW  HW  OW  HW  HW  OW  HW  HW  OW  HW  HW  OW  HW  HW  OW  
HW  HW  OW  HW  HW  OW  HW  HW  OW  HW  HW  OW  HW  HW  OW  HW  HW  OW  HW  HW  
OW  HW  HW  OW  HW  HW  OW  HW  HW  OW  HW  HW  OW  HW  HW  OW  HW  HW  OW  HW  
HW  OW  HW  HW  OW  HW  HW  OW  HW  HW  OW  HW  HW  OW  HW  HW  OW  HW  HW  OW  
HW  HW  OW  HW  HW  OW  HW  HW  OW  HW  HW  OW  HW  HW  OW  HW  HW  OW  HW  HW  
OW  HW  HW  OW  HW  HW  OW  HW  HW  OW  HW  HW  OW  HW  HW  OW  HW  HW  OW  HW  
HW  OW  HW  HW  OW  HW  HW  OW  HW  HW  OW  HW  HW  OW  HW  HW  OW  HW  HW  OW  
HW  HW  OW  HW  HW  OW  HW  HW  OW  HW  HW  OW  HW  HW  OW  HW  HW  OW  HW  HW  
OW  HW  HW  OW  HW  HW  OW  HW  HW  OW  HW  HW  OW  HW  HW  OW  HW  HW  OW  HW  
HW  OW  HW  HW  OW  HW  HW  OW  HW  HW  OW  HW  HW  OW  HW  HW  OW  HW  HW  OW  
HW  HW  OW  HW  HW  OW  HW  HW  OW  HW  HW  OW  HW  HW  OW  HW  HW  OW  HW  HW  
OW  HW  HW  OW  HW  HW  OW  HW  HW  OW  HW  HW  OW  HW  HW  OW  HW  HW  OW  HW  
HW  OW  HW  HW  OW  HW  HW  OW  HW  HW  OW  HW  HW  OW  HW  HW  OW  HW  HW  OW  
HW  HW  OW  HW  HW  OW  HW  HW  OW  HW  HW  OW  HW  HW  OW  HW  HW  OW  HW  HW  
OW  HW  HW  OW  HW  HW  OW  HW  HW  OW  HW  HW  OW  HW  HW  OW  HW  HW  OW  HW  
HW  OW  HW  HW  OW  HW  HW  OW  HW  HW  OW  HW  HW  OW  HW  HW  OW  HW  HW  OW  
HW  HW  OW  HW  HW  OW  HW  HW  OW  HW  HW  OW  HW  HW  OW  HW  HW  OW  HW  HW  
OW  HW  HW  OW  HW  HW  OW  HW  HW  OW  HW  HW  OW  HW  HW  OW  HW  HW  OW  HW  
HW  OW  HW  HW  OW  HW  HW  OW  HW  HW  OW  HW  HW  OW  HW  HW  OW  HW  HW  OW  
HW  HW  OW  HW  HW  OW  HW  HW  OW  HW  HW  OW  HW  HW  OW  HW  HW  OW  HW  HW  
OW  HW  HW  OW  HW  HW  OW  HW  HW  OW  HW  HW  OW  HW  HW  OW  HW  HW  OW  HW  
HW  OW  HW  HW  OW  HW  HW  OW  HW  HW  
%FLAG TREE_CHAIN_CLASSIFICATION                                                 
%FORMAT(20a4)                                                                   
BLA BLA BLA BLA BLA BLA BLA BLA BLA BLA BLA BLA BLA BLA BLA BLA BLA BLA BLA BLA 
BLA BLA BLA BLA BLA BLA BLA BLA BLA BLA BLA BLA BLA BLA BLA BLA BLA BLA BLA BLA 
BLA BLA BLA BLA BLA BLA BLA BLA BLA BLA BLA BLA BLA BLA BLA BLA BLA BLA BLA BLA 
BLA BLA BLA BLA BLA BLA BLA BLA BLA BLA BLA BLA BLA BLA BLA BLA BLA BLA BLA BLA 
BLA BLA BLA BLA BLA BLA BLA BLA BLA BLA BLA BLA BLA BLA BLA BLA BLA BLA BLA BLA 
BLA BLA BLA BLA BLA BLA BLA BLA BLA BLA BLA BLA BLA BLA BLA BLA BLA BLA BLA BLA 
BLA BLA BLA BLA BLA BLA BLA BLA BLA BLA BLA BLA BLA BLA BLA BLA BLA BLA BLA BLA 
BLA BLA BLA BLA BLA BLA BLA BLA BLA BLA BLA BLA BLA BLA BLA BLA BLA BLA BLA BLA 
BLA BLA BLA BLA BLA BLA BLA BLA BLA BLA BLA BLA BLA BLA BLA BLA BLA BLA BLA BLA 
BLA BLA BLA BLA BLA BLA BLA BLA BLA BLA BLA BLA BLA BLA BLA BLA BLA BLA BLA BLA 
BLA BLA BLA BLA BLA BLA BLA BLA BLA BLA BLA BLA BLA BLA BLA BLA BLA BLA BLA BLA 
BLA BLA BLA BLA BLA BLA BLA BLA BLA BLA BLA BLA BLA BLA BLA BLA BLA BLA BLA BLA 
BLA BLA BLA BLA BLA BLA BLA BLA BLA BLA BLA BLA BLA BLA BLA BLA BLA BLA BLA BLA 
BLA BLA BLA BLA BLA BLA BLA BLA BLA BLA BLA BLA BLA BLA BLA BLA BLA BLA BLA BLA 
BLA BLA BLA BLA BLA BLA BLA BLA BLA BLA BLA BLA BLA BLA BLA BLA BLA BLA BLA BLA 
BLA BLA BLA BLA BLA BLA BLA BLA BLA BLA BLA BLA BLA BLA BLA BLA BLA BLA BLA BLA 
BLA BLA BLA BLA BLA BLA BLA BLA BLA BLA BLA BLA BLA BLA BLA BLA BLA BLA BLA BLA 
BLA BLA BLA BLA BLA BLA BLA BLA BLA BLA BLA BLA BLA BLA BLA BLA BLA BLA BLA BLA 
BLA BLA BLA BLA BLA BLA BLA BLA BLA BLA BLA BLA BLA BLA BLA BLA BLA BLA BLA BLA 
BLA BLA BLA BLA BLA BLA BLA BLA BLA BLA BLA BLA BLA BLA BLA BLA BLA BLA BLA BLA 
BLA BLA BLA BLA BLA BLA BLA BLA BLA BLA BLA BLA BLA BLA BLA BLA BLA BLA BLA BLA 
BLA BLA BLA BLA BLA BLA BLA BLA BLA BLA BLA BLA BLA BLA BLA BLA BLA BLA BLA BLA 
BLA BLA BLA BLA BLA BLA BLA BLA BLA BLA BLA BLA BLA BLA BLA BLA BLA BLA BLA BLA 
BLA BLA BLA BLA BLA BLA BLA BLA BLA BLA BLA BLA BLA BLA BLA BLA BLA BLA BLA BLA 
BLA BLA BLA BLA BLA BLA BLA BLA BLA BLA BLA BLA BLA BLA BLA BLA BLA BLA BLA BLA 
BLA BLA BLA BLA BLA BLA BLA BLA BLA BLA BLA BLA BLA BLA BLA BLA BLA BLA BLA BLA 
BLA BLA BLA BLA BLA BLA BLA BLA BLA BLA BLA BLA BLA BLA BLA BLA BLA BLA BLA BLA 
BLA BLA BLA BLA BLA BLA BLA BLA BLA BLA BLA BLA BLA BLA BLA BLA BLA BLA BLA BLA 
BLA BLA BLA BLA BLA BLA BLA BLA BLA BLA BLA BLA BLA BLA BLA BLA BLA BLA BLA BLA 
BLA BLA BLA BLA BLA BLA BLA BLA BLA BLA BLA BLA BLA BLA BLA BLA BLA BLA BLA BLA 
BLA BLA BLA BLA BLA BLA BLA BLA BLA BLA BLA BLA BLA BLA BLA BLA BLA BLA BLA BLA 
BLA BLA BLA BLA BLA BLA BLA BLA BLA BLA BLA BLA BLA BLA BLA BLA BLA BLA BLA BLA 
BLA BLA BLA BLA BLA BLA BLA BLA BLA BLA BLA BLA BLA BLA BLA BLA BLA BLA BLA BLA 
BLA BLA BLA BLA BLA BLA BLA BLA BLA BLA BLA BLA BLA BLA BLA BLA BLA BLA BLA BLA 
BLA BLA BLA BLA BLA BLA BLA BLA BLA BLA BLA BLA BLA BLA BLA BLA BLA BLA BLA BLA 
BLA BLA BLA BLA BLA BLA BLA BLA BLA BLA BLA BLA BLA BLA BLA BLA BLA BLA BLA BLA 
BLA BLA BLA BLA BLA BLA BLA BLA BLA BLA BLA BLA BLA BLA BLA BLA BLA BLA BLA BLA 
BLA BLA BLA BLA BLA BLA BLA BLA BLA BLA BLA BLA BLA BLA BLA BLA BLA BLA BLA BLA 
BLA BLA BLA BLA BLA BLA BLA BLA BLA BLA BLA BLA BLA BLA BLA BLA BLA BLA BLA BLA 
BLA BLA BLA BLA BLA BLA BLA BLA BLA BLA BLA BLA BLA BLA BLA BLA BLA BLA BLA BLA 
BLA BLA BLA BLA BLA BLA BLA BLA BLA BLA BLA BLA BLA BLA BLA BLA BLA BLA BLA BLA 
BLA BLA BLA BLA BLA BLA BLA BLA BLA BLA BLA BLA BLA BLA BLA BLA BLA BLA BLA BLA 
BLA BLA BLA BLA BLA BLA BLA BLA BLA BLA BLA BLA BLA BLA BLA BLA BLA BLA BLA BLA 
BLA BLA BLA BLA BLA BLA BLA BLA BLA BLA BLA BLA BLA BLA BLA BLA BLA BLA BLA BLA 
BLA BLA BLA BLA BLA BLA BLA BLA BLA BLA BLA BLA BLA BLA BLA BLA BLA BLA BLA BLA 
BLA BLA BLA BLA BLA BLA BLA BLA BLA BLA BLA BLA BLA BLA BLA BLA BLA BLA BLA BLA 
BLA BLA BLA BLA BLA BLA BLA BLA BLA BLA BLA BLA BLA BLA BLA BLA BLA BLA BLA BLA 
BLA BLA BLA BLA BLA BLA BLA BLA BLA BLA BLA BLA BLA BLA BLA BLA BLA BLA BLA BLA 
BLA BLA BLA BLA BLA BLA BLA BLA BLA BLA BLA BLA BLA BLA BLA BLA BLA BLA BLA BLA 
BLA BLA BLA BLA BLA BLA BLA BLA BLA BLA BLA BLA BLA BLA BLA BLA BLA BLA BLA BLA 
BLA BLA BLA BLA BLA BLA BLA BLA BLA BLA BLA BLA BLA BLA BLA BLA BLA BLA BLA BLA 
BLA BLA BLA BLA BLA BLA BLA BLA BLA BLA BLA BLA BLA BLA BLA BLA BLA BLA BLA BLA 
BLA BLA BLA BLA BLA BLA BLA BLA BLA BLA BLA BLA BLA BLA BLA BLA BLA BLA BLA BLA 
BLA BLA BLA BLA BLA BLA BLA BLA BLA BLA BLA BLA BLA BLA BLA BLA BLA BLA BLA BLA 
BLA BLA BLA BLA BLA BLA BLA BLA BLA BLA BLA BLA BLA BLA BLA BLA BLA BLA BLA BLA 
BLA BLA BLA BLA BLA BLA BLA BLA BLA BLA BLA BLA BLA BLA BLA BLA BLA BLA BLA BLA 
BLA BLA BLA BLA BLA BLA BLA BLA BLA BLA BLA BLA BLA BLA BLA BLA BLA BLA BLA BLA 
BLA BLA BLA BLA BLA BLA BLA BLA BLA BLA BLA BLA BLA BLA BLA BLA BLA BLA BLA BLA 
BLA BLA BLA BLA BLA BLA BLA BLA BLA BLA BLA BLA BLA BLA BLA BLA BLA BLA BLA BLA 
BLA BLA BLA BLA BLA BLA BLA BLA BLA BLA BLA BLA BLA BLA BLA BLA BLA BLA BLA BLA 
BLA BLA BLA BLA BLA BLA BLA BLA BLA BLA BLA BLA BLA BLA BLA BLA BLA BLA BLA BLA 
BLA BLA BLA BLA BLA BLA BLA BLA BLA BLA BLA BLA BLA BLA BLA BLA BLA BLA BLA BLA 
BLA BLA BLA BLA BLA BLA BLA BLA BLA BLA BLA BLA BLA BLA BLA BLA BLA BLA BLA BLA 
BLA BLA BLA BLA BLA BLA BLA BLA BLA BLA BLA BLA BLA BLA BLA BLA BLA BLA BLA BLA 
BLA BLA BLA BLA BLA BLA BLA BLA BLA BLA BLA BLA BLA BLA BLA BLA BLA BLA BLA BLA 
BLA BLA BLA BLA BLA BLA BLA BLA BLA BLA BLA BLA BLA BLA BLA BLA BLA BLA BLA BLA 
BLA BLA BLA BLA BLA BLA BLA BLA BLA BLA BLA BLA BLA BLA BLA BLA BLA BLA BLA BLA 
BLA BLA BLA BLA BLA BLA BLA BLA BLA BLA BLA BLA BLA BLA BLA BLA BLA BLA BLA BLA 
BLA BLA BLA BLA BLA BLA BLA BLA BLA BLA BLA BLA BLA BLA BLA BLA BLA BLA BLA BLA 
BLA BLA BLA BLA BLA BLA BLA BLA BLA BLA BLA BLA BLA BLA BLA BLA BLA BLA BLA BLA 
BLA BLA BLA BLA BLA BLA BLA BLA BLA BLA BLA BLA BLA BLA BLA BLA BLA BLA BLA BLA 
BLA BLA BLA BLA BLA BLA BLA BLA BLA BLA BLA BLA BLA BLA BLA BLA BLA BLA BLA BLA 
BLA BLA BLA BLA BLA BLA BLA BLA BLA BLA BLA BLA BLA BLA BLA BLA BLA BLA BLA BLA 
BLA BLA BLA BLA BLA BLA BLA BLA BLA BLA BLA BLA BLA BLA BLA BLA BLA BLA BLA BLA 
BLA BLA BLA BLA BLA BLA BLA BLA BLA BLA BLA BLA BLA BLA BLA BLA BLA BLA BLA BLA 
BLA BLA BLA BLA BLA BLA BLA BLA BLA BLA BLA BLA BLA BLA BLA BLA BLA BLA BLA BLA 
BLA BLA BLA BLA BLA BLA BLA BLA BLA BLA BLA BLA BLA BLA BLA BLA BLA BLA BLA BLA 
BLA BLA BLA BLA BLA BLA BLA BLA BLA BLA BLA BLA BLA BLA BLA BLA BLA BLA BLA BLA 
BLA BLA BLA BLA BLA BLA BLA BLA BLA BLA BLA BLA BLA BLA BLA BLA BLA BLA BLA BLA 
BLA BLA BLA BLA BLA BLA BLA BLA BLA BLA BLA BLA BLA BLA BLA BLA BLA BLA BLA BLA 
BLA BLA BLA BLA BLA BLA BLA BLA BLA BLA BLA BLA BLA BLA BLA BLA BLA BLA BLA BLA 
BLA BLA BLA BLA BLA BLA BLA BLA BLA BLA BLA BLA BLA BLA BLA BLA BLA BLA BLA BLA 
BLA BLA BLA BLA M   M   M   M   M   M   M   M   M   M   M   M   M   M   M   M   
M   M   M   M   M   M   M   M   M   M   M   M   M   M   M   M   M   M   M   M   
M   M   M   M   M   M   M   M   M   M   M   M   BLA BLA BLA BLA BLA BLA BLA BLA 
BLA BLA BLA BLA BLA BLA BLA BLA BLA BLA BLA BLA BLA BLA BLA BLA BLA BLA BLA BLA 
BLA BLA BLA BLA BLA BLA BLA BLA BLA BLA BLA BLA BLA BLA BLA BLA BLA BLA BLA BLA 
BLA BLA BLA BLA BLA BLA BLA BLA BLA BLA BLA BLA BLA BLA BLA BLA BLA BLA BLA BLA 
BLA BLA BLA BLA BLA BLA BLA BLA BLA BLA BLA BLA BLA BLA BLA BLA BLA BLA BLA BLA 
BLA BLA BLA BLA BLA BLA BLA BLA BLA BLA BLA BLA BLA BLA BLA BLA BLA BLA BLA BLA 
BLA BLA BLA BLA BLA BLA BLA BLA BLA BLA BLA BLA BLA BLA BLA BLA BLA BLA BLA BLA 
BLA BLA BLA BLA BLA BLA BLA BLA BLA BLA BLA BLA BLA BLA BLA BLA BLA BLA BLA BLA 
BLA BLA BLA BLA BLA BLA BLA BLA BLA BLA BLA BLA BLA BLA BLA BLA BLA BLA BLA BLA 
BLA BLA BLA BLA BLA BLA BLA BLA BLA BLA BLA BLA BLA BLA BLA BLA BLA BLA BLA BLA 
BLA BLA BLA BLA BLA BLA BLA BLA BLA BLA BLA BLA BLA BLA BLA BLA BLA BLA BLA BLA 
BLA BLA BLA BLA BLA BLA BLA BLA BLA BLA BLA BLA BLA BLA BLA BLA BLA BLA BLA BLA 
BLA BLA BLA BLA BLA BLA BLA BLA BLA BLA BLA BLA BLA BLA BLA BLA BLA BLA BLA BLA 
BLA BLA BLA BLA BLA BLA BLA BLA BLA BLA BLA BLA BLA BLA BLA BLA BLA BLA BLA BLA 
BLA BLA BLA BLA BLA BLA BLA BLA BLA BLA BLA BLA BLA BLA BLA BLA BLA BLA BLA BLA 
BLA BLA BLA BLA BLA BLA BLA BLA BLA BLA BLA BLA BLA BLA BLA BLA BLA BLA BLA BLA 
BLA BLA BLA BLA BLA BLA BLA BLA BLA BLA BLA BLA BLA BLA BLA BLA BLA BLA BLA BLA 
BLA BLA BLA BLA BLA BLA BLA BLA BLA BLA BLA BLA BLA BLA BLA BLA BLA BLA BLA BLA 
BLA BLA BLA BLA BLA BLA BLA BLA BLA BLA BLA BLA BLA BLA BLA BLA BLA BLA BLA BLA 
BLA BLA BLA BLA BLA BLA BLA BLA BLA BLA BLA BLA BLA BLA BLA BLA BLA BLA BLA BLA 
BLA BLA BLA BLA BLA BLA BLA BLA BLA BLA BLA BLA BLA BLA BLA BLA BLA BLA BLA BLA 
BLA BLA BLA BLA BLA BLA BLA BLA BLA BLA BLA BLA BLA BLA BLA BLA BLA BLA BLA BLA 
BLA BLA BLA BLA BLA BLA BLA BLA BLA BLA BLA BLA BLA BLA BLA BLA BLA BLA BLA BLA 
BLA BLA BLA BLA BLA BLA BLA BLA BLA BLA BLA BLA BLA BLA BLA BLA BLA BLA BLA BLA 
BLA BLA BLA BLA BLA BLA BLA BLA BLA BLA BLA BLA BLA BLA BLA BLA BLA BLA BLA BLA 
BLA BLA BLA BLA BLA BLA BLA BLA BLA BLA BLA BLA BLA BLA BLA BLA BLA BLA BLA BLA 
BLA BLA BLA BLA BLA BLA BLA BLA BLA BLA BLA BLA BLA BLA BLA BLA BLA BLA BLA BLA 
BLA BLA BLA BLA BLA BLA BLA BLA BLA BLA BLA BLA BLA BLA BLA BLA BLA BLA BLA BLA 
BLA BLA BLA BLA BLA BLA BLA BLA BLA BLA BLA BLA BLA BLA BLA BLA BLA BLA BLA BLA 
BLA BLA BLA BLA BLA BLA BLA BLA BLA BLA BLA BLA BLA BLA BLA BLA BLA BLA BLA BLA 
BLA BLA BLA BLA BLA BLA BLA BLA BLA BLA BLA BLA BLA BLA BLA BLA BLA BLA BLA BLA 
BLA BLA BLA BLA BLA BLA BLA BLA BLA BLA BLA BLA BLA BLA BLA BLA BLA BLA BLA BLA 
BLA BLA BLA BLA BLA BLA BLA BLA BLA BLA BLA BLA BLA BLA BLA BLA BLA BLA BLA BLA 
BLA BLA BLA BLA BLA BLA BLA BLA BLA BLA BLA BLA BLA BLA BLA BLA BLA BLA BLA BLA 
BLA BLA BLA BLA BLA BLA BLA BLA BLA BLA BLA BLA BLA BLA BLA BLA BLA BLA BLA BLA 
BLA BLA BLA BLA BLA BLA BLA BLA BLA BLA BLA BLA BLA BLA BLA BLA BLA BLA BLA BLA 
BLA BLA BLA BLA BLA BLA BLA BLA BLA BLA BLA BLA BLA BLA BLA BLA BLA BLA BLA BLA 
BLA BLA BLA BLA BLA BLA BLA BLA BLA BLA BLA BLA BLA BLA BLA BLA BLA BLA BLA BLA 
BLA BLA BLA BLA BLA BLA BLA BLA BLA BLA BLA BLA BLA BLA BLA BLA BLA BLA BLA BLA 
BLA BLA BLA BLA BLA BLA BLA BLA BLA BLA BLA BLA BLA BLA BLA BLA BLA BLA BLA BLA 
BLA BLA BLA BLA BLA BLA BLA BLA BLA BLA BLA BLA BLA BLA BLA BLA BLA BLA BLA BLA 
BLA BLA BLA BLA BLA BLA BLA BLA BLA BLA BLA BLA BLA BLA BLA BLA BLA BLA BLA BLA 
BLA BLA BLA BLA BLA BLA BLA BLA BLA BLA BLA BLA BLA BLA BLA BLA BLA BLA BLA BLA 
BLA BLA BLA BLA BLA BLA BLA BLA BLA BLA BLA BLA BLA BLA BLA BLA BLA BLA BLA BLA 
BLA BLA BLA BLA BLA BLA BLA BLA BLA BLA BLA BLA BLA BLA BLA BLA BLA BLA BLA BLA 
BLA BLA BLA BLA BLA BLA BLA BLA BLA BLA BLA BLA BLA BLA BLA BLA BLA BLA BLA BLA 
BLA BLA BLA BLA BLA BLA BLA BLA BLA BLA BLA BLA BLA BLA BLA BLA BLA BLA BLA BLA 
BLA BLA BLA BLA BLA BLA BLA BLA BLA BLA BLA BLA BLA BLA BLA BLA BLA BLA BLA BLA 
BLA BLA BLA BLA BLA BLA BLA BLA BLA BLA BLA BLA BLA BLA BLA BLA BLA BLA BLA BLA 
BLA BLA BLA BLA BLA BLA BLA BLA BLA BLA BLA BLA BLA BLA BLA BLA BLA BLA BLA BLA 
BLA BLA BLA BLA BLA BLA BLA BLA BLA BLA BLA BLA BLA BLA BLA BLA BLA BLA BLA BLA 
BLA BLA BLA BLA BLA BLA BLA BLA BLA BLA BLA BLA BLA BLA BLA BLA BLA BLA BLA BLA 
BLA BLA BLA BLA BLA BLA BLA BLA BLA BLA BLA BLA BLA BLA BLA BLA BLA BLA BLA BLA 
BLA BLA BLA BLA BLA BLA BLA BLA BLA BLA BLA BLA BLA BLA BLA BLA BLA BLA BLA BLA 
BLA BLA BLA BLA BLA BLA BLA BLA BLA BLA BLA BLA BLA BLA BLA BLA BLA BLA BLA BLA 
BLA BLA BLA BLA BLA BLA BLA BLA BLA BLA BLA BLA BLA BLA BLA BLA BLA BLA BLA BLA 
BLA BLA BLA BLA BLA BLA BLA BLA BLA BLA BLA BLA BLA BLA BLA BLA BLA BLA BLA BLA 
BLA BLA BLA BLA BLA BLA BLA BLA BLA BLA BLA BLA BLA BLA BLA BLA BLA BLA BLA BLA 
BLA BLA BLA BLA BLA BLA BLA BLA BLA BLA BLA BLA BLA BLA BLA BLA BLA BLA BLA BLA 
BLA BLA BLA BLA BLA BLA BLA BLA BLA BLA BLA BLA BLA BLA BLA BLA BLA BLA BLA BLA 
BLA BLA BLA BLA BLA BLA BLA BLA BLA BLA BLA BLA BLA BLA BLA BLA BLA BLA BLA BLA 
BLA BLA BLA BLA BLA BLA BLA BLA BLA BLA BLA BLA BLA BLA BLA BLA BLA BLA BLA BLA 
BLA BLA BLA BLA BLA BLA BLA BLA BLA BLA BLA BLA BLA BLA BLA BLA BLA BLA BLA BLA 
BLA BLA BLA BLA BLA BLA BLA BLA BLA BLA BLA BLA BLA BLA BLA BLA BLA BLA BLA BLA 
BLA BLA BLA BLA BLA BLA BLA BLA BLA BLA BLA BLA BLA BLA BLA BLA BLA BLA BLA BLA 
BLA BLA BLA BLA BLA BLA BLA BLA BLA BLA BLA BLA BLA BLA BLA BLA BLA BLA BLA BLA 
BLA BLA BLA BLA BLA BLA BLA BLA BLA BLA BLA BLA BLA BLA BLA BLA BLA BLA BLA BLA 
BLA BLA BLA BLA BLA BLA BLA BLA BLA BLA BLA BLA BLA BLA BLA BLA BLA BLA BLA BLA 
BLA BLA BLA BLA BLA BLA BLA BLA BLA BLA BLA BLA BLA BLA BLA BLA BLA BLA BLA BLA 
BLA BLA BLA BLA BLA BLA BLA BLA BLA BLA BLA BLA BLA BLA BLA BLA BLA BLA BLA BLA 
BLA BLA BLA BLA BLA BLA BLA BLA BLA BLA BLA BLA BLA BLA BLA BLA BLA BLA BLA BLA 
BLA BLA BLA BLA BLA BLA BLA BLA BLA BLA BLA BLA BLA BLA BLA BLA BLA BLA BLA BLA 
BLA BLA BLA BLA BLA BLA BLA BLA BLA BLA BLA BLA BLA BLA BLA BLA BLA BLA BLA BLA 
BLA BLA BLA BLA BLA BLA BLA BLA BLA BLA BLA BLA BLA BLA BLA BLA BLA BLA BLA BLA 
BLA BLA BLA BLA BLA BLA BLA BLA BLA BLA BLA BLA BLA BLA BLA BLA BLA BLA BLA BLA 
BLA BLA BLA BLA BLA BLA BLA BLA BLA BLA BLA BLA BLA BLA BLA BLA BLA BLA BLA BLA 
BLA BLA BLA BLA BLA BLA BLA BLA BLA BLA BLA BLA BLA BLA BLA BLA BLA BLA BLA BLA 
BLA BLA BLA BLA BLA BLA BLA BLA BLA BLA BLA BLA BLA BLA BLA BLA BLA BLA BLA BLA 
BLA BLA BLA BLA BLA BLA BLA BLA BLA BLA BLA BLA BLA BLA BLA BLA BLA BLA BLA BLA 
BLA BLA BLA BLA BLA BLA BLA BLA BLA BLA BLA BLA BLA BLA BLA BLA BLA BLA BLA BLA 
BLA BLA BLA BLA BLA BLA BLA BLA BLA BLA BLA BLA BLA BLA BLA BLA BLA BLA BLA BLA 
BLA BLA BLA BLA BLA BLA BLA BLA BLA BLA BLA BLA BLA BLA BLA BLA BLA BLA BLA BLA 
BLA BLA BLA BLA BLA BLA BLA BLA BLA BLA BLA BLA BLA BLA BLA BLA BLA BLA BLA BLA 
BLA BLA BLA BLA BLA BLA BLA BLA BLA BLA BLA BLA BLA BLA BLA BLA BLA BLA BLA BLA 
BLA BLA BLA BLA BLA BLA BLA BLA BLA BLA BLA BLA BLA BLA BLA BLA BLA BLA BLA BLA 
BLA BLA BLA BLA BLA BLA BLA BLA BLA BLA BLA BLA BLA BLA BLA BLA BLA BLA BLA BLA 
BLA BLA BLA BLA BLA BLA BLA BLA BLA BLA BLA BLA BLA BLA BLA BLA BLA BLA BLA BLA 
BLA BLA BLA BLA BLA BLA BLA BLA BLA BLA BLA BLA BLA BLA BLA BLA BLA BLA BLA BLA 
BLA BLA BLA BLA BLA BLA BLA BLA BLA BLA BLA BLA BLA BLA BLA BLA BLA BLA BLA BLA 
BLA BLA BLA BLA BLA BLA BLA BLA BLA BLA BLA BLA BLA BLA BLA BLA BLA BLA BLA BLA 
BLA BLA BLA BLA BLA BLA BLA BLA BLA BLA BLA BLA BLA BLA BLA BLA BLA BLA BLA BLA 
BLA BLA BLA BLA BLA BLA BLA BLA BLA BLA BLA BLA BLA BLA BLA BLA BLA BLA BLA BLA 
BLA BLA BLA BLA BLA BLA BLA BLA BLA BLA BLA BLA BLA BLA BLA BLA BLA BLA BLA BLA 
BLA BLA BLA BLA BLA BLA BLA BLA BLA BLA BLA BLA BLA BLA BLA BLA BLA BLA BLA BLA 
BLA BLA BLA BLA BLA BLA BLA BLA BLA BLA BLA BLA BLA BLA BLA BLA BLA BLA BLA BLA 
BLA BLA BLA BLA BLA BLA BLA BLA BLA BLA BLA BLA BLA BLA BLA BLA BLA BLA BLA BLA 
BLA BLA BLA BLA BLA BLA BLA BLA BLA BLA BLA BLA BLA BLA BLA BLA BLA BLA BLA BLA 
BLA BLA BLA BLA BLA BLA BLA BLA BLA BLA BLA BLA BLA BLA BLA BLA BLA BLA BLA BLA 
BLA BLA BLA BLA BLA BLA BLA BLA BLA BLA BLA BLA BLA BLA BLA BLA BLA BLA BLA BLA 
BLA BLA BLA BLA BLA BLA BLA BLA BLA BLA BLA BLA BLA BLA BLA BLA BLA BLA BLA BLA 
BLA BLA BLA BLA BLA BLA BLA BLA BLA BLA BLA BLA BLA BLA BLA BLA BLA BLA BLA BLA 
BLA BLA BLA BLA BLA BLA BLA BLA BLA BLA BLA BLA BLA BLA BLA BLA BLA BLA BLA BLA 
BLA BLA BLA BLA BLA BLA BLA BLA BLA BLA BLA BLA BLA BLA BLA BLA BLA BLA BLA BLA 
BLA BLA BLA BLA BLA BLA BLA BLA BLA BLA BLA BLA BLA BLA BLA BLA BLA BLA BLA BLA 
BLA BLA BLA BLA BLA BLA BLA BLA BLA BLA BLA BLA BLA BLA BLA BLA BLA BLA BLA BLA 
BLA BLA BLA BLA BLA BLA BLA BLA BLA BLA BLA BLA BLA BLA BLA BLA BLA BLA BLA BLA 
BLA BLA BLA BLA BLA BLA BLA BLA BLA BLA BLA BLA BLA BLA BLA BLA BLA BLA BLA BLA 
BLA BLA BLA BLA BLA BLA BLA BLA BLA BLA BLA BLA BLA BLA BLA BLA BLA BLA BLA BLA 
BLA BLA BLA BLA BLA BLA BLA BLA BLA BLA BLA BLA BLA BLA BLA BLA BLA BLA BLA BLA 
BLA BLA BLA BLA BLA BLA BLA BLA BLA BLA BLA BLA BLA BLA BLA BLA BLA BLA BLA BLA 
BLA BLA BLA BLA BLA BLA BLA BLA BLA BLA BLA BLA BLA BLA BLA BLA BLA BLA BLA BLA 
BLA BLA BLA BLA BLA BLA BLA BLA BLA BLA BLA BLA BLA BLA BLA BLA BLA BLA BLA BLA 
BLA BLA BLA BLA BLA BLA BLA BLA BLA BLA BLA BLA BLA BLA BLA BLA BLA BLA BLA BLA 
BLA BLA BLA BLA BLA BLA BLA BLA BLA BLA BLA BLA BLA BLA BLA BLA BLA BLA BLA BLA 
BLA BLA BLA BLA BLA BLA BLA BLA BLA BLA BLA BLA BLA BLA BLA BLA BLA BLA BLA BLA 
BLA BLA BLA BLA BLA BLA BLA BLA BLA BLA BLA BLA BLA BLA BLA BLA BLA BLA BLA BLA 
BLA BLA BLA BLA BLA BLA BLA BLA BLA BLA BLA BLA BLA BLA BLA BLA BLA BLA BLA BLA 
BLA BLA BLA BLA BLA BLA BLA BLA BLA BLA BLA BLA BLA BLA BLA BLA BLA BLA BLA BLA 
BLA BLA BLA BLA BLA BLA BLA BLA BLA BLA BLA BLA BLA BLA BLA BLA BLA BLA BLA BLA 
BLA BLA BLA BLA BLA BLA BLA BLA BLA BLA BLA BLA BLA BLA BLA BLA BLA BLA BLA BLA 
BLA BLA BLA BLA BLA BLA BLA BLA BLA BLA BLA BLA BLA BLA BLA BLA BLA BLA BLA BLA 
BLA BLA BLA BLA BLA BLA BLA BLA BLA BLA BLA BLA BLA BLA BLA BLA BLA BLA BLA BLA 
BLA BLA BLA BLA BLA BLA BLA BLA BLA BLA BLA BLA BLA BLA BLA BLA BLA BLA BLA BLA 
BLA BLA BLA BLA BLA BLA BLA BLA BLA BLA BLA BLA BLA BLA BLA BLA BLA BLA BLA BLA 
BLA BLA BLA BLA BLA BLA BLA BLA BLA BLA BLA BLA BLA BLA BLA BLA BLA BLA BLA BLA 
BLA BLA BLA BLA BLA BLA BLA BLA BLA BLA BLA BLA BLA BLA BLA BLA BLA BLA BLA BLA 
BLA BLA BLA BLA BLA BLA BLA BLA BLA BLA BLA BLA BLA BLA BLA BLA BLA BLA BLA BLA 
BLA BLA BLA BLA BLA BLA BLA BLA BLA BLA BLA BLA BLA BLA BLA BLA BLA BLA BLA BLA 
BLA BLA BLA BLA BLA BLA BLA BLA BLA BLA BLA BLA BLA BLA BLA BLA BLA BLA BLA BLA 
BLA BLA BLA BLA BLA BLA BLA BLA BLA BLA BLA BLA BLA BLA BLA BLA BLA BLA BLA BLA 
BLA BLA BLA BLA BLA BLA BLA BLA BLA BLA BLA BLA BLA BLA BLA BLA BLA BLA BLA BLA 
BLA BLA BLA BLA BLA BLA BLA BLA BLA BLA BLA BLA BLA BLA BLA BLA BLA BLA BLA BLA 
BLA BLA BLA BLA BLA BLA BLA BLA BLA BLA BLA BLA BLA BLA BLA BLA BLA BLA BLA BLA 
BLA BLA BLA BLA BLA BLA BLA BLA BLA BLA BLA BLA BLA BLA BLA BLA BLA BLA BLA BLA 
BLA BLA BLA BLA BLA BLA BLA BLA BLA BLA BLA BLA BLA BLA BLA BLA BLA BLA BLA BLA 
BLA BLA BLA BLA BLA BLA BLA BLA BLA BLA BLA BLA BLA BLA BLA BLA BLA BLA BLA BLA 
BLA BLA BLA BLA BLA BLA BLA BLA BLA BLA BLA BLA BLA BLA BLA BLA BLA BLA BLA BLA 
BLA BLA BLA BLA BLA BLA BLA BLA BLA BLA BLA BLA BLA BLA BLA BLA BLA BLA BLA BLA 
BLA BLA BLA BLA BLA BLA BLA BLA BLA BLA BLA BLA BLA BLA BLA BLA BLA BLA BLA BLA 
BLA BLA BLA BLA BLA BLA BLA BLA BLA BLA BLA BLA BLA BLA BLA BLA BLA BLA BLA BLA 
BLA BLA BLA BLA BLA BLA BLA BLA BLA BLA BLA BLA BLA BLA BLA BLA BLA BLA BLA BLA 
BLA BLA BLA BLA BLA BLA BLA BLA BLA BLA BLA BLA BLA BLA BLA BLA BLA BLA BLA BLA 
BLA BLA BLA BLA BLA BLA BLA BLA BLA BLA BLA BLA BLA BLA BLA BLA BLA BLA BLA BLA 
BLA BLA BLA BLA BLA BLA BLA BLA BLA BLA BLA BLA BLA BLA BLA BLA BLA BLA BLA BLA 
BLA BLA BLA BLA BLA BLA BLA BLA BLA BLA BLA BLA BLA BLA BLA BLA BLA BLA BLA BLA 
BLA BLA BLA BLA BLA BLA BLA BLA BLA BLA BLA BLA BLA BLA BLA BLA BLA BLA BLA BLA 
BLA BLA BLA BLA BLA BLA BLA BLA BLA BLA BLA BLA BLA BLA BLA BLA BLA BLA BLA BLA 
BLA BLA BLA BLA BLA BLA BLA BLA BLA BLA BLA BLA BLA BLA BLA BLA BLA BLA BLA BLA 
BLA BLA BLA BLA BLA BLA BLA BLA BLA BLA BLA BLA BLA BLA BLA BLA BLA BLA BLA BLA 
BLA BLA BLA BLA BLA BLA BLA BLA BLA BLA BLA BLA BLA BLA BLA BLA BLA BLA BLA BLA 
BLA BLA BLA BLA BLA BLA BLA BLA BLA BLA BLA BLA BLA BLA BLA BLA BLA BLA BLA BLA 
BLA BLA BLA BLA BLA BLA BLA BLA BLA BLA BLA BLA BLA BLA BLA BLA BLA BLA BLA BLA 
BLA BLA BLA BLA BLA BLA BLA BLA BLA BLA BLA BLA BLA BLA BLA BLA BLA BLA BLA BLA 
BLA BLA BLA BLA BLA BLA BLA BLA BLA BLA BLA BLA BLA BLA BLA BLA BLA BLA BLA BLA 
BLA BLA BLA BLA BLA BLA BLA BLA BLA BLA BLA BLA BLA BLA BLA BLA BLA BLA BLA BLA 
BLA BLA BLA BLA BLA BLA BLA BLA BLA BLA BLA BLA BLA BLA BLA BLA BLA BLA BLA BLA 
BLA BLA BLA BLA BLA BLA BLA BLA BLA BLA BLA BLA BLA BLA BLA BLA BLA BLA BLA BLA 
BLA BLA BLA BLA BLA BLA BLA BLA BLA BLA BLA BLA BLA BLA BLA BLA BLA BLA BLA BLA 
BLA BLA BLA BLA BLA BLA BLA BLA BLA BLA BLA BLA BLA BLA BLA BLA BLA BLA BLA BLA 
BLA BLA BLA BLA BLA BLA BLA BLA BLA BLA BLA BLA BLA BLA BLA BLA BLA BLA BLA BLA 
BLA BLA BLA BLA BLA BLA BLA BLA BLA BLA BLA BLA BLA BLA BLA BLA BLA BLA BLA BLA 
BLA BLA BLA BLA BLA BLA BLA BLA BLA BLA BLA BLA BLA BLA BLA BLA BLA BLA BLA BLA 
BLA BLA BLA BLA BLA BLA BLA BLA BLA BLA BLA BLA BLA BLA BLA BLA BLA BLA BLA BLA 
BLA BLA BLA BLA BLA BLA BLA BLA BLA BLA BLA BLA BLA BLA BLA BLA BLA BLA BLA BLA 
BLA BLA BLA BLA BLA BLA BLA BLA BLA BLA BLA BLA BLA BLA BLA BLA BLA BLA BLA BLA 
BLA BLA BLA BLA BLA BLA BLA BLA BLA BLA BLA BLA BLA BLA BLA BLA BLA BLA BLA BLA 
BLA BLA BLA BLA BLA BLA BLA BLA BLA BLA BLA BLA BLA BLA BLA BLA BLA BLA BLA BLA 
BLA BLA BLA BLA BLA BLA BLA BLA BLA BLA BLA BLA BLA BLA BLA BLA BLA BLA BLA BLA 
BLA BLA BLA BLA BLA BLA BLA BLA BLA BLA BLA BLA BLA BLA BLA BLA BLA BLA BLA BLA 
BLA BLA BLA BLA BLA BLA BLA BLA BLA BLA BLA BLA BLA BLA BLA BLA BLA BLA BLA BLA 
BLA BLA BLA BLA BLA BLA BLA BLA BLA BLA BLA BLA BLA BLA BLA BLA BLA BLA BLA BLA 
BLA BLA BLA BLA BLA BLA BLA BLA BLA BLA BLA BLA BLA BLA BLA BLA BLA BLA BLA BLA 
BLA BLA BLA BLA BLA BLA BLA BLA BLA BLA BLA BLA BLA BLA BLA BLA BLA BLA BLA BLA 
BLA BLA BLA BLA BLA BLA BLA BLA BLA BLA BLA BLA BLA BLA BLA BLA BLA BLA BLA BLA 
BLA BLA BLA BLA BLA BLA BLA BLA BLA BLA BLA BLA BLA BLA BLA BLA BLA BLA BLA BLA 
BLA BLA BLA BLA BLA BLA BLA BLA BLA BLA BLA BLA BLA BLA BLA BLA BLA BLA BLA BLA 
BLA BLA BLA BLA BLA BLA BLA BLA BLA BLA BLA BLA BLA BLA BLA BLA BLA BLA BLA BLA 
BLA BLA BLA BLA BLA BLA BLA BLA BLA BLA BLA BLA BLA BLA BLA BLA BLA BLA BLA BLA 
BLA BLA BLA BLA BLA BLA BLA BLA BLA BLA BLA BLA BLA BLA BLA BLA BLA BLA BLA BLA 
BLA BLA BLA BLA BLA BLA BLA BLA BLA BLA BLA BLA BLA BLA BLA BLA BLA BLA BLA BLA 
BLA BLA BLA BLA BLA BLA BLA BLA BLA BLA BLA BLA BLA BLA BLA BLA BLA BLA BLA BLA 
BLA BLA BLA BLA BLA BLA BLA BLA BLA BLA BLA BLA BLA BLA BLA BLA BLA BLA BLA BLA 
BLA BLA BLA BLA BLA BLA BLA BLA BLA BLA BLA BLA BLA BLA BLA BLA BLA BLA BLA BLA 
BLA BLA BLA BLA BLA BLA BLA BLA BLA BLA BLA BLA BLA BLA BLA BLA BLA BLA BLA BLA 
BLA BLA BLA BLA BLA BLA BLA BLA BLA BLA BLA BLA BLA BLA BLA BLA BLA BLA BLA BLA 
BLA BLA BLA BLA BLA BLA BLA BLA BLA BLA BLA BLA BLA BLA BLA BLA BLA BLA BLA BLA 
BLA BLA BLA BLA BLA BLA BLA BLA BLA BLA BLA BLA BLA BLA BLA BLA BLA BLA BLA BLA 
BLA BLA BLA BLA BLA BLA BLA BLA BLA BLA BLA BLA BLA BLA BLA BLA BLA BLA BLA BLA 
BLA BLA BLA BLA BLA BLA BLA BLA BLA BLA BLA BLA BLA BLA BLA BLA BLA BLA BLA BLA 
BLA BLA BLA BLA BLA BLA BLA BLA BLA BLA BLA BLA BLA BLA BLA BLA BLA BLA BLA BLA 
BLA BLA BLA BLA BLA BLA BLA BLA BLA BLA BLA BLA BLA BLA BLA BLA BLA BLA BLA BLA 
BLA BLA BLA BLA BLA BLA BLA BLA BLA BLA BLA BLA BLA BLA BLA BLA BLA BLA BLA BLA 
BLA BLA BLA BLA BLA BLA BLA BLA BLA BLA BLA BLA BLA BLA BLA BLA BLA BLA BLA BLA 
BLA BLA BLA BLA BLA BLA BLA BLA BLA BLA BLA BLA BLA BLA BLA BLA BLA BLA BLA BLA 
BLA BLA BLA BLA BLA BLA BLA BLA BLA BLA BLA BLA BLA BLA BLA BLA BLA BLA BLA BLA 
BLA BLA BLA BLA BLA BLA BLA BLA BLA BLA BLA BLA BLA BLA BLA BLA BLA BLA BLA BLA 
BLA BLA BLA BLA BLA BLA BLA BLA BLA BLA BLA BLA BLA BLA BLA BLA BLA BLA BLA BLA 
BLA BLA BLA BLA BLA BLA BLA BLA BLA BLA BLA BLA BLA BLA BLA BLA BLA BLA BLA BLA 
BLA BLA BLA BLA BLA BLA BLA BLA BLA BLA BLA BLA BLA BLA BLA BLA BLA BLA BLA BLA 
BLA BLA BLA BLA BLA BLA BLA BLA BLA BLA BLA BLA BLA BLA BLA BLA BLA BLA BLA BLA 
BLA BLA BLA BLA BLA BLA BLA BLA BLA BLA BLA BLA BLA BLA BLA BLA BLA BLA BLA BLA 
BLA BLA BLA BLA BLA BLA BLA BLA BLA BLA BLA BLA BLA BLA BLA BLA BLA BLA BLA BLA 
BLA BLA BLA BLA BLA BLA BLA BLA BLA BLA BLA BLA BLA BLA BLA BLA BLA BLA BLA BLA 
BLA BLA BLA BLA BLA BLA BLA BLA BLA BLA BLA BLA BLA BLA BLA BLA BLA BLA BLA BLA 
BLA BLA BLA BLA BLA BLA BLA BLA BLA BLA BLA BLA BLA BLA BLA BLA BLA BLA BLA BLA 
BLA BLA BLA BLA BLA BLA BLA BLA BLA BLA BLA BLA BLA BLA BLA BLA BLA BLA BLA BLA 
BLA BLA BLA BLA BLA BLA BLA BLA BLA BLA BLA BLA BLA BLA BLA BLA BLA BLA BLA BLA 
BLA BLA BLA BLA BLA BLA BLA BLA BLA BLA BLA BLA BLA BLA BLA BLA BLA BLA BLA BLA 
BLA BLA BLA BLA BLA BLA BLA BLA BLA BLA BLA BLA BLA BLA BLA BLA BLA BLA BLA BLA 
BLA BLA BLA BLA BLA BLA BLA BLA BLA BLA BLA BLA BLA BLA BLA BLA BLA BLA BLA BLA 
BLA BLA BLA BLA BLA BLA BLA BLA BLA BLA BLA BLA BLA BLA BLA BLA BLA BLA BLA BLA 
BLA BLA BLA BLA BLA BLA BLA BLA BLA BLA BLA BLA BLA BLA BLA BLA BLA BLA BLA BLA 
BLA BLA BLA BLA BLA BLA BLA BLA BLA BLA BLA BLA BLA BLA BLA BLA BLA BLA BLA BLA 
BLA BLA BLA BLA BLA BLA BLA BLA BLA BLA BLA BLA BLA BLA BLA BLA BLA BLA BLA BLA 
BLA BLA BLA BLA BLA BLA BLA BLA BLA BLA BLA BLA BLA BLA BLA BLA BLA BLA BLA BLA 
BLA BLA BLA BLA BLA BLA BLA BLA BLA BLA BLA BLA BLA BLA BLA BLA BLA BLA BLA BLA 
BLA BLA BLA BLA BLA BLA BLA BLA BLA BLA BLA BLA BLA BLA BLA BLA BLA BLA BLA BLA 
BLA BLA BLA BLA BLA BLA BLA BLA BLA BLA BLA BLA BLA BLA BLA BLA BLA BLA BLA BLA 
BLA BLA BLA BLA BLA BLA BLA BLA BLA BLA BLA BLA BLA BLA BLA BLA BLA BLA BLA BLA 
BLA BLA BLA BLA BLA BLA BLA BLA BLA BLA BLA BLA BLA BLA BLA BLA BLA BLA BLA BLA 
BLA BLA BLA BLA BLA BLA BLA BLA BLA BLA BLA BLA BLA BLA BLA BLA BLA BLA BLA BLA 
BLA BLA BLA BLA BLA BLA BLA BLA BLA BLA BLA BLA BLA BLA BLA BLA BLA BLA BLA BLA 
BLA BLA BLA BLA BLA BLA BLA BLA BLA BLA BLA BLA BLA BLA BLA BLA BLA BLA BLA BLA 
BLA BLA BLA BLA BLA BLA BLA BLA BLA BLA BLA BLA BLA BLA BLA BLA BLA BLA BLA BLA 
BLA BLA BLA BLA BLA BLA BLA BLA BLA BLA BLA BLA BLA BLA BLA BLA BLA BLA BLA BLA 
BLA BLA BLA BLA BLA BLA BLA BLA BLA BLA BLA BLA BLA BLA BLA BLA BLA BLA BLA BLA 
BLA BLA BLA BLA BLA BLA BLA BLA BLA BLA BLA BLA BLA BLA BLA BLA BLA BLA BLA BLA 
BLA BLA BLA BLA BLA BLA BLA BLA BLA BLA BLA BLA BLA BLA BLA BLA BLA BLA BLA BLA 
BLA BLA BLA BLA BLA BLA BLA BLA BLA BLA BLA BLA BLA BLA BLA BLA BLA BLA BLA BLA 
BLA BLA BLA BLA BLA BLA BLA BLA BLA BLA BLA BLA BLA BLA BLA BLA BLA BLA BLA BLA 
BLA BLA BLA BLA BLA BLA BLA BLA BLA BLA BLA BLA BLA BLA BLA BLA BLA BLA BLA BLA 
BLA BLA BLA BLA BLA BLA BLA BLA BLA BLA BLA BLA BLA BLA BLA BLA BLA BLA BLA BLA 
BLA BLA BLA BLA BLA BLA BLA BLA BLA BLA BLA BLA BLA BLA BLA BLA BLA BLA BLA BLA 
BLA BLA BLA BLA BLA BLA BLA BLA BLA BLA BLA BLA BLA BLA BLA BLA BLA BLA BLA BLA 
BLA BLA BLA BLA BLA BLA BLA BLA BLA BLA BLA BLA BLA BLA BLA BLA BLA BLA BLA BLA 
BLA BLA BLA BLA BLA BLA BLA BLA BLA BLA BLA BLA BLA BLA BLA BLA BLA BLA BLA BLA 
BLA BLA BLA BLA BLA BLA BLA BLA BLA BLA BLA BLA BLA BLA BLA BLA BLA BLA BLA BLA 
BLA BLA BLA BLA BLA BLA BLA BLA BLA BLA BLA BLA BLA BLA BLA BLA BLA BLA BLA BLA 
BLA BLA BLA BLA BLA BLA BLA BLA BLA BLA BLA BLA BLA BLA BLA BLA BLA BLA BLA BLA 
BLA BLA BLA BLA BLA BLA BLA BLA BLA BLA BLA BLA BLA BLA BLA BLA BLA BLA BLA BLA 
BLA BLA BLA BLA BLA BLA BLA BLA BLA BLA BLA BLA BLA BLA BLA BLA BLA BLA BLA BLA 
BLA BLA BLA BLA BLA BLA BLA BLA BLA BLA BLA BLA BLA BLA BLA BLA BLA BLA BLA BLA 
BLA BLA BLA BLA BLA BLA BLA BLA BLA BLA BLA BLA BLA BLA BLA BLA BLA BLA BLA BLA 
BLA BLA BLA BLA BLA BLA BLA BLA BLA BLA BLA BLA BLA BLA BLA BLA BLA BLA BLA BLA 
BLA BLA BLA BLA BLA BLA BLA BLA BLA BLA BLA BLA BLA BLA BLA BLA BLA BLA BLA BLA 
BLA BLA BLA BLA BLA BLA BLA BLA BLA BLA BLA BLA BLA BLA BLA BLA BLA BLA BLA BLA 
BLA BLA BLA BLA BLA BLA BLA BLA BLA BLA BLA BLA BLA BLA BLA BLA BLA BLA BLA BLA 
BLA BLA BLA BLA BLA BLA BLA BLA BLA BLA BLA BLA BLA BLA BLA BLA BLA BLA BLA BLA 
BLA BLA BLA BLA BLA BLA BLA BLA BLA BLA BLA BLA BLA BLA BLA BLA BLA BLA BLA BLA 
BLA BLA BLA BLA BLA BLA BLA BLA BLA BLA BLA BLA BLA BLA BLA BLA BLA BLA BLA BLA 
BLA BLA BLA BLA BLA BLA BLA BLA BLA BLA BLA BLA BLA BLA BLA BLA BLA BLA BLA BLA 
BLA BLA BLA BLA BLA BLA BLA BLA BLA BLA BLA BLA BLA BLA BLA BLA BLA BLA BLA BLA 
BLA BLA BLA BLA BLA BLA BLA BLA BLA BLA BLA BLA BLA BLA BLA BLA BLA BLA BLA BLA 
BLA BLA BLA BLA BLA BLA BLA BLA BLA BLA BLA BLA BLA BLA BLA BLA BLA BLA BLA BLA 
BLA BLA BLA BLA BLA BLA BLA BLA BLA BLA BLA BLA BLA BLA BLA BLA BLA BLA BLA BLA 
BLA BLA BLA BLA BLA BLA BLA BLA BLA BLA BLA BLA BLA BLA BLA BLA BLA BLA BLA BLA 
BLA BLA BLA BLA BLA BLA BLA BLA BLA BLA BLA BLA BLA BLA BLA BLA BLA BLA BLA BLA 
BLA BLA BLA BLA BLA BLA BLA BLA BLA BLA BLA BLA BLA BLA BLA BLA BLA BLA BLA BLA 
BLA BLA BLA BLA BLA BLA BLA BLA BLA BLA BLA BLA BLA BLA BLA BLA BLA BLA BLA BLA 
BLA BLA BLA BLA BLA BLA BLA BLA BLA BLA BLA BLA BLA BLA BLA BLA BLA BLA BLA BLA 
BLA BLA BLA BLA BLA BLA BLA BLA BLA BLA BLA BLA BLA BLA BLA BLA BLA BLA BLA BLA 
BLA BLA BLA BLA BLA BLA BLA BLA BLA BLA BLA BLA BLA BLA BLA BLA BLA BLA BLA BLA 
BLA BLA BLA BLA BLA BLA BLA BLA BLA BLA BLA BLA BLA BLA BLA BLA BLA BLA BLA BLA 
BLA BLA BLA BLA BLA BLA BLA BLA BLA BLA BLA BLA BLA BLA BLA BLA BLA BLA BLA BLA 
BLA BLA BLA BLA BLA BLA BLA BLA BLA BLA BLA BLA BLA BLA BLA BLA BLA BLA BLA BLA 
BLA BLA BLA BLA BLA BLA BLA BLA BLA BLA BLA BLA BLA BLA BLA BLA BLA BLA BLA BLA 
BLA BLA BLA BLA BLA BLA BLA BLA BLA BLA BLA BLA BLA BLA BLA BLA BLA BLA BLA BLA 
BLA BLA BLA BLA BLA BLA BLA BLA BLA BLA BLA BLA BLA BLA BLA BLA BLA BLA BLA BLA 
BLA BLA BLA BLA BLA BLA BLA BLA BLA BLA BLA BLA BLA BLA BLA BLA BLA BLA BLA BLA 
BLA BLA BLA BLA BLA BLA BLA BLA BLA BLA BLA BLA BLA BLA BLA BLA BLA BLA BLA BLA 
BLA BLA BLA BLA BLA BLA BLA BLA BLA BLA BLA BLA BLA BLA BLA BLA BLA BLA BLA BLA 
BLA BLA BLA BLA BLA BLA BLA BLA BLA BLA BLA BLA BLA BLA BLA BLA BLA BLA BLA BLA 
BLA BLA BLA BLA BLA BLA BLA BLA BLA BLA BLA BLA BLA BLA BLA BLA BLA BLA BLA BLA 
BLA BLA BLA BLA BLA BLA BLA BLA BLA BLA BLA BLA BLA BLA BLA BLA BLA BLA BLA BLA 
BLA BLA BLA BLA BLA BLA BLA BLA BLA BLA BLA BLA BLA BLA BLA BLA BLA BLA BLA BLA 
BLA BLA BLA BLA BLA BLA BLA BLA BLA BLA BLA BLA BLA BLA BLA BLA BLA BLA BLA BLA 
BLA BLA BLA BLA BLA BLA BLA BLA BLA BLA BLA BLA BLA BLA BLA BLA BLA BLA BLA BLA 
BLA BLA BLA BLA BLA BLA BLA BLA BLA BLA BLA BLA BLA BLA BLA BLA BLA BLA BLA BLA 
BLA BLA BLA BLA BLA BLA BLA BLA BLA BLA BLA BLA BLA BLA BLA BLA BLA BLA BLA BLA 
BLA BLA BLA BLA BLA BLA BLA BLA BLA BLA BLA BLA BLA BLA BLA BLA BLA BLA BLA BLA 
BLA BLA BLA BLA BLA BLA BLA BLA BLA BLA BLA BLA BLA BLA BLA BLA BLA BLA BLA BLA 
BLA BLA BLA BLA BLA BLA BLA BLA BLA BLA BLA BLA BLA BLA BLA BLA BLA BLA BLA BLA 
BLA BLA BLA BLA BLA BLA BLA BLA BLA BLA BLA BLA BLA BLA BLA BLA BLA BLA BLA BLA 
BLA BLA BLA BLA BLA BLA BLA BLA BLA BLA BLA BLA BLA BLA BLA BLA BLA BLA BLA BLA 
BLA BLA BLA BLA BLA BLA BLA BLA BLA BLA BLA BLA BLA BLA BLA BLA BLA BLA BLA BLA 
BLA BLA BLA BLA BLA BLA BLA BLA BLA BLA BLA BLA BLA BLA BLA BLA BLA BLA BLA BLA 
BLA BLA BLA BLA BLA BLA BLA BLA BLA BLA BLA BLA BLA BLA BLA BLA BLA BLA BLA BLA 
BLA BLA BLA BLA BLA BLA BLA BLA BLA BLA BLA BLA BLA BLA BLA BLA BLA BLA BLA BLA 
BLA BLA BLA BLA BLA BLA BLA BLA BLA BLA BLA BLA BLA BLA BLA BLA BLA BLA BLA BLA 
BLA BLA BLA BLA BLA BLA BLA BLA BLA BLA BLA BLA BLA BLA BLA BLA BLA BLA BLA BLA 
BLA BLA BLA BLA BLA BLA BLA BLA BLA BLA BLA BLA BLA BLA BLA BLA BLA BLA BLA BLA 
BLA BLA BLA BLA BLA BLA BLA BLA BLA BLA BLA BLA BLA BLA BLA BLA BLA BLA BLA BLA 
BLA BLA BLA BLA BLA BLA BLA BLA BLA BLA BLA BLA BLA BLA BLA BLA BLA BLA BLA BLA 
BLA BLA BLA BLA BLA BLA BLA BLA BLA BLA BLA BLA BLA BLA BLA BLA BLA BLA BLA BLA 
BLA BLA BLA BLA BLA BLA BLA BLA BLA BLA BLA BLA BLA BLA BLA BLA BLA BLA BLA BLA 
BLA BLA BLA BLA BLA BLA BLA BLA BLA BLA BLA BLA BLA BLA BLA BLA BLA BLA BLA BLA 
BLA BLA BLA BLA BLA BLA BLA BLA BLA BLA BLA BLA BLA BLA BLA BLA BLA BLA BLA BLA 
BLA BLA BLA BLA BLA BLA BLA BLA BLA BLA BLA BLA BLA BLA BLA BLA BLA BLA BLA BLA 
BLA BLA BLA BLA BLA BLA BLA BLA BLA BLA BLA BLA BLA BLA BLA BLA BLA BLA BLA BLA 
BLA BLA BLA BLA BLA BLA BLA BLA BLA BLA BLA BLA BLA BLA BLA BLA BLA BLA BLA BLA 
BLA BLA BLA BLA BLA BLA BLA BLA BLA BLA BLA BLA BLA BLA BLA BLA BLA BLA BLA BLA 
BLA BLA BLA BLA BLA BLA BLA BLA BLA BLA BLA BLA BLA BLA BLA BLA BLA BLA BLA BLA 
BLA BLA BLA BLA BLA BLA BLA BLA BLA BLA BLA BLA BLA BLA BLA BLA BLA BLA BLA BLA 
BLA BLA BLA BLA BLA BLA BLA BLA BLA BLA BLA BLA BLA BLA BLA BLA BLA BLA BLA BLA 
BLA BLA BLA BLA BLA BLA BLA BLA BLA BLA BLA BLA BLA BLA BLA BLA BLA BLA BLA BLA 
BLA BLA BLA BLA BLA BLA BLA BLA BLA BLA BLA BLA BLA BLA BLA BLA BLA BLA BLA BLA 
BLA BLA BLA BLA BLA BLA BLA BLA BLA BLA BLA BLA BLA BLA BLA BLA BLA BLA BLA BLA 
BLA BLA BLA BLA BLA BLA BLA BLA BLA BLA BLA BLA BLA BLA BLA BLA BLA BLA BLA BLA 
BLA BLA BLA BLA BLA BLA BLA BLA BLA BLA BLA BLA BLA BLA BLA BLA BLA BLA BLA BLA 
BLA BLA BLA BLA BLA BLA BLA BLA BLA BLA BLA BLA BLA BLA BLA BLA BLA BLA BLA BLA 
BLA BLA BLA BLA BLA BLA BLA BLA BLA BLA BLA BLA BLA BLA BLA BLA BLA BLA BLA BLA 
BLA BLA BLA BLA BLA BLA BLA BLA BLA BLA BLA BLA BLA BLA BLA BLA BLA BLA BLA BLA 
BLA BLA BLA BLA BLA BLA BLA BLA BLA BLA BLA BLA BLA BLA BLA BLA BLA BLA BLA BLA 
BLA BLA BLA BLA BLA BLA BLA BLA BLA BLA BLA BLA BLA BLA BLA BLA BLA BLA BLA BLA 
BLA BLA BLA BLA BLA BLA BLA BLA BLA BLA BLA BLA BLA BLA BLA BLA BLA BLA BLA BLA 
BLA BLA BLA BLA BLA BLA BLA BLA BLA BLA BLA BLA BLA BLA BLA BLA BLA BLA BLA BLA 
BLA BLA BLA BLA BLA BLA BLA BLA BLA BLA BLA BLA BLA BLA BLA BLA BLA BLA BLA BLA 
BLA BLA BLA BLA BLA BLA BLA BLA BLA BLA BLA BLA BLA BLA BLA BLA BLA BLA BLA BLA 
BLA BLA BLA BLA BLA BLA BLA BLA BLA BLA BLA BLA BLA BLA BLA BLA BLA BLA BLA BLA 
BLA BLA BLA BLA BLA BLA BLA BLA BLA BLA BLA BLA BLA BLA BLA BLA BLA BLA BLA BLA 
BLA BLA BLA BLA BLA BLA BLA BLA BLA BLA BLA BLA BLA BLA BLA BLA BLA BLA BLA BLA 
BLA BLA BLA BLA BLA BLA BLA BLA BLA BLA BLA BLA BLA BLA BLA BLA BLA BLA BLA BLA 
BLA BLA BLA BLA BLA BLA BLA BLA BLA BLA BLA BLA BLA BLA BLA BLA BLA BLA BLA BLA 
BLA BLA BLA BLA BLA BLA BLA BLA BLA BLA BLA BLA BLA BLA BLA BLA BLA BLA BLA BLA 
BLA BLA BLA BLA BLA BLA BLA BLA BLA BLA BLA BLA BLA BLA BLA BLA BLA BLA BLA BLA 
BLA BLA BLA BLA BLA BLA BLA BLA BLA BLA BLA BLA BLA BLA BLA BLA BLA BLA BLA BLA 
BLA BLA BLA BLA BLA BLA BLA BLA BLA BLA BLA BLA BLA BLA BLA BLA BLA BLA BLA BLA 
BLA BLA BLA BLA BLA BLA BLA BLA BLA BLA BLA BLA BLA BLA BLA BLA BLA BLA BLA BLA 
BLA BLA BLA BLA BLA BLA BLA BLA BLA BLA BLA BLA BLA BLA BLA BLA BLA BLA BLA BLA 
BLA BLA BLA BLA BLA BLA BLA BLA BLA BLA BLA BLA BLA BLA BLA BLA BLA BLA BLA BLA 
BLA BLA BLA BLA BLA BLA BLA BLA BLA BLA BLA BLA BLA BLA BLA BLA BLA BLA BLA BLA 
BLA BLA BLA BLA BLA BLA BLA BLA BLA BLA BLA BLA BLA BLA BLA BLA BLA BLA BLA BLA 
BLA BLA BLA BLA BLA BLA BLA BLA BLA BLA BLA BLA BLA BLA BLA BLA BLA BLA BLA BLA 
BLA BLA BLA BLA BLA BLA BLA BLA BLA BLA BLA BLA BLA BLA BLA BLA BLA BLA BLA BLA 
BLA BLA BLA BLA BLA BLA BLA BLA BLA BLA BLA BLA BLA BLA BLA BLA BLA BLA BLA BLA 
BLA BLA BLA BLA BLA BLA BLA BLA BLA BLA BLA BLA BLA BLA BLA BLA BLA BLA BLA BLA 
BLA BLA BLA BLA BLA BLA BLA BLA BLA BLA BLA BLA BLA BLA BLA BLA BLA BLA BLA BLA 
BLA BLA BLA BLA BLA BLA BLA BLA BLA BLA BLA BLA BLA BLA BLA BLA BLA BLA BLA BLA 
BLA BLA BLA BLA BLA BLA BLA BLA BLA BLA BLA BLA BLA BLA BLA BLA BLA BLA BLA BLA 
BLA BLA BLA BLA BLA BLA BLA BLA BLA BLA BLA BLA BLA BLA BLA BLA BLA BLA BLA BLA 
BLA BLA BLA BLA BLA BLA BLA BLA BLA BLA BLA BLA BLA BLA BLA BLA BLA BLA BLA BLA 
BLA BLA BLA BLA BLA BLA BLA BLA BLA BLA BLA BLA BLA BLA BLA BLA BLA BLA BLA BLA 
BLA BLA BLA BLA BLA BLA BLA BLA BLA BLA BLA BLA BLA BLA BLA BLA BLA BLA BLA BLA 
BLA BLA BLA BLA BLA BLA BLA BLA BLA BLA BLA BLA BLA BLA BLA BLA BLA BLA BLA BLA 
BLA BLA BLA BLA BLA BLA BLA BLA BLA BLA BLA BLA BLA BLA BLA BLA BLA BLA BLA BLA 
BLA BLA BLA BLA BLA BLA BLA BLA BLA BLA BLA BLA BLA BLA BLA BLA BLA BLA BLA BLA 
BLA BLA BLA BLA BLA BLA BLA BLA BLA BLA BLA BLA BLA BLA BLA BLA BLA BLA BLA BLA 
BLA BLA BLA BLA BLA BLA BLA BLA BLA BLA BLA BLA BLA BLA BLA BLA BLA BLA BLA BLA 
BLA BLA BLA BLA BLA BLA BLA BLA BLA BLA BLA BLA BLA BLA BLA BLA BLA BLA BLA BLA 
BLA BLA BLA BLA BLA BLA BLA BLA BLA BLA BLA BLA BLA BLA BLA BLA BLA BLA BLA BLA 
BLA BLA BLA BLA BLA BLA BLA BLA BLA BLA BLA BLA BLA BLA BLA BLA BLA BLA BLA BLA 
BLA BLA BLA BLA BLA BLA BLA BLA BLA BLA BLA BLA BLA BLA BLA BLA BLA BLA BLA BLA 
BLA BLA BLA BLA BLA BLA BLA BLA BLA BLA BLA BLA BLA BLA BLA BLA BLA BLA BLA BLA 
BLA BLA BLA BLA BLA BLA BLA BLA BLA BLA BLA BLA BLA BLA BLA BLA BLA BLA BLA BLA 
BLA BLA BLA BLA BLA BLA BLA BLA BLA BLA BLA BLA BLA BLA BLA BLA BLA BLA BLA BLA 
BLA BLA BLA BLA BLA BLA BLA BLA BLA BLA BLA BLA BLA BLA BLA BLA BLA BLA BLA BLA 
BLA BLA BLA BLA BLA BLA BLA BLA BLA BLA BLA BLA BLA BLA BLA BLA BLA BLA BLA BLA 
BLA BLA BLA BLA BLA BLA BLA BLA BLA BLA BLA BLA BLA BLA BLA BLA BLA BLA BLA BLA 
BLA BLA BLA BLA BLA BLA BLA BLA BLA BLA BLA BLA BLA BLA BLA BLA BLA BLA BLA BLA 
BLA BLA BLA BLA BLA BLA BLA BLA BLA BLA BLA BLA BLA BLA BLA BLA BLA BLA BLA BLA 
BLA BLA BLA BLA BLA BLA BLA BLA BLA BLA BLA BLA BLA BLA BLA BLA BLA BLA BLA BLA 
BLA BLA BLA BLA BLA BLA BLA BLA BLA BLA BLA BLA BLA BLA BLA BLA BLA BLA BLA BLA 
BLA BLA BLA BLA BLA BLA BLA BLA BLA BLA BLA BLA BLA BLA BLA BLA BLA BLA BLA BLA 
BLA BLA BLA BLA BLA BLA BLA BLA BLA BLA BLA BLA BLA BLA BLA BLA BLA BLA BLA BLA 
BLA BLA BLA BLA BLA BLA BLA BLA BLA BLA BLA BLA BLA BLA BLA BLA BLA BLA BLA BLA 
BLA BLA BLA BLA BLA BLA BLA BLA BLA BLA BLA BLA BLA BLA BLA BLA BLA BLA BLA BLA 
BLA BLA BLA BLA BLA BLA BLA BLA BLA BLA BLA BLA BLA BLA BLA BLA BLA BLA BLA BLA 
BLA BLA BLA BLA BLA BLA BLA BLA BLA BLA BLA BLA BLA BLA BLA BLA BLA BLA BLA BLA 
BLA BLA BLA BLA BLA BLA BLA BLA BLA BLA BLA BLA BLA BLA BLA BLA BLA BLA BLA BLA 
BLA BLA BLA BLA BLA BLA BLA BLA BLA BLA BLA BLA BLA BLA BLA BLA BLA BLA BLA BLA 
BLA BLA BLA BLA BLA BLA BLA BLA BLA BLA BLA BLA BLA BLA BLA BLA BLA BLA BLA BLA 
BLA BLA BLA BLA BLA BLA BLA BLA BLA BLA BLA BLA BLA BLA BLA BLA BLA BLA BLA BLA 
BLA BLA BLA BLA BLA BLA BLA BLA BLA BLA BLA BLA BLA BLA BLA BLA BLA BLA BLA BLA 
BLA BLA BLA BLA BLA BLA BLA BLA BLA BLA BLA BLA BLA BLA BLA BLA BLA BLA BLA BLA 
BLA BLA BLA BLA BLA BLA BLA BLA BLA BLA BLA BLA BLA BLA BLA BLA BLA BLA BLA BLA 
BLA BLA BLA BLA BLA BLA BLA BLA BLA BLA BLA BLA BLA BLA BLA BLA BLA BLA BLA BLA 
BLA BLA BLA BLA BLA BLA BLA BLA BLA BLA BLA BLA BLA BLA BLA BLA BLA BLA BLA BLA 
BLA BLA BLA BLA BLA BLA BLA BLA BLA BLA BLA BLA BLA BLA BLA BLA BLA BLA BLA BLA 
BLA BLA BLA BLA BLA BLA BLA BLA BLA BLA BLA BLA BLA BLA BLA BLA BLA BLA BLA BLA 
BLA BLA BLA BLA BLA BLA BLA BLA BLA BLA BLA BLA BLA BLA BLA BLA BLA BLA BLA BLA 
BLA BLA BLA BLA BLA BLA BLA BLA BLA BLA BLA BLA BLA BLA BLA BLA BLA BLA BLA BLA 
BLA BLA BLA BLA BLA BLA BLA BLA BLA BLA BLA BLA BLA BLA BLA BLA BLA BLA BLA BLA 
BLA BLA BLA BLA BLA BLA BLA BLA BLA BLA BLA BLA BLA BLA BLA BLA BLA BLA BLA BLA 
BLA BLA BLA BLA BLA BLA BLA BLA BLA BLA BLA BLA BLA BLA BLA BLA BLA BLA BLA BLA 
BLA BLA BLA BLA BLA BLA BLA BLA BLA BLA BLA BLA BLA BLA BLA BLA BLA BLA BLA BLA 
BLA BLA BLA BLA BLA BLA BLA BLA BLA BLA BLA BLA BLA BLA BLA BLA BLA BLA BLA BLA 
BLA BLA BLA BLA BLA BLA BLA BLA BLA BLA BLA BLA BLA BLA BLA BLA BLA BLA BLA BLA 
BLA BLA BLA BLA BLA BLA BLA BLA BLA BLA BLA BLA BLA BLA BLA BLA BLA BLA BLA BLA 
BLA BLA BLA BLA BLA BLA BLA BLA BLA BLA BLA BLA BLA BLA BLA BLA BLA BLA BLA BLA 
BLA BLA BLA BLA BLA BLA BLA BLA BLA BLA BLA BLA BLA BLA BLA BLA BLA BLA BLA BLA 
BLA BLA BLA BLA BLA BLA BLA BLA BLA BLA BLA BLA BLA BLA BLA BLA BLA BLA BLA BLA 
BLA BLA BLA BLA BLA BLA BLA BLA BLA BLA BLA BLA BLA BLA BLA BLA BLA BLA BLA BLA 
BLA BLA BLA BLA BLA BLA BLA BLA BLA BLA BLA BLA BLA BLA BLA BLA BLA BLA BLA BLA 
BLA BLA BLA BLA BLA BLA BLA BLA BLA BLA BLA BLA BLA BLA BLA BLA BLA BLA BLA BLA 
BLA BLA BLA BLA BLA BLA BLA BLA BLA BLA BLA BLA BLA BLA BLA BLA BLA BLA BLA BLA 
BLA BLA BLA BLA BLA BLA BLA BLA BLA BLA BLA BLA BLA BLA BLA BLA BLA BLA BLA BLA 
BLA BLA BLA BLA BLA BLA BLA BLA BLA BLA BLA BLA BLA BLA BLA BLA BLA BLA BLA BLA 
BLA BLA BLA BLA BLA BLA BLA BLA BLA BLA BLA BLA BLA BLA BLA BLA BLA BLA BLA BLA 
BLA BLA BLA BLA BLA BLA BLA BLA BLA BLA BLA BLA BLA BLA BLA BLA BLA BLA BLA BLA 
BLA BLA BLA BLA BLA BLA BLA BLA BLA BLA BLA BLA BLA BLA BLA BLA BLA BLA BLA BLA 
BLA BLA BLA BLA BLA BLA BLA BLA BLA BLA BLA BLA BLA BLA BLA BLA BLA BLA BLA BLA 
BLA BLA BLA BLA BLA BLA BLA BLA BLA BLA BLA BLA BLA BLA BLA BLA BLA BLA BLA BLA 
BLA BLA BLA BLA BLA BLA BLA BLA BLA BLA BLA BLA BLA BLA BLA BLA BLA BLA BLA BLA 
BLA BLA BLA BLA BLA BLA BLA BLA BLA BLA BLA BLA BLA BLA BLA BLA BLA BLA BLA BLA 
BLA BLA BLA BLA BLA BLA BLA BLA BLA BLA BLA BLA BLA BLA BLA BLA BLA BLA BLA BLA 
BLA BLA BLA BLA BLA BLA BLA BLA BLA BLA BLA BLA BLA BLA BLA BLA BLA BLA BLA BLA 
BLA BLA BLA BLA BLA BLA BLA BLA BLA BLA BLA BLA BLA BLA BLA BLA BLA BLA BLA BLA 
BLA BLA BLA BLA BLA BLA BLA BLA BLA BLA BLA BLA BLA BLA BLA BLA BLA BLA BLA BLA 
BLA BLA BLA BLA BLA BLA BLA BLA BLA BLA BLA BLA BLA BLA BLA BLA BLA BLA BLA BLA 
BLA BLA BLA BLA BLA BLA BLA BLA BLA BLA BLA BLA BLA BLA BLA BLA BLA BLA BLA BLA 
BLA BLA BLA BLA BLA BLA BLA BLA BLA BLA BLA BLA BLA BLA BLA BLA BLA BLA BLA BLA 
BLA BLA BLA BLA BLA BLA BLA BLA BLA BLA BLA BLA BLA BLA BLA BLA BLA BLA BLA BLA 
BLA BLA BLA BLA BLA BLA BLA BLA BLA BLA BLA BLA BLA BLA BLA BLA BLA BLA BLA BLA 
BLA BLA BLA BLA BLA BLA BLA BLA BLA BLA BLA BLA BLA BLA BLA BLA BLA BLA BLA BLA 
BLA BLA BLA BLA BLA BLA BLA BLA BLA BLA BLA BLA BLA BLA BLA BLA BLA BLA BLA BLA 
BLA BLA BLA BLA BLA BLA BLA BLA BLA BLA BLA BLA BLA BLA BLA BLA BLA BLA BLA BLA 
BLA BLA BLA BLA BLA BLA BLA BLA BLA BLA BLA BLA BLA BLA BLA BLA BLA BLA BLA BLA 
BLA BLA BLA BLA BLA BLA BLA BLA BLA BLA BLA BLA BLA BLA BLA BLA BLA BLA BLA BLA 
BLA BLA BLA BLA BLA BLA BLA BLA BLA BLA BLA BLA BLA BLA BLA BLA BLA BLA BLA BLA 
BLA BLA BLA BLA BLA BLA BLA BLA BLA BLA BLA BLA BLA BLA BLA BLA BLA BLA BLA BLA 
BLA BLA BLA BLA BLA BLA BLA BLA BLA BLA BLA BLA BLA BLA BLA BLA BLA BLA BLA BLA 
BLA BLA BLA BLA BLA BLA BLA BLA BLA BLA BLA BLA BLA BLA BLA BLA BLA BLA BLA BLA 
BLA BLA BLA BLA BLA BLA BLA BLA BLA BLA BLA BLA BLA BLA BLA BLA BLA BLA BLA BLA 
BLA BLA BLA BLA BLA BLA BLA BLA BLA BLA BLA BLA BLA BLA BLA BLA BLA BLA BLA BLA 
BLA BLA BLA BLA BLA BLA BLA BLA BLA BLA BLA BLA BLA BLA BLA BLA BLA BLA BLA BLA 
BLA BLA BLA BLA BLA BLA BLA BLA BLA BLA BLA BLA BLA BLA BLA BLA BLA BLA BLA BLA 
BLA BLA BLA BLA BLA BLA BLA BLA BLA BLA BLA BLA BLA BLA BLA BLA BLA BLA BLA BLA 
BLA BLA BLA BLA BLA BLA BLA BLA BLA BLA BLA BLA BLA BLA BLA BLA BLA BLA BLA BLA 
BLA BLA BLA BLA BLA BLA BLA BLA BLA BLA BLA BLA BLA BLA BLA BLA BLA BLA BLA BLA 
BLA BLA BLA BLA BLA BLA BLA BLA BLA BLA BLA BLA BLA BLA BLA BLA BLA BLA BLA BLA 
BLA BLA BLA BLA BLA BLA BLA BLA BLA BLA BLA BLA BLA BLA BLA BLA BLA BLA BLA BLA 
BLA BLA BLA BLA BLA BLA BLA BLA BLA BLA BLA BLA BLA BLA BLA BLA BLA BLA BLA BLA 
BLA BLA BLA BLA BLA BLA BLA BLA BLA BLA BLA BLA BLA BLA BLA BLA BLA BLA BLA BLA 
BLA BLA BLA BLA BLA BLA BLA BLA BLA BLA BLA BLA BLA BLA BLA BLA BLA BLA BLA BLA 
BLA BLA BLA BLA BLA BLA BLA BLA BLA BLA BLA BLA BLA BLA BLA BLA BLA BLA BLA BLA 
BLA BLA BLA BLA BLA BLA BLA BLA BLA BLA BLA BLA BLA BLA BLA BLA BLA BLA BLA BLA 
BLA BLA BLA BLA BLA BLA BLA BLA BLA BLA BLA BLA BLA BLA BLA BLA BLA BLA BLA BLA 
BLA BLA BLA BLA BLA BLA BLA BLA BLA BLA BLA BLA BLA BLA BLA BLA BLA BLA BLA BLA 
BLA BLA BLA BLA BLA BLA BLA BLA BLA BLA BLA BLA BLA BLA BLA BLA BLA BLA BLA BLA 
BLA BLA BLA BLA BLA BLA BLA BLA BLA BLA BLA BLA BLA BLA BLA BLA BLA BLA BLA BLA 
BLA BLA BLA BLA BLA BLA BLA BLA BLA BLA BLA BLA BLA BLA BLA BLA BLA BLA BLA BLA 
BLA BLA BLA BLA BLA BLA BLA BLA BLA BLA BLA BLA BLA BLA BLA BLA BLA BLA BLA BLA 
BLA BLA BLA BLA BLA BLA BLA BLA BLA BLA BLA BLA BLA BLA BLA BLA BLA BLA BLA BLA 
BLA BLA BLA BLA BLA BLA BLA BLA BLA BLA BLA BLA BLA BLA BLA BLA BLA BLA BLA BLA 
BLA BLA BLA BLA BLA BLA BLA BLA BLA BLA BLA BLA BLA BLA BLA BLA BLA BLA BLA BLA 
BLA BLA BLA BLA BLA BLA BLA BLA BLA BLA BLA BLA BLA BLA BLA BLA BLA BLA BLA BLA 
BLA BLA BLA BLA BLA BLA BLA BLA BLA BLA BLA BLA BLA BLA BLA BLA BLA BLA BLA BLA 
BLA BLA BLA BLA BLA BLA BLA BLA BLA BLA BLA BLA BLA BLA BLA BLA BLA BLA BLA BLA 
BLA BLA BLA BLA BLA BLA BLA BLA BLA BLA BLA BLA BLA BLA BLA BLA BLA BLA BLA BLA 
BLA BLA BLA BLA BLA BLA BLA BLA BLA BLA BLA BLA BLA BLA BLA BLA BLA BLA BLA BLA 
BLA BLA BLA BLA BLA BLA BLA BLA BLA BLA BLA BLA BLA BLA BLA BLA BLA BLA BLA BLA 
BLA BLA BLA BLA BLA BLA BLA BLA BLA BLA BLA BLA BLA BLA BLA BLA BLA BLA BLA BLA 
BLA BLA BLA BLA BLA BLA BLA BLA BLA BLA BLA BLA BLA BLA BLA BLA BLA BLA BLA BLA 
BLA BLA BLA BLA BLA BLA BLA BLA BLA BLA BLA BLA BLA BLA BLA BLA BLA BLA BLA BLA 
BLA BLA BLA BLA BLA BLA BLA BLA BLA BLA BLA BLA BLA BLA BLA BLA BLA BLA BLA BLA 
BLA BLA BLA BLA BLA BLA BLA BLA BLA BLA BLA BLA BLA BLA BLA BLA BLA BLA BLA BLA 
BLA BLA BLA BLA BLA BLA BLA BLA BLA BLA BLA BLA BLA BLA BLA BLA BLA BLA BLA BLA 
BLA BLA BLA BLA BLA BLA BLA BLA BLA BLA BLA BLA BLA BLA BLA BLA BLA BLA BLA BLA 
BLA BLA BLA BLA BLA BLA BLA BLA BLA BLA BLA BLA BLA BLA BLA BLA BLA BLA BLA BLA 
BLA BLA BLA BLA BLA BLA BLA BLA BLA BLA BLA BLA BLA BLA BLA BLA BLA BLA BLA BLA 
BLA BLA BLA BLA BLA BLA BLA BLA BLA BLA BLA BLA BLA BLA BLA BLA BLA BLA BLA BLA 
BLA BLA BLA BLA BLA BLA BLA BLA BLA BLA BLA BLA BLA BLA BLA BLA BLA BLA BLA BLA 
BLA BLA BLA BLA BLA BLA BLA BLA BLA BLA BLA BLA BLA BLA BLA BLA BLA BLA BLA BLA 
BLA BLA BLA BLA BLA BLA BLA BLA BLA BLA BLA BLA BLA BLA BLA BLA BLA BLA BLA BLA 
BLA BLA BLA BLA BLA BLA BLA BLA BLA BLA BLA BLA BLA BLA BLA BLA BLA BLA BLA BLA 
BLA BLA BLA BLA BLA BLA BLA BLA BLA BLA BLA BLA BLA BLA BLA BLA BLA BLA BLA BLA 
BLA BLA BLA BLA BLA BLA BLA BLA BLA BLA BLA BLA BLA BLA BLA BLA BLA BLA BLA BLA 
BLA BLA BLA BLA BLA BLA BLA BLA BLA BLA BLA BLA BLA BLA BLA BLA BLA BLA BLA BLA 
BLA BLA BLA BLA BLA BLA BLA BLA BLA BLA BLA BLA BLA BLA BLA BLA BLA BLA BLA BLA 
BLA BLA BLA BLA BLA BLA BLA BLA BLA BLA BLA BLA BLA BLA BLA BLA BLA BLA BLA BLA 
BLA BLA BLA BLA BLA BLA BLA BLA BLA BLA BLA BLA BLA BLA BLA BLA BLA BLA BLA BLA 
BLA BLA BLA BLA BLA BLA BLA BLA BLA BLA BLA BLA BLA BLA BLA BLA BLA BLA BLA BLA 
BLA BLA BLA BLA BLA BLA BLA BLA BLA BLA BLA BLA BLA BLA BLA BLA BLA BLA BLA BLA 
BLA BLA BLA BLA BLA BLA BLA BLA BLA BLA BLA BLA BLA BLA BLA BLA BLA BLA BLA BLA 
BLA BLA BLA BLA BLA BLA BLA BLA BLA BLA BLA BLA BLA BLA BLA BLA BLA BLA BLA BLA 
BLA BLA BLA BLA BLA BLA BLA BLA BLA BLA BLA BLA BLA BLA BLA BLA BLA BLA BLA BLA 
BLA BLA BLA BLA BLA BLA BLA BLA BLA BLA BLA BLA BLA BLA BLA BLA BLA BLA BLA BLA 
BLA BLA BLA BLA BLA BLA BLA BLA BLA BLA BLA BLA BLA BLA BLA BLA BLA BLA BLA BLA 
BLA BLA BLA BLA BLA BLA BLA BLA BLA BLA BLA BLA BLA BLA BLA BLA BLA BLA BLA BLA 
BLA BLA BLA BLA BLA BLA BLA BLA BLA BLA BLA BLA BLA BLA BLA BLA BLA BLA BLA BLA 
BLA BLA BLA BLA BLA BLA BLA BLA BLA BLA BLA BLA BLA BLA BLA BLA BLA BLA BLA BLA 
BLA BLA BLA BLA BLA BLA BLA BLA BLA BLA BLA BLA BLA BLA BLA BLA BLA BLA BLA BLA 
BLA BLA BLA BLA BLA BLA BLA BLA BLA BLA BLA BLA BLA BLA BLA BLA BLA BLA BLA BLA 
BLA BLA BLA BLA BLA BLA BLA BLA BLA BLA BLA BLA BLA BLA BLA BLA BLA BLA BLA BLA 
BLA BLA BLA BLA BLA BLA BLA BLA BLA BLA BLA BLA BLA BLA BLA BLA BLA BLA BLA BLA 
BLA BLA BLA BLA BLA BLA BLA BLA BLA BLA BLA BLA BLA BLA BLA BLA BLA BLA BLA BLA 
BLA BLA BLA BLA BLA BLA BLA BLA BLA BLA BLA BLA BLA BLA BLA BLA BLA BLA BLA BLA 
BLA BLA BLA BLA BLA BLA BLA BLA BLA BLA BLA BLA BLA BLA BLA BLA BLA BLA BLA BLA 
BLA BLA BLA BLA BLA BLA BLA BLA BLA BLA BLA BLA BLA BLA BLA BLA BLA BLA BLA BLA 
BLA BLA BLA BLA BLA BLA BLA BLA BLA BLA BLA BLA BLA BLA BLA BLA BLA BLA BLA BLA 
BLA BLA BLA BLA BLA BLA BLA BLA BLA BLA BLA BLA BLA BLA BLA BLA BLA BLA BLA BLA 
BLA BLA BLA BLA BLA BLA BLA BLA BLA BLA BLA BLA BLA BLA BLA BLA BLA BLA BLA BLA 
BLA BLA BLA BLA BLA BLA BLA BLA BLA BLA BLA BLA BLA BLA BLA BLA BLA BLA BLA BLA 
BLA BLA BLA BLA BLA BLA BLA BLA BLA BLA BLA BLA BLA BLA BLA BLA BLA BLA BLA BLA 
BLA BLA BLA BLA BLA BLA BLA BLA BLA BLA BLA BLA BLA BLA BLA BLA BLA BLA BLA BLA 
BLA BLA BLA BLA BLA BLA BLA BLA BLA BLA BLA BLA BLA BLA BLA BLA BLA BLA BLA BLA 
BLA BLA BLA BLA BLA BLA BLA BLA BLA BLA BLA BLA BLA BLA BLA BLA BLA BLA BLA BLA 
BLA BLA BLA BLA BLA BLA BLA BLA BLA BLA BLA BLA BLA BLA BLA BLA BLA BLA BLA BLA 
BLA BLA BLA BLA BLA BLA BLA BLA BLA BLA BLA BLA BLA BLA BLA BLA BLA BLA BLA BLA 
BLA BLA BLA BLA BLA BLA BLA BLA BLA BLA BLA BLA BLA BLA BLA BLA BLA BLA BLA BLA 
BLA BLA BLA BLA BLA BLA BLA BLA BLA BLA BLA BLA BLA BLA BLA BLA BLA BLA BLA BLA 
BLA BLA BLA BLA BLA BLA BLA BLA BLA BLA BLA BLA BLA BLA BLA BLA BLA BLA BLA BLA 
BLA BLA BLA BLA BLA BLA BLA BLA BLA BLA BLA BLA BLA BLA BLA BLA BLA BLA BLA BLA 
BLA BLA BLA BLA BLA BLA BLA BLA BLA BLA BLA BLA BLA BLA BLA BLA BLA BLA BLA BLA 
BLA BLA BLA BLA BLA BLA BLA BLA BLA BLA BLA BLA BLA BLA BLA BLA BLA BLA BLA BLA 
BLA BLA BLA BLA BLA BLA BLA BLA BLA BLA BLA BLA BLA BLA BLA BLA BLA BLA BLA BLA 
BLA BLA BLA BLA BLA BLA BLA BLA BLA BLA BLA BLA BLA BLA BLA BLA BLA BLA BLA BLA 
BLA BLA BLA BLA BLA BLA BLA BLA BLA BLA BLA BLA BLA BLA BLA BLA BLA BLA BLA BLA 
BLA BLA BLA BLA BLA BLA BLA BLA BLA BLA BLA BLA BLA BLA BLA BLA BLA BLA BLA BLA 
BLA BLA BLA BLA BLA BLA BLA BLA BLA BLA BLA BLA BLA BLA BLA BLA BLA BLA BLA BLA 
BLA BLA BLA BLA BLA BLA BLA BLA BLA BLA BLA BLA BLA BLA BLA BLA BLA BLA BLA BLA 
BLA BLA BLA BLA BLA BLA BLA BLA BLA BLA BLA BLA BLA BLA BLA BLA BLA BLA BLA BLA 
BLA BLA BLA BLA BLA BLA BLA BLA BLA BLA BLA BLA BLA BLA BLA BLA BLA BLA BLA BLA 
BLA BLA BLA BLA BLA BLA BLA BLA BLA BLA BLA BLA BLA BLA BLA BLA BLA BLA BLA BLA 
BLA BLA BLA BLA BLA BLA BLA BLA BLA BLA BLA BLA BLA BLA BLA BLA BLA BLA BLA BLA 
BLA BLA BLA BLA BLA BLA BLA BLA BLA BLA BLA BLA BLA BLA BLA BLA BLA BLA BLA BLA 
BLA BLA BLA BLA BLA BLA BLA BLA BLA BLA BLA BLA BLA BLA BLA BLA BLA BLA BLA BLA 
BLA BLA BLA BLA BLA BLA BLA BLA BLA BLA BLA BLA BLA BLA BLA BLA BLA BLA BLA BLA 
BLA BLA BLA BLA BLA BLA BLA BLA BLA BLA BLA BLA BLA BLA BLA BLA BLA BLA BLA BLA 
BLA BLA BLA BLA BLA BLA BLA BLA BLA BLA BLA BLA BLA BLA BLA BLA BLA BLA BLA BLA 
BLA BLA BLA BLA BLA BLA BLA BLA BLA BLA BLA BLA BLA BLA BLA BLA BLA BLA BLA BLA 
BLA BLA BLA BLA BLA BLA BLA BLA BLA BLA BLA BLA BLA BLA BLA BLA BLA BLA BLA BLA 
BLA BLA BLA BLA BLA BLA BLA BLA BLA BLA BLA BLA BLA BLA BLA BLA BLA BLA BLA BLA 
BLA BLA BLA BLA BLA BLA BLA BLA BLA BLA BLA BLA BLA BLA BLA BLA BLA BLA BLA BLA 
BLA BLA BLA BLA BLA BLA BLA BLA BLA BLA BLA BLA BLA BLA BLA BLA BLA BLA BLA BLA 
BLA BLA BLA BLA BLA BLA BLA BLA BLA BLA BLA BLA BLA BLA BLA BLA BLA BLA BLA BLA 
BLA BLA BLA BLA BLA BLA BLA BLA BLA BLA BLA BLA BLA BLA BLA BLA BLA BLA BLA BLA 
BLA BLA BLA BLA BLA BLA BLA BLA BLA BLA BLA BLA BLA BLA BLA BLA BLA BLA BLA BLA 
BLA BLA BLA BLA BLA BLA BLA BLA BLA BLA BLA BLA BLA BLA BLA BLA BLA BLA BLA BLA 
BLA BLA BLA BLA BLA BLA BLA BLA BLA BLA BLA BLA BLA BLA BLA BLA BLA BLA BLA BLA 
BLA BLA BLA BLA BLA BLA BLA BLA BLA BLA BLA BLA BLA BLA BLA BLA BLA BLA BLA BLA 
BLA BLA BLA BLA BLA BLA BLA BLA BLA BLA BLA BLA BLA BLA BLA BLA BLA BLA BLA BLA 
BLA BLA BLA BLA BLA BLA BLA BLA BLA BLA BLA BLA BLA BLA BLA BLA BLA BLA BLA BLA 
BLA BLA BLA BLA BLA BLA BLA BLA BLA BLA BLA BLA BLA BLA BLA BLA BLA BLA BLA BLA 
BLA BLA BLA BLA BLA BLA BLA BLA BLA BLA BLA BLA BLA BLA BLA BLA BLA BLA BLA BLA 
BLA BLA BLA BLA BLA BLA BLA BLA BLA BLA BLA BLA BLA BLA BLA BLA BLA BLA BLA BLA 
BLA BLA BLA BLA BLA BLA BLA BLA BLA BLA BLA BLA BLA BLA BLA BLA BLA BLA BLA BLA 
BLA BLA BLA BLA BLA BLA BLA BLA BLA BLA BLA BLA BLA BLA BLA BLA BLA BLA BLA BLA 
BLA BLA BLA BLA BLA BLA BLA BLA BLA BLA BLA BLA BLA BLA BLA BLA BLA BLA BLA BLA 
BLA BLA BLA BLA BLA BLA BLA BLA BLA BLA BLA BLA BLA BLA BLA BLA BLA BLA BLA BLA 
BLA BLA BLA BLA BLA BLA BLA BLA BLA BLA BLA BLA BLA BLA BLA BLA BLA BLA BLA BLA 
BLA BLA BLA BLA BLA BLA BLA BLA BLA BLA BLA BLA BLA BLA BLA BLA BLA BLA BLA BLA 
BLA BLA BLA BLA BLA BLA BLA BLA BLA BLA BLA BLA BLA BLA BLA BLA BLA BLA BLA BLA 
BLA BLA BLA BLA BLA BLA BLA BLA BLA BLA BLA BLA BLA BLA BLA BLA BLA BLA BLA BLA 
BLA BLA BLA BLA BLA BLA BLA BLA BLA BLA BLA BLA BLA BLA BLA BLA BLA BLA BLA BLA 
BLA BLA BLA BLA BLA BLA BLA BLA BLA BLA BLA BLA BLA BLA BLA BLA BLA BLA BLA BLA 
BLA BLA BLA BLA BLA BLA BLA BLA BLA BLA BLA BLA BLA BLA BLA BLA BLA BLA BLA BLA 
BLA BLA BLA BLA BLA BLA BLA BLA BLA BLA BLA BLA BLA BLA BLA BLA BLA BLA BLA BLA 
BLA BLA BLA BLA BLA BLA BLA BLA BLA BLA BLA BLA BLA BLA BLA BLA BLA BLA BLA BLA 
BLA BLA BLA BLA BLA BLA BLA BLA BLA BLA BLA BLA BLA BLA BLA BLA BLA BLA BLA BLA 
BLA BLA BLA BLA BLA BLA BLA BLA BLA BLA BLA BLA BLA BLA BLA BLA BLA BLA BLA BLA 
BLA BLA BLA BLA BLA BLA BLA BLA BLA BLA BLA BLA BLA BLA BLA BLA BLA BLA BLA BLA 
BLA BLA BLA BLA BLA BLA BLA BLA BLA BLA BLA BLA BLA BLA BLA BLA BLA BLA BLA BLA 
BLA BLA BLA BLA BLA BLA BLA BLA BLA BLA BLA BLA BLA BLA BLA BLA BLA BLA BLA BLA 
BLA BLA BLA BLA BLA BLA BLA BLA BLA BLA BLA BLA BLA BLA BLA BLA BLA BLA BLA BLA 
BLA BLA BLA BLA BLA BLA BLA BLA BLA BLA BLA BLA BLA BLA BLA BLA BLA BLA BLA BLA 
BLA BLA BLA BLA BLA BLA BLA BLA BLA BLA BLA BLA BLA BLA BLA BLA BLA BLA BLA BLA 
BLA BLA BLA BLA BLA BLA BLA BLA BLA BLA BLA BLA BLA BLA BLA BLA BLA BLA BLA BLA 
BLA BLA BLA BLA BLA BLA BLA BLA BLA BLA BLA BLA BLA BLA BLA BLA BLA BLA BLA BLA 
BLA BLA BLA BLA BLA BLA BLA BLA BLA BLA BLA BLA BLA BLA BLA BLA BLA BLA BLA BLA 
BLA BLA BLA BLA BLA BLA BLA BLA BLA BLA BLA BLA BLA BLA BLA BLA BLA BLA BLA BLA 
BLA BLA BLA BLA BLA BLA BLA BLA BLA BLA BLA BLA BLA BLA BLA BLA BLA BLA BLA BLA 
BLA BLA BLA BLA BLA BLA BLA BLA BLA BLA BLA BLA BLA BLA BLA BLA BLA BLA BLA BLA 
BLA BLA BLA BLA BLA BLA BLA BLA BLA BLA BLA BLA BLA BLA BLA BLA BLA BLA BLA BLA 
BLA BLA BLA BLA BLA BLA BLA BLA BLA BLA BLA BLA BLA BLA BLA BLA BLA BLA BLA BLA 
BLA BLA BLA BLA BLA BLA BLA BLA BLA BLA BLA BLA BLA BLA BLA BLA BLA BLA BLA BLA 
BLA BLA BLA BLA BLA BLA BLA BLA BLA BLA BLA BLA BLA BLA BLA BLA BLA BLA BLA BLA 
BLA BLA BLA BLA BLA BLA BLA BLA BLA BLA BLA BLA BLA BLA BLA BLA BLA BLA BLA BLA 
BLA BLA BLA BLA BLA BLA BLA BLA BLA BLA BLA BLA BLA BLA BLA BLA BLA BLA BLA BLA 
BLA BLA BLA BLA BLA BLA BLA BLA BLA BLA BLA BLA BLA BLA BLA BLA BLA BLA BLA BLA 
BLA BLA BLA BLA BLA BLA BLA BLA BLA BLA BLA BLA BLA BLA BLA BLA BLA BLA BLA BLA 
BLA BLA BLA BLA BLA BLA BLA BLA BLA BLA BLA BLA BLA BLA BLA BLA BLA BLA BLA BLA 
BLA BLA BLA BLA BLA BLA BLA BLA BLA BLA BLA BLA BLA BLA BLA BLA BLA BLA BLA BLA 
BLA BLA BLA BLA BLA BLA BLA BLA BLA BLA BLA BLA BLA BLA BLA BLA BLA BLA BLA BLA 
BLA BLA BLA BLA BLA BLA BLA BLA BLA BLA BLA BLA BLA BLA BLA BLA BLA BLA BLA BLA 
BLA BLA BLA BLA BLA BLA BLA BLA BLA BLA BLA BLA BLA BLA BLA BLA BLA BLA BLA BLA 
BLA BLA BLA BLA BLA BLA BLA BLA BLA BLA BLA BLA BLA BLA BLA BLA BLA BLA BLA BLA 
BLA BLA BLA BLA BLA BLA BLA BLA BLA BLA BLA BLA BLA BLA BLA BLA BLA BLA BLA BLA 
BLA BLA BLA BLA BLA BLA BLA BLA BLA BLA BLA BLA BLA BLA BLA BLA BLA BLA BLA BLA 
BLA BLA BLA BLA BLA BLA BLA BLA BLA BLA BLA BLA BLA BLA BLA BLA BLA BLA BLA BLA 
BLA BLA BLA BLA BLA BLA BLA BLA BLA BLA BLA BLA BLA BLA BLA BLA BLA BLA BLA BLA 
BLA BLA BLA BLA BLA BLA BLA BLA BLA BLA BLA BLA BLA BLA BLA BLA BLA BLA BLA BLA 
BLA BLA BLA BLA BLA BLA BLA BLA BLA BLA BLA BLA BLA BLA BLA BLA BLA BLA BLA BLA 
BLA BLA BLA BLA BLA BLA BLA BLA BLA BLA BLA BLA BLA BLA BLA BLA BLA BLA BLA BLA 
BLA BLA BLA BLA BLA BLA BLA BLA BLA BLA BLA BLA BLA BLA BLA BLA BLA BLA BLA BLA 
BLA BLA BLA BLA BLA BLA BLA BLA BLA BLA BLA BLA BLA BLA BLA BLA BLA BLA BLA BLA 
BLA BLA BLA BLA BLA BLA BLA BLA BLA BLA BLA BLA BLA BLA BLA BLA BLA BLA BLA BLA 
BLA BLA BLA BLA BLA BLA BLA BLA BLA BLA BLA BLA BLA BLA BLA BLA BLA BLA BLA BLA 
BLA BLA BLA BLA BLA BLA BLA BLA BLA BLA BLA BLA BLA BLA BLA BLA BLA BLA BLA BLA 
BLA BLA BLA BLA BLA BLA BLA BLA BLA BLA BLA BLA BLA BLA BLA BLA BLA BLA BLA BLA 
BLA BLA BLA BLA BLA BLA BLA BLA BLA BLA BLA BLA BLA BLA BLA BLA BLA BLA BLA BLA 
BLA BLA BLA BLA BLA BLA BLA BLA BLA BLA BLA BLA BLA BLA BLA BLA BLA BLA BLA BLA 
BLA BLA BLA BLA BLA BLA BLA BLA BLA BLA BLA BLA BLA BLA BLA BLA BLA BLA BLA BLA 
BLA BLA BLA BLA BLA BLA BLA BLA BLA BLA BLA BLA BLA BLA BLA BLA BLA BLA BLA BLA 
BLA BLA BLA BLA BLA BLA BLA BLA BLA BLA BLA BLA BLA BLA BLA BLA BLA BLA BLA BLA 
BLA BLA BLA BLA BLA BLA BLA BLA BLA BLA BLA BLA BLA BLA BLA BLA BLA BLA BLA BLA 
BLA BLA BLA BLA BLA BLA BLA BLA BLA BLA BLA BLA BLA BLA BLA BLA BLA BLA BLA BLA 
BLA BLA BLA BLA BLA BLA BLA BLA BLA BLA BLA BLA BLA BLA BLA BLA BLA BLA BLA BLA 
BLA BLA BLA BLA BLA BLA BLA BLA BLA BLA BLA BLA BLA BLA BLA BLA BLA BLA BLA BLA 
BLA BLA BLA BLA BLA BLA BLA BLA BLA BLA BLA BLA BLA BLA BLA BLA BLA BLA BLA BLA 
BLA BLA BLA BLA BLA BLA BLA BLA BLA BLA BLA BLA BLA BLA BLA BLA BLA BLA BLA BLA 
BLA BLA BLA BLA BLA BLA BLA BLA BLA BLA BLA BLA BLA BLA BLA BLA BLA BLA BLA BLA 
BLA BLA BLA BLA BLA BLA BLA BLA BLA BLA BLA BLA BLA BLA BLA BLA BLA BLA BLA BLA 
BLA BLA BLA BLA BLA BLA BLA BLA BLA BLA BLA BLA BLA BLA BLA BLA BLA BLA BLA BLA 
BLA BLA BLA BLA BLA BLA BLA BLA BLA BLA BLA BLA BLA BLA BLA BLA BLA BLA BLA BLA 
BLA BLA BLA BLA BLA BLA BLA BLA BLA BLA BLA BLA BLA BLA BLA BLA BLA BLA BLA BLA 
BLA BLA BLA BLA BLA BLA BLA BLA BLA BLA BLA BLA BLA BLA BLA BLA BLA BLA BLA BLA 
BLA BLA BLA BLA BLA BLA BLA BLA BLA BLA BLA BLA BLA BLA BLA BLA BLA BLA BLA BLA 
BLA BLA BLA BLA BLA BLA BLA BLA BLA BLA BLA BLA BLA BLA BLA BLA BLA BLA BLA BLA 
BLA BLA BLA BLA BLA BLA BLA BLA BLA BLA BLA BLA BLA BLA BLA BLA BLA BLA BLA BLA 
BLA BLA BLA BLA BLA BLA BLA BLA BLA BLA BLA BLA BLA BLA BLA BLA BLA BLA BLA BLA 
BLA BLA BLA BLA BLA BLA BLA BLA BLA BLA BLA BLA BLA BLA BLA BLA BLA BLA BLA BLA 
BLA BLA BLA BLA BLA BLA BLA BLA BLA BLA BLA BLA BLA BLA BLA BLA BLA BLA BLA BLA 
BLA BLA BLA BLA BLA BLA BLA BLA BLA BLA BLA BLA BLA BLA BLA BLA BLA BLA BLA BLA 
BLA BLA BLA BLA BLA BLA BLA BLA BLA BLA BLA BLA BLA BLA BLA BLA BLA BLA BLA BLA 
BLA BLA BLA BLA BLA BLA BLA BLA BLA BLA BLA BLA BLA BLA BLA BLA BLA BLA BLA BLA 
BLA BLA BLA BLA BLA BLA BLA BLA BLA BLA BLA BLA BLA BLA BLA BLA BLA BLA BLA BLA 
BLA BLA BLA BLA BLA BLA BLA BLA BLA BLA BLA BLA BLA BLA BLA BLA BLA BLA BLA BLA 
BLA BLA BLA BLA BLA BLA BLA BLA BLA BLA BLA BLA BLA BLA BLA BLA BLA BLA BLA BLA 
BLA BLA BLA BLA BLA BLA BLA BLA BLA BLA BLA BLA BLA BLA BLA BLA BLA BLA BLA BLA 
BLA BLA BLA BLA BLA BLA BLA BLA BLA BLA BLA BLA BLA BLA BLA BLA BLA BLA BLA BLA 
BLA BLA BLA BLA BLA BLA BLA BLA BLA BLA BLA BLA BLA BLA BLA BLA BLA BLA BLA BLA 
BLA BLA BLA BLA BLA BLA BLA BLA BLA BLA BLA BLA BLA BLA BLA BLA BLA BLA BLA BLA 
BLA BLA BLA BLA BLA BLA BLA BLA BLA BLA BLA BLA BLA BLA BLA BLA BLA BLA BLA BLA 
BLA BLA BLA BLA BLA BLA BLA BLA BLA BLA BLA BLA BLA BLA BLA BLA BLA BLA BLA BLA 
BLA BLA BLA BLA BLA BLA BLA BLA BLA BLA BLA BLA BLA BLA BLA BLA BLA BLA BLA BLA 
BLA BLA BLA BLA BLA BLA BLA BLA BLA BLA BLA BLA BLA BLA BLA BLA BLA BLA BLA BLA 
BLA BLA BLA BLA BLA BLA BLA BLA BLA BLA BLA BLA BLA BLA BLA BLA BLA BLA BLA BLA 
BLA BLA BLA BLA BLA BLA BLA BLA BLA BLA BLA BLA BLA BLA BLA BLA BLA BLA BLA BLA 
BLA BLA BLA BLA BLA BLA BLA BLA BLA BLA BLA BLA BLA BLA BLA BLA BLA BLA BLA BLA 
BLA BLA BLA BLA BLA BLA BLA BLA BLA BLA BLA BLA BLA BLA BLA BLA BLA BLA BLA BLA 
BLA BLA BLA BLA BLA BLA BLA BLA BLA BLA BLA BLA BLA BLA BLA BLA BLA BLA BLA BLA 
BLA BLA BLA BLA BLA BLA BLA BLA BLA BLA BLA BLA BLA BLA BLA BLA BLA BLA BLA BLA 
BLA BLA BLA BLA BLA BLA BLA BLA BLA BLA BLA BLA BLA BLA BLA BLA BLA BLA BLA BLA 
BLA BLA BLA BLA BLA BLA BLA BLA BLA BLA BLA BLA BLA BLA BLA BLA BLA BLA BLA BLA 
BLA BLA BLA BLA BLA BLA BLA BLA BLA BLA BLA BLA BLA BLA BLA BLA BLA BLA BLA BLA 
BLA BLA BLA BLA BLA BLA BLA BLA BLA BLA BLA BLA BLA BLA BLA BLA BLA BLA BLA BLA 
BLA BLA BLA BLA BLA BLA BLA BLA BLA BLA BLA BLA BLA BLA BLA BLA BLA BLA BLA BLA 
BLA BLA BLA BLA BLA BLA BLA BLA BLA BLA BLA BLA BLA BLA BLA BLA BLA BLA BLA BLA 
BLA BLA BLA BLA BLA BLA BLA BLA BLA BLA BLA BLA BLA BLA BLA BLA BLA BLA BLA BLA 
BLA BLA BLA BLA BLA BLA BLA BLA BLA BLA BLA BLA BLA BLA BLA BLA BLA BLA BLA BLA 
BLA BLA BLA BLA BLA BLA BLA BLA BLA BLA BLA BLA BLA BLA BLA BLA BLA BLA BLA BLA 
BLA BLA BLA BLA BLA BLA BLA BLA BLA BLA BLA BLA BLA BLA BLA BLA BLA BLA BLA BLA 
BLA BLA BLA BLA BLA BLA BLA BLA BLA BLA BLA BLA BLA BLA BLA BLA BLA BLA BLA BLA 
BLA BLA BLA BLA BLA BLA BLA BLA BLA BLA BLA BLA BLA BLA BLA BLA BLA BLA BLA BLA 
BLA BLA BLA BLA BLA BLA BLA BLA BLA BLA BLA BLA BLA BLA BLA BLA BLA BLA BLA BLA 
BLA BLA BLA BLA BLA BLA BLA BLA BLA BLA BLA BLA BLA BLA BLA BLA BLA BLA BLA BLA 
BLA BLA BLA BLA BLA BLA BLA BLA BLA BLA BLA BLA BLA BLA BLA BLA BLA BLA BLA BLA 
BLA BLA BLA BLA BLA BLA BLA BLA BLA BLA BLA BLA BLA BLA BLA BLA BLA BLA BLA BLA 
BLA BLA BLA BLA BLA BLA BLA BLA BLA BLA BLA BLA BLA BLA BLA BLA BLA BLA BLA BLA 
BLA BLA BLA BLA BLA BLA BLA BLA BLA BLA BLA BLA BLA BLA BLA BLA BLA BLA BLA BLA 
BLA BLA BLA BLA BLA BLA BLA BLA BLA BLA BLA BLA BLA BLA BLA BLA BLA BLA BLA BLA 
BLA BLA BLA BLA BLA BLA BLA BLA BLA BLA BLA BLA BLA BLA BLA BLA BLA BLA BLA BLA 
BLA BLA BLA BLA BLA BLA BLA BLA BLA BLA BLA BLA BLA BLA BLA BLA BLA BLA BLA BLA 
BLA BLA BLA BLA BLA BLA BLA BLA BLA BLA BLA BLA BLA BLA BLA BLA BLA BLA BLA BLA 
BLA BLA BLA BLA BLA BLA BLA BLA BLA BLA BLA BLA BLA BLA BLA BLA BLA BLA BLA BLA 
BLA BLA BLA BLA BLA BLA BLA BLA BLA BLA BLA BLA BLA BLA BLA BLA BLA BLA BLA BLA 
BLA BLA BLA BLA BLA BLA BLA BLA BLA BLA BLA BLA BLA BLA BLA BLA BLA BLA BLA BLA 
BLA BLA BLA BLA BLA BLA BLA BLA BLA BLA BLA BLA BLA BLA BLA BLA BLA BLA BLA BLA 
BLA BLA BLA BLA BLA BLA BLA BLA BLA BLA BLA BLA BLA BLA BLA BLA BLA BLA BLA BLA 
BLA BLA BLA BLA BLA BLA BLA BLA BLA BLA BLA BLA BLA BLA BLA BLA BLA BLA BLA BLA 
BLA BLA BLA BLA BLA BLA BLA BLA BLA BLA BLA BLA BLA BLA BLA BLA BLA BLA BLA BLA 
BLA BLA BLA BLA BLA BLA BLA BLA BLA BLA BLA BLA BLA BLA BLA BLA BLA BLA BLA BLA 
BLA BLA BLA BLA BLA BLA BLA BLA BLA BLA BLA BLA BLA BLA BLA BLA BLA BLA BLA BLA 
BLA BLA BLA BLA BLA BLA BLA BLA BLA BLA BLA BLA BLA BLA BLA BLA BLA BLA BLA BLA 
BLA BLA BLA BLA BLA BLA BLA BLA BLA BLA BLA BLA BLA BLA BLA BLA BLA BLA BLA BLA 
BLA BLA BLA BLA BLA BLA BLA BLA BLA BLA BLA BLA BLA BLA BLA BLA BLA BLA BLA BLA 
BLA BLA BLA BLA BLA BLA BLA BLA BLA BLA BLA BLA BLA BLA BLA BLA BLA BLA BLA BLA 
BLA BLA BLA BLA BLA BLA BLA BLA BLA BLA BLA BLA BLA BLA BLA BLA BLA BLA BLA BLA 
BLA BLA BLA BLA BLA BLA BLA BLA BLA BLA BLA BLA BLA BLA BLA BLA BLA BLA BLA BLA 
BLA BLA BLA BLA BLA BLA BLA BLA BLA BLA BLA BLA BLA BLA BLA BLA BLA BLA BLA BLA 
BLA BLA BLA BLA BLA BLA BLA BLA BLA BLA BLA BLA BLA BLA BLA BLA BLA BLA BLA BLA 
BLA BLA BLA BLA BLA BLA BLA BLA BLA BLA BLA BLA BLA BLA BLA BLA BLA BLA BLA BLA 
BLA BLA BLA BLA BLA BLA BLA BLA BLA BLA BLA BLA BLA BLA BLA BLA BLA BLA BLA BLA 
BLA BLA BLA BLA BLA BLA BLA BLA BLA BLA BLA BLA BLA BLA BLA BLA BLA BLA BLA BLA 
BLA BLA BLA BLA BLA BLA BLA BLA BLA BLA BLA BLA BLA BLA BLA BLA BLA BLA BLA BLA 
BLA BLA BLA BLA BLA BLA BLA BLA BLA BLA BLA BLA BLA BLA BLA BLA BLA BLA BLA BLA 
BLA BLA BLA BLA BLA BLA BLA BLA BLA BLA BLA BLA BLA BLA BLA BLA BLA BLA BLA BLA 
BLA BLA BLA BLA BLA BLA BLA BLA BLA BLA BLA BLA BLA BLA BLA BLA BLA BLA BLA BLA 
BLA BLA BLA BLA BLA BLA BLA BLA BLA BLA BLA BLA BLA BLA BLA BLA BLA BLA BLA BLA 
BLA BLA BLA BLA BLA BLA BLA BLA BLA BLA BLA BLA BLA BLA BLA BLA BLA BLA BLA BLA 
BLA BLA BLA BLA BLA BLA BLA BLA BLA BLA BLA BLA BLA BLA BLA BLA BLA BLA BLA BLA 
BLA BLA BLA BLA BLA BLA BLA BLA BLA BLA BLA BLA BLA BLA BLA BLA BLA BLA BLA BLA 
BLA BLA BLA BLA BLA BLA BLA BLA BLA BLA BLA BLA BLA BLA BLA BLA BLA BLA BLA BLA 
BLA BLA BLA BLA BLA BLA BLA BLA BLA BLA BLA BLA BLA BLA BLA BLA BLA BLA BLA BLA 
BLA BLA BLA BLA BLA BLA BLA BLA BLA BLA BLA BLA BLA BLA BLA BLA BLA BLA BLA BLA 
BLA BLA BLA BLA BLA BLA BLA BLA BLA BLA BLA BLA BLA BLA BLA BLA BLA BLA BLA BLA 
BLA BLA BLA BLA BLA BLA BLA BLA BLA BLA BLA BLA BLA BLA BLA BLA BLA BLA BLA BLA 
BLA BLA BLA BLA BLA BLA BLA BLA BLA BLA BLA BLA BLA BLA BLA BLA BLA BLA BLA BLA 
BLA BLA BLA BLA BLA BLA BLA BLA BLA BLA BLA BLA BLA BLA BLA BLA BLA BLA BLA BLA 
BLA BLA BLA BLA BLA BLA BLA BLA BLA BLA BLA BLA BLA BLA BLA BLA BLA BLA BLA BLA 
BLA BLA BLA BLA BLA BLA BLA BLA BLA BLA BLA BLA BLA BLA BLA BLA BLA BLA BLA BLA 
BLA BLA BLA BLA BLA BLA BLA BLA BLA BLA BLA BLA BLA BLA BLA BLA BLA BLA BLA BLA 
BLA BLA BLA BLA BLA BLA BLA BLA BLA BLA BLA BLA BLA BLA BLA BLA BLA BLA BLA BLA 
BLA BLA BLA BLA BLA BLA BLA BLA BLA BLA BLA BLA BLA BLA BLA BLA BLA BLA BLA BLA 
BLA BLA BLA BLA BLA BLA BLA BLA BLA BLA BLA BLA BLA BLA BLA BLA BLA BLA BLA BLA 
BLA BLA BLA BLA BLA BLA BLA BLA BLA BLA BLA BLA BLA BLA BLA BLA BLA BLA BLA BLA 
BLA BLA BLA BLA BLA BLA BLA BLA BLA BLA BLA BLA BLA BLA BLA BLA BLA BLA BLA BLA 
BLA BLA BLA BLA BLA BLA BLA BLA BLA BLA BLA BLA BLA BLA BLA BLA BLA BLA BLA BLA 
BLA BLA BLA BLA BLA BLA BLA BLA BLA BLA BLA BLA BLA BLA BLA BLA BLA BLA BLA BLA 
BLA BLA BLA BLA BLA BLA BLA BLA BLA BLA BLA BLA BLA BLA BLA BLA BLA BLA BLA BLA 
BLA BLA BLA BLA BLA BLA BLA BLA BLA BLA BLA BLA BLA BLA BLA BLA BLA BLA BLA BLA 
BLA BLA BLA BLA BLA BLA BLA BLA BLA BLA BLA BLA BLA BLA BLA BLA BLA BLA BLA BLA 
BLA BLA BLA BLA BLA BLA BLA BLA BLA BLA BLA BLA BLA BLA BLA BLA BLA BLA BLA BLA 
BLA BLA BLA BLA BLA BLA BLA BLA BLA BLA BLA BLA BLA BLA BLA BLA BLA BLA BLA BLA 
BLA BLA BLA BLA BLA BLA BLA BLA BLA BLA BLA BLA BLA BLA BLA BLA BLA BLA BLA BLA 
BLA BLA BLA BLA BLA BLA BLA BLA BLA BLA BLA BLA BLA BLA BLA BLA BLA BLA BLA BLA 
BLA BLA BLA BLA BLA BLA BLA BLA BLA BLA BLA BLA BLA BLA BLA BLA BLA BLA BLA BLA 
BLA BLA BLA BLA BLA BLA BLA BLA BLA BLA BLA BLA BLA BLA BLA BLA BLA BLA BLA BLA 
BLA BLA BLA BLA BLA BLA BLA BLA BLA BLA BLA BLA BLA BLA BLA BLA BLA BLA BLA BLA 
BLA BLA BLA BLA BLA BLA BLA BLA BLA BLA BLA BLA BLA BLA BLA BLA BLA BLA BLA BLA 
BLA BLA BLA BLA BLA BLA BLA BLA BLA BLA BLA BLA BLA BLA BLA BLA BLA BLA BLA BLA 
BLA BLA BLA BLA BLA BLA BLA BLA BLA BLA BLA BLA BLA BLA BLA BLA BLA BLA BLA BLA 
BLA BLA BLA BLA BLA BLA BLA BLA BLA BLA BLA BLA BLA BLA BLA BLA BLA BLA BLA BLA 
BLA BLA BLA BLA BLA BLA BLA BLA BLA BLA BLA BLA BLA BLA BLA BLA BLA BLA BLA BLA 
BLA BLA BLA BLA BLA BLA BLA BLA BLA BLA BLA BLA BLA BLA BLA BLA BLA BLA BLA BLA 
BLA BLA BLA BLA BLA BLA BLA BLA BLA BLA BLA BLA BLA BLA BLA BLA BLA BLA BLA BLA 
BLA BLA BLA BLA BLA BLA BLA BLA BLA BLA BLA BLA BLA BLA BLA BLA BLA BLA BLA BLA 
BLA BLA BLA BLA BLA BLA BLA BLA BLA BLA BLA BLA BLA BLA BLA BLA BLA BLA BLA BLA 
BLA BLA BLA BLA BLA BLA BLA BLA BLA BLA BLA BLA BLA BLA BLA BLA BLA BLA BLA BLA 
BLA BLA BLA BLA BLA BLA BLA BLA BLA BLA BLA BLA BLA BLA BLA BLA BLA BLA BLA BLA 
BLA BLA BLA BLA BLA BLA BLA BLA BLA BLA BLA BLA BLA BLA BLA BLA BLA BLA BLA BLA 
BLA BLA BLA BLA BLA BLA BLA BLA BLA BLA BLA BLA BLA BLA BLA BLA BLA BLA BLA BLA 
BLA BLA BLA BLA BLA BLA BLA BLA BLA BLA BLA BLA BLA BLA BLA BLA BLA BLA BLA BLA 
BLA BLA BLA BLA BLA BLA BLA BLA BLA BLA BLA BLA BLA BLA BLA BLA BLA BLA BLA BLA 
BLA BLA BLA BLA BLA BLA BLA BLA BLA BLA BLA BLA BLA BLA BLA BLA BLA BLA BLA BLA 
BLA BLA BLA BLA BLA BLA BLA BLA BLA BLA BLA BLA BLA BLA BLA BLA BLA BLA BLA BLA 
BLA BLA BLA BLA BLA BLA BLA BLA BLA BLA BLA BLA BLA BLA BLA BLA BLA BLA BLA BLA 
BLA BLA BLA BLA BLA BLA BLA BLA BLA BLA BLA BLA BLA BLA BLA BLA BLA BLA BLA BLA 
BLA BLA BLA BLA BLA BLA BLA BLA BLA BLA BLA BLA BLA BLA BLA BLA BLA BLA BLA BLA 
BLA BLA BLA BLA BLA BLA BLA BLA BLA BLA BLA BLA BLA BLA BLA BLA BLA BLA BLA BLA 
BLA BLA BLA BLA BLA BLA BLA BLA BLA BLA BLA BLA BLA BLA BLA BLA BLA BLA BLA BLA 
BLA BLA BLA BLA BLA BLA BLA BLA BLA BLA BLA BLA BLA BLA BLA BLA BLA BLA BLA BLA 
BLA BLA BLA BLA BLA BLA BLA BLA BLA BLA BLA BLA BLA BLA BLA BLA BLA BLA BLA BLA 
BLA BLA BLA BLA BLA BLA BLA BLA BLA BLA BLA BLA BLA BLA BLA BLA BLA BLA BLA BLA 
BLA BLA BLA BLA BLA BLA BLA BLA BLA BLA BLA BLA BLA BLA BLA BLA BLA BLA BLA BLA 
BLA BLA BLA BLA BLA BLA BLA BLA BLA BLA BLA BLA BLA BLA BLA BLA BLA BLA BLA BLA 
BLA BLA BLA BLA BLA BLA BLA BLA BLA BLA BLA BLA BLA BLA BLA BLA BLA BLA BLA BLA 
BLA BLA BLA BLA BLA BLA BLA BLA BLA BLA BLA BLA BLA BLA BLA BLA BLA BLA BLA BLA 
BLA BLA BLA BLA BLA BLA BLA BLA BLA BLA BLA BLA BLA BLA BLA BLA BLA BLA BLA BLA 
BLA BLA BLA BLA BLA BLA BLA BLA BLA BLA BLA BLA BLA BLA BLA BLA BLA BLA BLA BLA 
BLA BLA BLA BLA BLA BLA BLA BLA BLA BLA BLA BLA BLA BLA BLA BLA BLA BLA BLA BLA 
BLA BLA BLA BLA BLA BLA BLA BLA BLA BLA BLA BLA BLA BLA BLA BLA BLA BLA BLA BLA 
BLA BLA BLA BLA BLA BLA BLA BLA BLA BLA BLA BLA BLA BLA BLA BLA BLA BLA BLA BLA 
BLA BLA BLA BLA BLA BLA BLA BLA BLA BLA BLA BLA BLA BLA BLA BLA BLA BLA BLA BLA 
BLA BLA BLA BLA BLA BLA BLA BLA BLA BLA BLA BLA BLA BLA BLA BLA BLA BLA BLA BLA 
BLA BLA BLA BLA BLA BLA BLA BLA BLA BLA BLA BLA BLA BLA BLA BLA BLA BLA BLA BLA 
BLA BLA BLA BLA BLA BLA BLA BLA BLA BLA BLA BLA BLA BLA BLA BLA BLA BLA BLA BLA 
BLA BLA BLA BLA BLA BLA BLA BLA BLA BLA BLA BLA BLA BLA BLA BLA BLA BLA BLA BLA 
BLA BLA BLA BLA BLA BLA BLA BLA BLA BLA BLA BLA BLA BLA BLA BLA BLA BLA BLA BLA 
BLA BLA BLA BLA BLA BLA BLA BLA BLA BLA BLA BLA BLA BLA BLA BLA BLA BLA BLA BLA 
BLA BLA BLA BLA BLA BLA BLA BLA BLA BLA BLA BLA BLA BLA BLA BLA BLA BLA BLA BLA 
BLA BLA BLA BLA BLA BLA BLA BLA BLA BLA BLA BLA BLA BLA BLA BLA BLA BLA BLA BLA 
BLA BLA BLA BLA BLA BLA BLA BLA BLA BLA BLA BLA BLA BLA BLA BLA BLA BLA BLA BLA 
BLA BLA BLA BLA BLA BLA BLA BLA BLA BLA BLA BLA BLA BLA BLA BLA BLA BLA BLA BLA 
BLA BLA BLA BLA BLA BLA BLA BLA BLA BLA BLA BLA BLA BLA BLA BLA BLA BLA BLA BLA 
BLA BLA BLA BLA BLA BLA BLA BLA BLA BLA BLA BLA BLA BLA BLA BLA BLA BLA BLA BLA 
BLA BLA BLA BLA BLA BLA BLA BLA BLA BLA BLA BLA BLA BLA BLA BLA BLA BLA BLA BLA 
BLA BLA BLA BLA BLA BLA BLA BLA BLA BLA BLA BLA BLA BLA BLA BLA BLA BLA BLA BLA 
BLA BLA BLA BLA BLA BLA BLA BLA BLA BLA BLA BLA BLA BLA BLA BLA BLA BLA BLA BLA 
BLA BLA BLA BLA BLA BLA BLA BLA BLA BLA BLA BLA BLA BLA BLA BLA BLA BLA BLA BLA 
BLA BLA BLA BLA BLA BLA BLA BLA BLA BLA BLA BLA BLA BLA BLA BLA BLA BLA BLA BLA 
BLA BLA BLA BLA BLA BLA BLA BLA BLA BLA BLA BLA BLA BLA BLA BLA BLA BLA BLA BLA 
BLA BLA BLA BLA BLA BLA BLA BLA BLA BLA BLA BLA BLA BLA BLA BLA BLA BLA BLA BLA 
BLA BLA BLA BLA BLA BLA BLA BLA BLA BLA BLA BLA BLA BLA BLA BLA BLA BLA BLA BLA 
BLA BLA BLA BLA BLA BLA BLA BLA BLA BLA BLA BLA BLA BLA BLA BLA BLA BLA BLA BLA 
BLA BLA BLA BLA BLA BLA BLA BLA BLA BLA BLA BLA BLA BLA BLA BLA BLA BLA BLA BLA 
BLA BLA BLA BLA BLA BLA BLA BLA BLA BLA BLA BLA BLA BLA BLA BLA BLA BLA BLA BLA 
BLA BLA BLA BLA BLA BLA BLA BLA BLA BLA BLA BLA BLA BLA BLA BLA BLA BLA BLA BLA 
BLA BLA BLA BLA BLA BLA BLA BLA BLA BLA BLA BLA BLA BLA BLA BLA BLA BLA BLA BLA 
BLA BLA BLA BLA BLA BLA BLA BLA BLA BLA BLA BLA BLA BLA BLA BLA BLA BLA BLA BLA 
BLA BLA BLA BLA BLA BLA BLA BLA BLA BLA BLA BLA BLA BLA BLA BLA BLA BLA BLA BLA 
BLA BLA BLA BLA BLA BLA BLA BLA BLA BLA BLA BLA BLA BLA BLA BLA BLA BLA BLA BLA 
BLA BLA BLA BLA BLA BLA BLA BLA BLA BLA BLA BLA BLA BLA BLA BLA BLA BLA BLA BLA 
BLA BLA BLA BLA BLA BLA BLA BLA BLA BLA BLA BLA BLA BLA BLA BLA BLA BLA BLA BLA 
BLA BLA BLA BLA BLA BLA BLA BLA BLA BLA BLA BLA BLA BLA BLA BLA BLA BLA BLA BLA 
BLA BLA BLA BLA BLA BLA BLA BLA BLA BLA BLA BLA BLA BLA BLA BLA BLA BLA BLA BLA 
BLA BLA BLA BLA BLA BLA BLA BLA BLA BLA BLA BLA BLA BLA BLA BLA BLA BLA BLA BLA 
BLA BLA BLA BLA BLA BLA BLA BLA BLA BLA BLA BLA BLA BLA BLA BLA BLA BLA BLA BLA 
BLA BLA BLA BLA BLA BLA BLA BLA BLA BLA BLA BLA BLA BLA BLA BLA BLA BLA BLA BLA 
BLA BLA BLA BLA BLA BLA BLA BLA BLA BLA BLA BLA BLA BLA BLA BLA BLA BLA BLA BLA 
BLA BLA BLA BLA BLA BLA BLA BLA BLA BLA BLA BLA BLA BLA BLA BLA BLA BLA BLA BLA 
BLA BLA BLA BLA BLA BLA BLA BLA BLA BLA BLA BLA BLA BLA BLA BLA BLA BLA BLA BLA 
BLA BLA BLA BLA BLA BLA BLA BLA BLA BLA BLA BLA BLA BLA BLA BLA BLA BLA BLA BLA 
BLA BLA BLA BLA BLA BLA BLA BLA BLA BLA BLA BLA BLA BLA BLA BLA BLA BLA BLA BLA 
BLA BLA BLA BLA BLA BLA BLA BLA BLA BLA BLA BLA BLA BLA BLA BLA BLA BLA BLA BLA 
BLA BLA BLA BLA BLA BLA BLA BLA BLA BLA BLA BLA BLA BLA BLA BLA BLA BLA BLA BLA 
BLA BLA BLA BLA BLA BLA BLA BLA BLA BLA BLA BLA BLA BLA BLA BLA BLA BLA BLA BLA 
BLA BLA BLA BLA BLA BLA BLA BLA BLA BLA BLA BLA BLA BLA BLA BLA BLA BLA BLA BLA 
BLA BLA BLA BLA BLA BLA BLA BLA BLA BLA BLA BLA BLA BLA BLA BLA BLA BLA BLA BLA 
BLA BLA BLA BLA BLA BLA BLA BLA BLA BLA BLA BLA BLA BLA BLA BLA BLA BLA BLA BLA 
BLA BLA BLA BLA BLA BLA BLA BLA BLA BLA BLA BLA BLA BLA BLA BLA BLA BLA BLA BLA 
BLA BLA BLA BLA BLA BLA BLA BLA BLA BLA BLA BLA BLA BLA BLA BLA BLA BLA BLA BLA 
BLA BLA BLA BLA BLA BLA BLA BLA BLA BLA BLA BLA BLA BLA BLA BLA BLA BLA BLA BLA 
BLA BLA BLA BLA BLA BLA BLA BLA BLA BLA BLA BLA BLA BLA BLA BLA BLA BLA BLA BLA 
BLA BLA BLA BLA BLA BLA BLA BLA BLA BLA BLA BLA BLA BLA BLA BLA BLA BLA BLA BLA 
BLA BLA BLA BLA BLA BLA BLA BLA BLA BLA BLA BLA BLA BLA BLA BLA BLA BLA BLA BLA 
BLA BLA BLA BLA BLA BLA BLA BLA BLA BLA BLA BLA BLA BLA BLA BLA BLA BLA BLA BLA 
BLA BLA BLA BLA BLA BLA BLA BLA BLA BLA BLA BLA BLA BLA BLA BLA BLA BLA BLA BLA 
BLA BLA BLA BLA BLA BLA BLA BLA BLA BLA BLA BLA BLA BLA BLA BLA BLA BLA BLA BLA 
BLA BLA BLA BLA BLA BLA BLA BLA BLA BLA BLA BLA BLA BLA BLA BLA BLA BLA BLA BLA 
BLA BLA BLA BLA BLA BLA BLA BLA BLA BLA BLA BLA BLA BLA BLA BLA BLA BLA BLA BLA 
BLA BLA BLA BLA BLA BLA BLA BLA BLA BLA BLA BLA BLA BLA BLA BLA BLA BLA BLA BLA 
BLA BLA BLA BLA BLA BLA BLA BLA BLA BLA BLA BLA BLA BLA BLA BLA BLA BLA BLA BLA 
BLA BLA BLA BLA BLA BLA BLA BLA BLA BLA BLA BLA BLA BLA BLA BLA BLA BLA BLA BLA 
BLA BLA BLA BLA BLA BLA BLA BLA BLA BLA BLA BLA BLA BLA BLA BLA BLA BLA BLA BLA 
BLA BLA BLA BLA BLA BLA BLA BLA BLA BLA BLA BLA BLA BLA BLA BLA BLA BLA BLA BLA 
BLA BLA BLA BLA BLA BLA BLA BLA BLA BLA BLA BLA BLA BLA BLA BLA BLA BLA BLA BLA 
BLA BLA BLA BLA BLA BLA BLA BLA BLA BLA BLA BLA BLA BLA BLA BLA BLA BLA BLA BLA 
BLA BLA BLA BLA BLA BLA BLA BLA BLA BLA BLA BLA BLA BLA BLA BLA BLA BLA BLA BLA 
BLA BLA BLA BLA BLA BLA BLA BLA BLA BLA BLA BLA BLA BLA BLA BLA BLA BLA BLA BLA 
BLA BLA BLA BLA BLA BLA BLA BLA BLA BLA BLA BLA BLA BLA BLA BLA BLA BLA BLA BLA 
BLA BLA BLA BLA BLA BLA BLA BLA BLA BLA BLA BLA BLA BLA BLA BLA BLA BLA BLA BLA 
BLA BLA BLA BLA BLA BLA BLA BLA BLA BLA BLA BLA BLA BLA BLA BLA BLA BLA BLA BLA 
BLA BLA BLA BLA BLA BLA BLA BLA BLA BLA BLA BLA BLA BLA BLA BLA BLA BLA BLA BLA 
BLA BLA BLA BLA BLA BLA BLA BLA BLA BLA BLA BLA BLA BLA BLA BLA BLA BLA BLA BLA 
BLA BLA BLA BLA BLA BLA BLA BLA BLA BLA BLA BLA BLA BLA BLA BLA BLA BLA BLA BLA 
BLA BLA BLA BLA BLA BLA BLA BLA BLA BLA BLA BLA BLA BLA BLA BLA BLA BLA BLA BLA 
BLA BLA BLA BLA BLA BLA BLA BLA BLA BLA BLA BLA BLA BLA BLA BLA BLA BLA BLA BLA 
BLA BLA BLA BLA BLA BLA BLA BLA BLA BLA BLA BLA BLA BLA BLA BLA BLA BLA BLA BLA 
BLA BLA BLA BLA BLA BLA BLA BLA BLA BLA BLA BLA BLA BLA BLA BLA BLA BLA BLA BLA 
BLA BLA BLA BLA BLA BLA BLA BLA BLA BLA BLA BLA BLA BLA BLA BLA BLA BLA BLA BLA 
BLA BLA BLA BLA BLA BLA BLA BLA BLA BLA BLA BLA BLA BLA BLA BLA BLA BLA BLA BLA 
BLA BLA BLA BLA BLA BLA BLA BLA BLA BLA BLA BLA BLA BLA BLA BLA BLA BLA BLA BLA 
BLA BLA BLA BLA BLA BLA BLA BLA BLA BLA BLA BLA BLA BLA BLA BLA BLA BLA BLA BLA 
BLA BLA BLA BLA BLA BLA BLA BLA BLA BLA BLA BLA BLA BLA BLA BLA BLA BLA BLA BLA 
BLA BLA BLA BLA BLA BLA BLA BLA BLA BLA BLA BLA BLA BLA BLA BLA BLA BLA BLA BLA 
BLA BLA BLA BLA BLA BLA BLA BLA BLA BLA BLA BLA BLA BLA BLA BLA BLA BLA BLA BLA 
BLA BLA BLA BLA BLA BLA BLA BLA BLA BLA BLA BLA BLA BLA BLA BLA BLA BLA BLA BLA 
BLA BLA BLA BLA BLA BLA BLA BLA BLA BLA BLA BLA BLA BLA BLA BLA BLA BLA BLA BLA 
BLA BLA BLA BLA BLA BLA BLA BLA BLA BLA BLA BLA BLA BLA BLA BLA BLA BLA BLA BLA 
BLA BLA BLA BLA BLA BLA BLA BLA BLA BLA BLA BLA BLA BLA BLA BLA BLA BLA BLA BLA 
BLA BLA BLA BLA BLA BLA BLA BLA BLA BLA BLA BLA BLA BLA BLA BLA BLA BLA BLA BLA 
BLA BLA BLA BLA BLA BLA BLA BLA BLA BLA BLA BLA BLA BLA BLA BLA BLA BLA BLA BLA 
BLA BLA BLA BLA BLA BLA BLA BLA BLA BLA BLA BLA BLA BLA BLA BLA BLA BLA BLA BLA 
BLA BLA BLA BLA BLA BLA BLA BLA BLA BLA BLA BLA BLA BLA BLA BLA BLA BLA BLA BLA 
BLA BLA BLA BLA BLA BLA BLA BLA BLA BLA BLA BLA BLA BLA BLA BLA BLA BLA BLA BLA 
BLA BLA BLA BLA BLA BLA BLA BLA BLA BLA BLA BLA BLA BLA BLA BLA BLA BLA BLA BLA 
BLA BLA BLA BLA BLA BLA BLA BLA BLA BLA BLA BLA BLA BLA BLA BLA BLA BLA BLA BLA 
BLA BLA BLA BLA BLA BLA BLA BLA BLA BLA BLA BLA BLA BLA BLA BLA BLA BLA BLA BLA 
BLA BLA BLA BLA BLA BLA BLA BLA BLA BLA BLA BLA BLA BLA BLA BLA BLA BLA BLA BLA 
BLA BLA BLA BLA BLA BLA BLA BLA BLA BLA BLA BLA BLA BLA BLA BLA BLA BLA BLA BLA 
BLA BLA BLA BLA BLA BLA BLA BLA BLA BLA BLA BLA BLA BLA BLA BLA BLA BLA BLA BLA 
BLA BLA BLA BLA BLA BLA BLA BLA BLA BLA BLA BLA BLA BLA BLA BLA BLA BLA BLA BLA 
BLA BLA BLA BLA BLA BLA BLA BLA BLA BLA BLA BLA BLA BLA BLA BLA BLA BLA BLA BLA 
BLA BLA BLA BLA BLA BLA BLA BLA BLA BLA BLA BLA BLA BLA BLA BLA BLA BLA BLA BLA 
BLA BLA BLA BLA BLA BLA BLA BLA BLA BLA BLA BLA BLA BLA BLA BLA BLA BLA BLA BLA 
BLA BLA BLA BLA BLA BLA BLA BLA BLA BLA BLA BLA BLA BLA BLA BLA BLA BLA BLA BLA 
BLA BLA BLA BLA BLA BLA BLA BLA BLA BLA BLA BLA BLA BLA BLA BLA BLA BLA BLA BLA 
BLA BLA BLA BLA BLA BLA BLA BLA BLA BLA BLA BLA BLA BLA BLA BLA BLA BLA BLA BLA 
BLA BLA BLA BLA BLA BLA BLA BLA BLA BLA BLA BLA BLA BLA BLA BLA BLA BLA BLA BLA 
BLA BLA BLA BLA BLA BLA BLA BLA BLA BLA BLA BLA BLA BLA BLA BLA BLA BLA BLA BLA 
BLA BLA BLA BLA BLA BLA BLA BLA BLA BLA BLA BLA BLA BLA BLA BLA BLA BLA BLA BLA 
BLA BLA BLA BLA BLA BLA BLA BLA BLA BLA BLA BLA BLA BLA BLA BLA BLA BLA BLA BLA 
BLA BLA BLA BLA BLA BLA BLA BLA BLA BLA BLA BLA BLA BLA BLA BLA BLA BLA BLA BLA 
BLA BLA BLA BLA BLA BLA BLA BLA BLA BLA BLA BLA BLA BLA BLA BLA BLA BLA BLA BLA 
BLA BLA BLA BLA BLA BLA BLA BLA BLA BLA BLA BLA BLA BLA BLA BLA BLA BLA BLA BLA 
BLA BLA BLA BLA BLA BLA BLA BLA BLA BLA BLA BLA BLA BLA BLA BLA BLA BLA BLA BLA 
BLA BLA BLA BLA BLA BLA BLA BLA BLA BLA BLA BLA BLA BLA BLA BLA BLA BLA BLA BLA 
BLA BLA BLA BLA BLA BLA BLA BLA BLA BLA BLA BLA BLA BLA BLA BLA BLA BLA BLA BLA 
BLA BLA BLA BLA BLA BLA BLA BLA BLA BLA BLA BLA BLA BLA BLA BLA BLA BLA BLA BLA 
BLA BLA BLA BLA BLA BLA BLA BLA BLA BLA BLA BLA BLA BLA BLA BLA BLA BLA BLA BLA 
BLA BLA BLA BLA BLA BLA BLA BLA BLA BLA BLA BLA BLA BLA BLA BLA BLA BLA BLA BLA 
BLA BLA BLA BLA BLA BLA BLA BLA BLA BLA BLA BLA BLA BLA BLA BLA BLA BLA BLA BLA 
BLA BLA BLA BLA BLA BLA BLA BLA BLA BLA BLA BLA BLA BLA BLA BLA BLA BLA BLA BLA 
BLA BLA BLA BLA BLA BLA BLA BLA BLA BLA BLA BLA BLA BLA BLA BLA BLA BLA BLA BLA 
BLA BLA BLA BLA BLA BLA BLA BLA BLA BLA BLA BLA BLA BLA BLA BLA BLA BLA BLA BLA 
BLA BLA BLA BLA BLA BLA BLA BLA BLA BLA BLA BLA BLA BLA BLA BLA BLA BLA BLA BLA 
BLA BLA BLA BLA BLA BLA BLA BLA BLA BLA BLA BLA BLA BLA BLA BLA BLA BLA BLA BLA 
BLA BLA BLA BLA BLA BLA BLA BLA BLA BLA BLA BLA BLA BLA BLA BLA BLA BLA BLA BLA 
BLA BLA BLA BLA BLA BLA BLA BLA BLA BLA BLA BLA BLA BLA BLA BLA BLA BLA BLA BLA 
BLA BLA BLA BLA BLA BLA BLA BLA BLA BLA BLA BLA BLA BLA BLA BLA BLA BLA BLA BLA 
BLA BLA BLA BLA BLA BLA BLA BLA BLA BLA BLA BLA BLA BLA BLA BLA BLA BLA BLA BLA 
BLA BLA BLA BLA BLA BLA BLA BLA BLA BLA BLA BLA BLA BLA BLA BLA BLA BLA BLA BLA 
BLA BLA BLA BLA BLA BLA BLA BLA BLA BLA BLA BLA BLA BLA BLA BLA BLA BLA BLA BLA 
BLA BLA BLA BLA BLA BLA BLA BLA BLA BLA BLA BLA BLA BLA BLA BLA BLA BLA BLA BLA 
BLA BLA BLA BLA BLA BLA BLA BLA BLA BLA BLA BLA BLA BLA BLA BLA BLA BLA BLA BLA 
BLA BLA BLA BLA BLA BLA BLA BLA BLA BLA BLA BLA BLA BLA BLA BLA BLA BLA BLA BLA 
BLA BLA BLA BLA BLA BLA BLA BLA BLA BLA BLA BLA BLA BLA BLA BLA BLA BLA BLA BLA 
BLA BLA BLA BLA BLA BLA BLA BLA BLA BLA BLA BLA BLA BLA BLA BLA BLA BLA BLA BLA 
BLA BLA BLA BLA BLA BLA BLA BLA BLA BLA BLA BLA BLA BLA BLA BLA BLA BLA BLA BLA 
BLA BLA BLA BLA BLA BLA BLA BLA BLA BLA BLA BLA BLA BLA BLA BLA BLA BLA BLA BLA 
BLA BLA BLA BLA BLA BLA BLA BLA BLA BLA BLA BLA BLA BLA BLA BLA BLA BLA BLA BLA 
BLA BLA BLA BLA BLA BLA BLA BLA BLA BLA BLA BLA BLA BLA BLA BLA BLA BLA BLA BLA 
BLA BLA BLA BLA BLA BLA BLA BLA BLA BLA BLA BLA BLA BLA BLA BLA BLA BLA BLA BLA 
BLA BLA BLA BLA BLA BLA BLA BLA BLA BLA BLA BLA BLA BLA BLA BLA BLA BLA BLA BLA 
BLA BLA BLA BLA BLA BLA BLA BLA BLA BLA BLA BLA BLA BLA BLA BLA BLA BLA BLA BLA 
BLA BLA BLA BLA BLA BLA BLA BLA BLA BLA BLA BLA BLA BLA BLA BLA BLA BLA BLA BLA 
BLA BLA BLA BLA BLA BLA BLA BLA BLA BLA BLA BLA BLA BLA BLA BLA BLA BLA BLA BLA 
BLA BLA BLA BLA BLA BLA BLA BLA BLA BLA BLA BLA BLA BLA BLA BLA BLA BLA BLA BLA 
BLA BLA BLA BLA BLA BLA BLA BLA BLA BLA BLA BLA BLA BLA BLA BLA BLA BLA BLA BLA 
BLA BLA BLA BLA BLA BLA BLA BLA BLA BLA BLA BLA BLA BLA BLA BLA BLA BLA BLA BLA 
BLA BLA BLA BLA BLA BLA BLA BLA BLA BLA BLA BLA BLA BLA BLA BLA BLA BLA BLA BLA 
BLA BLA BLA BLA BLA BLA BLA BLA BLA BLA BLA BLA BLA BLA BLA BLA BLA BLA BLA BLA 
BLA BLA BLA BLA BLA BLA BLA BLA BLA BLA BLA BLA BLA BLA BLA BLA BLA BLA BLA BLA 
BLA BLA BLA BLA BLA BLA BLA BLA BLA BLA BLA BLA BLA BLA BLA BLA BLA BLA BLA BLA 
BLA BLA BLA BLA BLA BLA BLA BLA BLA BLA BLA BLA BLA BLA BLA BLA BLA BLA BLA BLA 
BLA BLA BLA BLA BLA BLA BLA BLA BLA BLA BLA BLA BLA BLA BLA BLA BLA BLA BLA BLA 
BLA BLA BLA BLA BLA BLA BLA BLA BLA BLA BLA BLA BLA BLA BLA BLA BLA BLA BLA BLA 
BLA BLA BLA BLA BLA BLA BLA BLA BLA BLA BLA BLA BLA BLA BLA BLA BLA BLA BLA BLA 
BLA BLA BLA BLA BLA BLA BLA BLA BLA BLA BLA BLA BLA BLA BLA BLA BLA BLA BLA BLA 
BLA BLA BLA BLA BLA BLA BLA BLA BLA BLA BLA BLA BLA BLA BLA BLA BLA BLA BLA BLA 
BLA BLA BLA BLA BLA BLA BLA BLA BLA BLA BLA BLA BLA BLA BLA BLA BLA BLA BLA BLA 
BLA BLA BLA BLA BLA BLA BLA BLA BLA BLA BLA BLA BLA BLA BLA BLA BLA BLA BLA BLA 
BLA BLA BLA BLA BLA BLA BLA BLA BLA BLA BLA BLA BLA BLA BLA BLA BLA BLA BLA BLA 
BLA BLA BLA BLA BLA BLA BLA BLA BLA BLA BLA BLA BLA BLA BLA BLA BLA BLA BLA BLA 
BLA BLA BLA BLA BLA BLA BLA BLA BLA BLA BLA BLA BLA BLA BLA BLA BLA BLA BLA BLA 
BLA BLA BLA BLA BLA BLA BLA BLA BLA BLA BLA BLA BLA BLA BLA BLA BLA BLA BLA BLA 
BLA BLA BLA BLA BLA BLA BLA BLA BLA BLA BLA BLA BLA BLA BLA BLA BLA BLA BLA BLA 
BLA BLA BLA BLA BLA BLA BLA BLA BLA BLA BLA BLA BLA BLA BLA BLA BLA BLA BLA BLA 
BLA BLA BLA BLA BLA BLA BLA BLA BLA BLA BLA BLA BLA BLA BLA BLA BLA BLA BLA BLA 
BLA BLA BLA BLA BLA BLA BLA BLA BLA BLA BLA BLA BLA BLA BLA BLA BLA BLA BLA BLA 
BLA BLA BLA BLA BLA BLA BLA BLA BLA BLA BLA BLA BLA BLA BLA BLA BLA BLA BLA BLA 
BLA BLA BLA BLA BLA BLA BLA BLA BLA BLA BLA BLA BLA BLA BLA BLA BLA BLA BLA BLA 
BLA BLA BLA BLA BLA BLA BLA BLA BLA BLA BLA BLA BLA BLA BLA BLA BLA BLA BLA BLA 
BLA BLA BLA BLA BLA BLA BLA BLA BLA BLA BLA BLA BLA BLA BLA BLA BLA BLA BLA BLA 
BLA BLA BLA BLA BLA BLA BLA BLA BLA BLA BLA BLA BLA BLA BLA BLA BLA BLA BLA BLA 
BLA BLA BLA BLA BLA BLA BLA BLA BLA BLA BLA BLA BLA BLA BLA BLA BLA BLA BLA BLA 
BLA BLA BLA BLA BLA BLA BLA BLA BLA BLA BLA BLA BLA BLA BLA BLA BLA BLA BLA BLA 
BLA BLA BLA BLA BLA BLA BLA BLA BLA BLA BLA BLA BLA BLA BLA BLA BLA BLA BLA BLA 
BLA BLA BLA BLA BLA BLA BLA BLA BLA BLA BLA BLA BLA BLA BLA BLA BLA BLA BLA BLA 
BLA BLA BLA BLA BLA BLA BLA BLA BLA BLA BLA BLA BLA BLA BLA BLA BLA BLA BLA BLA 
BLA BLA BLA BLA BLA BLA BLA BLA BLA BLA BLA BLA BLA BLA BLA BLA BLA BLA BLA BLA 
BLA BLA BLA BLA BLA BLA BLA BLA BLA BLA BLA BLA BLA BLA BLA BLA BLA BLA BLA BLA 
BLA BLA BLA BLA BLA BLA BLA BLA BLA BLA BLA BLA BLA BLA BLA BLA BLA BLA BLA BLA 
BLA BLA BLA BLA BLA BLA BLA BLA BLA BLA BLA BLA BLA BLA BLA BLA BLA BLA BLA BLA 
BLA BLA BLA BLA BLA BLA BLA BLA BLA BLA BLA BLA BLA BLA BLA BLA BLA BLA BLA BLA 
BLA BLA BLA BLA BLA BLA BLA BLA BLA BLA BLA BLA BLA BLA BLA BLA BLA BLA BLA BLA 
BLA BLA BLA BLA BLA BLA BLA BLA BLA BLA BLA BLA BLA BLA BLA BLA BLA BLA BLA BLA 
BLA BLA BLA BLA BLA BLA BLA BLA BLA BLA BLA BLA BLA BLA BLA BLA BLA BLA BLA BLA 
BLA BLA BLA BLA BLA BLA BLA BLA BLA BLA BLA BLA BLA BLA BLA BLA BLA BLA BLA BLA 
BLA BLA BLA BLA BLA BLA BLA BLA BLA BLA BLA BLA BLA BLA BLA BLA BLA BLA BLA BLA 
BLA BLA BLA BLA BLA BLA BLA BLA BLA BLA BLA BLA BLA BLA BLA BLA BLA BLA BLA BLA 
BLA BLA BLA BLA BLA BLA BLA BLA BLA BLA BLA BLA BLA BLA BLA BLA BLA BLA BLA BLA 
BLA BLA BLA BLA BLA BLA BLA BLA BLA BLA BLA BLA BLA BLA BLA BLA BLA BLA BLA BLA 
BLA BLA BLA BLA BLA BLA BLA BLA BLA BLA BLA BLA BLA BLA BLA BLA BLA BLA BLA BLA 
BLA BLA BLA BLA BLA BLA BLA BLA BLA BLA BLA BLA BLA BLA BLA BLA BLA BLA BLA BLA 
BLA BLA BLA BLA BLA BLA BLA BLA BLA BLA BLA BLA BLA BLA BLA BLA BLA BLA BLA BLA 
BLA BLA BLA BLA BLA BLA BLA BLA BLA BLA BLA BLA BLA BLA BLA BLA BLA BLA BLA BLA 
BLA BLA BLA BLA BLA BLA BLA BLA BLA BLA BLA BLA BLA BLA BLA BLA BLA BLA BLA BLA 
BLA BLA BLA BLA BLA BLA BLA BLA BLA BLA BLA BLA BLA BLA BLA BLA BLA BLA BLA BLA 
BLA BLA BLA BLA BLA BLA BLA BLA BLA BLA BLA BLA BLA BLA BLA BLA BLA BLA BLA BLA 
BLA BLA BLA BLA BLA BLA BLA BLA BLA BLA BLA BLA BLA BLA BLA BLA BLA BLA BLA BLA 
BLA BLA BLA BLA BLA BLA BLA BLA BLA BLA BLA BLA BLA BLA BLA BLA BLA BLA BLA BLA 
BLA BLA BLA BLA BLA BLA BLA BLA BLA BLA BLA BLA BLA BLA BLA BLA BLA BLA BLA BLA 
BLA BLA BLA BLA BLA BLA BLA BLA BLA BLA BLA BLA BLA BLA BLA BLA BLA BLA BLA BLA 
BLA BLA BLA BLA BLA BLA BLA BLA BLA BLA BLA BLA BLA BLA BLA BLA BLA BLA BLA BLA 
BLA BLA BLA BLA BLA BLA BLA BLA BLA BLA BLA BLA BLA BLA BLA BLA BLA BLA BLA BLA 
BLA BLA BLA BLA BLA BLA BLA BLA BLA BLA BLA BLA BLA BLA BLA BLA BLA BLA BLA BLA 
BLA BLA BLA BLA BLA BLA BLA BLA BLA BLA BLA BLA BLA BLA BLA BLA BLA BLA BLA BLA 
BLA BLA BLA BLA BLA BLA BLA BLA BLA BLA BLA BLA BLA BLA BLA BLA BLA BLA BLA BLA 
BLA BLA BLA BLA BLA BLA BLA BLA BLA BLA BLA BLA BLA BLA BLA BLA BLA BLA BLA BLA 
BLA BLA BLA BLA BLA BLA BLA BLA BLA BLA BLA BLA BLA BLA BLA BLA BLA BLA BLA BLA 
BLA BLA BLA BLA BLA BLA BLA BLA BLA BLA BLA BLA BLA BLA BLA BLA BLA BLA BLA BLA 
BLA BLA BLA BLA BLA BLA BLA BLA BLA BLA BLA BLA BLA BLA BLA BLA BLA BLA BLA BLA 
BLA BLA BLA BLA BLA BLA BLA BLA BLA BLA BLA BLA BLA BLA BLA BLA BLA BLA BLA BLA 
BLA BLA BLA BLA BLA BLA BLA BLA BLA BLA BLA BLA BLA BLA BLA BLA BLA BLA BLA BLA 
BLA BLA BLA BLA BLA BLA BLA BLA BLA BLA BLA BLA BLA BLA BLA BLA BLA BLA BLA BLA 
BLA BLA BLA BLA BLA BLA BLA BLA BLA BLA BLA BLA BLA BLA BLA BLA BLA BLA BLA BLA 
BLA BLA BLA BLA BLA BLA BLA BLA BLA BLA BLA BLA BLA BLA BLA BLA BLA BLA BLA BLA 
BLA BLA BLA BLA BLA BLA BLA BLA BLA BLA BLA BLA BLA BLA BLA BLA BLA BLA BLA BLA 
BLA BLA BLA BLA BLA BLA BLA BLA BLA BLA BLA BLA BLA BLA BLA BLA BLA BLA BLA BLA 
BLA BLA BLA BLA BLA BLA BLA BLA BLA BLA BLA BLA BLA BLA BLA BLA BLA BLA BLA BLA 
BLA BLA BLA BLA BLA BLA BLA BLA BLA BLA BLA BLA BLA BLA BLA BLA BLA BLA BLA BLA 
BLA BLA BLA BLA BLA BLA BLA BLA BLA BLA BLA BLA BLA BLA BLA BLA BLA BLA BLA BLA 
BLA BLA BLA BLA BLA BLA BLA BLA BLA BLA BLA BLA BLA BLA BLA BLA BLA BLA BLA BLA 
BLA BLA BLA BLA BLA BLA BLA BLA BLA BLA BLA BLA BLA BLA BLA BLA BLA BLA BLA BLA 
BLA BLA BLA BLA BLA BLA BLA BLA BLA BLA BLA BLA BLA BLA BLA BLA BLA BLA BLA BLA 
BLA BLA BLA BLA BLA BLA BLA BLA BLA BLA BLA BLA BLA BLA BLA BLA BLA BLA BLA BLA 
BLA BLA BLA BLA BLA BLA BLA BLA BLA BLA BLA BLA BLA BLA BLA BLA BLA BLA BLA BLA 
BLA BLA BLA BLA BLA BLA BLA BLA BLA BLA BLA BLA BLA BLA BLA BLA BLA BLA BLA BLA 
BLA BLA BLA BLA BLA BLA BLA BLA BLA BLA BLA BLA BLA BLA BLA BLA BLA BLA BLA BLA 
BLA BLA BLA BLA BLA BLA BLA BLA BLA BLA BLA BLA BLA BLA BLA BLA BLA BLA BLA BLA 
BLA BLA BLA BLA BLA BLA BLA BLA BLA BLA BLA BLA BLA BLA BLA BLA BLA BLA BLA BLA 
BLA BLA BLA BLA BLA BLA BLA BLA BLA BLA BLA BLA BLA BLA BLA BLA BLA BLA BLA BLA 
BLA BLA BLA BLA BLA BLA BLA BLA BLA BLA BLA BLA BLA BLA BLA BLA BLA BLA BLA BLA 
BLA BLA BLA BLA BLA BLA BLA BLA BLA BLA BLA BLA BLA BLA BLA BLA BLA BLA BLA BLA 
BLA BLA BLA BLA BLA BLA BLA BLA BLA BLA BLA BLA BLA BLA BLA BLA BLA BLA BLA BLA 
BLA BLA BLA BLA BLA BLA BLA BLA BLA BLA BLA BLA BLA BLA BLA BLA BLA BLA BLA BLA 
BLA BLA BLA BLA BLA BLA BLA BLA BLA BLA BLA BLA BLA BLA BLA BLA BLA BLA BLA BLA 
BLA BLA BLA BLA BLA BLA BLA BLA BLA BLA BLA BLA BLA BLA BLA BLA BLA BLA BLA BLA 
BLA BLA BLA BLA BLA BLA BLA BLA BLA BLA BLA BLA BLA BLA BLA BLA BLA BLA BLA BLA 
BLA BLA BLA BLA BLA BLA BLA BLA BLA BLA BLA BLA BLA BLA BLA BLA BLA BLA BLA BLA 
BLA BLA BLA BLA BLA BLA BLA BLA BLA BLA BLA BLA BLA BLA BLA BLA BLA BLA BLA BLA 
BLA BLA BLA BLA BLA BLA BLA BLA BLA BLA BLA BLA BLA BLA BLA BLA BLA BLA BLA BLA 
BLA BLA BLA BLA BLA BLA BLA BLA BLA BLA BLA BLA BLA BLA BLA BLA BLA BLA BLA BLA 
BLA BLA BLA BLA BLA BLA BLA BLA BLA BLA BLA BLA BLA BLA BLA BLA BLA BLA BLA BLA 
BLA BLA BLA BLA BLA BLA BLA BLA BLA BLA BLA BLA BLA BLA BLA BLA BLA BLA BLA BLA 
BLA BLA BLA BLA BLA BLA BLA BLA BLA BLA BLA BLA BLA BLA BLA BLA BLA BLA BLA BLA 
BLA BLA BLA BLA BLA BLA BLA BLA BLA BLA BLA BLA BLA BLA BLA BLA BLA BLA BLA BLA 
BLA BLA BLA BLA BLA BLA BLA BLA BLA BLA BLA BLA BLA BLA BLA BLA BLA BLA BLA BLA 
BLA BLA BLA BLA BLA BLA BLA BLA BLA BLA BLA BLA BLA BLA BLA BLA BLA BLA BLA BLA 
BLA BLA BLA BLA BLA BLA BLA BLA BLA BLA BLA BLA BLA BLA BLA BLA BLA BLA BLA BLA 
BLA BLA BLA BLA BLA BLA BLA BLA BLA BLA BLA BLA BLA BLA BLA BLA BLA BLA BLA BLA 
BLA BLA BLA BLA BLA BLA BLA BLA BLA BLA BLA BLA BLA BLA BLA BLA BLA BLA BLA BLA 
BLA BLA BLA BLA BLA BLA BLA BLA BLA BLA BLA BLA BLA BLA BLA BLA BLA BLA BLA BLA 
BLA BLA BLA BLA BLA BLA BLA BLA BLA BLA BLA BLA BLA BLA BLA BLA BLA BLA BLA BLA 
BLA BLA BLA BLA BLA BLA BLA BLA BLA BLA BLA BLA BLA BLA BLA BLA BLA BLA BLA BLA 
BLA BLA BLA BLA BLA BLA BLA BLA BLA BLA BLA BLA BLA BLA BLA BLA BLA BLA BLA BLA 
BLA BLA BLA BLA BLA BLA BLA BLA BLA BLA BLA BLA BLA BLA BLA BLA BLA BLA BLA BLA 
BLA BLA BLA BLA BLA BLA BLA BLA BLA BLA BLA BLA BLA BLA BLA BLA BLA BLA BLA BLA 
BLA BLA BLA BLA BLA BLA BLA BLA BLA BLA BLA BLA BLA BLA BLA BLA BLA BLA BLA BLA 
BLA BLA BLA BLA BLA BLA BLA BLA BLA BLA BLA BLA BLA BLA BLA BLA BLA BLA BLA BLA 
BLA BLA BLA BLA BLA BLA BLA BLA BLA BLA BLA BLA BLA BLA BLA BLA BLA BLA BLA BLA 
BLA BLA BLA BLA BLA BLA BLA BLA BLA BLA BLA BLA BLA BLA BLA BLA BLA BLA BLA BLA 
BLA BLA BLA BLA BLA BLA BLA BLA BLA BLA BLA BLA BLA BLA BLA BLA BLA BLA BLA BLA 
BLA BLA BLA BLA BLA BLA BLA BLA BLA BLA BLA BLA BLA BLA BLA BLA BLA BLA BLA BLA 
BLA BLA BLA BLA BLA BLA BLA BLA BLA BLA BLA BLA BLA BLA BLA BLA BLA BLA BLA BLA 
BLA BLA BLA BLA BLA BLA BLA BLA BLA BLA BLA BLA BLA BLA BLA BLA BLA BLA BLA BLA 
BLA BLA BLA BLA BLA BLA BLA BLA BLA BLA BLA BLA BLA BLA BLA BLA BLA BLA BLA BLA 
BLA BLA BLA BLA BLA BLA BLA BLA BLA BLA BLA BLA BLA BLA BLA BLA BLA BLA BLA BLA 
BLA BLA BLA BLA BLA BLA BLA BLA BLA BLA BLA BLA BLA BLA BLA BLA BLA BLA BLA BLA 
BLA BLA BLA BLA BLA BLA BLA BLA BLA BLA BLA BLA BLA BLA BLA BLA BLA BLA BLA BLA 
BLA BLA BLA BLA BLA BLA BLA BLA BLA BLA BLA BLA BLA BLA BLA BLA BLA BLA BLA BLA 
BLA BLA BLA BLA BLA BLA BLA BLA BLA BLA BLA BLA BLA BLA BLA BLA BLA BLA BLA BLA 
BLA BLA BLA BLA BLA BLA BLA BLA BLA BLA BLA BLA BLA BLA BLA BLA BLA BLA BLA BLA 
BLA BLA BLA BLA BLA BLA BLA BLA BLA BLA BLA BLA BLA BLA BLA BLA BLA BLA BLA BLA 
BLA BLA BLA BLA BLA BLA BLA BLA BLA BLA BLA BLA BLA BLA BLA BLA BLA BLA BLA BLA 
BLA BLA BLA BLA BLA BLA BLA BLA BLA BLA BLA BLA BLA BLA BLA BLA BLA BLA BLA BLA 
BLA BLA BLA BLA BLA BLA BLA BLA BLA BLA BLA BLA BLA BLA BLA BLA BLA BLA BLA BLA 
BLA BLA BLA BLA BLA BLA BLA BLA BLA BLA BLA BLA BLA BLA BLA BLA BLA BLA BLA BLA 
BLA BLA BLA BLA BLA BLA BLA BLA BLA BLA BLA BLA BLA BLA BLA BLA BLA BLA BLA BLA 
BLA BLA BLA BLA BLA BLA BLA BLA BLA BLA BLA BLA BLA BLA BLA BLA BLA BLA BLA BLA 
BLA BLA BLA BLA BLA BLA BLA BLA BLA BLA BLA BLA BLA BLA BLA BLA BLA BLA BLA BLA 
BLA BLA BLA BLA BLA BLA BLA BLA BLA BLA BLA BLA BLA BLA BLA BLA BLA BLA BLA BLA 
BLA BLA BLA BLA BLA BLA BLA BLA BLA BLA BLA BLA BLA BLA BLA BLA BLA BLA BLA BLA 
BLA BLA BLA BLA BLA BLA BLA BLA BLA BLA BLA BLA BLA BLA BLA BLA BLA BLA BLA BLA 
BLA BLA BLA BLA BLA BLA BLA BLA BLA BLA BLA BLA BLA BLA BLA BLA BLA BLA BLA BLA 
BLA BLA BLA BLA BLA BLA BLA BLA BLA BLA BLA BLA BLA BLA BLA BLA BLA BLA BLA BLA 
BLA BLA BLA BLA BLA BLA BLA BLA BLA BLA BLA BLA BLA BLA BLA BLA BLA BLA BLA BLA 
BLA BLA BLA BLA BLA BLA BLA BLA BLA BLA BLA BLA BLA BLA BLA BLA BLA BLA BLA BLA 
BLA BLA BLA BLA BLA BLA BLA BLA BLA BLA BLA BLA BLA BLA BLA BLA BLA BLA BLA BLA 
BLA BLA BLA BLA BLA BLA BLA BLA BLA BLA BLA BLA BLA BLA BLA BLA BLA BLA BLA BLA 
BLA BLA BLA BLA BLA BLA BLA BLA BLA BLA BLA BLA BLA BLA BLA BLA BLA BLA BLA BLA 
BLA BLA BLA BLA BLA BLA BLA BLA BLA BLA BLA BLA BLA BLA BLA BLA BLA BLA BLA BLA 
BLA BLA BLA BLA BLA BLA BLA BLA BLA BLA BLA BLA BLA BLA BLA BLA BLA BLA BLA BLA 
BLA BLA BLA BLA BLA BLA BLA BLA BLA BLA BLA BLA BLA BLA BLA BLA BLA BLA BLA BLA 
BLA BLA BLA BLA BLA BLA BLA BLA BLA BLA BLA BLA BLA BLA BLA BLA BLA BLA BLA BLA 
BLA BLA BLA BLA BLA BLA BLA BLA BLA BLA BLA BLA BLA BLA BLA BLA BLA BLA BLA BLA 
BLA BLA BLA BLA BLA BLA BLA BLA BLA BLA BLA BLA BLA BLA BLA BLA BLA BLA BLA BLA 
BLA BLA BLA BLA BLA BLA BLA BLA BLA BLA BLA BLA BLA BLA BLA BLA BLA BLA BLA BLA 
BLA BLA BLA BLA BLA BLA BLA BLA BLA BLA BLA BLA BLA BLA BLA BLA BLA BLA BLA BLA 
BLA BLA BLA BLA BLA BLA BLA BLA BLA BLA BLA BLA BLA BLA BLA BLA BLA BLA BLA BLA 
BLA BLA BLA BLA BLA BLA BLA BLA BLA BLA BLA BLA BLA BLA BLA BLA BLA BLA BLA BLA 
BLA BLA BLA BLA BLA BLA BLA BLA BLA BLA BLA BLA BLA BLA BLA BLA BLA BLA BLA BLA 
BLA BLA BLA BLA BLA BLA BLA BLA BLA BLA BLA BLA BLA BLA BLA BLA BLA BLA BLA BLA 
BLA BLA BLA BLA BLA BLA BLA BLA BLA BLA BLA BLA BLA BLA BLA BLA BLA BLA BLA BLA 
BLA BLA BLA BLA BLA BLA BLA BLA BLA BLA BLA BLA BLA BLA BLA BLA BLA BLA BLA BLA 
BLA BLA BLA BLA BLA BLA BLA BLA BLA BLA BLA BLA BLA BLA BLA BLA BLA BLA BLA BLA 
BLA BLA BLA BLA BLA BLA BLA BLA BLA BLA BLA BLA BLA BLA BLA BLA BLA BLA BLA BLA 
BLA BLA BLA BLA BLA BLA BLA BLA BLA BLA BLA BLA BLA BLA BLA BLA BLA BLA BLA BLA 
BLA BLA BLA BLA BLA BLA BLA BLA BLA BLA BLA BLA BLA BLA BLA BLA BLA BLA BLA BLA 
BLA BLA BLA BLA BLA BLA BLA BLA BLA BLA BLA BLA BLA BLA BLA BLA BLA BLA BLA BLA 
BLA BLA BLA BLA BLA BLA BLA BLA BLA BLA BLA BLA BLA BLA BLA BLA BLA BLA BLA BLA 
BLA BLA BLA BLA BLA BLA BLA BLA BLA BLA BLA BLA BLA BLA BLA BLA BLA BLA BLA BLA 
BLA BLA BLA BLA BLA BLA BLA BLA BLA BLA BLA BLA BLA BLA BLA BLA BLA BLA BLA BLA 
BLA BLA BLA BLA BLA BLA BLA BLA BLA BLA BLA BLA BLA BLA BLA BLA BLA BLA BLA BLA 
BLA BLA BLA BLA BLA BLA BLA BLA BLA BLA BLA BLA BLA BLA BLA BLA BLA BLA BLA BLA 
BLA BLA BLA BLA BLA BLA BLA BLA BLA BLA BLA BLA BLA BLA BLA BLA BLA BLA BLA BLA 
BLA BLA BLA BLA BLA BLA BLA BLA BLA BLA BLA BLA BLA BLA BLA BLA BLA BLA BLA BLA 
BLA BLA BLA BLA BLA BLA BLA BLA BLA BLA BLA BLA BLA BLA BLA BLA BLA BLA BLA BLA 
BLA BLA BLA BLA BLA BLA BLA BLA BLA BLA BLA BLA BLA BLA BLA BLA BLA BLA BLA BLA 
BLA BLA BLA BLA BLA BLA BLA BLA BLA BLA BLA BLA BLA BLA BLA BLA BLA BLA BLA BLA 
BLA BLA BLA BLA BLA BLA BLA BLA BLA BLA BLA BLA BLA BLA BLA BLA BLA BLA BLA BLA 
BLA BLA BLA BLA BLA BLA BLA BLA BLA BLA BLA BLA BLA BLA BLA BLA BLA BLA BLA BLA 
BLA BLA BLA BLA BLA BLA BLA BLA BLA BLA BLA BLA BLA BLA BLA BLA BLA BLA BLA BLA 
BLA BLA BLA BLA BLA BLA BLA BLA BLA BLA BLA BLA BLA BLA BLA BLA BLA BLA BLA BLA 
BLA BLA BLA BLA BLA BLA BLA BLA BLA BLA BLA BLA BLA BLA BLA BLA BLA BLA BLA BLA 
BLA BLA BLA BLA BLA BLA BLA BLA BLA BLA BLA BLA BLA BLA BLA BLA BLA BLA BLA BLA 
BLA BLA BLA BLA BLA BLA BLA BLA BLA BLA BLA BLA BLA BLA BLA BLA BLA BLA BLA BLA 
BLA BLA BLA BLA BLA BLA BLA BLA BLA BLA BLA BLA BLA BLA BLA BLA BLA BLA BLA BLA 
BLA BLA BLA BLA BLA BLA BLA BLA BLA BLA BLA BLA BLA BLA BLA BLA BLA BLA BLA BLA 
BLA BLA BLA BLA BLA BLA BLA BLA BLA BLA BLA BLA BLA BLA BLA BLA BLA BLA BLA BLA 
BLA BLA BLA BLA BLA BLA BLA BLA BLA BLA BLA BLA BLA BLA BLA BLA BLA BLA BLA BLA 
BLA BLA BLA BLA BLA BLA BLA BLA BLA BLA BLA BLA BLA BLA BLA BLA BLA BLA BLA BLA 
BLA BLA BLA BLA BLA BLA BLA BLA BLA BLA BLA BLA BLA BLA BLA BLA BLA BLA BLA BLA 
BLA BLA BLA BLA BLA BLA BLA BLA BLA BLA BLA BLA BLA BLA BLA BLA BLA BLA BLA BLA 
BLA BLA BLA BLA BLA BLA BLA BLA BLA BLA BLA BLA BLA BLA BLA BLA BLA BLA BLA BLA 
BLA BLA BLA BLA BLA BLA BLA BLA BLA BLA BLA BLA BLA BLA BLA BLA BLA BLA BLA BLA 
BLA BLA BLA BLA BLA BLA BLA BLA BLA BLA BLA BLA BLA BLA BLA BLA BLA BLA BLA BLA 
BLA BLA BLA BLA BLA BLA BLA BLA BLA BLA BLA BLA BLA BLA BLA BLA BLA BLA BLA BLA 
BLA BLA BLA BLA BLA BLA BLA BLA BLA BLA BLA BLA BLA BLA BLA BLA BLA BLA BLA BLA 
BLA BLA BLA BLA BLA BLA BLA BLA BLA BLA BLA BLA BLA BLA BLA BLA BLA BLA BLA BLA 
BLA BLA BLA BLA BLA BLA BLA BLA BLA BLA BLA BLA BLA BLA BLA BLA BLA BLA BLA BLA 
BLA BLA BLA BLA BLA BLA BLA BLA BLA BLA BLA BLA BLA BLA BLA BLA BLA BLA BLA BLA 
BLA BLA BLA BLA BLA BLA BLA BLA BLA BLA BLA BLA BLA BLA BLA BLA BLA BLA BLA BLA 
BLA BLA BLA BLA BLA BLA BLA BLA BLA BLA BLA BLA BLA BLA BLA BLA BLA BLA BLA BLA 
BLA BLA BLA BLA BLA BLA BLA BLA BLA BLA BLA BLA BLA BLA BLA BLA BLA BLA BLA BLA 
BLA BLA BLA BLA BLA BLA BLA BLA BLA BLA BLA BLA BLA BLA BLA BLA BLA BLA BLA BLA 
BLA BLA BLA BLA BLA BLA BLA BLA BLA BLA BLA BLA BLA BLA BLA BLA BLA BLA BLA BLA 
BLA BLA BLA BLA BLA BLA BLA BLA BLA BLA BLA BLA BLA BLA BLA BLA BLA BLA BLA BLA 
BLA BLA BLA BLA BLA BLA BLA BLA BLA BLA BLA BLA BLA BLA BLA BLA BLA BLA BLA BLA 
BLA BLA BLA BLA BLA BLA BLA BLA BLA BLA BLA BLA BLA BLA BLA BLA BLA BLA BLA BLA 
BLA BLA BLA BLA BLA BLA BLA BLA BLA BLA BLA BLA BLA BLA BLA BLA BLA BLA BLA BLA 
BLA BLA BLA BLA BLA BLA BLA BLA BLA BLA BLA BLA BLA BLA BLA BLA BLA BLA BLA BLA 
BLA BLA BLA BLA BLA BLA BLA BLA BLA BLA BLA BLA BLA BLA BLA BLA BLA BLA BLA BLA 
BLA BLA BLA BLA BLA BLA BLA BLA BLA BLA BLA BLA BLA BLA BLA BLA BLA BLA BLA BLA 
BLA BLA BLA BLA BLA BLA BLA BLA BLA BLA BLA BLA BLA BLA BLA BLA BLA BLA BLA BLA 
BLA BLA BLA BLA BLA BLA BLA BLA BLA BLA BLA BLA BLA BLA BLA BLA BLA BLA BLA BLA 
BLA BLA BLA BLA BLA BLA BLA BLA BLA BLA BLA BLA BLA BLA BLA BLA BLA BLA BLA BLA 
BLA BLA BLA BLA BLA BLA BLA BLA BLA BLA BLA BLA BLA BLA BLA BLA BLA BLA BLA BLA 
BLA BLA BLA BLA BLA BLA BLA BLA BLA BLA BLA BLA BLA BLA BLA BLA BLA BLA BLA BLA 
BLA BLA BLA BLA BLA BLA BLA BLA BLA BLA BLA BLA BLA BLA BLA BLA BLA BLA BLA BLA 
BLA BLA BLA BLA BLA BLA BLA BLA BLA BLA BLA BLA BLA BLA BLA BLA BLA BLA BLA BLA 
BLA BLA BLA BLA BLA BLA BLA BLA BLA BLA BLA BLA BLA BLA BLA BLA BLA BLA BLA BLA 
BLA BLA BLA BLA BLA BLA BLA BLA BLA BLA BLA BLA BLA BLA BLA BLA BLA BLA BLA BLA 
BLA BLA BLA BLA BLA BLA BLA BLA BLA BLA BLA BLA BLA BLA BLA BLA BLA BLA BLA BLA 
BLA BLA BLA BLA BLA BLA BLA BLA BLA BLA BLA BLA BLA BLA BLA BLA BLA BLA BLA BLA 
BLA BLA BLA BLA BLA BLA BLA BLA BLA BLA BLA BLA BLA BLA BLA BLA BLA BLA BLA BLA 
BLA BLA BLA BLA BLA BLA BLA BLA BLA BLA BLA BLA BLA BLA BLA BLA BLA BLA BLA BLA 
BLA BLA BLA BLA BLA BLA BLA BLA BLA BLA BLA BLA BLA BLA BLA BLA BLA BLA BLA BLA 
BLA BLA BLA BLA BLA BLA BLA BLA BLA BLA BLA BLA BLA BLA BLA BLA BLA BLA BLA BLA 
BLA BLA BLA BLA BLA BLA BLA BLA BLA BLA BLA BLA BLA BLA BLA BLA BLA BLA BLA BLA 
BLA BLA BLA BLA BLA BLA BLA BLA BLA BLA BLA BLA BLA BLA BLA BLA BLA BLA BLA BLA 
BLA BLA BLA BLA BLA BLA BLA BLA BLA BLA BLA BLA BLA BLA BLA BLA BLA BLA BLA BLA 
BLA BLA BLA BLA BLA BLA BLA BLA BLA BLA BLA BLA BLA BLA BLA BLA BLA BLA BLA BLA 
BLA BLA BLA BLA BLA BLA BLA BLA BLA BLA BLA BLA BLA BLA BLA BLA BLA BLA BLA BLA 
BLA BLA BLA BLA BLA BLA BLA BLA BLA BLA BLA BLA BLA BLA BLA BLA BLA BLA BLA BLA 
BLA BLA BLA BLA BLA BLA BLA BLA BLA BLA BLA BLA BLA BLA BLA BLA BLA BLA BLA BLA 
BLA BLA BLA BLA BLA BLA BLA BLA BLA BLA BLA BLA BLA BLA BLA BLA BLA BLA BLA BLA 
BLA BLA BLA BLA BLA BLA BLA BLA BLA BLA BLA BLA BLA BLA BLA BLA BLA BLA BLA BLA 
BLA BLA BLA BLA BLA BLA BLA BLA BLA BLA BLA BLA BLA BLA BLA BLA BLA BLA BLA BLA 
BLA BLA BLA BLA BLA BLA BLA BLA BLA BLA BLA BLA BLA BLA BLA BLA BLA BLA BLA BLA 
BLA BLA BLA BLA BLA BLA BLA BLA BLA BLA BLA BLA BLA BLA BLA BLA BLA BLA BLA BLA 
BLA BLA BLA BLA BLA BLA BLA BLA BLA BLA BLA BLA BLA BLA BLA BLA BLA BLA BLA BLA 
BLA BLA BLA BLA BLA BLA BLA BLA BLA BLA BLA BLA BLA BLA BLA BLA BLA BLA BLA BLA 
BLA BLA BLA BLA BLA BLA BLA BLA BLA BLA BLA BLA BLA BLA BLA BLA BLA BLA BLA BLA 
BLA BLA BLA BLA BLA BLA BLA BLA BLA BLA BLA BLA BLA BLA BLA BLA BLA BLA BLA BLA 
BLA BLA BLA BLA BLA BLA BLA BLA BLA BLA BLA BLA BLA BLA BLA BLA BLA BLA BLA BLA 
BLA BLA BLA BLA BLA BLA BLA BLA BLA BLA BLA BLA BLA BLA BLA BLA BLA BLA BLA BLA 
BLA BLA BLA BLA BLA BLA BLA BLA BLA BLA BLA BLA BLA BLA BLA BLA BLA BLA BLA BLA 
BLA BLA BLA BLA BLA BLA BLA BLA BLA BLA BLA BLA BLA BLA BLA BLA BLA BLA BLA BLA 
BLA BLA BLA BLA BLA BLA BLA BLA BLA BLA BLA BLA BLA BLA BLA BLA BLA BLA BLA BLA 
BLA BLA BLA BLA BLA BLA BLA BLA BLA BLA BLA BLA BLA BLA BLA BLA BLA BLA BLA BLA 
BLA BLA BLA BLA BLA BLA BLA BLA BLA BLA BLA BLA BLA BLA BLA BLA BLA BLA BLA BLA 
BLA BLA BLA BLA BLA BLA BLA BLA BLA BLA BLA BLA BLA BLA BLA BLA BLA BLA BLA BLA 
BLA BLA BLA BLA BLA BLA BLA BLA BLA BLA BLA BLA BLA BLA BLA BLA BLA BLA BLA BLA 
BLA BLA BLA BLA BLA BLA BLA BLA BLA BLA BLA BLA BLA BLA BLA BLA BLA BLA BLA BLA 
BLA BLA BLA BLA BLA BLA BLA BLA BLA BLA BLA BLA BLA BLA BLA BLA BLA BLA BLA BLA 
BLA BLA BLA BLA BLA BLA BLA BLA BLA BLA BLA BLA BLA BLA BLA BLA BLA BLA BLA BLA 
BLA BLA BLA BLA BLA BLA BLA BLA BLA BLA BLA BLA BLA BLA BLA BLA BLA BLA BLA BLA 
BLA BLA BLA BLA BLA BLA BLA BLA BLA BLA BLA BLA BLA BLA BLA BLA BLA BLA BLA BLA 
BLA BLA BLA BLA BLA BLA BLA BLA BLA BLA BLA BLA BLA BLA BLA BLA BLA BLA BLA BLA 
BLA BLA BLA BLA BLA BLA BLA BLA BLA BLA BLA BLA BLA BLA BLA BLA BLA BLA BLA BLA 
BLA BLA BLA BLA BLA BLA BLA BLA BLA BLA BLA BLA BLA BLA BLA BLA BLA BLA BLA BLA 
BLA BLA BLA BLA BLA BLA BLA BLA BLA BLA BLA BLA BLA BLA BLA BLA BLA BLA BLA BLA 
BLA BLA BLA BLA BLA BLA BLA BLA BLA BLA BLA BLA BLA BLA BLA BLA BLA BLA BLA BLA 
BLA BLA BLA BLA BLA BLA BLA BLA BLA BLA BLA BLA BLA BLA BLA BLA BLA BLA BLA BLA 
BLA BLA BLA BLA BLA BLA BLA BLA BLA BLA BLA BLA BLA BLA BLA BLA BLA BLA BLA BLA 
BLA BLA BLA BLA BLA BLA BLA BLA BLA BLA BLA BLA BLA BLA BLA BLA BLA BLA BLA BLA 
BLA BLA BLA BLA BLA BLA BLA BLA BLA BLA BLA BLA BLA BLA BLA BLA BLA BLA BLA BLA 
BLA BLA BLA BLA BLA BLA BLA BLA BLA BLA BLA BLA BLA BLA BLA BLA BLA BLA BLA BLA 
BLA BLA BLA BLA BLA BLA BLA BLA BLA BLA BLA BLA BLA BLA BLA BLA BLA BLA BLA BLA 
BLA BLA BLA BLA BLA BLA BLA BLA BLA BLA BLA BLA BLA BLA BLA BLA BLA BLA BLA BLA 
BLA BLA BLA BLA BLA BLA BLA BLA BLA BLA BLA BLA BLA BLA BLA BLA BLA BLA BLA BLA 
BLA BLA BLA BLA BLA BLA BLA BLA BLA BLA BLA BLA BLA BLA BLA BLA BLA BLA BLA BLA 
BLA BLA BLA BLA BLA BLA BLA BLA BLA BLA BLA BLA BLA BLA BLA BLA BLA BLA BLA BLA 
BLA BLA BLA BLA BLA BLA BLA BLA BLA BLA BLA BLA BLA BLA BLA BLA BLA BLA BLA BLA 
BLA BLA BLA BLA BLA BLA BLA BLA BLA BLA BLA BLA BLA BLA BLA BLA BLA BLA BLA BLA 
BLA BLA BLA BLA BLA BLA BLA BLA BLA BLA BLA BLA BLA BLA BLA BLA BLA BLA BLA BLA 
BLA BLA BLA BLA BLA BLA BLA BLA BLA BLA BLA BLA BLA BLA BLA BLA BLA BLA BLA BLA 
BLA BLA BLA BLA BLA BLA BLA BLA BLA BLA BLA BLA BLA BLA BLA BLA BLA BLA BLA BLA 
BLA BLA BLA BLA BLA BLA BLA BLA BLA BLA BLA BLA BLA BLA BLA BLA BLA BLA BLA BLA 
BLA BLA BLA BLA BLA BLA BLA BLA BLA BLA BLA BLA BLA BLA BLA BLA BLA BLA BLA BLA 
BLA BLA BLA BLA BLA BLA BLA BLA BLA BLA BLA BLA BLA BLA BLA BLA BLA BLA BLA BLA 
BLA BLA BLA BLA BLA BLA BLA BLA BLA BLA BLA BLA BLA BLA BLA BLA BLA BLA BLA BLA 
BLA BLA BLA BLA BLA BLA BLA BLA BLA BLA BLA BLA BLA BLA BLA BLA BLA BLA BLA BLA 
BLA BLA BLA BLA BLA BLA BLA BLA BLA BLA BLA BLA BLA BLA BLA BLA BLA BLA BLA BLA 
BLA BLA BLA BLA BLA BLA BLA BLA BLA BLA BLA BLA BLA BLA BLA BLA BLA BLA BLA BLA 
BLA BLA BLA BLA BLA BLA BLA BLA BLA BLA BLA BLA BLA BLA BLA BLA BLA BLA BLA BLA 
BLA BLA BLA BLA BLA BLA BLA BLA BLA BLA BLA BLA BLA BLA BLA BLA BLA BLA BLA BLA 
BLA BLA BLA BLA BLA BLA BLA BLA BLA BLA BLA BLA BLA BLA BLA BLA BLA BLA BLA BLA 
BLA BLA BLA BLA BLA BLA BLA BLA BLA BLA BLA BLA BLA BLA BLA BLA BLA BLA BLA BLA 
BLA BLA BLA BLA BLA BLA BLA BLA BLA BLA BLA BLA BLA BLA BLA BLA BLA BLA BLA BLA 
BLA BLA BLA BLA BLA BLA BLA BLA BLA BLA BLA BLA BLA BLA BLA BLA BLA BLA BLA BLA 
BLA BLA BLA BLA BLA BLA BLA BLA BLA BLA BLA BLA BLA BLA BLA BLA BLA BLA BLA BLA 
BLA BLA BLA BLA BLA BLA BLA BLA BLA BLA BLA BLA BLA BLA BLA BLA BLA BLA BLA BLA 
BLA BLA BLA BLA BLA BLA BLA BLA BLA BLA BLA BLA BLA BLA BLA BLA BLA BLA BLA BLA 
BLA BLA BLA BLA BLA BLA BLA BLA BLA BLA BLA BLA BLA BLA BLA BLA BLA BLA BLA BLA 
BLA BLA BLA BLA BLA BLA BLA BLA BLA BLA BLA BLA BLA BLA BLA BLA BLA BLA BLA BLA 
BLA BLA BLA BLA BLA BLA BLA BLA BLA BLA BLA BLA BLA BLA BLA BLA BLA BLA BLA BLA 
BLA BLA BLA BLA BLA BLA BLA BLA BLA BLA BLA BLA BLA BLA BLA BLA BLA BLA BLA BLA 
BLA BLA BLA BLA BLA BLA BLA BLA BLA BLA BLA BLA BLA BLA BLA BLA BLA BLA BLA BLA 
BLA BLA BLA BLA BLA BLA BLA BLA BLA BLA BLA BLA BLA BLA BLA BLA BLA BLA BLA BLA 
BLA BLA BLA BLA BLA BLA BLA BLA BLA BLA BLA BLA BLA BLA BLA BLA BLA BLA BLA BLA 
BLA BLA BLA BLA BLA BLA BLA BLA BLA BLA BLA BLA BLA BLA BLA BLA BLA BLA BLA BLA 
BLA BLA BLA BLA BLA BLA BLA BLA BLA BLA BLA BLA BLA BLA BLA BLA BLA BLA BLA BLA 
BLA BLA BLA BLA BLA BLA BLA BLA BLA BLA BLA BLA BLA BLA BLA BLA BLA BLA BLA BLA 
BLA BLA BLA BLA BLA BLA BLA BLA BLA BLA BLA BLA BLA BLA BLA BLA BLA BLA BLA BLA 
BLA BLA BLA BLA BLA BLA BLA BLA BLA BLA BLA BLA BLA BLA BLA BLA BLA BLA BLA BLA 
BLA BLA BLA BLA BLA BLA BLA BLA BLA BLA BLA BLA BLA BLA BLA BLA BLA BLA BLA BLA 
BLA BLA BLA BLA BLA BLA BLA BLA BLA BLA BLA BLA BLA BLA BLA BLA BLA BLA BLA BLA 
BLA BLA BLA BLA BLA BLA BLA BLA BLA BLA BLA BLA BLA BLA BLA BLA BLA BLA BLA BLA 
BLA BLA BLA BLA BLA BLA BLA BLA BLA BLA BLA BLA BLA BLA BLA BLA BLA BLA BLA BLA 
BLA BLA BLA BLA BLA BLA BLA BLA BLA BLA BLA BLA BLA BLA BLA BLA BLA BLA BLA BLA 
BLA BLA BLA BLA BLA BLA BLA BLA BLA BLA BLA BLA BLA BLA BLA BLA BLA BLA BLA BLA 
BLA BLA BLA BLA BLA BLA BLA BLA BLA BLA BLA BLA BLA BLA BLA BLA BLA BLA BLA BLA 
BLA BLA BLA BLA BLA BLA BLA BLA BLA BLA BLA BLA BLA BLA BLA BLA BLA BLA BLA BLA 
BLA BLA BLA BLA BLA BLA BLA BLA BLA BLA BLA BLA BLA BLA BLA BLA BLA BLA BLA BLA 
BLA BLA BLA BLA BLA BLA BLA BLA BLA BLA BLA BLA BLA BLA BLA BLA BLA BLA BLA BLA 
BLA BLA BLA BLA BLA BLA BLA BLA BLA BLA BLA BLA BLA BLA BLA BLA BLA BLA BLA BLA 
BLA BLA BLA BLA BLA BLA BLA BLA BLA BLA BLA BLA BLA BLA BLA BLA BLA BLA BLA BLA 
BLA BLA BLA BLA BLA BLA BLA BLA BLA BLA BLA BLA BLA BLA BLA BLA BLA BLA BLA BLA 
BLA BLA BLA BLA BLA BLA BLA BLA BLA BLA BLA BLA BLA BLA BLA BLA BLA BLA BLA BLA 
BLA BLA BLA BLA BLA BLA BLA BLA BLA BLA BLA BLA BLA BLA BLA BLA BLA BLA BLA BLA 
BLA BLA BLA BLA BLA BLA BLA BLA BLA BLA BLA BLA BLA BLA BLA BLA BLA BLA BLA BLA 
BLA BLA BLA BLA BLA BLA BLA BLA BLA BLA BLA BLA BLA BLA BLA BLA BLA BLA BLA BLA 
BLA BLA BLA BLA BLA BLA BLA BLA BLA BLA BLA BLA BLA BLA BLA BLA BLA BLA BLA BLA 
BLA BLA BLA BLA BLA BLA BLA BLA BLA BLA BLA BLA BLA BLA BLA BLA BLA BLA BLA BLA 
BLA BLA BLA BLA BLA BLA BLA BLA BLA BLA BLA BLA BLA BLA BLA BLA BLA BLA BLA BLA 
BLA BLA BLA BLA BLA BLA BLA BLA BLA BLA BLA BLA BLA BLA BLA BLA BLA BLA BLA BLA 
BLA BLA BLA BLA BLA BLA BLA BLA BLA BLA BLA BLA BLA BLA BLA BLA BLA BLA BLA BLA 
BLA BLA BLA BLA BLA BLA BLA BLA BLA BLA BLA BLA BLA BLA BLA BLA BLA BLA BLA BLA 
BLA BLA BLA BLA BLA BLA BLA BLA BLA BLA BLA BLA BLA BLA BLA BLA BLA BLA BLA BLA 
BLA BLA BLA BLA BLA BLA BLA BLA BLA BLA BLA BLA BLA BLA BLA BLA BLA BLA BLA BLA 
BLA BLA BLA BLA BLA BLA BLA BLA BLA BLA BLA BLA BLA BLA BLA BLA BLA BLA BLA BLA 
BLA BLA BLA BLA BLA BLA BLA BLA BLA BLA BLA BLA BLA BLA BLA BLA BLA BLA BLA BLA 
BLA BLA BLA BLA BLA BLA BLA BLA BLA BLA BLA BLA BLA BLA BLA BLA BLA BLA BLA BLA 
BLA BLA BLA BLA BLA BLA BLA BLA BLA BLA BLA BLA BLA BLA BLA BLA BLA BLA BLA BLA 
BLA BLA BLA BLA BLA BLA BLA BLA BLA BLA BLA BLA BLA BLA BLA BLA BLA BLA BLA BLA 
BLA BLA BLA BLA BLA BLA BLA BLA BLA BLA BLA BLA BLA BLA BLA BLA BLA BLA BLA BLA 
BLA BLA BLA BLA BLA BLA BLA BLA BLA BLA BLA BLA BLA BLA BLA BLA BLA BLA BLA BLA 
BLA BLA BLA BLA BLA BLA BLA BLA BLA BLA BLA BLA BLA BLA BLA BLA BLA BLA BLA BLA 
BLA BLA BLA BLA BLA BLA BLA BLA BLA BLA BLA BLA BLA BLA BLA BLA BLA BLA BLA BLA 
BLA BLA BLA BLA BLA BLA BLA BLA BLA BLA BLA BLA BLA BLA BLA BLA BLA BLA BLA BLA 
BLA BLA BLA BLA BLA BLA BLA BLA BLA BLA BLA BLA BLA BLA BLA BLA BLA BLA BLA BLA 
BLA BLA BLA BLA BLA BLA BLA BLA BLA BLA BLA BLA BLA BLA BLA BLA BLA BLA BLA BLA 
BLA BLA BLA BLA BLA BLA BLA BLA BLA BLA BLA BLA BLA BLA BLA BLA BLA BLA BLA BLA 
BLA BLA BLA BLA BLA BLA BLA BLA BLA BLA BLA BLA BLA BLA BLA BLA BLA BLA BLA BLA 
BLA BLA BLA BLA BLA BLA BLA BLA BLA BLA BLA BLA BLA BLA BLA BLA BLA BLA BLA BLA 
BLA BLA BLA BLA BLA BLA BLA BLA BLA BLA BLA BLA BLA BLA BLA BLA BLA BLA BLA BLA 
BLA BLA BLA BLA BLA BLA BLA BLA BLA BLA BLA BLA BLA BLA BLA BLA BLA BLA BLA BLA 
BLA BLA BLA BLA BLA BLA BLA BLA BLA BLA BLA BLA BLA BLA BLA BLA BLA BLA BLA BLA 
BLA BLA BLA BLA BLA BLA BLA BLA BLA BLA BLA BLA BLA BLA BLA BLA BLA BLA BLA BLA 
BLA BLA BLA BLA BLA BLA BLA BLA BLA BLA BLA BLA BLA BLA BLA BLA BLA BLA BLA BLA 
BLA BLA BLA BLA BLA BLA BLA BLA BLA BLA BLA BLA BLA BLA BLA BLA BLA BLA BLA BLA 
BLA BLA BLA BLA BLA BLA BLA BLA BLA BLA BLA BLA BLA BLA BLA BLA BLA BLA BLA BLA 
BLA BLA BLA BLA BLA BLA BLA BLA BLA BLA BLA BLA BLA BLA BLA BLA BLA BLA BLA BLA 
BLA BLA BLA BLA BLA BLA BLA BLA BLA BLA BLA BLA BLA BLA BLA BLA BLA BLA BLA BLA 
BLA BLA BLA BLA BLA BLA BLA BLA BLA BLA BLA BLA BLA BLA BLA BLA BLA BLA BLA BLA 
BLA BLA BLA BLA BLA BLA BLA BLA BLA BLA BLA BLA BLA BLA BLA BLA BLA BLA BLA BLA 
BLA BLA BLA BLA BLA BLA BLA BLA BLA BLA BLA BLA BLA BLA BLA BLA BLA BLA BLA BLA 
BLA BLA BLA BLA BLA BLA BLA BLA BLA BLA BLA BLA BLA BLA BLA BLA BLA BLA BLA BLA 
BLA BLA BLA BLA BLA BLA BLA BLA BLA BLA BLA BLA BLA BLA BLA BLA BLA BLA BLA BLA 
BLA BLA BLA BLA BLA BLA BLA BLA BLA BLA BLA BLA BLA BLA BLA BLA BLA BLA BLA BLA 
BLA BLA BLA BLA BLA BLA BLA BLA BLA BLA BLA BLA BLA BLA BLA BLA BLA BLA BLA BLA 
BLA BLA BLA BLA BLA BLA BLA BLA BLA BLA BLA BLA BLA BLA BLA BLA BLA BLA BLA BLA 
BLA BLA BLA BLA BLA BLA BLA BLA BLA BLA BLA BLA BLA BLA BLA BLA BLA BLA BLA BLA 
BLA BLA BLA BLA BLA BLA BLA BLA BLA BLA BLA BLA BLA BLA BLA BLA BLA BLA BLA BLA 
BLA BLA BLA BLA BLA BLA BLA BLA BLA BLA BLA BLA BLA BLA BLA BLA BLA BLA BLA BLA 
BLA BLA BLA BLA BLA BLA BLA BLA BLA BLA BLA BLA BLA BLA BLA BLA BLA BLA BLA BLA 
BLA BLA BLA BLA BLA BLA BLA BLA BLA BLA BLA BLA BLA BLA BLA BLA BLA BLA BLA BLA 
BLA BLA BLA BLA BLA BLA BLA BLA BLA BLA BLA BLA BLA BLA BLA BLA BLA BLA BLA BLA 
BLA BLA BLA BLA BLA BLA BLA BLA BLA BLA BLA BLA BLA BLA BLA BLA BLA BLA BLA BLA 
BLA BLA BLA BLA BLA BLA BLA BLA BLA BLA BLA BLA BLA BLA BLA BLA BLA BLA BLA BLA 
BLA BLA BLA BLA BLA BLA BLA BLA BLA BLA BLA BLA BLA BLA BLA BLA BLA BLA BLA BLA 
BLA BLA BLA BLA BLA BLA BLA BLA BLA BLA BLA BLA BLA BLA BLA BLA BLA BLA BLA BLA 
BLA BLA BLA BLA BLA BLA BLA BLA BLA BLA BLA BLA BLA BLA BLA BLA BLA BLA BLA BLA 
BLA BLA BLA BLA BLA BLA BLA BLA BLA BLA BLA BLA BLA BLA BLA BLA BLA BLA BLA BLA 
BLA BLA BLA BLA BLA BLA BLA BLA BLA BLA BLA BLA BLA BLA BLA BLA BLA BLA BLA BLA 
BLA BLA BLA BLA BLA BLA BLA BLA BLA BLA BLA BLA BLA BLA BLA BLA BLA BLA BLA BLA 
BLA BLA BLA BLA BLA BLA BLA BLA BLA BLA BLA BLA BLA BLA BLA BLA BLA BLA BLA BLA 
BLA BLA BLA BLA BLA BLA BLA BLA BLA BLA BLA BLA BLA BLA BLA BLA BLA BLA BLA BLA 
BLA BLA BLA BLA BLA BLA BLA BLA BLA BLA BLA BLA BLA BLA BLA BLA BLA BLA BLA BLA 
BLA BLA BLA BLA BLA BLA BLA BLA BLA BLA BLA BLA BLA BLA BLA BLA BLA BLA BLA BLA 
BLA BLA BLA BLA BLA BLA BLA BLA BLA BLA BLA BLA BLA BLA BLA BLA BLA BLA BLA BLA 
BLA BLA BLA BLA BLA BLA BLA BLA BLA BLA BLA BLA BLA BLA BLA BLA BLA BLA BLA BLA 
BLA BLA BLA BLA BLA BLA BLA BLA BLA BLA BLA BLA BLA BLA BLA BLA BLA BLA BLA BLA 
BLA BLA BLA BLA BLA BLA BLA BLA BLA BLA BLA BLA BLA BLA BLA BLA BLA BLA BLA BLA 
BLA BLA BLA BLA BLA BLA BLA BLA BLA BLA BLA BLA BLA BLA BLA BLA BLA BLA BLA BLA 
BLA BLA BLA BLA BLA BLA BLA BLA BLA BLA BLA BLA BLA BLA BLA BLA BLA BLA BLA BLA 
BLA BLA BLA BLA BLA BLA BLA BLA BLA BLA BLA BLA BLA BLA BLA BLA BLA BLA BLA BLA 
BLA BLA BLA BLA BLA BLA BLA BLA BLA BLA BLA BLA BLA BLA BLA BLA BLA BLA BLA BLA 
BLA BLA BLA BLA BLA BLA BLA BLA BLA BLA BLA BLA BLA BLA BLA BLA BLA BLA BLA BLA 
BLA BLA BLA BLA BLA BLA BLA BLA BLA BLA BLA BLA BLA BLA BLA BLA BLA BLA BLA BLA 
BLA BLA BLA BLA BLA BLA BLA BLA BLA BLA BLA BLA BLA BLA BLA BLA BLA BLA BLA BLA 
BLA BLA BLA BLA BLA BLA BLA BLA BLA BLA BLA BLA BLA BLA BLA BLA BLA BLA BLA BLA 
BLA BLA BLA BLA BLA BLA BLA BLA BLA BLA BLA BLA BLA BLA BLA BLA BLA BLA BLA BLA 
BLA BLA BLA BLA BLA BLA BLA BLA BLA BLA BLA BLA BLA BLA BLA BLA BLA BLA BLA BLA 
BLA BLA BLA BLA BLA BLA BLA BLA BLA BLA BLA BLA BLA BLA BLA BLA BLA BLA BLA BLA 
BLA BLA BLA BLA BLA BLA BLA BLA BLA BLA BLA BLA BLA BLA BLA BLA BLA BLA BLA BLA 
BLA BLA BLA BLA BLA BLA BLA BLA BLA BLA BLA BLA BLA BLA BLA BLA BLA BLA BLA BLA 
BLA BLA BLA BLA BLA BLA BLA BLA BLA BLA BLA BLA BLA BLA BLA BLA BLA BLA BLA BLA 
BLA BLA BLA BLA BLA BLA BLA BLA BLA BLA BLA BLA BLA BLA BLA BLA BLA BLA BLA BLA 
BLA BLA BLA BLA BLA BLA BLA BLA BLA BLA BLA BLA BLA BLA BLA BLA BLA BLA BLA BLA 
BLA BLA BLA BLA BLA BLA BLA BLA BLA BLA BLA BLA BLA BLA BLA BLA BLA BLA BLA BLA 
BLA BLA BLA BLA BLA BLA BLA BLA BLA BLA BLA BLA BLA BLA BLA BLA BLA BLA BLA BLA 
BLA BLA BLA BLA BLA BLA BLA BLA BLA BLA BLA BLA BLA BLA BLA BLA BLA BLA BLA BLA 
BLA BLA BLA BLA BLA BLA BLA BLA BLA BLA BLA BLA BLA BLA BLA BLA BLA BLA BLA BLA 
BLA BLA BLA BLA BLA BLA BLA BLA BLA BLA BLA BLA BLA BLA BLA BLA BLA BLA BLA BLA 
BLA BLA BLA BLA BLA BLA BLA BLA BLA BLA BLA BLA BLA BLA BLA BLA BLA BLA BLA BLA 
BLA BLA BLA BLA BLA BLA BLA BLA BLA BLA BLA BLA BLA BLA BLA BLA BLA BLA BLA BLA 
BLA BLA BLA BLA BLA BLA BLA BLA BLA BLA BLA BLA BLA BLA BLA BLA BLA BLA BLA BLA 
BLA BLA BLA BLA BLA BLA BLA BLA BLA BLA BLA BLA BLA BLA BLA BLA BLA BLA BLA BLA 
BLA BLA BLA BLA BLA BLA BLA BLA BLA BLA BLA BLA BLA BLA BLA BLA BLA BLA BLA BLA 
BLA BLA BLA BLA BLA BLA BLA BLA BLA BLA BLA BLA BLA BLA BLA BLA BLA BLA BLA BLA 
BLA BLA BLA BLA BLA BLA BLA BLA BLA BLA BLA BLA BLA BLA BLA BLA BLA BLA BLA BLA 
BLA BLA BLA BLA BLA BLA BLA BLA BLA BLA BLA BLA BLA BLA BLA BLA BLA BLA BLA BLA 
BLA BLA BLA BLA BLA BLA BLA BLA BLA BLA BLA BLA BLA BLA BLA BLA BLA BLA BLA BLA 
BLA BLA BLA BLA BLA BLA BLA BLA BLA BLA BLA BLA BLA BLA BLA BLA BLA BLA BLA BLA 
BLA BLA BLA BLA BLA BLA BLA BLA BLA BLA BLA BLA BLA BLA BLA BLA BLA BLA BLA BLA 
BLA BLA BLA BLA BLA BLA BLA BLA BLA BLA BLA BLA BLA BLA BLA BLA BLA BLA BLA BLA 
BLA BLA BLA BLA BLA BLA BLA BLA BLA BLA BLA BLA BLA BLA BLA BLA BLA BLA BLA BLA 
BLA BLA BLA BLA BLA BLA BLA BLA BLA BLA BLA BLA BLA BLA BLA BLA BLA BLA BLA BLA 
BLA BLA BLA BLA BLA BLA BLA BLA BLA BLA BLA BLA BLA BLA BLA BLA BLA BLA BLA BLA 
BLA BLA BLA BLA BLA BLA BLA BLA BLA BLA BLA BLA BLA BLA BLA BLA BLA BLA BLA BLA 
BLA BLA BLA BLA BLA BLA BLA BLA BLA BLA BLA BLA BLA BLA BLA BLA BLA BLA BLA BLA 
BLA BLA BLA BLA BLA BLA BLA BLA BLA BLA BLA BLA BLA BLA BLA BLA BLA BLA BLA BLA 
BLA BLA BLA BLA BLA BLA BLA BLA BLA BLA BLA BLA BLA BLA BLA BLA BLA BLA BLA BLA 
BLA BLA BLA BLA BLA BLA BLA BLA BLA BLA BLA BLA BLA BLA BLA BLA BLA BLA BLA BLA 
BLA BLA BLA BLA BLA BLA BLA BLA BLA BLA BLA BLA BLA BLA BLA BLA BLA BLA BLA BLA 
BLA BLA BLA BLA BLA BLA BLA BLA BLA BLA BLA BLA BLA BLA BLA BLA BLA BLA BLA BLA 
BLA BLA BLA BLA BLA BLA BLA BLA BLA BLA BLA BLA BLA BLA BLA BLA BLA BLA BLA BLA 
BLA BLA BLA BLA BLA BLA BLA BLA BLA BLA BLA BLA BLA BLA BLA BLA BLA BLA BLA BLA 
BLA BLA BLA BLA BLA BLA BLA BLA BLA BLA BLA BLA BLA BLA BLA BLA BLA BLA BLA BLA 
BLA BLA BLA BLA BLA BLA BLA BLA BLA BLA BLA BLA BLA BLA BLA BLA BLA BLA BLA BLA 
BLA BLA BLA BLA BLA BLA BLA BLA BLA BLA BLA BLA BLA BLA BLA BLA BLA BLA BLA BLA 
BLA BLA BLA BLA BLA BLA BLA BLA BLA BLA BLA BLA BLA BLA BLA BLA BLA BLA BLA BLA 
BLA BLA BLA BLA BLA BLA BLA BLA BLA BLA BLA BLA BLA BLA BLA BLA BLA BLA BLA BLA 
BLA BLA BLA BLA BLA BLA BLA BLA BLA BLA BLA BLA BLA BLA BLA BLA BLA BLA BLA BLA 
BLA BLA BLA BLA BLA BLA BLA BLA BLA BLA BLA BLA BLA BLA BLA BLA BLA BLA BLA BLA 
BLA BLA BLA BLA BLA BLA BLA BLA BLA BLA BLA BLA BLA BLA BLA BLA BLA BLA BLA BLA 
BLA BLA BLA BLA BLA BLA BLA BLA BLA BLA BLA BLA BLA BLA BLA BLA BLA BLA BLA BLA 
BLA BLA BLA BLA BLA BLA BLA BLA BLA BLA BLA BLA BLA BLA BLA BLA BLA BLA BLA BLA 
BLA BLA BLA BLA BLA BLA BLA BLA BLA BLA BLA BLA BLA BLA BLA BLA BLA BLA BLA BLA 
BLA BLA BLA BLA BLA BLA BLA BLA BLA BLA BLA BLA BLA BLA BLA BLA BLA BLA BLA BLA 
BLA BLA BLA BLA BLA BLA BLA BLA BLA BLA BLA BLA BLA BLA BLA BLA BLA BLA BLA BLA 
BLA BLA BLA BLA BLA BLA BLA BLA BLA BLA BLA BLA BLA BLA BLA BLA BLA BLA BLA BLA 
BLA BLA BLA BLA BLA BLA BLA BLA BLA BLA BLA BLA BLA BLA BLA BLA BLA BLA BLA BLA 
BLA BLA BLA BLA BLA BLA BLA BLA BLA BLA BLA BLA BLA BLA BLA BLA BLA BLA BLA BLA 
BLA BLA BLA BLA BLA BLA BLA BLA BLA BLA BLA BLA BLA BLA BLA BLA BLA BLA BLA BLA 
BLA BLA BLA BLA BLA BLA BLA BLA BLA BLA BLA BLA BLA BLA BLA BLA BLA BLA BLA BLA 
BLA BLA BLA BLA BLA BLA BLA BLA BLA BLA BLA BLA BLA BLA BLA BLA BLA BLA BLA BLA 
BLA BLA BLA BLA BLA BLA BLA BLA BLA BLA BLA BLA BLA BLA BLA BLA BLA BLA BLA BLA 
BLA BLA BLA BLA BLA BLA BLA BLA BLA BLA BLA BLA BLA BLA BLA BLA BLA BLA BLA BLA 
BLA BLA BLA BLA BLA BLA BLA BLA BLA BLA BLA BLA BLA BLA BLA BLA BLA BLA BLA BLA 
BLA BLA BLA BLA BLA BLA BLA BLA BLA BLA BLA BLA BLA BLA BLA BLA BLA BLA BLA BLA 
BLA BLA BLA BLA BLA BLA BLA BLA BLA BLA BLA BLA BLA BLA BLA BLA BLA BLA BLA BLA 
BLA BLA BLA BLA BLA BLA BLA BLA BLA BLA BLA BLA BLA BLA BLA BLA BLA BLA BLA BLA 
BLA BLA BLA BLA BLA BLA BLA BLA BLA BLA BLA BLA BLA BLA BLA BLA BLA BLA BLA BLA 
BLA BLA BLA BLA BLA BLA BLA BLA BLA BLA BLA BLA BLA BLA BLA BLA BLA BLA BLA BLA 
BLA BLA BLA BLA BLA BLA BLA BLA BLA BLA BLA BLA BLA BLA BLA BLA BLA BLA BLA BLA 
BLA BLA BLA BLA BLA BLA BLA BLA BLA BLA BLA BLA BLA BLA BLA BLA BLA BLA BLA BLA 
BLA BLA BLA BLA BLA BLA BLA BLA BLA BLA BLA BLA BLA BLA BLA BLA BLA BLA BLA BLA 
BLA BLA BLA BLA BLA BLA BLA BLA BLA BLA BLA BLA BLA BLA BLA BLA BLA BLA BLA BLA 
BLA BLA BLA BLA BLA BLA BLA BLA BLA BLA BLA BLA BLA BLA BLA BLA BLA BLA BLA BLA 
BLA BLA BLA BLA BLA BLA BLA BLA BLA BLA BLA BLA BLA BLA BLA BLA BLA BLA BLA BLA 
BLA BLA BLA BLA BLA BLA BLA BLA BLA BLA BLA BLA BLA BLA BLA BLA BLA BLA BLA BLA 
BLA BLA BLA BLA BLA BLA BLA BLA BLA BLA BLA BLA BLA BLA BLA BLA BLA BLA BLA BLA 
BLA BLA BLA BLA BLA BLA BLA BLA BLA BLA BLA BLA BLA BLA BLA BLA BLA BLA BLA BLA 
BLA BLA BLA BLA BLA BLA BLA BLA BLA BLA BLA BLA BLA BLA BLA BLA BLA BLA BLA BLA 
BLA BLA BLA BLA BLA BLA BLA BLA BLA BLA BLA BLA BLA BLA BLA BLA BLA BLA BLA BLA 
BLA BLA BLA BLA BLA BLA BLA BLA BLA BLA BLA BLA BLA BLA BLA BLA BLA BLA BLA BLA 
BLA BLA BLA BLA BLA BLA BLA BLA BLA BLA BLA BLA BLA BLA BLA BLA BLA BLA BLA BLA 
BLA BLA BLA BLA BLA BLA BLA BLA BLA BLA BLA BLA BLA BLA BLA BLA BLA BLA BLA BLA 
BLA BLA BLA BLA BLA BLA BLA BLA BLA BLA BLA BLA BLA BLA BLA BLA BLA BLA BLA BLA 
BLA BLA BLA BLA BLA BLA BLA BLA BLA BLA BLA BLA BLA BLA BLA BLA BLA BLA BLA BLA 
BLA BLA BLA BLA BLA BLA BLA BLA BLA BLA BLA BLA BLA BLA BLA BLA BLA BLA BLA BLA 
BLA BLA BLA BLA BLA BLA BLA BLA BLA BLA BLA BLA BLA BLA BLA BLA BLA BLA BLA BLA 
BLA BLA BLA BLA BLA BLA BLA BLA BLA BLA BLA BLA BLA BLA BLA BLA BLA BLA BLA BLA 
BLA BLA BLA BLA BLA BLA BLA BLA BLA BLA BLA BLA BLA BLA BLA BLA BLA BLA BLA BLA 
BLA BLA BLA BLA BLA BLA BLA BLA BLA BLA BLA BLA BLA BLA BLA BLA BLA BLA BLA BLA 
BLA BLA BLA BLA BLA BLA BLA BLA BLA BLA BLA BLA BLA BLA BLA BLA BLA BLA BLA BLA 
BLA BLA BLA BLA BLA BLA BLA BLA BLA BLA BLA BLA BLA BLA BLA BLA BLA BLA BLA BLA 
BLA BLA BLA BLA BLA BLA BLA BLA BLA BLA BLA BLA BLA BLA BLA BLA BLA BLA BLA BLA 
BLA BLA BLA BLA BLA BLA BLA BLA BLA BLA BLA BLA BLA BLA BLA BLA BLA BLA BLA BLA 
BLA BLA BLA BLA BLA BLA BLA BLA BLA BLA BLA BLA BLA BLA BLA BLA BLA BLA BLA BLA 
BLA BLA BLA BLA BLA BLA BLA BLA BLA BLA BLA BLA BLA BLA BLA BLA BLA BLA BLA BLA 
BLA BLA BLA BLA BLA BLA BLA BLA BLA BLA BLA BLA BLA BLA BLA BLA BLA BLA BLA BLA 
BLA BLA BLA BLA BLA BLA BLA BLA BLA BLA BLA BLA BLA BLA BLA BLA BLA BLA BLA BLA 
BLA BLA BLA BLA BLA BLA BLA BLA BLA BLA BLA BLA BLA BLA BLA BLA BLA BLA BLA BLA 
BLA BLA BLA BLA BLA BLA BLA BLA BLA BLA BLA BLA BLA BLA BLA BLA BLA BLA BLA BLA 
BLA BLA BLA BLA BLA BLA BLA BLA BLA BLA BLA BLA BLA BLA BLA BLA BLA BLA BLA BLA 
BLA BLA BLA BLA BLA BLA BLA BLA BLA BLA BLA BLA BLA BLA BLA BLA BLA BLA BLA BLA 
BLA BLA BLA BLA BLA BLA BLA BLA BLA BLA BLA BLA BLA BLA BLA BLA BLA BLA BLA BLA 
BLA BLA BLA BLA BLA BLA BLA BLA BLA BLA BLA BLA BLA BLA BLA BLA BLA BLA BLA BLA 
BLA BLA BLA BLA BLA BLA BLA BLA BLA BLA BLA BLA BLA BLA BLA BLA BLA BLA BLA BLA 
BLA BLA BLA BLA BLA BLA BLA BLA BLA BLA BLA BLA BLA BLA BLA BLA BLA BLA BLA BLA 
BLA BLA BLA BLA BLA BLA BLA BLA BLA BLA BLA BLA BLA BLA BLA BLA BLA BLA BLA BLA 
BLA BLA BLA BLA BLA BLA BLA BLA BLA BLA BLA BLA BLA BLA BLA BLA BLA BLA BLA BLA 
BLA BLA BLA BLA BLA BLA BLA BLA BLA BLA BLA BLA BLA BLA BLA BLA BLA BLA BLA BLA 
BLA BLA BLA BLA BLA BLA BLA BLA BLA BLA BLA BLA BLA BLA BLA BLA BLA BLA BLA BLA 
BLA BLA BLA BLA BLA BLA BLA BLA BLA BLA BLA BLA BLA BLA BLA BLA BLA BLA BLA BLA 
BLA BLA BLA BLA BLA BLA BLA BLA BLA BLA BLA BLA BLA BLA BLA BLA BLA BLA BLA BLA 
BLA BLA BLA BLA BLA BLA BLA BLA BLA BLA BLA BLA BLA BLA BLA BLA BLA BLA BLA BLA 
BLA BLA BLA BLA BLA BLA BLA BLA BLA BLA BLA BLA BLA BLA BLA BLA BLA BLA BLA BLA 
BLA BLA BLA BLA BLA BLA BLA BLA BLA BLA BLA BLA BLA BLA BLA BLA BLA BLA BLA BLA 
BLA BLA BLA BLA BLA BLA BLA BLA BLA BLA BLA BLA BLA BLA BLA BLA BLA BLA BLA BLA 
BLA BLA BLA BLA BLA BLA BLA BLA BLA BLA BLA BLA BLA BLA BLA BLA BLA BLA BLA BLA 
BLA BLA BLA BLA BLA BLA BLA BLA BLA BLA BLA BLA BLA BLA BLA BLA BLA BLA BLA BLA 
BLA BLA BLA BLA BLA BLA BLA BLA BLA BLA BLA BLA BLA BLA BLA BLA BLA BLA BLA BLA 
BLA BLA BLA BLA BLA BLA BLA BLA BLA BLA BLA BLA BLA BLA BLA BLA BLA BLA BLA BLA 
BLA BLA BLA BLA BLA BLA BLA BLA BLA BLA BLA BLA BLA BLA BLA BLA BLA BLA BLA BLA 
BLA BLA BLA BLA BLA BLA BLA BLA BLA BLA BLA BLA BLA BLA BLA BLA BLA BLA BLA BLA 
BLA BLA BLA BLA BLA BLA BLA BLA BLA BLA BLA BLA BLA BLA BLA BLA BLA BLA BLA BLA 
BLA BLA BLA BLA BLA BLA BLA BLA BLA BLA BLA BLA BLA BLA BLA BLA BLA BLA BLA BLA 
BLA BLA BLA BLA BLA BLA BLA BLA BLA BLA BLA BLA BLA BLA BLA BLA BLA BLA BLA BLA 
BLA BLA BLA BLA BLA BLA BLA BLA BLA BLA BLA BLA BLA BLA BLA BLA BLA BLA BLA BLA 
BLA BLA BLA BLA BLA BLA BLA BLA BLA BLA BLA BLA BLA BLA BLA BLA BLA BLA BLA BLA 
BLA BLA BLA BLA BLA BLA BLA BLA BLA BLA BLA BLA BLA BLA BLA BLA BLA BLA BLA BLA 
BLA BLA BLA BLA BLA BLA BLA BLA BLA BLA BLA BLA BLA BLA BLA BLA BLA BLA BLA BLA 
BLA BLA BLA BLA BLA BLA BLA BLA BLA BLA BLA BLA BLA BLA BLA BLA BLA BLA BLA BLA 
BLA BLA BLA BLA BLA BLA BLA BLA BLA BLA BLA BLA BLA BLA BLA BLA BLA BLA BLA BLA 
BLA BLA BLA BLA BLA BLA BLA BLA BLA BLA BLA BLA BLA BLA BLA BLA BLA BLA BLA BLA 
BLA BLA BLA BLA BLA BLA BLA BLA BLA BLA BLA BLA BLA BLA BLA BLA BLA BLA BLA BLA 
BLA BLA BLA BLA BLA BLA BLA BLA BLA BLA BLA BLA BLA BLA BLA BLA BLA BLA BLA BLA 
BLA BLA BLA BLA BLA BLA BLA BLA BLA BLA BLA BLA BLA BLA BLA BLA BLA BLA BLA BLA 
BLA BLA BLA BLA BLA BLA BLA BLA BLA BLA BLA BLA BLA BLA BLA BLA BLA BLA BLA BLA 
BLA BLA BLA BLA BLA BLA BLA BLA BLA BLA BLA BLA BLA BLA BLA BLA BLA BLA BLA BLA 
BLA BLA BLA BLA BLA BLA BLA BLA BLA BLA BLA BLA BLA BLA BLA BLA BLA BLA BLA BLA 
BLA BLA BLA BLA BLA BLA BLA BLA BLA BLA BLA BLA BLA BLA BLA BLA BLA BLA BLA BLA 
BLA BLA BLA BLA BLA BLA BLA BLA BLA BLA BLA BLA BLA BLA BLA BLA BLA BLA BLA BLA 
BLA BLA BLA BLA BLA BLA BLA BLA BLA BLA BLA BLA BLA BLA BLA BLA BLA BLA BLA BLA 
BLA BLA BLA BLA BLA BLA BLA BLA BLA BLA BLA BLA BLA BLA BLA BLA BLA BLA BLA BLA 
BLA BLA BLA BLA BLA BLA BLA BLA BLA BLA BLA BLA BLA BLA BLA BLA BLA BLA BLA BLA 
BLA BLA BLA BLA BLA BLA BLA BLA BLA BLA BLA BLA BLA BLA BLA BLA BLA BLA BLA BLA 
BLA BLA BLA BLA BLA BLA BLA BLA BLA BLA BLA BLA BLA BLA BLA BLA BLA BLA BLA BLA 
BLA BLA BLA BLA BLA BLA BLA BLA BLA BLA BLA BLA BLA BLA BLA BLA BLA BLA BLA BLA 
BLA BLA BLA BLA BLA BLA BLA BLA BLA BLA BLA BLA BLA BLA BLA BLA BLA BLA BLA BLA 
BLA BLA BLA BLA BLA BLA BLA BLA BLA BLA BLA BLA BLA BLA BLA BLA BLA BLA BLA BLA 
BLA BLA BLA BLA BLA BLA BLA BLA BLA BLA BLA BLA BLA BLA BLA BLA BLA BLA BLA BLA 
BLA BLA BLA BLA BLA BLA BLA BLA BLA BLA BLA BLA BLA BLA BLA BLA BLA BLA BLA BLA 
BLA BLA BLA BLA BLA BLA BLA BLA BLA BLA BLA BLA BLA BLA BLA BLA BLA BLA BLA BLA 
BLA BLA BLA BLA BLA BLA BLA BLA BLA BLA BLA BLA BLA BLA BLA BLA BLA BLA BLA BLA 
BLA BLA BLA BLA BLA BLA BLA BLA BLA BLA BLA BLA BLA BLA BLA BLA BLA BLA BLA BLA 
BLA BLA BLA BLA BLA BLA BLA BLA BLA BLA BLA BLA BLA BLA BLA BLA BLA BLA BLA BLA 
BLA BLA BLA BLA BLA BLA BLA BLA BLA BLA BLA BLA BLA BLA BLA BLA BLA BLA BLA BLA 
BLA BLA BLA BLA BLA BLA BLA BLA BLA BLA BLA BLA BLA BLA BLA BLA BLA BLA BLA BLA 
BLA BLA BLA BLA BLA BLA BLA BLA BLA BLA BLA BLA BLA BLA BLA BLA BLA BLA BLA BLA 
BLA BLA BLA BLA BLA BLA BLA BLA BLA BLA BLA BLA BLA BLA BLA BLA BLA BLA BLA BLA 
BLA BLA BLA BLA BLA BLA BLA BLA BLA BLA BLA BLA BLA BLA BLA BLA BLA BLA BLA BLA 
BLA BLA BLA BLA BLA BLA BLA BLA BLA BLA BLA BLA BLA BLA BLA BLA BLA BLA BLA BLA 
BLA BLA BLA BLA BLA BLA BLA BLA BLA BLA BLA BLA BLA BLA BLA BLA BLA BLA BLA BLA 
BLA BLA BLA BLA BLA BLA BLA BLA BLA BLA BLA BLA BLA BLA BLA BLA BLA BLA BLA BLA 
BLA BLA BLA BLA BLA BLA BLA BLA BLA BLA BLA BLA BLA BLA BLA BLA BLA BLA BLA BLA 
BLA BLA BLA BLA BLA BLA BLA BLA BLA BLA BLA BLA BLA BLA BLA BLA BLA BLA BLA BLA 
BLA BLA BLA BLA BLA BLA BLA BLA BLA BLA BLA BLA BLA BLA BLA BLA BLA BLA BLA BLA 
BLA BLA BLA BLA BLA BLA BLA BLA BLA BLA BLA BLA BLA BLA BLA BLA BLA BLA BLA BLA 
BLA BLA BLA BLA BLA BLA BLA BLA BLA BLA BLA BLA BLA BLA BLA BLA BLA BLA BLA BLA 
BLA BLA BLA BLA BLA BLA BLA BLA BLA BLA BLA BLA BLA BLA BLA BLA BLA BLA BLA BLA 
BLA BLA BLA BLA BLA BLA BLA BLA BLA BLA BLA BLA BLA BLA BLA BLA BLA BLA BLA BLA 
BLA BLA BLA BLA BLA BLA BLA BLA BLA BLA BLA BLA BLA BLA BLA BLA BLA BLA BLA BLA 
BLA BLA BLA BLA BLA BLA BLA BLA BLA BLA BLA BLA BLA BLA BLA BLA BLA BLA BLA BLA 
BLA BLA BLA BLA BLA BLA BLA BLA BLA BLA BLA BLA BLA BLA BLA BLA BLA BLA BLA BLA 
BLA BLA BLA BLA BLA BLA BLA BLA BLA BLA BLA BLA BLA BLA BLA BLA BLA BLA BLA BLA 
BLA BLA BLA BLA BLA BLA BLA BLA BLA BLA BLA BLA BLA BLA BLA BLA BLA BLA BLA BLA 
BLA BLA BLA BLA BLA BLA BLA BLA BLA BLA BLA BLA BLA BLA BLA BLA BLA BLA BLA BLA 
BLA BLA BLA BLA BLA BLA BLA BLA BLA BLA BLA BLA BLA BLA BLA BLA BLA BLA BLA BLA 
BLA BLA BLA BLA BLA BLA BLA BLA BLA BLA BLA BLA BLA BLA BLA BLA BLA BLA BLA BLA 
BLA BLA BLA BLA BLA BLA BLA BLA BLA BLA BLA BLA BLA BLA BLA BLA BLA BLA BLA BLA 
BLA BLA BLA BLA BLA BLA BLA BLA BLA BLA BLA BLA BLA BLA BLA BLA BLA BLA BLA BLA 
BLA BLA BLA BLA BLA BLA BLA BLA BLA BLA BLA BLA BLA BLA BLA BLA BLA BLA BLA BLA 
BLA BLA BLA BLA BLA BLA BLA BLA BLA BLA BLA BLA BLA BLA BLA BLA BLA BLA BLA BLA 
BLA BLA BLA BLA BLA BLA BLA BLA BLA BLA BLA BLA BLA BLA BLA BLA BLA BLA BLA BLA 
BLA BLA BLA BLA BLA BLA BLA BLA BLA BLA BLA BLA BLA BLA BLA BLA BLA BLA BLA BLA 
BLA BLA BLA BLA BLA BLA BLA BLA BLA BLA BLA BLA BLA BLA BLA BLA BLA BLA BLA BLA 
BLA BLA BLA BLA BLA BLA BLA BLA BLA BLA BLA BLA BLA BLA BLA BLA BLA BLA BLA BLA 
BLA BLA BLA BLA BLA BLA BLA BLA BLA BLA BLA BLA BLA BLA BLA BLA BLA BLA BLA BLA 
BLA BLA BLA BLA BLA BLA BLA BLA BLA BLA BLA BLA BLA BLA BLA BLA BLA BLA BLA BLA 
BLA BLA BLA BLA BLA BLA BLA BLA BLA BLA BLA BLA BLA BLA BLA BLA BLA BLA BLA BLA 
BLA BLA BLA BLA BLA BLA BLA BLA BLA BLA BLA BLA BLA BLA BLA BLA BLA BLA BLA BLA 
BLA BLA BLA BLA BLA BLA BLA BLA BLA BLA BLA BLA BLA BLA BLA BLA BLA BLA BLA BLA 
BLA BLA BLA BLA BLA BLA BLA BLA BLA BLA BLA BLA BLA BLA BLA BLA BLA BLA BLA BLA 
BLA BLA BLA BLA BLA BLA BLA BLA BLA BLA BLA BLA BLA BLA BLA BLA BLA BLA BLA BLA 
BLA BLA BLA BLA BLA BLA BLA BLA BLA BLA BLA BLA BLA BLA BLA BLA BLA BLA BLA BLA 
BLA BLA BLA BLA BLA BLA BLA BLA BLA BLA BLA BLA BLA BLA BLA BLA BLA BLA BLA BLA 
BLA BLA BLA BLA BLA BLA BLA BLA BLA BLA BLA BLA BLA BLA BLA BLA BLA BLA BLA BLA 
BLA BLA BLA BLA BLA BLA BLA BLA BLA BLA BLA BLA BLA BLA BLA BLA BLA BLA BLA BLA 
BLA BLA BLA BLA BLA BLA BLA BLA BLA BLA BLA BLA BLA BLA BLA BLA BLA BLA BLA BLA 
BLA BLA BLA BLA BLA BLA BLA BLA BLA BLA BLA BLA BLA BLA BLA BLA BLA BLA BLA BLA 
BLA BLA BLA BLA BLA BLA BLA BLA BLA BLA BLA BLA BLA BLA BLA BLA BLA BLA BLA BLA 
BLA BLA BLA BLA BLA BLA BLA BLA BLA BLA BLA BLA BLA BLA BLA BLA BLA BLA BLA BLA 
BLA BLA BLA BLA BLA BLA BLA BLA BLA BLA BLA BLA BLA BLA BLA BLA BLA BLA BLA BLA 
BLA BLA BLA BLA BLA BLA BLA BLA BLA BLA BLA BLA BLA BLA BLA BLA BLA BLA BLA BLA 
BLA BLA BLA BLA BLA BLA BLA BLA BLA BLA BLA BLA BLA BLA BLA BLA BLA BLA BLA BLA 
BLA BLA BLA BLA BLA BLA BLA BLA BLA BLA BLA BLA BLA BLA BLA BLA BLA BLA BLA BLA 
BLA BLA BLA BLA BLA BLA BLA BLA BLA BLA BLA BLA BLA BLA BLA BLA BLA BLA BLA BLA 
BLA BLA BLA BLA BLA BLA BLA BLA BLA BLA BLA BLA BLA BLA BLA BLA BLA BLA BLA BLA 
BLA BLA BLA BLA BLA BLA BLA BLA BLA BLA BLA BLA BLA BLA BLA BLA BLA BLA BLA BLA 
BLA BLA BLA BLA BLA BLA BLA BLA BLA BLA BLA BLA BLA BLA BLA BLA BLA BLA BLA BLA 
BLA BLA BLA BLA BLA BLA BLA BLA BLA BLA BLA BLA BLA BLA BLA BLA BLA BLA BLA BLA 
BLA BLA BLA BLA BLA BLA BLA BLA BLA BLA BLA BLA BLA BLA BLA BLA BLA BLA BLA BLA 
BLA BLA BLA BLA BLA BLA BLA BLA BLA BLA BLA BLA BLA BLA BLA BLA BLA BLA BLA BLA 
BLA BLA BLA BLA BLA BLA BLA BLA BLA BLA BLA BLA BLA BLA BLA BLA BLA BLA BLA BLA 
BLA BLA BLA BLA BLA BLA BLA BLA BLA BLA BLA BLA BLA BLA BLA BLA BLA BLA BLA BLA 
BLA BLA BLA BLA BLA BLA BLA BLA BLA BLA BLA BLA BLA BLA BLA BLA BLA BLA BLA BLA 
BLA BLA BLA BLA BLA BLA BLA BLA BLA BLA BLA BLA BLA BLA BLA BLA BLA BLA BLA BLA 
BLA BLA BLA BLA BLA BLA BLA BLA BLA BLA BLA BLA BLA BLA BLA BLA BLA BLA BLA BLA 
BLA BLA BLA BLA BLA BLA BLA BLA BLA BLA BLA BLA BLA BLA BLA BLA BLA BLA BLA BLA 
BLA BLA BLA BLA BLA BLA BLA BLA BLA BLA BLA BLA BLA BLA BLA BLA BLA BLA BLA BLA 
BLA BLA BLA BLA BLA BLA BLA BLA BLA BLA BLA BLA BLA BLA BLA BLA BLA BLA BLA BLA 
BLA BLA BLA BLA BLA BLA BLA BLA BLA BLA BLA BLA BLA BLA BLA BLA BLA BLA BLA BLA 
BLA BLA BLA BLA BLA BLA BLA BLA BLA BLA BLA BLA BLA BLA BLA BLA BLA BLA BLA BLA 
BLA BLA BLA BLA BLA BLA BLA BLA BLA BLA BLA BLA BLA BLA BLA BLA BLA BLA BLA BLA 
BLA BLA BLA BLA BLA BLA BLA BLA BLA BLA BLA BLA BLA BLA BLA BLA BLA BLA BLA BLA 
BLA BLA BLA BLA BLA BLA BLA BLA BLA BLA BLA BLA BLA BLA BLA BLA BLA BLA BLA BLA 
BLA BLA BLA BLA BLA BLA BLA BLA BLA BLA BLA BLA BLA BLA BLA BLA BLA BLA BLA BLA 
BLA BLA BLA BLA BLA BLA BLA BLA BLA BLA BLA BLA BLA BLA BLA BLA BLA BLA BLA BLA 
BLA BLA BLA BLA BLA BLA BLA BLA BLA BLA BLA BLA BLA BLA BLA BLA BLA BLA BLA BLA 
BLA BLA BLA BLA BLA BLA BLA BLA BLA BLA BLA BLA BLA BLA BLA BLA BLA BLA BLA BLA 
BLA BLA BLA BLA BLA BLA BLA BLA BLA BLA BLA BLA BLA BLA BLA BLA BLA BLA BLA BLA 
BLA BLA BLA BLA BLA BLA BLA BLA BLA BLA BLA BLA BLA BLA BLA BLA BLA BLA BLA BLA 
BLA BLA BLA BLA BLA BLA BLA BLA BLA BLA BLA BLA BLA BLA BLA BLA BLA BLA BLA BLA 
BLA BLA BLA BLA BLA BLA BLA BLA BLA BLA BLA BLA BLA BLA BLA BLA BLA BLA BLA BLA 
BLA BLA BLA BLA BLA BLA BLA BLA BLA BLA BLA BLA BLA BLA BLA BLA BLA BLA BLA BLA 
BLA BLA BLA BLA BLA BLA BLA BLA BLA BLA BLA BLA BLA BLA BLA BLA BLA BLA BLA BLA 
BLA BLA BLA BLA BLA BLA BLA BLA BLA BLA BLA BLA BLA BLA BLA BLA BLA BLA BLA BLA 
BLA BLA BLA BLA BLA BLA BLA BLA BLA BLA BLA BLA BLA BLA BLA BLA BLA BLA BLA BLA 
BLA BLA BLA BLA BLA BLA BLA BLA BLA BLA BLA BLA BLA BLA BLA BLA BLA BLA BLA BLA 
BLA BLA BLA BLA BLA BLA BLA BLA BLA BLA BLA BLA BLA BLA BLA BLA BLA BLA BLA BLA 
BLA BLA BLA BLA BLA BLA BLA BLA BLA BLA BLA BLA BLA BLA BLA BLA BLA BLA BLA BLA 
BLA BLA BLA BLA BLA BLA BLA BLA BLA BLA BLA BLA BLA BLA BLA BLA BLA BLA BLA BLA 
BLA BLA BLA BLA BLA BLA BLA BLA BLA BLA BLA BLA BLA BLA BLA BLA BLA BLA BLA BLA 
BLA BLA BLA BLA BLA BLA BLA BLA BLA BLA BLA BLA BLA BLA BLA BLA BLA BLA BLA BLA 
BLA BLA BLA BLA BLA BLA BLA BLA BLA BLA BLA BLA BLA BLA BLA BLA BLA BLA BLA BLA 
BLA BLA BLA BLA BLA BLA BLA BLA BLA BLA BLA BLA BLA BLA BLA BLA BLA BLA BLA BLA 
BLA BLA BLA BLA BLA BLA BLA BLA BLA BLA BLA BLA BLA BLA BLA BLA BLA BLA BLA BLA 
BLA BLA BLA BLA BLA BLA BLA BLA BLA BLA BLA BLA BLA BLA BLA BLA BLA BLA BLA BLA 
BLA BLA BLA BLA BLA BLA BLA BLA BLA BLA BLA BLA BLA BLA BLA BLA BLA BLA BLA BLA 
BLA BLA BLA BLA BLA BLA BLA BLA BLA BLA BLA BLA BLA BLA BLA BLA BLA BLA BLA BLA 
BLA BLA BLA BLA BLA BLA BLA BLA BLA BLA BLA BLA BLA BLA BLA BLA BLA BLA BLA BLA 
BLA BLA BLA BLA BLA BLA BLA BLA BLA BLA BLA BLA BLA BLA BLA BLA BLA BLA BLA BLA 
BLA BLA BLA BLA BLA BLA BLA BLA BLA BLA BLA BLA BLA BLA BLA BLA BLA BLA BLA BLA 
BLA BLA BLA BLA BLA BLA BLA BLA BLA BLA BLA BLA BLA BLA BLA BLA BLA BLA BLA BLA 
BLA BLA BLA BLA BLA BLA BLA BLA BLA BLA BLA BLA BLA BLA BLA BLA BLA BLA BLA BLA 
BLA BLA BLA BLA BLA BLA BLA BLA BLA BLA BLA BLA BLA BLA BLA BLA BLA BLA BLA BLA 
BLA BLA BLA BLA BLA BLA BLA BLA BLA BLA BLA BLA BLA BLA BLA BLA BLA BLA BLA BLA 
BLA BLA BLA BLA BLA BLA BLA BLA BLA BLA BLA BLA BLA BLA BLA BLA BLA BLA BLA BLA 
BLA BLA BLA BLA BLA BLA BLA BLA BLA BLA BLA BLA BLA BLA BLA BLA BLA BLA BLA BLA 
BLA BLA BLA BLA BLA BLA BLA BLA BLA BLA BLA BLA BLA BLA BLA BLA BLA BLA BLA BLA 
BLA BLA BLA BLA BLA BLA BLA BLA BLA BLA BLA BLA BLA BLA BLA BLA BLA BLA BLA BLA 
BLA BLA BLA BLA BLA BLA BLA BLA BLA BLA BLA BLA BLA BLA BLA BLA BLA BLA BLA BLA 
BLA BLA BLA BLA BLA BLA BLA BLA BLA BLA BLA BLA BLA BLA BLA BLA BLA BLA BLA BLA 
BLA BLA BLA BLA BLA BLA BLA BLA BLA BLA BLA BLA BLA BLA BLA BLA BLA BLA BLA BLA 
BLA BLA BLA BLA BLA BLA BLA BLA BLA BLA BLA BLA BLA BLA BLA BLA BLA BLA BLA BLA 
BLA BLA BLA BLA BLA BLA BLA BLA BLA BLA BLA BLA BLA BLA BLA BLA BLA BLA BLA BLA 
BLA BLA BLA BLA BLA BLA BLA BLA BLA BLA BLA BLA BLA BLA BLA BLA BLA BLA BLA BLA 
BLA BLA BLA BLA BLA BLA BLA BLA BLA BLA BLA BLA BLA BLA BLA BLA BLA BLA BLA BLA 
BLA BLA BLA BLA BLA BLA BLA BLA BLA BLA BLA BLA BLA BLA BLA BLA BLA BLA BLA BLA 
BLA BLA BLA BLA BLA BLA BLA BLA BLA BLA BLA BLA BLA BLA BLA BLA BLA BLA BLA BLA 
BLA BLA BLA BLA BLA BLA BLA BLA BLA BLA BLA BLA BLA BLA BLA BLA BLA BLA BLA BLA 
BLA BLA BLA BLA BLA BLA BLA BLA BLA BLA BLA BLA BLA BLA BLA BLA BLA BLA BLA BLA 
BLA BLA BLA BLA BLA BLA BLA BLA BLA BLA BLA BLA BLA BLA BLA BLA BLA BLA BLA BLA 
BLA BLA BLA BLA BLA BLA BLA BLA BLA BLA BLA BLA BLA BLA BLA BLA BLA BLA BLA BLA 
BLA BLA BLA BLA BLA BLA BLA BLA BLA BLA BLA BLA BLA BLA BLA BLA BLA BLA BLA BLA 
BLA BLA BLA BLA BLA BLA BLA BLA BLA BLA BLA BLA BLA BLA BLA BLA BLA BLA BLA BLA 
BLA BLA BLA BLA BLA BLA BLA BLA BLA BLA BLA BLA BLA BLA BLA BLA BLA BLA BLA BLA 
BLA BLA BLA BLA BLA BLA BLA BLA BLA BLA BLA BLA BLA BLA BLA BLA BLA BLA BLA BLA 
BLA BLA BLA BLA BLA BLA BLA BLA BLA BLA BLA BLA BLA BLA BLA BLA BLA BLA BLA BLA 
BLA BLA BLA BLA BLA BLA BLA BLA BLA BLA BLA BLA BLA BLA BLA BLA BLA BLA BLA BLA 
BLA BLA BLA BLA BLA BLA BLA BLA BLA BLA BLA BLA BLA BLA BLA BLA BLA BLA BLA BLA 
BLA BLA BLA BLA BLA BLA BLA BLA BLA BLA BLA BLA BLA BLA BLA BLA BLA BLA BLA BLA 
BLA BLA BLA BLA BLA BLA BLA BLA BLA BLA BLA BLA BLA BLA BLA BLA BLA BLA BLA BLA 
BLA BLA BLA BLA BLA BLA BLA BLA BLA BLA BLA BLA BLA BLA BLA BLA BLA BLA BLA BLA 
BLA BLA BLA BLA BLA BLA BLA BLA BLA BLA BLA BLA BLA BLA BLA BLA BLA BLA BLA BLA 
BLA BLA BLA BLA BLA BLA BLA BLA BLA BLA BLA BLA BLA BLA BLA BLA BLA BLA BLA BLA 
BLA BLA BLA BLA BLA BLA BLA BLA BLA BLA BLA BLA BLA BLA BLA BLA BLA BLA BLA BLA 
BLA BLA BLA BLA BLA BLA BLA BLA BLA BLA BLA BLA BLA BLA BLA BLA BLA BLA BLA BLA 
BLA BLA BLA BLA BLA BLA BLA BLA BLA BLA BLA BLA BLA BLA BLA BLA BLA BLA BLA BLA 
BLA BLA BLA BLA BLA BLA BLA BLA BLA BLA BLA BLA BLA BLA BLA BLA BLA BLA BLA BLA 
BLA BLA BLA BLA BLA BLA BLA BLA BLA BLA BLA BLA BLA BLA BLA BLA BLA BLA BLA BLA 
BLA BLA BLA BLA BLA BLA BLA BLA BLA BLA BLA BLA BLA BLA BLA BLA BLA BLA BLA BLA 
BLA BLA BLA BLA BLA BLA BLA BLA BLA BLA BLA BLA BLA BLA BLA BLA BLA BLA BLA BLA 
BLA BLA BLA BLA BLA BLA BLA BLA BLA BLA BLA BLA BLA BLA BLA BLA BLA BLA BLA BLA 
BLA BLA BLA BLA BLA BLA BLA BLA BLA BLA BLA BLA BLA BLA BLA BLA BLA BLA BLA BLA 
BLA BLA BLA BLA BLA BLA BLA BLA BLA BLA BLA BLA BLA BLA BLA BLA BLA BLA BLA BLA 
BLA BLA BLA BLA BLA BLA BLA BLA BLA BLA BLA BLA BLA BLA BLA BLA BLA BLA BLA BLA 
BLA BLA BLA BLA BLA BLA BLA BLA BLA BLA BLA BLA BLA BLA BLA BLA BLA BLA BLA BLA 
BLA BLA BLA BLA BLA BLA BLA BLA BLA BLA BLA BLA BLA BLA BLA BLA BLA BLA BLA BLA 
BLA BLA BLA BLA BLA BLA BLA BLA BLA BLA BLA BLA BLA BLA BLA BLA BLA BLA BLA BLA 
BLA BLA BLA BLA BLA BLA BLA BLA BLA BLA BLA BLA BLA BLA BLA BLA BLA BLA BLA BLA 
BLA BLA BLA BLA BLA BLA BLA BLA BLA BLA BLA BLA BLA BLA BLA BLA BLA BLA BLA BLA 
BLA BLA BLA BLA BLA BLA BLA BLA BLA BLA BLA BLA BLA BLA BLA BLA BLA BLA BLA BLA 
BLA BLA BLA BLA BLA BLA BLA BLA BLA BLA BLA BLA BLA BLA BLA BLA BLA BLA BLA BLA 
BLA BLA BLA BLA BLA BLA BLA BLA BLA BLA BLA BLA BLA BLA BLA BLA BLA BLA BLA BLA 
BLA BLA BLA BLA BLA BLA BLA BLA BLA BLA BLA BLA BLA BLA BLA BLA BLA BLA BLA BLA 
BLA BLA BLA BLA BLA BLA BLA BLA BLA BLA BLA BLA BLA BLA BLA BLA BLA BLA BLA BLA 
BLA BLA BLA BLA BLA BLA BLA BLA BLA BLA BLA BLA BLA BLA BLA BLA BLA BLA BLA BLA 
BLA BLA BLA BLA BLA BLA BLA BLA BLA BLA BLA BLA BLA BLA BLA BLA BLA BLA BLA BLA 
BLA BLA BLA BLA BLA BLA BLA BLA BLA BLA BLA BLA BLA BLA BLA BLA BLA BLA BLA BLA 
BLA BLA BLA BLA BLA BLA BLA BLA BLA BLA BLA BLA BLA BLA BLA BLA BLA BLA BLA BLA 
BLA BLA BLA BLA BLA BLA BLA BLA BLA BLA BLA BLA BLA BLA BLA BLA BLA BLA BLA BLA 
BLA BLA BLA BLA BLA BLA BLA BLA BLA BLA BLA BLA BLA BLA BLA BLA BLA BLA BLA BLA 
BLA BLA BLA BLA BLA BLA BLA BLA BLA BLA BLA BLA BLA BLA BLA BLA BLA BLA BLA BLA 
BLA BLA BLA BLA BLA BLA BLA BLA BLA BLA BLA BLA BLA BLA BLA BLA BLA BLA BLA BLA 
BLA BLA BLA BLA BLA BLA BLA BLA BLA BLA BLA BLA BLA BLA BLA BLA BLA BLA BLA BLA 
BLA BLA BLA BLA BLA BLA BLA BLA BLA BLA BLA BLA BLA BLA BLA BLA BLA BLA BLA BLA 
BLA BLA BLA BLA BLA BLA BLA BLA BLA BLA BLA BLA BLA BLA BLA BLA BLA BLA BLA BLA 
BLA BLA BLA BLA BLA BLA BLA BLA BLA BLA BLA BLA BLA BLA BLA BLA BLA BLA BLA BLA 
BLA BLA BLA BLA BLA BLA BLA BLA BLA BLA BLA BLA BLA BLA BLA BLA BLA BLA BLA BLA 
BLA BLA BLA BLA BLA BLA BLA BLA BLA BLA BLA BLA BLA BLA BLA BLA BLA BLA BLA BLA 
BLA BLA BLA BLA BLA BLA BLA BLA BLA BLA BLA BLA BLA BLA BLA BLA BLA BLA BLA BLA 
BLA BLA BLA BLA BLA BLA BLA BLA BLA BLA BLA BLA BLA BLA BLA BLA BLA BLA BLA BLA 
BLA BLA BLA BLA BLA BLA BLA BLA BLA BLA BLA BLA BLA BLA BLA BLA BLA BLA BLA BLA 
BLA BLA BLA BLA BLA BLA BLA BLA BLA BLA BLA BLA BLA BLA BLA BLA BLA BLA BLA BLA 
BLA BLA BLA BLA BLA BLA BLA BLA BLA BLA BLA BLA BLA BLA BLA BLA BLA BLA BLA BLA 
BLA BLA BLA BLA BLA BLA BLA BLA BLA BLA BLA BLA BLA BLA BLA BLA BLA BLA BLA BLA 
BLA BLA BLA BLA BLA BLA BLA BLA BLA BLA BLA BLA BLA BLA BLA BLA BLA BLA BLA BLA 
BLA BLA BLA BLA BLA BLA BLA BLA BLA BLA BLA BLA BLA BLA BLA BLA BLA BLA BLA BLA 
BLA BLA BLA BLA BLA BLA BLA BLA BLA BLA BLA BLA BLA BLA BLA BLA BLA BLA BLA BLA 
BLA BLA BLA BLA BLA BLA BLA BLA BLA BLA BLA BLA BLA BLA BLA BLA BLA BLA BLA BLA 
BLA BLA BLA BLA BLA BLA BLA BLA BLA BLA BLA BLA BLA BLA BLA BLA BLA BLA BLA BLA 
BLA BLA BLA BLA BLA BLA BLA BLA BLA BLA BLA BLA BLA BLA BLA BLA BLA BLA BLA BLA 
BLA BLA BLA BLA BLA BLA BLA BLA BLA BLA BLA BLA BLA BLA BLA BLA BLA BLA BLA BLA 
BLA BLA BLA BLA BLA BLA BLA BLA BLA BLA BLA BLA BLA BLA BLA BLA BLA BLA BLA BLA 
BLA BLA BLA BLA BLA BLA BLA BLA BLA BLA BLA BLA BLA BLA BLA BLA BLA BLA BLA BLA 
BLA BLA BLA BLA BLA BLA BLA BLA BLA BLA BLA BLA BLA BLA BLA BLA BLA BLA BLA BLA 
BLA BLA BLA BLA BLA BLA BLA BLA BLA BLA BLA BLA BLA BLA BLA BLA BLA BLA BLA BLA 
BLA BLA BLA BLA BLA BLA BLA BLA BLA BLA BLA BLA BLA BLA BLA BLA BLA BLA BLA BLA 
BLA BLA BLA BLA BLA BLA BLA BLA BLA BLA BLA BLA BLA BLA BLA BLA BLA BLA BLA BLA 
BLA BLA BLA BLA BLA BLA BLA BLA BLA BLA BLA BLA BLA BLA BLA BLA BLA BLA BLA BLA 
BLA BLA BLA BLA BLA BLA BLA BLA BLA BLA BLA BLA BLA BLA BLA BLA BLA BLA BLA BLA 
BLA BLA BLA BLA BLA BLA BLA BLA BLA BLA BLA BLA BLA BLA BLA BLA BLA BLA BLA BLA 
BLA BLA BLA BLA BLA BLA BLA BLA BLA BLA BLA BLA BLA BLA BLA BLA BLA BLA BLA BLA 
BLA BLA BLA BLA BLA BLA BLA BLA BLA BLA BLA BLA BLA BLA BLA BLA BLA BLA BLA BLA 
BLA BLA BLA BLA BLA BLA BLA BLA BLA BLA BLA BLA BLA BLA BLA BLA BLA BLA BLA BLA 
BLA BLA BLA BLA BLA BLA BLA BLA BLA BLA BLA BLA BLA BLA BLA BLA BLA BLA BLA BLA 
BLA BLA BLA BLA BLA BLA BLA BLA BLA BLA BLA BLA BLA BLA BLA BLA BLA BLA BLA BLA 
BLA BLA BLA BLA BLA BLA BLA BLA BLA BLA BLA BLA BLA BLA BLA BLA BLA BLA BLA BLA 
BLA BLA BLA BLA BLA BLA BLA BLA BLA BLA BLA BLA BLA BLA BLA BLA BLA BLA BLA BLA 
BLA BLA BLA BLA BLA BLA BLA BLA BLA BLA BLA BLA BLA BLA BLA BLA BLA BLA BLA BLA 
BLA BLA BLA BLA BLA BLA BLA BLA BLA BLA BLA BLA BLA BLA BLA BLA BLA BLA BLA BLA 
BLA BLA BLA BLA BLA BLA BLA BLA BLA BLA BLA BLA BLA BLA BLA BLA BLA BLA BLA BLA 
BLA BLA BLA BLA BLA BLA BLA BLA BLA BLA BLA BLA BLA BLA BLA BLA BLA BLA BLA BLA 
BLA BLA BLA BLA BLA BLA BLA BLA BLA BLA BLA BLA BLA BLA BLA BLA BLA BLA BLA BLA 
BLA BLA BLA BLA BLA BLA BLA BLA BLA BLA BLA BLA BLA BLA BLA BLA BLA BLA BLA BLA 
BLA BLA BLA BLA BLA BLA BLA BLA BLA BLA BLA BLA BLA BLA BLA BLA BLA BLA BLA BLA 
BLA BLA BLA BLA BLA BLA BLA BLA BLA BLA BLA BLA BLA BLA BLA BLA BLA BLA BLA BLA 
BLA BLA BLA BLA BLA BLA BLA BLA BLA BLA BLA BLA BLA BLA BLA BLA BLA BLA BLA BLA 
BLA BLA BLA BLA BLA BLA BLA BLA BLA BLA BLA BLA BLA BLA BLA BLA BLA BLA BLA BLA 
BLA BLA BLA BLA BLA BLA BLA BLA BLA BLA BLA BLA BLA BLA BLA BLA BLA BLA BLA BLA 
BLA BLA BLA BLA BLA BLA BLA BLA BLA BLA BLA BLA BLA BLA BLA BLA BLA BLA BLA BLA 
BLA BLA BLA BLA BLA BLA BLA BLA BLA BLA BLA BLA BLA BLA BLA BLA BLA BLA BLA BLA 
BLA BLA BLA BLA BLA BLA BLA BLA BLA BLA BLA BLA BLA BLA BLA BLA BLA BLA BLA BLA 
BLA BLA BLA BLA BLA BLA BLA BLA BLA BLA BLA BLA BLA BLA BLA BLA BLA BLA BLA BLA 
BLA BLA BLA BLA BLA BLA BLA BLA BLA BLA BLA BLA BLA BLA BLA BLA BLA BLA BLA BLA 
BLA BLA BLA BLA BLA BLA BLA BLA BLA BLA BLA BLA BLA BLA BLA BLA BLA BLA BLA BLA 
BLA BLA BLA BLA BLA BLA BLA BLA BLA BLA BLA BLA BLA BLA BLA BLA BLA BLA BLA BLA 
BLA BLA BLA BLA BLA BLA BLA BLA BLA BLA BLA BLA BLA BLA BLA BLA BLA BLA BLA BLA 
BLA BLA BLA BLA BLA BLA BLA BLA BLA BLA BLA BLA BLA BLA BLA BLA BLA BLA BLA BLA 
BLA BLA BLA BLA BLA BLA BLA BLA BLA BLA BLA BLA BLA BLA BLA BLA BLA BLA BLA BLA 
BLA BLA BLA BLA BLA BLA BLA BLA BLA BLA BLA BLA BLA BLA BLA BLA BLA BLA BLA BLA 
BLA BLA BLA BLA BLA BLA BLA BLA BLA BLA BLA BLA BLA BLA BLA BLA BLA BLA BLA BLA 
BLA BLA BLA BLA BLA BLA BLA BLA BLA BLA BLA BLA BLA BLA BLA BLA BLA BLA BLA BLA 
BLA BLA BLA BLA BLA BLA BLA BLA BLA BLA BLA BLA BLA BLA BLA BLA BLA BLA BLA BLA 
BLA BLA BLA BLA BLA BLA BLA BLA BLA BLA BLA BLA BLA BLA BLA BLA BLA BLA BLA BLA 
BLA BLA BLA BLA BLA BLA BLA BLA BLA BLA BLA BLA BLA BLA BLA BLA BLA BLA BLA BLA 
BLA BLA BLA BLA BLA BLA BLA BLA BLA BLA BLA BLA BLA BLA BLA BLA BLA BLA BLA BLA 
BLA BLA BLA BLA BLA BLA BLA BLA BLA BLA BLA BLA BLA BLA BLA BLA BLA BLA BLA BLA 
BLA BLA BLA BLA BLA BLA BLA BLA BLA BLA BLA BLA BLA BLA BLA BLA BLA BLA BLA BLA 
BLA BLA BLA BLA BLA BLA BLA BLA BLA BLA BLA BLA BLA BLA BLA BLA BLA BLA BLA BLA 
BLA BLA BLA BLA BLA BLA BLA BLA BLA BLA BLA BLA BLA BLA BLA BLA BLA BLA BLA BLA 
BLA BLA BLA BLA BLA BLA BLA BLA BLA BLA BLA BLA BLA BLA BLA BLA BLA BLA BLA BLA 
BLA BLA BLA BLA BLA BLA BLA BLA BLA BLA BLA BLA BLA BLA BLA BLA BLA BLA BLA BLA 
BLA BLA BLA BLA BLA BLA BLA BLA BLA BLA BLA BLA BLA BLA BLA BLA BLA BLA BLA BLA 
BLA BLA BLA BLA BLA BLA BLA BLA BLA BLA BLA BLA BLA BLA BLA BLA BLA BLA BLA BLA 
BLA BLA BLA BLA BLA BLA BLA BLA BLA BLA BLA BLA BLA BLA BLA BLA BLA BLA BLA BLA 
BLA BLA BLA BLA BLA BLA BLA BLA BLA BLA BLA BLA BLA BLA BLA BLA BLA BLA BLA BLA 
BLA BLA BLA BLA BLA BLA BLA BLA BLA BLA BLA BLA BLA BLA BLA BLA BLA BLA BLA BLA 
BLA BLA BLA BLA BLA BLA BLA BLA BLA BLA BLA BLA BLA BLA BLA BLA BLA BLA BLA BLA 
BLA BLA BLA BLA BLA BLA BLA BLA BLA BLA BLA BLA BLA BLA BLA BLA BLA BLA BLA BLA 
BLA BLA BLA BLA BLA BLA BLA BLA BLA BLA BLA BLA BLA BLA BLA BLA BLA BLA BLA BLA 
BLA BLA BLA BLA BLA BLA BLA BLA BLA BLA BLA BLA BLA BLA BLA BLA BLA BLA BLA BLA 
BLA BLA BLA BLA BLA BLA BLA BLA BLA BLA BLA BLA BLA BLA BLA BLA BLA BLA BLA BLA 
BLA BLA BLA BLA BLA BLA BLA BLA BLA BLA BLA BLA BLA BLA BLA BLA BLA BLA BLA BLA 
BLA BLA BLA BLA BLA BLA BLA BLA BLA BLA BLA BLA BLA BLA BLA BLA BLA BLA BLA BLA 
BLA BLA BLA BLA BLA BLA BLA BLA BLA BLA BLA BLA BLA BLA BLA BLA BLA BLA BLA BLA 
BLA BLA BLA BLA BLA BLA BLA BLA BLA BLA BLA BLA BLA BLA BLA BLA BLA BLA BLA BLA 
BLA BLA BLA BLA BLA BLA BLA BLA BLA BLA BLA BLA BLA BLA BLA BLA BLA BLA BLA BLA 
BLA BLA BLA BLA BLA BLA BLA BLA BLA BLA BLA BLA BLA BLA BLA BLA BLA BLA BLA BLA 
BLA BLA BLA BLA BLA BLA BLA BLA BLA BLA BLA BLA BLA BLA BLA BLA BLA BLA BLA BLA 
BLA BLA BLA BLA BLA BLA BLA BLA BLA BLA BLA BLA BLA BLA BLA BLA BLA BLA BLA BLA 
BLA BLA BLA BLA BLA BLA BLA BLA BLA BLA BLA BLA BLA BLA BLA BLA BLA BLA BLA BLA 
BLA BLA BLA BLA BLA BLA BLA BLA BLA BLA BLA BLA BLA BLA BLA BLA BLA BLA BLA BLA 
BLA BLA BLA BLA BLA BLA BLA BLA BLA BLA BLA BLA BLA BLA BLA BLA BLA BLA BLA BLA 
BLA BLA BLA BLA BLA BLA BLA BLA BLA BLA BLA BLA BLA BLA BLA BLA BLA BLA BLA BLA 
BLA BLA BLA BLA BLA BLA BLA BLA BLA BLA BLA BLA BLA BLA BLA BLA BLA BLA BLA BLA 
BLA BLA BLA BLA BLA BLA BLA BLA BLA BLA BLA BLA BLA BLA BLA BLA BLA BLA BLA BLA 
BLA BLA BLA BLA BLA BLA BLA BLA BLA BLA BLA BLA BLA BLA BLA BLA BLA BLA BLA BLA 
BLA BLA BLA BLA BLA BLA BLA BLA BLA BLA BLA BLA BLA BLA BLA BLA BLA BLA BLA BLA 
BLA BLA BLA BLA BLA BLA BLA BLA BLA BLA BLA BLA BLA BLA BLA BLA BLA BLA BLA BLA 
BLA BLA BLA BLA BLA BLA BLA BLA BLA BLA BLA BLA BLA BLA BLA BLA BLA BLA BLA BLA 
BLA BLA BLA BLA BLA BLA BLA BLA BLA BLA BLA BLA BLA BLA BLA BLA BLA BLA BLA BLA 
BLA BLA BLA BLA BLA BLA BLA BLA BLA BLA BLA BLA BLA BLA BLA BLA BLA BLA BLA BLA 
BLA BLA BLA BLA BLA BLA BLA BLA BLA BLA BLA BLA BLA BLA BLA BLA BLA BLA BLA BLA 
BLA BLA BLA BLA BLA BLA BLA BLA BLA BLA BLA BLA BLA BLA BLA BLA BLA BLA BLA BLA 
BLA BLA BLA BLA BLA BLA BLA BLA BLA BLA BLA BLA BLA BLA BLA BLA BLA BLA BLA BLA 
BLA BLA BLA BLA BLA BLA BLA BLA BLA BLA BLA BLA BLA BLA BLA BLA BLA BLA BLA BLA 
BLA BLA BLA BLA BLA BLA BLA BLA BLA BLA BLA BLA BLA BLA BLA BLA BLA BLA BLA BLA 
BLA BLA BLA BLA BLA BLA BLA BLA BLA BLA BLA BLA BLA BLA BLA BLA BLA BLA BLA BLA 
BLA BLA BLA BLA BLA BLA BLA BLA BLA BLA BLA BLA BLA BLA BLA BLA BLA BLA BLA BLA 
BLA BLA BLA BLA BLA BLA BLA BLA BLA BLA BLA BLA BLA BLA BLA BLA BLA BLA BLA BLA 
BLA BLA BLA BLA BLA BLA BLA BLA BLA BLA BLA BLA BLA BLA BLA BLA BLA BLA BLA BLA 
BLA BLA BLA BLA BLA BLA BLA BLA BLA BLA BLA BLA BLA BLA BLA BLA BLA BLA BLA BLA 
BLA BLA BLA BLA BLA BLA BLA BLA BLA BLA BLA BLA BLA BLA BLA BLA BLA BLA BLA BLA 
BLA BLA BLA BLA BLA BLA BLA BLA BLA BLA BLA BLA BLA BLA BLA BLA BLA BLA BLA BLA 
BLA BLA BLA BLA BLA BLA BLA BLA BLA BLA BLA BLA BLA BLA BLA BLA BLA BLA BLA BLA 
BLA BLA BLA BLA BLA BLA BLA BLA BLA BLA BLA BLA BLA BLA BLA BLA BLA BLA BLA BLA 
BLA BLA BLA BLA BLA BLA BLA BLA BLA BLA BLA BLA BLA BLA BLA BLA BLA BLA BLA BLA 
BLA BLA BLA BLA BLA BLA BLA BLA BLA BLA BLA BLA BLA BLA BLA BLA BLA BLA BLA BLA 
BLA BLA BLA BLA BLA BLA BLA BLA BLA BLA BLA BLA BLA BLA BLA BLA BLA BLA BLA BLA 
BLA BLA BLA BLA BLA BLA BLA BLA BLA BLA BLA BLA BLA BLA BLA BLA BLA BLA BLA BLA 
BLA BLA BLA BLA BLA BLA BLA BLA BLA BLA BLA BLA BLA BLA BLA BLA BLA BLA BLA BLA 
BLA BLA BLA BLA BLA BLA BLA BLA BLA BLA BLA BLA BLA BLA BLA BLA BLA BLA BLA BLA 
BLA BLA BLA BLA BLA BLA BLA BLA BLA BLA BLA BLA BLA BLA BLA BLA BLA BLA BLA BLA 
BLA BLA BLA BLA BLA BLA BLA BLA BLA BLA BLA BLA BLA BLA BLA BLA BLA BLA BLA BLA 
BLA BLA BLA BLA BLA BLA BLA BLA BLA BLA BLA BLA BLA BLA BLA BLA BLA BLA BLA BLA 
BLA BLA BLA BLA BLA BLA BLA BLA BLA BLA BLA BLA BLA BLA BLA BLA BLA BLA BLA BLA 
BLA BLA BLA BLA BLA BLA BLA BLA BLA BLA BLA BLA BLA BLA BLA BLA BLA BLA BLA BLA 
BLA BLA BLA BLA BLA BLA BLA BLA BLA BLA BLA BLA BLA BLA BLA BLA BLA BLA BLA BLA 
BLA BLA BLA BLA BLA BLA BLA BLA BLA BLA BLA BLA BLA BLA BLA BLA BLA BLA BLA BLA 
BLA BLA BLA BLA BLA BLA BLA BLA BLA BLA BLA BLA BLA BLA BLA BLA BLA BLA BLA BLA 
BLA BLA BLA BLA BLA BLA BLA BLA BLA BLA BLA BLA BLA BLA BLA BLA BLA BLA BLA BLA 
BLA BLA BLA BLA BLA BLA BLA BLA BLA BLA BLA BLA BLA BLA BLA BLA BLA BLA BLA BLA 
BLA BLA BLA BLA BLA BLA BLA BLA BLA BLA BLA BLA BLA BLA BLA BLA BLA BLA BLA BLA 
BLA BLA BLA BLA BLA BLA BLA BLA BLA BLA BLA BLA BLA BLA BLA BLA BLA BLA BLA BLA 
BLA BLA BLA BLA BLA BLA BLA BLA BLA BLA BLA BLA BLA BLA BLA BLA BLA BLA BLA BLA 
BLA BLA BLA BLA BLA BLA BLA BLA BLA BLA BLA BLA BLA BLA BLA BLA BLA BLA BLA BLA 
BLA BLA BLA BLA BLA BLA BLA BLA BLA BLA BLA BLA BLA BLA BLA BLA BLA BLA BLA BLA 
BLA BLA BLA BLA BLA BLA BLA BLA BLA BLA BLA BLA BLA BLA BLA BLA BLA BLA BLA BLA 
BLA BLA BLA BLA BLA BLA BLA BLA BLA BLA BLA BLA BLA BLA BLA BLA BLA BLA BLA BLA 
BLA BLA BLA BLA BLA BLA BLA BLA BLA BLA BLA BLA BLA BLA BLA BLA BLA BLA BLA BLA 
BLA BLA BLA BLA BLA BLA BLA BLA BLA BLA BLA BLA BLA BLA BLA BLA BLA BLA BLA BLA 
BLA BLA BLA BLA BLA BLA BLA BLA BLA BLA BLA BLA BLA BLA BLA BLA BLA BLA BLA BLA 
BLA BLA BLA BLA BLA BLA BLA BLA BLA BLA BLA BLA BLA BLA BLA BLA BLA BLA BLA BLA 
BLA BLA BLA BLA BLA BLA BLA BLA BLA BLA BLA BLA BLA BLA BLA BLA BLA BLA BLA BLA 
BLA BLA BLA BLA BLA BLA BLA BLA BLA BLA BLA BLA BLA BLA BLA BLA BLA BLA BLA BLA 
BLA BLA BLA BLA BLA BLA BLA BLA BLA BLA BLA BLA BLA BLA BLA BLA BLA BLA BLA BLA 
BLA BLA BLA BLA BLA BLA BLA BLA BLA BLA BLA BLA BLA BLA BLA BLA BLA BLA BLA BLA 
BLA BLA BLA BLA BLA BLA BLA BLA BLA BLA BLA BLA BLA BLA BLA BLA BLA BLA BLA BLA 
BLA BLA BLA BLA BLA BLA BLA BLA BLA BLA BLA BLA BLA BLA BLA BLA BLA BLA BLA BLA 
BLA BLA BLA BLA BLA BLA BLA BLA BLA BLA BLA BLA BLA BLA BLA BLA BLA BLA BLA BLA 
BLA BLA BLA BLA BLA BLA BLA BLA BLA BLA BLA BLA BLA BLA BLA BLA BLA BLA BLA BLA 
BLA BLA BLA BLA BLA BLA BLA BLA BLA BLA BLA BLA BLA BLA BLA BLA BLA BLA BLA BLA 
BLA BLA BLA BLA BLA BLA BLA BLA BLA BLA BLA BLA BLA BLA BLA BLA BLA BLA BLA BLA 
BLA BLA BLA BLA BLA BLA BLA BLA BLA BLA BLA BLA BLA BLA BLA BLA BLA BLA BLA BLA 
BLA BLA BLA BLA BLA BLA BLA BLA BLA BLA BLA BLA BLA BLA BLA BLA BLA BLA BLA BLA 
BLA BLA BLA BLA BLA BLA BLA BLA BLA BLA BLA BLA BLA BLA BLA BLA BLA BLA BLA BLA 
BLA BLA BLA BLA BLA BLA BLA BLA BLA BLA BLA BLA BLA BLA BLA BLA BLA BLA BLA BLA 
BLA BLA BLA BLA BLA BLA BLA BLA BLA BLA BLA BLA BLA BLA BLA BLA BLA BLA BLA BLA 
BLA BLA BLA BLA BLA BLA BLA BLA BLA BLA BLA BLA BLA BLA BLA BLA BLA BLA BLA BLA 
BLA BLA BLA BLA BLA BLA BLA BLA BLA BLA BLA BLA BLA BLA BLA BLA BLA BLA BLA BLA 
BLA BLA BLA BLA BLA BLA BLA BLA BLA BLA BLA BLA BLA BLA BLA BLA BLA BLA BLA BLA 
BLA BLA BLA BLA BLA BLA BLA BLA BLA BLA BLA BLA BLA BLA BLA BLA BLA BLA BLA BLA 
BLA BLA BLA BLA BLA BLA BLA BLA BLA BLA BLA BLA BLA BLA BLA BLA BLA BLA BLA BLA 
BLA BLA BLA BLA BLA BLA BLA BLA BLA BLA BLA BLA BLA BLA BLA BLA BLA BLA BLA BLA 
BLA BLA BLA BLA BLA BLA BLA BLA BLA BLA BLA BLA BLA BLA BLA BLA BLA BLA BLA BLA 
BLA BLA BLA BLA BLA BLA BLA BLA BLA BLA BLA BLA BLA BLA BLA BLA BLA BLA BLA BLA 
BLA BLA BLA BLA BLA BLA BLA BLA BLA BLA BLA BLA BLA BLA BLA BLA BLA BLA BLA BLA 
BLA BLA BLA BLA BLA BLA BLA BLA BLA BLA BLA BLA BLA BLA BLA BLA BLA BLA BLA BLA 
BLA BLA BLA BLA BLA BLA BLA BLA BLA BLA BLA BLA BLA BLA BLA BLA BLA BLA BLA BLA 
BLA BLA BLA BLA BLA BLA BLA BLA BLA BLA BLA BLA BLA BLA BLA BLA BLA BLA BLA BLA 
BLA BLA BLA BLA BLA BLA BLA BLA BLA BLA BLA BLA BLA BLA BLA BLA BLA BLA BLA BLA 
BLA BLA BLA BLA BLA BLA BLA BLA BLA BLA BLA BLA BLA BLA BLA BLA BLA BLA BLA BLA 
BLA BLA BLA BLA BLA BLA BLA BLA BLA BLA BLA BLA BLA BLA BLA BLA BLA BLA BLA BLA 
BLA BLA BLA BLA BLA BLA BLA BLA BLA BLA BLA BLA BLA BLA BLA BLA BLA BLA BLA BLA 
BLA BLA BLA BLA BLA BLA BLA BLA BLA BLA BLA BLA BLA BLA BLA BLA BLA BLA BLA BLA 
BLA BLA BLA BLA BLA BLA BLA BLA BLA BLA BLA BLA BLA BLA BLA BLA BLA BLA BLA BLA 
BLA BLA BLA BLA BLA BLA BLA BLA BLA BLA BLA BLA BLA BLA BLA BLA BLA BLA BLA BLA 
BLA BLA BLA BLA BLA BLA BLA BLA BLA BLA BLA BLA BLA BLA BLA BLA BLA BLA BLA BLA 
BLA BLA BLA BLA BLA BLA BLA BLA BLA BLA BLA BLA BLA BLA BLA BLA BLA BLA BLA BLA 
BLA BLA BLA BLA BLA BLA BLA BLA BLA BLA BLA BLA BLA BLA BLA BLA BLA BLA BLA BLA 
BLA BLA BLA BLA BLA BLA BLA BLA BLA BLA BLA BLA BLA BLA BLA BLA BLA BLA BLA BLA 
BLA BLA BLA BLA BLA BLA BLA BLA BLA BLA BLA BLA BLA BLA BLA BLA BLA BLA BLA BLA 
BLA BLA BLA BLA BLA BLA BLA BLA BLA BLA BLA BLA BLA BLA BLA BLA BLA BLA BLA BLA 
BLA BLA BLA BLA BLA BLA BLA BLA BLA BLA BLA BLA BLA BLA BLA BLA BLA BLA BLA BLA 
BLA BLA BLA BLA BLA BLA BLA BLA BLA BLA BLA BLA BLA BLA BLA BLA BLA BLA BLA BLA 
BLA BLA BLA BLA BLA BLA BLA BLA BLA BLA BLA BLA BLA BLA BLA BLA BLA BLA BLA BLA 
BLA BLA BLA BLA BLA BLA BLA BLA BLA BLA BLA BLA BLA BLA BLA BLA BLA BLA BLA BLA 
BLA BLA BLA BLA BLA BLA BLA BLA BLA BLA BLA BLA BLA BLA BLA BLA BLA BLA BLA BLA 
BLA BLA BLA BLA BLA BLA BLA BLA BLA BLA BLA BLA BLA BLA BLA BLA BLA BLA BLA BLA 
BLA BLA BLA BLA BLA BLA BLA BLA BLA BLA BLA BLA BLA BLA BLA BLA BLA BLA BLA BLA 
BLA BLA BLA BLA BLA BLA BLA BLA BLA BLA BLA BLA BLA BLA BLA BLA BLA BLA BLA BLA 
BLA BLA BLA BLA BLA BLA BLA BLA BLA BLA BLA BLA BLA BLA BLA BLA BLA BLA BLA BLA 
BLA BLA BLA BLA BLA BLA BLA BLA BLA BLA BLA BLA BLA BLA BLA BLA BLA BLA BLA BLA 
BLA BLA BLA BLA BLA BLA BLA BLA BLA BLA BLA BLA BLA BLA BLA BLA BLA BLA BLA BLA 
BLA BLA BLA BLA BLA BLA BLA BLA BLA BLA BLA BLA BLA BLA BLA BLA BLA BLA BLA BLA 
BLA BLA BLA BLA BLA BLA BLA BLA BLA BLA BLA BLA BLA BLA BLA BLA BLA BLA BLA BLA 
BLA BLA BLA BLA BLA BLA BLA BLA BLA BLA BLA BLA BLA BLA BLA BLA BLA BLA BLA BLA 
BLA BLA BLA BLA BLA BLA BLA BLA BLA BLA BLA BLA BLA BLA BLA BLA BLA BLA BLA BLA 
BLA BLA BLA BLA BLA BLA BLA BLA BLA BLA BLA BLA BLA BLA BLA BLA BLA BLA BLA BLA 
BLA BLA BLA BLA BLA BLA BLA BLA BLA BLA BLA BLA BLA BLA BLA BLA BLA BLA BLA BLA 
BLA BLA BLA BLA BLA BLA BLA BLA BLA BLA BLA BLA BLA BLA BLA BLA BLA BLA BLA BLA 
BLA BLA BLA BLA BLA BLA BLA BLA BLA BLA BLA BLA BLA BLA BLA BLA BLA BLA BLA BLA 
BLA BLA BLA BLA BLA BLA BLA BLA BLA BLA BLA BLA BLA BLA BLA BLA BLA BLA BLA BLA 
BLA BLA BLA BLA BLA BLA BLA BLA BLA BLA BLA BLA BLA BLA BLA BLA BLA BLA BLA BLA 
BLA BLA BLA BLA BLA BLA BLA BLA BLA BLA BLA BLA BLA BLA BLA BLA BLA BLA BLA BLA 
BLA BLA BLA BLA BLA BLA BLA BLA BLA BLA BLA BLA BLA BLA BLA BLA BLA BLA BLA BLA 
BLA BLA BLA BLA BLA BLA BLA BLA BLA BLA BLA BLA BLA BLA BLA BLA BLA BLA BLA BLA 
BLA BLA BLA BLA BLA BLA BLA BLA BLA BLA BLA BLA BLA BLA BLA BLA BLA BLA BLA BLA 
BLA BLA BLA BLA BLA BLA BLA BLA BLA BLA BLA BLA BLA BLA BLA BLA BLA BLA BLA BLA 
BLA BLA BLA BLA BLA BLA BLA BLA BLA BLA BLA BLA BLA BLA BLA BLA BLA BLA BLA BLA 
BLA BLA BLA BLA BLA BLA BLA BLA BLA BLA BLA BLA BLA BLA BLA BLA BLA BLA BLA BLA 
BLA BLA BLA BLA BLA BLA BLA BLA BLA BLA BLA BLA BLA BLA BLA BLA BLA BLA BLA BLA 
BLA BLA BLA BLA BLA BLA BLA BLA BLA BLA BLA BLA BLA BLA BLA BLA BLA BLA BLA BLA 
BLA BLA BLA BLA BLA BLA BLA BLA BLA BLA BLA BLA BLA BLA BLA BLA BLA BLA BLA BLA 
BLA BLA BLA BLA BLA BLA BLA BLA BLA BLA BLA BLA BLA BLA BLA BLA BLA BLA BLA BLA 
BLA BLA BLA BLA BLA BLA BLA BLA BLA BLA BLA BLA BLA BLA BLA BLA BLA BLA BLA BLA 
BLA BLA BLA BLA BLA BLA BLA BLA BLA BLA BLA BLA BLA BLA BLA BLA BLA BLA BLA BLA 
BLA BLA BLA BLA BLA BLA BLA BLA BLA BLA BLA BLA BLA BLA BLA BLA BLA BLA BLA BLA 
BLA BLA BLA BLA BLA BLA BLA BLA BLA BLA BLA BLA BLA BLA BLA BLA BLA BLA BLA BLA 
BLA BLA BLA BLA BLA BLA BLA BLA BLA BLA BLA BLA BLA BLA BLA BLA BLA BLA BLA BLA 
BLA BLA BLA BLA BLA BLA BLA BLA BLA BLA BLA BLA BLA BLA BLA BLA BLA BLA BLA BLA 
BLA BLA BLA BLA BLA BLA BLA BLA BLA BLA BLA BLA BLA BLA BLA BLA BLA BLA BLA BLA 
BLA BLA BLA BLA BLA BLA BLA BLA BLA BLA BLA BLA BLA BLA BLA BLA BLA BLA BLA BLA 
BLA BLA BLA BLA BLA BLA BLA BLA BLA BLA BLA BLA BLA BLA BLA BLA BLA BLA BLA BLA 
BLA BLA BLA BLA BLA BLA BLA BLA BLA BLA BLA BLA BLA BLA BLA BLA BLA BLA BLA BLA 
BLA BLA BLA BLA BLA BLA BLA BLA BLA BLA BLA BLA BLA BLA BLA BLA BLA BLA BLA BLA 
BLA BLA BLA BLA BLA BLA BLA BLA BLA BLA BLA BLA BLA BLA BLA BLA BLA BLA BLA BLA 
BLA BLA BLA BLA BLA BLA BLA BLA BLA BLA BLA BLA BLA BLA BLA BLA BLA BLA BLA BLA 
BLA BLA BLA BLA BLA BLA BLA BLA BLA BLA BLA BLA BLA BLA BLA BLA BLA BLA BLA BLA 
BLA BLA BLA BLA BLA BLA BLA BLA BLA BLA BLA BLA BLA BLA BLA BLA BLA BLA BLA BLA 
BLA BLA BLA BLA BLA BLA BLA BLA BLA BLA BLA BLA BLA BLA BLA BLA BLA BLA BLA BLA 
BLA BLA BLA BLA BLA BLA BLA BLA BLA BLA BLA BLA BLA BLA BLA BLA BLA BLA BLA BLA 
BLA BLA BLA BLA BLA BLA BLA BLA BLA BLA BLA BLA BLA BLA BLA BLA BLA BLA BLA BLA 
BLA BLA BLA BLA BLA BLA BLA BLA BLA BLA BLA BLA BLA BLA BLA BLA BLA BLA BLA BLA 
BLA BLA BLA BLA BLA BLA BLA BLA BLA BLA BLA BLA BLA BLA BLA BLA BLA BLA BLA BLA 
BLA BLA BLA BLA BLA BLA BLA BLA BLA BLA BLA BLA BLA BLA BLA BLA BLA BLA BLA BLA 
BLA BLA BLA BLA BLA BLA BLA BLA BLA BLA BLA BLA BLA BLA BLA BLA BLA BLA BLA BLA 
BLA BLA BLA BLA BLA BLA BLA BLA BLA BLA BLA BLA BLA BLA BLA BLA BLA BLA BLA BLA 
BLA BLA BLA BLA BLA BLA BLA BLA BLA BLA BLA BLA BLA BLA BLA BLA BLA BLA BLA BLA 
BLA BLA BLA BLA BLA BLA BLA BLA BLA BLA BLA BLA BLA BLA BLA BLA BLA BLA BLA BLA 
BLA BLA BLA BLA BLA BLA BLA BLA BLA BLA BLA BLA BLA BLA BLA BLA BLA BLA BLA BLA 
BLA BLA BLA BLA BLA BLA BLA BLA BLA BLA BLA BLA BLA BLA BLA BLA BLA BLA BLA BLA 
BLA BLA BLA BLA BLA BLA BLA BLA BLA BLA BLA BLA BLA BLA BLA BLA BLA BLA BLA BLA 
BLA BLA BLA BLA BLA BLA BLA BLA BLA BLA BLA BLA BLA BLA BLA BLA BLA BLA BLA BLA 
BLA BLA BLA BLA BLA BLA BLA BLA BLA BLA BLA BLA BLA BLA BLA BLA BLA BLA BLA BLA 
BLA BLA BLA BLA BLA BLA BLA BLA BLA BLA BLA BLA BLA BLA BLA BLA BLA BLA BLA BLA 
BLA BLA BLA BLA BLA BLA BLA BLA BLA BLA BLA BLA BLA BLA BLA BLA BLA BLA BLA BLA 
BLA BLA BLA BLA BLA BLA BLA BLA BLA BLA BLA BLA BLA BLA BLA BLA BLA BLA BLA BLA 
BLA BLA BLA BLA BLA BLA BLA BLA BLA BLA BLA BLA BLA BLA BLA BLA BLA BLA BLA BLA 
BLA BLA BLA BLA BLA BLA BLA BLA BLA BLA BLA BLA BLA BLA BLA BLA BLA BLA BLA BLA 
BLA BLA BLA BLA BLA BLA BLA BLA BLA BLA BLA BLA BLA BLA BLA BLA BLA BLA BLA BLA 
BLA BLA BLA BLA BLA BLA BLA BLA BLA BLA BLA BLA BLA BLA BLA BLA BLA BLA BLA BLA 
BLA BLA BLA BLA BLA BLA BLA BLA BLA BLA BLA BLA BLA BLA BLA BLA BLA BLA BLA BLA 
BLA BLA BLA BLA BLA BLA BLA BLA BLA BLA BLA BLA BLA BLA BLA BLA BLA BLA BLA BLA 
BLA BLA BLA BLA BLA BLA BLA BLA BLA BLA BLA BLA BLA BLA BLA BLA BLA BLA BLA BLA 
BLA BLA BLA BLA BLA BLA BLA BLA BLA BLA BLA BLA BLA BLA BLA BLA BLA BLA BLA BLA 
BLA BLA BLA BLA BLA BLA BLA BLA BLA BLA BLA BLA BLA BLA BLA BLA BLA BLA BLA BLA 
BLA BLA BLA BLA BLA BLA BLA BLA BLA BLA BLA BLA BLA BLA BLA BLA BLA BLA BLA BLA 
BLA BLA BLA BLA BLA BLA BLA BLA BLA BLA BLA BLA BLA BLA BLA BLA BLA BLA BLA BLA 
BLA BLA BLA BLA BLA BLA BLA BLA BLA BLA BLA BLA BLA BLA BLA BLA BLA BLA BLA BLA 
BLA BLA BLA BLA BLA BLA BLA BLA BLA BLA BLA BLA BLA BLA BLA BLA BLA BLA BLA BLA 
BLA BLA BLA BLA BLA BLA BLA BLA BLA BLA BLA BLA BLA BLA BLA BLA BLA BLA BLA BLA 
BLA BLA BLA BLA BLA BLA BLA BLA BLA BLA BLA BLA BLA BLA BLA BLA BLA BLA BLA BLA 
BLA BLA BLA BLA BLA BLA BLA BLA BLA BLA BLA BLA BLA BLA BLA BLA BLA BLA BLA BLA 
BLA BLA BLA BLA BLA BLA BLA BLA BLA BLA BLA BLA BLA BLA BLA BLA BLA BLA BLA BLA 
BLA BLA BLA BLA BLA BLA BLA BLA BLA BLA BLA BLA BLA BLA BLA BLA BLA BLA BLA BLA 
BLA BLA BLA BLA BLA BLA BLA BLA BLA BLA BLA BLA BLA BLA BLA BLA BLA BLA BLA BLA 
BLA BLA BLA BLA BLA BLA BLA BLA BLA BLA BLA BLA BLA BLA BLA BLA BLA BLA BLA BLA 
BLA BLA BLA BLA BLA BLA BLA BLA BLA BLA BLA BLA BLA BLA BLA BLA BLA BLA BLA BLA 
BLA BLA BLA BLA BLA BLA BLA BLA BLA BLA BLA BLA BLA BLA BLA BLA BLA BLA BLA BLA 
BLA BLA BLA BLA BLA BLA BLA BLA BLA BLA BLA BLA BLA BLA BLA BLA BLA BLA BLA BLA 
BLA BLA BLA BLA BLA BLA BLA BLA BLA BLA BLA BLA BLA BLA BLA BLA BLA BLA BLA BLA 
BLA BLA BLA BLA BLA BLA BLA BLA BLA BLA BLA BLA BLA BLA BLA BLA BLA BLA BLA BLA 
BLA BLA BLA BLA BLA BLA BLA BLA BLA BLA BLA BLA BLA BLA BLA BLA BLA BLA BLA BLA 
BLA BLA BLA BLA BLA BLA BLA BLA BLA BLA BLA BLA BLA BLA BLA BLA BLA BLA BLA BLA 
BLA BLA BLA BLA BLA BLA BLA BLA BLA BLA BLA BLA BLA BLA BLA BLA BLA BLA BLA BLA 
BLA BLA BLA BLA BLA BLA BLA BLA BLA BLA BLA BLA BLA BLA BLA BLA BLA BLA BLA BLA 
BLA BLA BLA BLA BLA BLA BLA BLA BLA BLA BLA BLA BLA BLA BLA BLA BLA BLA BLA BLA 
BLA BLA BLA BLA BLA BLA BLA BLA BLA BLA BLA BLA BLA BLA BLA BLA BLA BLA BLA BLA 
BLA BLA BLA BLA BLA BLA BLA BLA BLA BLA BLA BLA BLA BLA BLA BLA BLA BLA BLA BLA 
BLA BLA BLA BLA BLA BLA BLA BLA BLA BLA BLA BLA BLA BLA BLA BLA BLA BLA BLA BLA 
BLA BLA BLA BLA BLA BLA BLA BLA BLA BLA BLA BLA BLA BLA BLA BLA BLA BLA BLA BLA 
BLA BLA BLA BLA BLA BLA BLA BLA BLA BLA BLA BLA BLA BLA BLA BLA BLA BLA BLA BLA 
BLA BLA BLA BLA BLA BLA BLA BLA BLA BLA BLA BLA BLA BLA BLA BLA BLA BLA BLA BLA 
BLA BLA BLA BLA BLA BLA BLA BLA BLA BLA BLA BLA BLA BLA BLA BLA BLA BLA BLA BLA 
BLA BLA BLA BLA BLA BLA BLA BLA BLA BLA BLA BLA BLA BLA BLA BLA BLA BLA BLA BLA 
BLA BLA BLA BLA BLA BLA BLA BLA BLA BLA BLA BLA BLA BLA BLA BLA BLA BLA BLA BLA 
BLA BLA BLA BLA BLA BLA BLA BLA BLA BLA BLA BLA BLA BLA BLA BLA BLA BLA BLA BLA 
BLA BLA BLA BLA BLA BLA BLA BLA BLA BLA BLA BLA BLA BLA BLA BLA BLA BLA BLA BLA 
BLA BLA BLA BLA BLA BLA BLA BLA BLA BLA BLA BLA BLA BLA BLA BLA BLA BLA BLA BLA 
BLA BLA BLA BLA BLA BLA BLA BLA BLA BLA BLA BLA BLA BLA BLA BLA BLA BLA BLA BLA 
BLA BLA BLA BLA BLA BLA BLA BLA BLA BLA BLA BLA BLA BLA BLA BLA BLA BLA BLA BLA 
BLA BLA BLA BLA BLA BLA BLA BLA BLA BLA BLA BLA BLA BLA BLA BLA BLA BLA BLA BLA 
BLA BLA BLA BLA BLA BLA BLA BLA BLA BLA BLA BLA BLA BLA BLA BLA BLA BLA BLA BLA 
BLA BLA BLA BLA BLA BLA BLA BLA BLA BLA BLA BLA BLA BLA BLA BLA BLA BLA BLA BLA 
BLA BLA BLA BLA BLA BLA BLA BLA BLA BLA BLA BLA BLA BLA BLA BLA BLA BLA BLA BLA 
BLA BLA BLA BLA BLA BLA BLA BLA BLA BLA BLA BLA BLA BLA BLA BLA BLA BLA BLA BLA 
BLA BLA BLA BLA BLA BLA BLA BLA BLA BLA BLA BLA BLA BLA BLA BLA BLA BLA BLA BLA 
BLA BLA BLA BLA BLA BLA BLA BLA BLA BLA BLA BLA BLA BLA BLA BLA BLA BLA BLA BLA 
BLA BLA BLA BLA BLA BLA BLA BLA BLA BLA BLA BLA BLA BLA BLA BLA BLA BLA BLA BLA 
BLA BLA BLA BLA BLA BLA BLA BLA BLA BLA BLA BLA BLA BLA BLA BLA BLA BLA BLA BLA 
BLA BLA BLA BLA BLA BLA BLA BLA BLA BLA BLA BLA BLA BLA BLA BLA BLA BLA BLA BLA 
BLA BLA BLA BLA BLA BLA BLA BLA BLA BLA BLA BLA BLA BLA BLA BLA BLA BLA BLA BLA 
BLA BLA BLA BLA BLA BLA BLA BLA BLA BLA BLA BLA BLA BLA BLA BLA BLA BLA BLA BLA 
BLA BLA BLA BLA BLA BLA BLA BLA BLA BLA BLA BLA BLA BLA BLA BLA BLA BLA BLA BLA 
BLA BLA BLA BLA BLA BLA BLA BLA BLA BLA BLA BLA BLA BLA BLA BLA BLA BLA BLA BLA 
BLA BLA BLA BLA BLA BLA BLA BLA BLA BLA BLA BLA BLA BLA BLA BLA BLA BLA BLA BLA 
BLA BLA BLA BLA BLA BLA BLA BLA BLA BLA BLA BLA BLA BLA BLA BLA BLA BLA BLA BLA 
BLA BLA BLA BLA BLA BLA BLA BLA BLA BLA BLA BLA BLA BLA BLA BLA BLA BLA BLA BLA 
BLA BLA BLA BLA BLA BLA BLA BLA BLA BLA BLA BLA BLA BLA BLA BLA BLA BLA BLA BLA 
BLA BLA BLA BLA BLA BLA BLA BLA BLA BLA BLA BLA BLA BLA BLA BLA BLA BLA BLA BLA 
BLA BLA BLA BLA BLA BLA BLA BLA BLA BLA BLA BLA BLA BLA BLA BLA BLA BLA BLA BLA 
BLA BLA BLA BLA BLA BLA BLA BLA BLA BLA BLA BLA BLA BLA BLA BLA BLA BLA BLA BLA 
BLA BLA BLA BLA BLA BLA BLA BLA BLA BLA BLA BLA BLA BLA BLA BLA BLA BLA BLA BLA 
BLA BLA BLA BLA BLA BLA BLA BLA BLA BLA BLA BLA BLA BLA BLA BLA BLA BLA BLA BLA 
BLA BLA BLA BLA BLA BLA BLA BLA BLA BLA BLA BLA BLA BLA BLA BLA BLA BLA BLA BLA 
BLA BLA BLA BLA BLA BLA BLA BLA BLA BLA BLA BLA BLA BLA BLA BLA BLA BLA BLA BLA 
BLA BLA BLA BLA BLA BLA BLA BLA BLA BLA BLA BLA BLA BLA BLA BLA BLA BLA BLA BLA 
BLA BLA BLA BLA BLA BLA BLA BLA BLA BLA BLA BLA BLA BLA BLA BLA BLA BLA BLA BLA 
BLA BLA BLA BLA BLA BLA BLA BLA BLA BLA BLA BLA BLA BLA BLA BLA BLA BLA BLA BLA 
BLA BLA BLA BLA BLA BLA BLA BLA BLA BLA BLA BLA BLA BLA BLA BLA BLA BLA BLA BLA 
BLA BLA BLA BLA BLA BLA BLA BLA BLA BLA BLA BLA BLA BLA BLA BLA BLA BLA BLA BLA 
BLA BLA BLA BLA BLA BLA BLA BLA BLA BLA BLA BLA BLA BLA BLA BLA BLA BLA BLA BLA 
BLA BLA BLA BLA BLA BLA BLA BLA BLA BLA BLA BLA BLA BLA BLA BLA BLA BLA BLA BLA 
BLA BLA BLA BLA BLA BLA BLA BLA BLA BLA BLA BLA BLA BLA BLA BLA BLA BLA BLA BLA 
BLA BLA BLA BLA BLA BLA BLA BLA BLA BLA BLA BLA BLA BLA BLA BLA BLA BLA BLA BLA 
BLA BLA BLA BLA BLA BLA BLA BLA BLA BLA BLA BLA BLA BLA BLA BLA BLA BLA BLA BLA 
BLA BLA BLA BLA BLA BLA BLA BLA BLA BLA BLA BLA BLA BLA BLA BLA BLA BLA BLA BLA 
BLA BLA BLA BLA BLA BLA BLA BLA BLA BLA BLA BLA BLA BLA BLA BLA BLA BLA BLA BLA 
BLA BLA BLA BLA BLA BLA BLA BLA BLA BLA BLA BLA BLA BLA BLA BLA BLA BLA BLA BLA 
BLA BLA BLA BLA BLA BLA BLA BLA BLA BLA BLA BLA BLA BLA BLA BLA BLA BLA BLA BLA 
BLA BLA BLA BLA BLA BLA BLA BLA BLA BLA BLA BLA BLA BLA BLA BLA BLA BLA BLA BLA 
BLA BLA BLA BLA BLA BLA BLA BLA BLA BLA BLA BLA BLA BLA BLA BLA BLA BLA BLA BLA 
BLA BLA BLA BLA BLA BLA BLA BLA BLA BLA BLA BLA BLA BLA BLA BLA BLA BLA BLA BLA 
BLA BLA BLA BLA BLA BLA BLA BLA BLA BLA BLA BLA BLA BLA BLA BLA BLA BLA BLA BLA 
BLA BLA BLA BLA BLA BLA BLA BLA BLA BLA BLA BLA BLA BLA BLA BLA BLA BLA BLA BLA 
BLA BLA BLA BLA BLA BLA BLA BLA BLA BLA BLA BLA BLA BLA BLA BLA BLA BLA BLA BLA 
BLA BLA BLA BLA BLA BLA BLA BLA BLA BLA BLA BLA BLA BLA BLA BLA BLA BLA BLA BLA 
BLA BLA BLA BLA BLA BLA BLA BLA BLA BLA BLA BLA BLA BLA BLA BLA BLA BLA BLA BLA 
BLA BLA BLA BLA BLA BLA BLA BLA BLA BLA BLA BLA BLA BLA BLA BLA BLA BLA BLA BLA 
BLA BLA BLA BLA BLA BLA BLA BLA BLA BLA BLA BLA BLA BLA BLA BLA BLA BLA BLA BLA 
BLA BLA BLA BLA BLA BLA BLA BLA BLA BLA BLA BLA BLA BLA BLA BLA BLA BLA BLA BLA 
BLA BLA BLA BLA BLA BLA BLA BLA BLA BLA BLA BLA BLA BLA BLA BLA BLA BLA BLA BLA 
BLA BLA BLA BLA BLA BLA BLA BLA BLA BLA BLA BLA BLA BLA BLA BLA BLA BLA BLA BLA 
BLA BLA BLA BLA BLA BLA BLA BLA BLA BLA BLA BLA BLA BLA BLA BLA BLA BLA BLA BLA 
BLA BLA BLA BLA BLA BLA BLA BLA BLA BLA BLA BLA BLA BLA BLA BLA BLA BLA BLA BLA 
BLA BLA BLA BLA BLA BLA BLA BLA BLA BLA BLA BLA BLA BLA BLA BLA BLA BLA BLA BLA 
BLA BLA BLA BLA BLA BLA BLA BLA BLA BLA BLA BLA BLA BLA BLA BLA BLA BLA BLA BLA 
BLA BLA BLA BLA BLA BLA BLA BLA BLA BLA BLA BLA BLA BLA BLA BLA BLA BLA BLA BLA 
BLA BLA BLA BLA BLA BLA BLA BLA BLA BLA BLA BLA BLA BLA BLA BLA BLA BLA BLA BLA 
BLA BLA BLA BLA BLA BLA BLA BLA BLA BLA BLA BLA BLA BLA BLA BLA BLA BLA BLA BLA 
BLA BLA BLA BLA BLA BLA BLA BLA BLA BLA BLA BLA BLA BLA BLA BLA BLA BLA BLA BLA 
BLA BLA BLA BLA BLA BLA BLA BLA BLA BLA BLA BLA BLA BLA BLA BLA BLA BLA BLA BLA 
BLA BLA BLA BLA BLA BLA BLA BLA BLA BLA BLA BLA BLA BLA BLA BLA BLA BLA BLA BLA 
BLA BLA BLA BLA BLA BLA BLA BLA BLA BLA BLA BLA BLA BLA BLA BLA BLA BLA BLA BLA 
BLA BLA BLA BLA BLA BLA BLA BLA BLA BLA BLA BLA BLA BLA BLA BLA BLA BLA BLA BLA 
BLA BLA BLA BLA BLA BLA BLA BLA BLA BLA BLA BLA BLA BLA BLA BLA BLA BLA BLA BLA 
BLA BLA BLA BLA BLA BLA BLA BLA BLA BLA BLA BLA BLA BLA BLA BLA BLA BLA BLA BLA 
BLA BLA BLA BLA BLA BLA BLA BLA BLA BLA BLA BLA BLA BLA BLA BLA BLA BLA BLA BLA 
BLA BLA BLA BLA BLA BLA BLA BLA BLA BLA BLA BLA BLA BLA BLA BLA BLA BLA BLA BLA 
BLA BLA BLA BLA BLA BLA BLA BLA BLA BLA BLA BLA BLA BLA BLA BLA BLA BLA BLA BLA 
BLA BLA BLA BLA BLA BLA BLA BLA BLA BLA BLA BLA BLA BLA BLA BLA BLA BLA BLA BLA 
BLA BLA BLA BLA BLA BLA BLA BLA BLA BLA BLA BLA BLA BLA BLA BLA BLA BLA BLA BLA 
BLA BLA BLA BLA BLA BLA BLA BLA BLA BLA BLA BLA BLA BLA BLA BLA BLA BLA BLA BLA 
BLA BLA BLA BLA BLA BLA BLA BLA BLA BLA BLA BLA BLA BLA BLA BLA BLA BLA BLA BLA 
BLA BLA BLA BLA BLA BLA BLA BLA BLA BLA BLA BLA BLA BLA BLA BLA BLA BLA BLA BLA 
BLA BLA BLA BLA BLA BLA BLA BLA BLA BLA BLA BLA BLA BLA BLA BLA BLA BLA BLA BLA 
BLA BLA BLA BLA BLA BLA BLA BLA BLA BLA BLA BLA BLA BLA BLA BLA BLA BLA BLA BLA 
BLA BLA BLA BLA BLA BLA BLA BLA BLA BLA BLA BLA BLA BLA BLA BLA BLA BLA BLA BLA 
BLA BLA BLA BLA BLA BLA BLA BLA BLA BLA BLA BLA BLA BLA BLA BLA BLA BLA BLA BLA 
BLA BLA BLA BLA BLA BLA BLA BLA BLA BLA BLA BLA BLA BLA BLA BLA BLA BLA BLA BLA 
BLA BLA BLA BLA BLA BLA BLA BLA BLA BLA BLA BLA BLA BLA BLA BLA BLA BLA BLA BLA 
BLA BLA BLA BLA BLA BLA BLA BLA BLA BLA BLA BLA BLA BLA BLA BLA BLA BLA BLA BLA 
BLA BLA BLA BLA BLA BLA BLA BLA BLA BLA BLA BLA BLA BLA BLA BLA BLA BLA BLA BLA 
BLA BLA BLA BLA BLA BLA BLA BLA BLA BLA BLA BLA BLA BLA BLA BLA BLA BLA BLA BLA 
BLA BLA BLA BLA BLA BLA BLA BLA BLA BLA BLA BLA BLA BLA BLA BLA BLA BLA BLA BLA 
BLA BLA BLA BLA BLA BLA BLA BLA BLA BLA BLA BLA BLA BLA BLA BLA BLA BLA BLA BLA 
BLA BLA BLA BLA BLA BLA BLA BLA BLA BLA BLA BLA BLA BLA BLA BLA BLA BLA BLA BLA 
BLA BLA BLA BLA BLA BLA BLA BLA BLA BLA BLA BLA BLA BLA BLA BLA BLA BLA BLA BLA 
BLA BLA BLA BLA BLA BLA BLA BLA BLA BLA BLA BLA BLA BLA BLA BLA BLA BLA BLA BLA 
BLA BLA BLA BLA BLA BLA BLA BLA BLA BLA BLA BLA BLA BLA BLA BLA BLA BLA BLA BLA 
BLA BLA BLA BLA BLA BLA BLA BLA BLA BLA BLA BLA BLA BLA BLA BLA BLA BLA BLA BLA 
BLA BLA BLA BLA BLA BLA BLA BLA BLA BLA BLA BLA BLA BLA BLA BLA BLA BLA BLA BLA 
BLA BLA BLA BLA BLA BLA BLA BLA BLA BLA BLA BLA BLA BLA BLA BLA BLA BLA BLA BLA 
BLA BLA BLA BLA BLA BLA BLA BLA BLA BLA BLA BLA BLA BLA BLA BLA BLA BLA BLA BLA 
BLA BLA BLA BLA BLA BLA BLA BLA BLA BLA BLA BLA BLA BLA BLA BLA BLA BLA BLA BLA 
BLA BLA BLA BLA BLA BLA BLA BLA BLA BLA BLA BLA BLA BLA BLA BLA BLA BLA BLA BLA 
BLA BLA BLA BLA BLA BLA BLA BLA BLA BLA BLA BLA BLA BLA BLA BLA BLA BLA BLA BLA 
BLA BLA BLA BLA BLA BLA BLA BLA BLA BLA BLA BLA BLA BLA BLA BLA BLA BLA BLA BLA 
BLA BLA BLA BLA BLA BLA BLA BLA BLA BLA BLA BLA BLA BLA BLA BLA BLA BLA BLA BLA 
BLA BLA BLA BLA BLA BLA BLA BLA BLA BLA BLA BLA BLA BLA BLA BLA BLA BLA BLA BLA 
BLA BLA BLA BLA BLA BLA BLA BLA BLA BLA BLA BLA BLA BLA BLA BLA BLA BLA BLA BLA 
BLA BLA BLA BLA BLA BLA BLA BLA BLA BLA BLA BLA BLA BLA BLA BLA BLA BLA BLA BLA 
BLA BLA BLA BLA BLA BLA BLA BLA BLA BLA BLA BLA BLA BLA BLA BLA BLA BLA BLA BLA 
BLA BLA BLA BLA BLA BLA BLA BLA BLA BLA BLA BLA BLA BLA BLA BLA BLA BLA BLA BLA 
BLA BLA BLA BLA BLA BLA BLA BLA BLA BLA BLA BLA BLA BLA BLA BLA BLA BLA BLA BLA 
BLA BLA BLA BLA BLA BLA BLA BLA BLA BLA BLA BLA BLA BLA BLA BLA BLA BLA BLA BLA 
BLA BLA BLA BLA BLA BLA BLA BLA BLA BLA BLA BLA BLA BLA BLA BLA BLA BLA BLA BLA 
BLA BLA BLA BLA BLA BLA BLA BLA BLA BLA BLA BLA BLA BLA BLA BLA BLA BLA BLA BLA 
BLA BLA BLA BLA BLA BLA BLA BLA BLA BLA BLA BLA BLA BLA BLA BLA BLA BLA BLA BLA 
BLA BLA BLA BLA BLA BLA BLA BLA BLA BLA BLA BLA BLA BLA BLA BLA BLA BLA BLA BLA 
BLA BLA BLA BLA BLA BLA BLA BLA BLA BLA BLA BLA BLA BLA BLA BLA BLA BLA BLA BLA 
BLA BLA BLA BLA BLA BLA BLA BLA BLA BLA BLA BLA BLA BLA BLA BLA BLA BLA BLA BLA 
BLA BLA BLA BLA BLA BLA BLA BLA BLA BLA BLA BLA BLA BLA BLA BLA BLA BLA BLA BLA 
BLA BLA BLA BLA BLA BLA BLA BLA BLA BLA BLA BLA BLA BLA BLA BLA BLA BLA BLA BLA 
BLA BLA BLA BLA BLA BLA BLA BLA BLA BLA BLA BLA BLA BLA BLA BLA BLA BLA BLA BLA 
BLA BLA BLA BLA BLA BLA BLA BLA BLA BLA BLA BLA BLA BLA BLA BLA BLA BLA BLA BLA 
BLA BLA BLA BLA BLA BLA BLA BLA BLA BLA BLA BLA BLA BLA BLA BLA BLA BLA BLA BLA 
BLA BLA BLA BLA BLA BLA BLA BLA BLA BLA BLA BLA BLA BLA BLA BLA BLA BLA BLA BLA 
BLA BLA BLA BLA BLA BLA BLA BLA BLA BLA BLA BLA BLA BLA BLA BLA BLA BLA BLA BLA 
BLA BLA BLA BLA BLA BLA BLA BLA BLA BLA BLA BLA BLA BLA BLA BLA BLA BLA BLA BLA 
BLA BLA BLA BLA BLA BLA BLA BLA BLA BLA BLA BLA BLA BLA BLA BLA BLA BLA BLA BLA 
BLA BLA BLA BLA BLA BLA BLA BLA BLA BLA BLA BLA BLA BLA BLA BLA BLA BLA BLA BLA 
BLA BLA BLA BLA BLA BLA BLA BLA BLA BLA BLA BLA BLA BLA BLA BLA BLA BLA BLA BLA 
BLA BLA BLA BLA BLA BLA BLA BLA BLA BLA BLA BLA BLA BLA BLA BLA BLA BLA BLA BLA 
BLA BLA BLA BLA BLA BLA BLA BLA BLA BLA BLA BLA BLA BLA BLA BLA BLA BLA BLA BLA 
BLA BLA BLA BLA BLA BLA BLA BLA BLA BLA BLA BLA BLA BLA BLA BLA BLA BLA BLA BLA 
BLA BLA BLA BLA BLA BLA BLA BLA BLA BLA BLA BLA BLA BLA BLA BLA BLA BLA BLA BLA 
BLA BLA BLA BLA BLA BLA BLA BLA BLA BLA BLA BLA BLA BLA BLA BLA BLA BLA BLA BLA 
BLA BLA BLA BLA BLA BLA BLA BLA BLA BLA BLA BLA BLA BLA BLA BLA BLA BLA BLA BLA 
BLA BLA BLA BLA BLA BLA BLA BLA BLA BLA BLA BLA BLA BLA BLA BLA BLA BLA BLA BLA 
BLA BLA BLA BLA BLA BLA BLA BLA BLA BLA BLA BLA BLA BLA BLA BLA BLA BLA BLA BLA 
BLA BLA BLA BLA BLA BLA BLA BLA BLA BLA BLA BLA BLA BLA BLA BLA BLA BLA BLA BLA 
BLA BLA BLA BLA BLA BLA BLA BLA BLA BLA BLA BLA BLA BLA BLA BLA BLA BLA BLA BLA 
BLA BLA BLA BLA BLA BLA BLA BLA BLA BLA BLA BLA BLA BLA BLA BLA BLA BLA BLA BLA 
BLA BLA BLA BLA BLA BLA BLA BLA BLA BLA BLA BLA BLA BLA BLA BLA BLA BLA BLA BLA 
BLA BLA BLA BLA BLA BLA BLA BLA BLA BLA BLA BLA BLA BLA BLA BLA BLA BLA BLA BLA 
BLA BLA BLA BLA BLA BLA BLA BLA BLA BLA BLA BLA BLA BLA BLA BLA BLA BLA BLA BLA 
BLA BLA BLA BLA BLA BLA BLA BLA BLA BLA BLA BLA BLA BLA BLA BLA BLA BLA BLA BLA 
BLA BLA BLA BLA BLA BLA BLA BLA BLA BLA BLA BLA BLA BLA BLA BLA BLA BLA BLA BLA 
BLA BLA BLA BLA BLA BLA BLA BLA BLA BLA BLA BLA BLA BLA BLA BLA BLA BLA BLA BLA 
BLA BLA BLA BLA BLA BLA BLA BLA BLA BLA BLA BLA BLA BLA BLA BLA BLA BLA BLA BLA 
BLA BLA BLA BLA BLA BLA BLA BLA BLA BLA BLA BLA BLA BLA BLA BLA BLA BLA BLA BLA 
BLA BLA BLA BLA BLA BLA BLA BLA BLA BLA BLA BLA BLA BLA BLA BLA BLA BLA BLA BLA 
BLA BLA BLA BLA BLA BLA BLA BLA BLA BLA BLA BLA BLA BLA BLA BLA BLA BLA BLA BLA 
BLA BLA BLA BLA BLA BLA BLA BLA BLA BLA BLA BLA BLA BLA BLA BLA BLA BLA BLA BLA 
BLA BLA BLA BLA BLA BLA BLA BLA BLA BLA BLA BLA BLA BLA BLA BLA BLA BLA BLA BLA 
BLA BLA BLA BLA BLA BLA BLA BLA BLA BLA BLA BLA BLA BLA BLA BLA BLA BLA BLA BLA 
BLA BLA BLA BLA BLA BLA BLA BLA BLA BLA BLA BLA BLA BLA BLA BLA BLA BLA BLA BLA 
BLA BLA BLA BLA BLA BLA BLA BLA BLA BLA BLA BLA BLA BLA BLA BLA BLA BLA BLA BLA 
BLA BLA BLA BLA BLA BLA BLA BLA BLA BLA BLA BLA BLA BLA BLA BLA BLA BLA BLA BLA 
BLA BLA BLA BLA BLA BLA BLA BLA BLA BLA BLA BLA BLA BLA BLA BLA BLA BLA BLA BLA 
BLA BLA BLA BLA BLA BLA BLA BLA BLA BLA BLA BLA BLA BLA BLA BLA BLA BLA BLA BLA 
BLA BLA BLA BLA BLA BLA BLA BLA BLA BLA BLA BLA BLA BLA BLA BLA BLA BLA BLA BLA 
BLA BLA BLA BLA BLA BLA BLA BLA BLA BLA BLA BLA BLA BLA BLA BLA BLA BLA BLA BLA 
BLA BLA BLA BLA BLA BLA BLA BLA BLA BLA BLA BLA BLA BLA BLA BLA BLA BLA BLA BLA 
BLA BLA BLA BLA BLA BLA BLA BLA BLA BLA BLA BLA BLA BLA BLA BLA BLA BLA BLA BLA 
BLA BLA BLA BLA BLA BLA BLA BLA BLA BLA BLA BLA BLA BLA BLA BLA BLA BLA BLA BLA 
BLA BLA BLA BLA BLA BLA BLA BLA BLA BLA BLA BLA BLA BLA BLA BLA BLA BLA BLA BLA 
BLA BLA BLA BLA BLA BLA BLA BLA BLA BLA BLA BLA BLA BLA BLA BLA BLA BLA BLA BLA 
BLA BLA BLA BLA BLA BLA BLA BLA BLA BLA BLA BLA BLA BLA BLA BLA BLA BLA BLA BLA 
BLA BLA BLA BLA BLA BLA BLA BLA BLA BLA BLA BLA BLA BLA BLA BLA BLA BLA BLA BLA 
BLA BLA BLA BLA BLA BLA BLA BLA BLA BLA BLA BLA BLA BLA BLA BLA BLA BLA BLA BLA 
BLA BLA BLA BLA BLA BLA BLA BLA BLA BLA BLA BLA BLA BLA BLA BLA BLA BLA BLA BLA 
BLA BLA BLA BLA BLA BLA BLA BLA BLA BLA BLA BLA BLA BLA BLA BLA BLA BLA BLA BLA 
BLA BLA BLA BLA BLA BLA BLA BLA BLA BLA BLA BLA BLA BLA BLA BLA BLA BLA BLA BLA 
BLA BLA BLA BLA BLA BLA BLA BLA BLA BLA BLA BLA BLA BLA BLA BLA BLA BLA BLA BLA 
BLA BLA BLA BLA BLA BLA BLA BLA BLA BLA BLA BLA BLA BLA BLA BLA BLA BLA BLA BLA 
BLA BLA BLA BLA BLA BLA BLA BLA BLA BLA BLA BLA BLA BLA BLA BLA BLA BLA BLA BLA 
BLA BLA BLA BLA BLA BLA BLA BLA BLA BLA BLA BLA BLA BLA BLA BLA BLA BLA BLA BLA 
BLA BLA BLA BLA BLA BLA BLA BLA BLA BLA BLA BLA BLA BLA BLA BLA BLA BLA BLA BLA 
BLA BLA BLA BLA BLA BLA BLA BLA BLA BLA BLA BLA BLA BLA BLA BLA BLA BLA BLA BLA 
BLA BLA BLA BLA BLA BLA BLA BLA BLA BLA BLA BLA BLA BLA BLA BLA BLA BLA BLA BLA 
BLA BLA BLA BLA BLA BLA BLA BLA BLA BLA BLA BLA BLA BLA BLA BLA BLA BLA BLA BLA 
BLA BLA BLA BLA BLA BLA BLA BLA BLA BLA BLA BLA BLA BLA BLA BLA BLA BLA BLA BLA 
BLA BLA BLA BLA BLA BLA BLA BLA BLA BLA BLA BLA BLA BLA BLA BLA BLA BLA BLA BLA 
BLA BLA BLA BLA BLA BLA BLA BLA BLA BLA BLA BLA BLA BLA BLA BLA BLA BLA BLA BLA 
BLA BLA BLA BLA BLA BLA BLA BLA BLA BLA BLA BLA BLA BLA BLA BLA BLA BLA BLA BLA 
BLA BLA BLA BLA BLA BLA BLA BLA BLA BLA BLA BLA BLA BLA BLA BLA BLA BLA BLA BLA 
BLA BLA BLA BLA BLA BLA BLA BLA BLA BLA BLA BLA BLA BLA BLA BLA BLA BLA BLA BLA 
BLA BLA BLA BLA BLA BLA BLA BLA BLA BLA BLA BLA BLA BLA BLA BLA BLA BLA BLA BLA 
BLA BLA BLA BLA BLA BLA BLA BLA BLA BLA BLA BLA BLA BLA BLA BLA BLA BLA BLA BLA 
BLA BLA BLA BLA BLA BLA BLA BLA BLA BLA BLA BLA BLA BLA BLA BLA BLA BLA BLA BLA 
BLA BLA BLA BLA BLA BLA BLA BLA BLA BLA BLA BLA BLA BLA BLA BLA BLA BLA BLA BLA 
BLA BLA BLA BLA BLA BLA BLA BLA BLA BLA BLA BLA BLA BLA BLA BLA BLA BLA BLA BLA 
BLA BLA BLA BLA BLA BLA BLA BLA BLA BLA BLA BLA BLA BLA BLA BLA BLA BLA BLA BLA 
BLA BLA BLA BLA BLA BLA BLA BLA BLA BLA BLA BLA BLA BLA BLA BLA BLA BLA BLA BLA 
BLA BLA BLA BLA BLA BLA BLA BLA BLA BLA BLA BLA BLA BLA BLA BLA BLA BLA BLA BLA 
BLA BLA BLA BLA BLA BLA BLA BLA BLA BLA BLA BLA BLA BLA BLA BLA BLA BLA BLA BLA 
BLA BLA BLA BLA BLA BLA BLA BLA BLA BLA BLA BLA BLA BLA BLA BLA BLA BLA BLA BLA 
BLA BLA BLA BLA BLA BLA BLA BLA BLA BLA BLA BLA BLA BLA BLA BLA BLA BLA BLA BLA 
BLA BLA BLA BLA BLA BLA BLA BLA BLA BLA BLA BLA BLA BLA BLA BLA BLA BLA BLA BLA 
BLA BLA BLA BLA BLA BLA BLA BLA BLA BLA BLA BLA BLA BLA BLA BLA BLA BLA BLA BLA 
BLA BLA BLA BLA BLA BLA BLA BLA BLA BLA BLA BLA BLA BLA BLA BLA BLA BLA BLA BLA 
BLA BLA BLA BLA BLA BLA BLA BLA BLA BLA BLA BLA BLA BLA BLA BLA BLA BLA BLA BLA 
BLA BLA BLA BLA BLA BLA BLA BLA BLA BLA BLA BLA BLA BLA BLA BLA BLA BLA BLA BLA 
BLA BLA BLA BLA BLA BLA BLA BLA BLA BLA BLA BLA BLA BLA BLA BLA BLA BLA BLA BLA 
BLA BLA BLA BLA BLA BLA BLA BLA BLA BLA BLA BLA BLA BLA BLA BLA BLA BLA BLA BLA 
BLA BLA BLA BLA BLA BLA BLA BLA BLA BLA BLA BLA BLA BLA BLA BLA BLA BLA BLA BLA 
BLA BLA BLA BLA BLA BLA BLA BLA BLA BLA BLA BLA BLA BLA BLA BLA BLA BLA BLA BLA 
BLA BLA BLA BLA BLA BLA BLA BLA BLA BLA BLA BLA BLA BLA BLA BLA BLA BLA BLA BLA 
BLA BLA BLA BLA BLA BLA BLA BLA BLA BLA BLA BLA BLA BLA BLA BLA BLA BLA BLA BLA 
BLA BLA BLA BLA BLA BLA BLA BLA BLA BLA BLA BLA BLA BLA BLA BLA BLA BLA BLA BLA 
BLA BLA BLA BLA BLA BLA BLA BLA BLA BLA BLA BLA BLA BLA BLA BLA BLA BLA BLA BLA 
BLA BLA BLA BLA BLA BLA BLA BLA BLA BLA BLA BLA BLA BLA BLA BLA BLA BLA BLA BLA 
BLA BLA BLA BLA BLA BLA BLA BLA BLA BLA BLA BLA BLA BLA BLA BLA BLA BLA BLA BLA 
BLA BLA BLA BLA BLA BLA BLA BLA BLA BLA BLA BLA BLA BLA BLA BLA BLA BLA BLA BLA 
BLA BLA BLA BLA BLA BLA BLA BLA BLA BLA BLA BLA BLA BLA BLA BLA BLA BLA BLA BLA 
BLA BLA BLA BLA BLA BLA BLA BLA BLA BLA BLA BLA BLA BLA BLA BLA BLA BLA BLA BLA 
BLA BLA BLA BLA BLA BLA BLA BLA BLA BLA BLA BLA BLA BLA BLA BLA BLA BLA BLA BLA 
BLA BLA BLA BLA BLA BLA BLA BLA BLA BLA BLA BLA BLA BLA BLA BLA BLA BLA BLA BLA 
BLA BLA BLA BLA BLA BLA BLA BLA BLA BLA BLA BLA BLA BLA BLA BLA BLA BLA BLA BLA 
BLA BLA BLA BLA BLA BLA BLA BLA BLA BLA BLA BLA BLA BLA BLA BLA BLA BLA BLA BLA 
BLA BLA BLA BLA BLA BLA BLA BLA BLA BLA BLA BLA BLA BLA BLA BLA BLA BLA BLA BLA 
BLA BLA BLA BLA BLA BLA BLA BLA BLA BLA BLA BLA BLA BLA BLA BLA BLA BLA BLA BLA 
BLA BLA BLA BLA BLA BLA BLA BLA BLA BLA BLA BLA BLA BLA BLA BLA BLA BLA BLA BLA 
BLA BLA BLA BLA BLA BLA BLA BLA BLA BLA BLA BLA BLA BLA BLA BLA BLA BLA BLA BLA 
BLA BLA BLA BLA BLA BLA BLA BLA BLA BLA BLA BLA BLA BLA BLA BLA BLA BLA BLA BLA 
BLA BLA BLA BLA BLA BLA BLA BLA BLA BLA BLA BLA BLA BLA BLA BLA BLA BLA BLA BLA 
BLA BLA BLA BLA BLA BLA BLA BLA BLA BLA BLA BLA BLA BLA BLA BLA BLA BLA BLA BLA 
BLA BLA BLA BLA BLA BLA BLA BLA BLA BLA BLA BLA BLA BLA BLA BLA BLA BLA BLA BLA 
BLA BLA BLA BLA BLA BLA BLA BLA BLA BLA BLA BLA BLA BLA BLA BLA BLA BLA BLA BLA 
BLA BLA BLA BLA BLA BLA BLA BLA BLA BLA BLA BLA BLA BLA BLA BLA BLA BLA BLA BLA 
BLA BLA BLA BLA BLA BLA BLA BLA BLA BLA BLA BLA BLA BLA BLA BLA BLA BLA BLA BLA 
BLA BLA BLA BLA BLA BLA BLA BLA BLA BLA BLA BLA BLA BLA BLA BLA BLA BLA BLA BLA 
BLA BLA BLA BLA BLA BLA BLA BLA BLA BLA BLA BLA BLA BLA BLA BLA BLA BLA BLA BLA 
BLA BLA BLA BLA BLA BLA BLA BLA BLA BLA BLA BLA BLA BLA BLA BLA BLA BLA BLA BLA 
BLA BLA BLA BLA BLA BLA BLA BLA BLA BLA BLA BLA BLA BLA BLA BLA BLA BLA BLA BLA 
BLA BLA BLA BLA BLA BLA BLA BLA BLA BLA BLA BLA BLA BLA BLA BLA BLA BLA BLA BLA 
BLA BLA BLA BLA BLA BLA BLA BLA BLA BLA BLA BLA BLA BLA BLA BLA BLA BLA BLA BLA 
BLA BLA BLA BLA BLA BLA BLA BLA BLA BLA BLA BLA BLA BLA BLA BLA BLA BLA BLA BLA 
BLA BLA BLA BLA BLA BLA BLA BLA BLA BLA BLA BLA BLA BLA BLA BLA BLA BLA BLA BLA 
BLA BLA BLA BLA BLA BLA BLA BLA BLA BLA BLA BLA BLA BLA BLA BLA BLA BLA BLA BLA 
BLA BLA BLA BLA BLA BLA BLA BLA BLA BLA BLA BLA BLA BLA BLA BLA BLA BLA BLA BLA 
BLA BLA BLA BLA BLA BLA BLA BLA BLA BLA BLA BLA BLA BLA BLA BLA BLA BLA BLA BLA 
BLA BLA BLA BLA BLA BLA BLA BLA BLA BLA BLA BLA BLA BLA BLA BLA BLA BLA BLA BLA 
BLA BLA BLA BLA BLA BLA BLA BLA BLA BLA BLA BLA BLA BLA BLA BLA BLA BLA BLA BLA 
BLA BLA BLA BLA BLA BLA BLA BLA BLA BLA BLA BLA BLA BLA BLA BLA BLA BLA BLA BLA 
BLA BLA BLA BLA BLA BLA BLA BLA BLA BLA BLA BLA BLA BLA BLA BLA BLA BLA BLA BLA 
BLA BLA BLA BLA BLA BLA BLA BLA BLA BLA BLA BLA BLA BLA BLA BLA BLA BLA BLA BLA 
BLA BLA BLA BLA BLA BLA BLA BLA BLA BLA BLA BLA BLA BLA BLA BLA BLA BLA BLA BLA 
BLA BLA BLA BLA BLA BLA BLA BLA BLA BLA BLA BLA BLA BLA BLA BLA BLA BLA BLA BLA 
BLA BLA BLA BLA BLA BLA BLA BLA BLA BLA BLA BLA BLA BLA BLA BLA BLA BLA BLA BLA 
BLA BLA BLA BLA BLA BLA BLA BLA BLA BLA BLA BLA BLA BLA BLA BLA BLA BLA BLA BLA 
BLA BLA BLA BLA BLA BLA BLA BLA BLA BLA BLA BLA BLA BLA BLA BLA BLA BLA BLA BLA 
BLA BLA BLA BLA BLA BLA BLA BLA BLA BLA BLA BLA BLA BLA BLA BLA BLA BLA BLA BLA 
BLA BLA BLA BLA BLA BLA BLA BLA BLA BLA BLA BLA BLA BLA BLA BLA BLA BLA BLA BLA 
BLA BLA BLA BLA BLA BLA BLA BLA BLA BLA BLA BLA BLA BLA BLA BLA BLA BLA BLA BLA 
BLA BLA BLA BLA BLA BLA BLA BLA BLA BLA BLA BLA BLA BLA BLA BLA BLA BLA BLA BLA 
BLA BLA BLA BLA BLA BLA BLA BLA BLA BLA BLA BLA BLA BLA BLA BLA BLA BLA BLA BLA 
BLA BLA BLA BLA BLA BLA BLA BLA BLA BLA BLA BLA BLA BLA BLA BLA BLA BLA BLA BLA 
BLA BLA BLA BLA BLA BLA BLA BLA BLA BLA BLA BLA BLA BLA BLA BLA BLA BLA BLA BLA 
BLA BLA BLA BLA BLA BLA BLA BLA BLA BLA BLA BLA BLA BLA BLA BLA BLA BLA BLA BLA 
BLA BLA BLA BLA BLA BLA BLA BLA BLA BLA BLA BLA BLA BLA BLA BLA BLA BLA BLA BLA 
BLA BLA BLA BLA BLA BLA BLA BLA BLA BLA BLA BLA BLA BLA BLA BLA BLA BLA BLA BLA 
BLA BLA BLA BLA BLA BLA BLA BLA BLA BLA BLA BLA BLA BLA BLA BLA BLA BLA BLA BLA 
BLA BLA BLA BLA BLA BLA BLA BLA BLA BLA BLA BLA BLA BLA BLA BLA BLA BLA BLA BLA 
BLA BLA BLA BLA BLA BLA BLA BLA BLA BLA BLA BLA BLA BLA BLA BLA BLA BLA BLA BLA 
BLA BLA BLA BLA BLA BLA BLA BLA BLA BLA BLA BLA BLA BLA BLA BLA BLA BLA BLA BLA 
BLA BLA BLA BLA BLA BLA BLA BLA BLA BLA BLA BLA BLA BLA BLA BLA BLA BLA BLA BLA 
BLA BLA BLA BLA BLA BLA BLA BLA BLA BLA BLA BLA BLA BLA BLA BLA BLA BLA BLA BLA 
BLA BLA BLA BLA BLA BLA BLA BLA BLA BLA BLA BLA BLA BLA BLA BLA BLA BLA BLA BLA 
BLA BLA BLA BLA BLA BLA BLA BLA BLA BLA BLA BLA BLA BLA BLA BLA BLA BLA BLA BLA 
BLA BLA BLA BLA BLA BLA BLA BLA BLA BLA BLA BLA BLA BLA BLA BLA BLA BLA BLA BLA 
BLA BLA BLA BLA BLA BLA BLA BLA BLA BLA BLA BLA BLA BLA BLA BLA BLA BLA BLA BLA 
BLA BLA BLA BLA BLA BLA BLA BLA BLA BLA BLA BLA BLA BLA BLA BLA BLA BLA BLA BLA 
BLA BLA BLA BLA BLA BLA BLA BLA BLA BLA BLA BLA BLA BLA BLA BLA BLA BLA BLA BLA 
BLA BLA BLA BLA BLA BLA BLA BLA BLA BLA BLA BLA BLA BLA BLA BLA BLA BLA BLA BLA 
BLA BLA BLA BLA BLA BLA BLA BLA BLA BLA BLA BLA BLA BLA BLA BLA BLA BLA BLA BLA 
BLA BLA BLA BLA BLA BLA BLA BLA BLA BLA BLA BLA BLA BLA BLA BLA BLA BLA BLA BLA 
BLA BLA BLA BLA BLA BLA BLA BLA BLA BLA BLA BLA BLA BLA BLA BLA BLA BLA BLA BLA 
BLA BLA BLA BLA BLA BLA BLA BLA BLA BLA BLA BLA BLA BLA BLA BLA BLA BLA BLA BLA 
BLA BLA BLA BLA BLA BLA BLA BLA BLA BLA BLA BLA BLA BLA BLA BLA BLA BLA BLA BLA 
BLA BLA BLA BLA BLA BLA BLA BLA BLA BLA BLA BLA BLA BLA BLA BLA BLA BLA BLA BLA 
BLA BLA BLA BLA BLA BLA BLA BLA BLA BLA BLA BLA BLA BLA BLA BLA BLA BLA BLA BLA 
BLA BLA BLA BLA BLA BLA BLA BLA BLA BLA BLA BLA BLA BLA BLA BLA BLA BLA BLA BLA 
BLA BLA BLA BLA BLA BLA BLA BLA BLA BLA BLA BLA BLA BLA BLA BLA BLA BLA BLA BLA 
BLA BLA BLA BLA BLA BLA BLA BLA BLA BLA BLA BLA BLA BLA BLA BLA BLA BLA BLA BLA 
BLA BLA BLA BLA BLA BLA BLA BLA BLA BLA BLA BLA BLA BLA BLA BLA BLA BLA BLA BLA 
BLA BLA BLA BLA BLA BLA BLA BLA BLA BLA BLA BLA BLA BLA BLA BLA BLA BLA BLA BLA 
BLA BLA BLA BLA BLA BLA BLA BLA BLA BLA BLA BLA BLA BLA BLA BLA BLA BLA BLA BLA 
BLA BLA BLA BLA BLA BLA BLA BLA BLA BLA BLA BLA BLA BLA BLA BLA BLA BLA BLA BLA 
BLA BLA BLA BLA BLA BLA BLA BLA BLA BLA BLA BLA BLA BLA BLA BLA BLA BLA BLA BLA 
BLA BLA BLA BLA BLA BLA BLA BLA BLA BLA BLA BLA BLA BLA BLA BLA BLA BLA BLA BLA 
BLA BLA BLA BLA BLA BLA BLA BLA BLA BLA BLA BLA BLA BLA BLA BLA BLA BLA BLA BLA 
BLA BLA BLA BLA BLA BLA BLA BLA BLA BLA BLA BLA BLA BLA BLA BLA BLA BLA BLA BLA 
BLA BLA BLA BLA BLA BLA BLA BLA BLA BLA BLA BLA BLA BLA BLA BLA BLA BLA BLA BLA 
BLA BLA BLA BLA BLA BLA BLA BLA BLA BLA BLA BLA BLA BLA BLA BLA BLA BLA BLA BLA 
BLA BLA BLA BLA BLA BLA BLA BLA BLA BLA BLA BLA BLA BLA BLA BLA BLA BLA BLA BLA 
BLA BLA BLA BLA BLA BLA BLA BLA BLA BLA BLA BLA BLA BLA BLA BLA BLA BLA BLA BLA 
BLA BLA BLA BLA BLA BLA BLA BLA BLA BLA BLA BLA BLA BLA BLA BLA BLA BLA BLA BLA 
BLA BLA BLA BLA BLA BLA BLA BLA BLA BLA BLA BLA BLA BLA BLA BLA BLA BLA BLA BLA 
BLA BLA BLA BLA BLA BLA BLA BLA BLA BLA BLA BLA BLA BLA BLA BLA BLA BLA BLA BLA 
BLA BLA BLA BLA BLA BLA BLA BLA BLA BLA BLA BLA BLA BLA BLA BLA BLA BLA BLA BLA 
BLA BLA BLA BLA BLA BLA BLA BLA BLA BLA BLA BLA BLA BLA BLA BLA BLA BLA BLA BLA 
BLA BLA BLA BLA BLA BLA BLA BLA BLA BLA BLA BLA BLA BLA BLA BLA BLA BLA BLA BLA 
BLA BLA BLA BLA BLA BLA BLA BLA BLA BLA BLA BLA BLA BLA BLA BLA BLA BLA BLA BLA 
BLA BLA BLA BLA BLA BLA BLA BLA BLA BLA BLA BLA BLA BLA BLA BLA BLA BLA BLA BLA 
BLA BLA BLA BLA BLA BLA BLA BLA BLA BLA BLA BLA BLA BLA BLA BLA BLA BLA BLA BLA 
BLA BLA BLA BLA BLA BLA BLA BLA BLA BLA BLA BLA BLA BLA BLA BLA BLA BLA BLA BLA 
BLA BLA BLA BLA BLA BLA BLA BLA BLA BLA BLA BLA BLA BLA BLA BLA BLA BLA BLA BLA 
BLA BLA BLA BLA BLA BLA BLA BLA BLA BLA BLA BLA BLA BLA BLA BLA BLA BLA BLA BLA 
BLA BLA BLA BLA BLA BLA BLA BLA BLA BLA BLA BLA BLA BLA BLA BLA BLA BLA BLA BLA 
BLA BLA BLA BLA BLA BLA BLA BLA BLA BLA BLA BLA BLA BLA BLA BLA BLA BLA BLA BLA 
BLA BLA BLA BLA BLA BLA BLA BLA BLA BLA BLA BLA BLA BLA BLA BLA BLA BLA BLA BLA 
BLA BLA BLA BLA BLA BLA BLA BLA BLA BLA BLA BLA BLA BLA BLA BLA BLA BLA BLA BLA 
BLA BLA BLA BLA BLA BLA BLA BLA BLA BLA BLA BLA BLA BLA BLA BLA BLA BLA BLA BLA 
BLA BLA BLA BLA BLA BLA BLA BLA BLA BLA BLA BLA BLA BLA BLA BLA BLA BLA BLA BLA 
BLA BLA BLA BLA BLA BLA BLA BLA BLA BLA BLA BLA BLA BLA BLA BLA BLA BLA BLA BLA 
BLA BLA BLA BLA BLA BLA BLA BLA BLA BLA BLA BLA BLA BLA BLA BLA BLA BLA BLA BLA 
BLA BLA BLA BLA BLA BLA BLA BLA BLA BLA BLA BLA BLA BLA BLA BLA BLA BLA BLA BLA 
BLA BLA BLA BLA BLA BLA BLA BLA BLA BLA BLA BLA BLA BLA BLA BLA BLA BLA BLA BLA 
BLA BLA BLA BLA BLA BLA BLA BLA BLA BLA BLA BLA BLA BLA BLA BLA BLA BLA BLA BLA 
BLA BLA BLA BLA BLA BLA BLA BLA BLA BLA BLA BLA BLA BLA BLA BLA BLA BLA BLA BLA 
BLA BLA BLA BLA BLA BLA BLA BLA BLA BLA BLA BLA BLA BLA BLA BLA BLA BLA BLA BLA 
BLA BLA BLA BLA BLA BLA BLA BLA BLA BLA BLA BLA BLA BLA BLA BLA BLA BLA BLA BLA 
BLA BLA BLA BLA BLA BLA BLA BLA BLA BLA BLA BLA BLA BLA BLA BLA BLA BLA BLA BLA 
BLA BLA BLA BLA BLA BLA BLA BLA BLA BLA BLA BLA BLA BLA BLA BLA BLA BLA BLA BLA 
BLA BLA BLA BLA BLA BLA BLA BLA BLA BLA BLA BLA BLA BLA BLA BLA BLA BLA BLA BLA 
BLA BLA BLA BLA BLA BLA BLA BLA BLA BLA BLA BLA BLA BLA BLA BLA BLA BLA BLA BLA 
BLA BLA BLA BLA BLA BLA BLA BLA BLA BLA BLA BLA BLA BLA BLA BLA BLA BLA BLA BLA 
BLA BLA BLA BLA BLA BLA BLA BLA BLA BLA BLA BLA BLA BLA BLA BLA BLA BLA BLA BLA 
BLA BLA BLA BLA BLA BLA BLA BLA BLA BLA BLA BLA BLA BLA BLA BLA BLA BLA BLA BLA 
BLA BLA BLA BLA BLA BLA BLA BLA BLA BLA BLA BLA BLA BLA BLA BLA BLA BLA BLA BLA 
BLA BLA BLA BLA BLA BLA BLA BLA BLA BLA BLA BLA BLA BLA BLA BLA BLA BLA BLA BLA 
BLA BLA BLA BLA BLA BLA BLA BLA BLA BLA BLA BLA BLA BLA BLA BLA BLA BLA BLA BLA 
BLA BLA BLA BLA BLA BLA BLA BLA BLA BLA BLA BLA BLA BLA BLA BLA BLA BLA BLA BLA 
BLA BLA BLA BLA BLA BLA BLA BLA BLA BLA BLA BLA BLA BLA BLA BLA BLA BLA BLA BLA 
BLA BLA BLA BLA BLA BLA BLA BLA BLA BLA BLA BLA BLA BLA BLA BLA BLA BLA BLA BLA 
BLA BLA BLA BLA BLA BLA BLA BLA BLA BLA BLA BLA BLA BLA BLA BLA BLA BLA BLA BLA 
BLA BLA BLA BLA BLA BLA BLA BLA BLA BLA BLA BLA BLA BLA BLA BLA BLA BLA BLA BLA 
BLA BLA BLA BLA BLA BLA BLA BLA BLA BLA BLA BLA BLA BLA BLA BLA BLA BLA BLA BLA 
BLA BLA BLA BLA BLA BLA BLA BLA BLA BLA BLA BLA BLA BLA BLA BLA BLA BLA BLA BLA 
BLA BLA BLA BLA BLA BLA BLA BLA BLA BLA BLA BLA BLA BLA BLA BLA BLA BLA BLA BLA 
BLA BLA BLA BLA BLA BLA BLA BLA BLA BLA BLA BLA BLA BLA BLA BLA BLA BLA BLA BLA 
BLA BLA BLA BLA BLA BLA BLA BLA BLA BLA BLA BLA BLA BLA BLA BLA BLA BLA BLA BLA 
BLA BLA BLA BLA BLA BLA BLA BLA BLA BLA BLA BLA BLA BLA BLA BLA BLA BLA BLA BLA 
BLA BLA BLA BLA BLA BLA BLA BLA BLA BLA BLA BLA BLA BLA BLA BLA BLA BLA BLA BLA 
BLA BLA BLA BLA BLA BLA BLA BLA BLA BLA BLA BLA BLA BLA BLA BLA BLA BLA BLA BLA 
BLA BLA BLA BLA BLA BLA BLA BLA BLA BLA BLA BLA BLA BLA BLA BLA BLA BLA BLA BLA 
BLA BLA BLA BLA BLA BLA BLA BLA BLA BLA BLA BLA BLA BLA BLA BLA BLA BLA BLA BLA 
BLA BLA BLA BLA BLA BLA BLA BLA BLA BLA BLA BLA BLA BLA BLA BLA BLA BLA BLA BLA 
BLA BLA BLA BLA BLA BLA BLA BLA BLA BLA BLA BLA BLA BLA BLA BLA BLA BLA BLA BLA 
BLA BLA BLA BLA BLA BLA BLA BLA BLA BLA BLA BLA BLA BLA BLA BLA BLA BLA BLA BLA 
BLA BLA BLA BLA BLA BLA BLA BLA BLA BLA BLA BLA BLA BLA BLA BLA BLA BLA BLA BLA 
BLA BLA BLA BLA BLA BLA BLA BLA BLA BLA BLA BLA BLA BLA BLA BLA BLA BLA BLA BLA 
BLA BLA BLA BLA BLA BLA BLA BLA BLA BLA BLA BLA BLA BLA BLA BLA BLA BLA BLA BLA 
BLA BLA BLA BLA BLA BLA BLA BLA BLA BLA BLA BLA BLA BLA BLA BLA BLA BLA BLA BLA 
BLA BLA BLA BLA BLA BLA BLA BLA BLA BLA BLA BLA BLA BLA BLA BLA BLA BLA BLA BLA 
BLA BLA BLA BLA BLA BLA BLA BLA BLA BLA BLA BLA BLA BLA BLA BLA BLA BLA BLA BLA 
BLA BLA BLA BLA BLA BLA BLA BLA BLA BLA BLA BLA BLA BLA BLA BLA BLA BLA BLA BLA 
BLA BLA BLA BLA BLA BLA BLA BLA BLA BLA BLA BLA BLA BLA BLA BLA BLA BLA BLA BLA 
BLA BLA BLA BLA BLA BLA BLA BLA BLA BLA BLA BLA BLA BLA BLA BLA BLA BLA BLA BLA 
BLA BLA BLA BLA BLA BLA BLA BLA BLA BLA BLA BLA BLA BLA BLA BLA BLA BLA BLA BLA 
BLA BLA BLA BLA BLA BLA BLA BLA BLA BLA BLA BLA BLA BLA BLA BLA BLA BLA BLA BLA 
BLA BLA BLA BLA BLA BLA BLA BLA BLA BLA BLA BLA BLA BLA BLA BLA BLA BLA BLA BLA 
BLA BLA BLA BLA BLA BLA BLA BLA BLA BLA BLA BLA BLA BLA BLA BLA BLA BLA BLA BLA 
BLA BLA BLA BLA BLA BLA BLA BLA BLA BLA BLA BLA BLA BLA BLA BLA BLA BLA BLA BLA 
BLA BLA BLA BLA BLA BLA BLA BLA BLA BLA BLA BLA BLA BLA BLA BLA BLA BLA BLA BLA 
BLA BLA BLA BLA BLA BLA BLA BLA BLA BLA BLA BLA BLA BLA BLA BLA BLA BLA BLA BLA 
BLA BLA BLA BLA BLA BLA BLA BLA BLA BLA BLA BLA BLA BLA BLA BLA BLA BLA BLA BLA 
BLA BLA BLA BLA BLA BLA BLA BLA BLA BLA BLA BLA BLA BLA BLA BLA BLA BLA BLA BLA 
BLA BLA BLA BLA BLA BLA BLA BLA BLA BLA BLA BLA BLA BLA BLA BLA BLA BLA BLA BLA 
BLA BLA BLA BLA BLA BLA BLA BLA BLA BLA BLA BLA BLA BLA BLA BLA BLA BLA BLA BLA 
BLA BLA BLA BLA BLA BLA BLA BLA BLA BLA BLA BLA BLA BLA BLA BLA BLA BLA BLA BLA 
BLA BLA BLA BLA BLA BLA BLA BLA BLA BLA BLA BLA BLA BLA BLA BLA BLA BLA BLA BLA 
BLA BLA BLA BLA BLA BLA BLA BLA BLA BLA BLA BLA BLA BLA BLA BLA BLA BLA BLA BLA 
BLA BLA BLA BLA BLA BLA BLA BLA BLA BLA BLA BLA BLA BLA BLA BLA BLA BLA BLA BLA 
BLA BLA BLA BLA BLA BLA BLA BLA BLA BLA BLA BLA BLA BLA BLA BLA BLA BLA BLA BLA 
BLA BLA BLA BLA BLA BLA BLA BLA BLA BLA BLA BLA BLA BLA BLA BLA BLA BLA BLA BLA 
BLA BLA BLA BLA BLA BLA BLA BLA BLA BLA BLA BLA BLA BLA BLA BLA BLA BLA BLA BLA 
BLA BLA BLA BLA BLA BLA BLA BLA BLA BLA BLA BLA BLA BLA BLA BLA BLA BLA BLA BLA 
BLA BLA BLA BLA BLA BLA BLA BLA BLA BLA BLA BLA BLA BLA BLA BLA BLA BLA BLA BLA 
BLA BLA BLA BLA BLA BLA BLA BLA BLA BLA BLA BLA BLA BLA BLA BLA BLA BLA BLA BLA 
BLA BLA BLA BLA BLA BLA BLA BLA BLA BLA BLA BLA BLA BLA BLA BLA BLA BLA BLA BLA 
BLA BLA BLA BLA BLA BLA BLA BLA BLA BLA BLA BLA BLA BLA BLA BLA BLA BLA BLA BLA 
BLA BLA BLA BLA BLA BLA BLA BLA BLA BLA BLA BLA BLA BLA BLA BLA BLA BLA BLA BLA 
BLA BLA BLA BLA BLA BLA BLA BLA BLA BLA BLA BLA BLA BLA BLA BLA BLA BLA BLA BLA 
BLA BLA BLA BLA BLA BLA BLA BLA BLA BLA BLA BLA BLA BLA BLA BLA BLA BLA BLA BLA 
BLA BLA BLA BLA BLA BLA BLA BLA BLA BLA BLA BLA BLA BLA BLA BLA BLA BLA BLA BLA 
BLA BLA BLA BLA BLA BLA BLA BLA BLA BLA BLA BLA BLA BLA BLA BLA BLA BLA BLA BLA 
BLA BLA BLA BLA BLA BLA BLA BLA BLA BLA BLA BLA BLA BLA BLA BLA BLA BLA BLA BLA 
BLA BLA BLA BLA BLA BLA BLA BLA BLA BLA BLA BLA BLA BLA BLA BLA BLA BLA BLA BLA 
BLA BLA BLA BLA BLA BLA BLA BLA BLA BLA BLA BLA BLA BLA BLA BLA BLA BLA BLA BLA 
BLA BLA BLA BLA BLA BLA BLA BLA BLA BLA BLA BLA BLA BLA BLA BLA BLA BLA BLA BLA 
BLA BLA BLA BLA BLA BLA BLA BLA BLA BLA BLA BLA BLA BLA BLA BLA BLA BLA BLA BLA 
BLA BLA BLA BLA BLA BLA BLA BLA BLA BLA BLA BLA BLA BLA BLA BLA BLA BLA BLA BLA 
BLA BLA BLA BLA BLA BLA BLA BLA BLA BLA BLA BLA BLA BLA BLA BLA BLA BLA BLA BLA 
BLA BLA BLA BLA BLA BLA BLA BLA BLA BLA BLA BLA BLA BLA BLA BLA BLA BLA BLA BLA 
BLA BLA BLA BLA BLA BLA BLA BLA BLA BLA BLA BLA BLA BLA BLA BLA BLA BLA BLA BLA 
BLA BLA BLA BLA BLA BLA BLA BLA BLA BLA BLA BLA BLA BLA BLA BLA BLA BLA BLA BLA 
BLA BLA BLA BLA BLA BLA BLA BLA BLA BLA BLA BLA BLA BLA BLA BLA BLA BLA BLA BLA 
BLA BLA BLA BLA BLA BLA BLA BLA BLA BLA BLA BLA BLA BLA BLA BLA BLA BLA BLA BLA 
BLA BLA BLA BLA BLA BLA BLA BLA BLA BLA BLA BLA BLA BLA BLA BLA BLA BLA BLA BLA 
BLA BLA BLA BLA BLA BLA BLA BLA BLA BLA BLA BLA BLA BLA BLA BLA BLA BLA BLA BLA 
BLA BLA BLA BLA BLA BLA BLA BLA BLA BLA BLA BLA BLA BLA BLA BLA BLA BLA BLA BLA 
BLA BLA BLA BLA BLA BLA BLA BLA BLA BLA BLA BLA BLA BLA BLA BLA BLA BLA BLA BLA 
BLA BLA BLA BLA BLA BLA BLA BLA BLA BLA BLA BLA BLA BLA BLA BLA BLA BLA BLA BLA 
BLA BLA BLA BLA BLA BLA BLA BLA BLA BLA BLA BLA BLA BLA BLA BLA BLA BLA BLA BLA 
BLA BLA BLA BLA BLA BLA BLA BLA BLA BLA BLA BLA BLA BLA BLA BLA BLA BLA BLA BLA 
BLA BLA BLA BLA BLA BLA BLA BLA BLA BLA BLA BLA BLA BLA BLA BLA BLA BLA BLA BLA 
BLA BLA BLA BLA BLA BLA BLA BLA BLA BLA BLA BLA BLA BLA BLA BLA BLA BLA BLA BLA 
BLA BLA BLA BLA BLA BLA BLA BLA BLA BLA BLA BLA BLA BLA BLA BLA BLA BLA BLA BLA 
BLA BLA BLA BLA BLA BLA BLA BLA BLA BLA BLA BLA BLA BLA BLA BLA BLA BLA BLA BLA 
BLA BLA BLA BLA BLA BLA BLA BLA BLA BLA BLA BLA BLA BLA BLA BLA BLA BLA BLA BLA 
BLA BLA BLA BLA BLA BLA BLA BLA BLA BLA BLA BLA BLA BLA BLA BLA BLA BLA BLA BLA 
BLA BLA BLA BLA BLA BLA BLA BLA BLA BLA BLA BLA BLA BLA BLA BLA BLA BLA BLA BLA 
BLA BLA BLA BLA BLA BLA BLA BLA BLA BLA BLA BLA BLA BLA BLA BLA BLA BLA BLA BLA 
BLA BLA BLA BLA BLA BLA BLA BLA BLA BLA BLA BLA BLA BLA BLA BLA BLA BLA BLA BLA 
BLA BLA BLA BLA BLA BLA BLA BLA BLA BLA BLA BLA BLA BLA BLA BLA BLA BLA BLA BLA 
BLA BLA BLA BLA BLA BLA BLA BLA BLA BLA BLA BLA BLA BLA BLA BLA BLA BLA BLA BLA 
BLA BLA BLA BLA BLA BLA BLA BLA BLA BLA BLA BLA BLA BLA BLA BLA BLA BLA BLA BLA 
BLA BLA BLA BLA BLA BLA BLA BLA BLA BLA BLA BLA BLA BLA BLA BLA BLA BLA BLA BLA 
BLA BLA BLA BLA BLA BLA BLA BLA BLA BLA BLA BLA BLA BLA BLA BLA BLA BLA BLA BLA 
BLA BLA BLA BLA BLA BLA BLA BLA BLA BLA BLA BLA BLA BLA BLA BLA BLA BLA BLA BLA 
BLA BLA BLA BLA BLA BLA BLA BLA BLA BLA BLA BLA BLA BLA BLA BLA BLA BLA BLA BLA 
BLA BLA BLA BLA BLA BLA BLA BLA BLA BLA BLA BLA BLA BLA BLA BLA BLA BLA BLA BLA 
BLA BLA BLA BLA BLA BLA BLA BLA BLA BLA BLA BLA BLA BLA BLA BLA BLA BLA BLA BLA 
BLA BLA BLA BLA BLA BLA BLA BLA BLA BLA BLA BLA BLA BLA BLA BLA BLA BLA BLA BLA 
BLA BLA BLA BLA BLA BLA BLA BLA BLA BLA BLA BLA BLA BLA BLA BLA BLA BLA BLA BLA 
BLA BLA BLA BLA BLA BLA BLA BLA BLA BLA BLA BLA BLA BLA BLA BLA BLA BLA BLA BLA 
BLA BLA BLA BLA BLA BLA BLA BLA BLA BLA BLA BLA BLA BLA BLA BLA BLA BLA BLA BLA 
BLA BLA BLA BLA BLA BLA BLA BLA BLA BLA BLA BLA BLA BLA BLA BLA BLA BLA BLA BLA 
BLA BLA BLA BLA BLA BLA BLA BLA BLA BLA BLA BLA BLA BLA BLA BLA BLA BLA BLA BLA 
BLA BLA BLA BLA BLA BLA BLA BLA BLA BLA BLA BLA BLA BLA BLA BLA BLA BLA BLA BLA 
BLA BLA BLA BLA BLA BLA BLA BLA BLA BLA BLA BLA BLA BLA BLA BLA BLA BLA BLA BLA 
BLA BLA BLA BLA BLA BLA BLA BLA BLA BLA BLA BLA BLA BLA BLA BLA BLA BLA BLA BLA 
BLA BLA BLA BLA BLA BLA BLA BLA BLA BLA BLA BLA BLA BLA BLA BLA BLA BLA BLA BLA 
BLA BLA BLA BLA BLA BLA BLA BLA BLA BLA BLA BLA BLA BLA BLA BLA BLA BLA BLA BLA 
BLA BLA BLA BLA BLA BLA BLA BLA BLA BLA BLA BLA BLA BLA BLA BLA BLA BLA BLA BLA 
BLA BLA BLA BLA BLA BLA BLA BLA BLA BLA BLA BLA BLA BLA BLA BLA BLA BLA BLA BLA 
BLA BLA BLA BLA BLA BLA BLA BLA BLA BLA BLA BLA BLA BLA BLA BLA BLA BLA BLA BLA 
BLA BLA BLA BLA BLA BLA BLA BLA BLA BLA BLA BLA BLA BLA BLA BLA BLA BLA BLA BLA 
BLA BLA BLA BLA BLA BLA BLA BLA BLA BLA BLA BLA BLA BLA BLA BLA BLA BLA BLA BLA 
BLA BLA BLA BLA BLA BLA BLA BLA BLA BLA BLA BLA BLA BLA BLA BLA BLA BLA BLA BLA 
BLA BLA BLA BLA BLA BLA BLA BLA BLA BLA BLA BLA BLA BLA BLA BLA BLA BLA BLA BLA 
BLA BLA BLA BLA BLA BLA BLA BLA BLA BLA BLA BLA BLA BLA BLA BLA BLA BLA BLA BLA 
BLA BLA BLA BLA BLA BLA BLA BLA BLA BLA BLA BLA BLA BLA BLA BLA BLA BLA BLA BLA 
BLA BLA BLA BLA BLA BLA BLA BLA BLA BLA BLA BLA BLA BLA BLA BLA BLA BLA BLA BLA 
BLA BLA BLA BLA BLA BLA BLA BLA BLA BLA BLA BLA BLA BLA BLA BLA BLA BLA BLA BLA 
BLA BLA BLA BLA BLA BLA BLA BLA BLA BLA BLA BLA BLA BLA BLA BLA BLA BLA BLA BLA 
BLA BLA BLA BLA BLA BLA BLA BLA BLA BLA BLA BLA BLA BLA BLA BLA BLA BLA BLA BLA 
BLA BLA BLA BLA BLA BLA BLA BLA BLA BLA BLA BLA BLA BLA BLA BLA BLA BLA BLA BLA 
BLA BLA BLA BLA BLA BLA BLA BLA BLA BLA BLA BLA BLA BLA BLA BLA BLA BLA BLA BLA 
BLA BLA BLA BLA BLA BLA BLA BLA BLA BLA BLA BLA BLA BLA BLA BLA BLA BLA BLA BLA 
BLA BLA BLA BLA BLA BLA BLA BLA BLA BLA BLA BLA BLA BLA BLA BLA BLA BLA BLA BLA 
BLA BLA BLA BLA BLA BLA BLA BLA BLA BLA BLA BLA BLA BLA BLA BLA BLA BLA BLA BLA 
BLA BLA BLA BLA BLA BLA BLA BLA BLA BLA BLA BLA BLA BLA BLA BLA BLA BLA BLA BLA 
BLA BLA BLA BLA BLA BLA BLA BLA BLA BLA BLA BLA BLA BLA BLA BLA BLA BLA BLA BLA 
BLA BLA BLA BLA BLA BLA BLA BLA BLA BLA BLA BLA BLA BLA BLA BLA BLA BLA BLA BLA 
BLA BLA BLA BLA BLA BLA BLA BLA BLA BLA BLA BLA BLA BLA BLA BLA BLA BLA BLA BLA 
BLA BLA BLA BLA BLA BLA BLA BLA BLA BLA BLA BLA BLA BLA BLA BLA BLA BLA BLA BLA 
BLA BLA BLA BLA BLA BLA BLA BLA BLA BLA BLA BLA BLA BLA BLA BLA BLA BLA BLA BLA 
BLA BLA BLA BLA BLA BLA BLA BLA BLA BLA BLA BLA BLA BLA BLA BLA BLA BLA BLA BLA 
BLA BLA BLA BLA BLA BLA BLA BLA BLA BLA BLA BLA BLA BLA BLA BLA BLA BLA BLA BLA 
BLA BLA BLA BLA BLA BLA BLA BLA BLA BLA BLA BLA BLA BLA BLA BLA BLA BLA BLA BLA 
BLA BLA BLA BLA BLA BLA BLA BLA BLA BLA BLA BLA BLA BLA BLA BLA BLA BLA BLA BLA 
BLA BLA BLA BLA BLA BLA BLA BLA BLA BLA BLA BLA BLA BLA BLA BLA BLA BLA BLA BLA 
BLA BLA BLA BLA BLA BLA BLA BLA BLA BLA BLA BLA BLA BLA BLA BLA BLA BLA BLA BLA 
BLA BLA BLA BLA BLA BLA BLA BLA BLA BLA BLA BLA BLA BLA BLA BLA BLA BLA BLA BLA 
BLA BLA BLA BLA BLA BLA BLA BLA BLA BLA BLA BLA BLA BLA BLA BLA BLA BLA BLA BLA 
BLA BLA BLA BLA BLA BLA BLA BLA BLA BLA BLA BLA BLA BLA BLA BLA BLA BLA BLA BLA 
BLA BLA BLA BLA BLA BLA BLA BLA BLA BLA BLA BLA BLA BLA BLA BLA BLA BLA BLA BLA 
BLA BLA BLA BLA BLA BLA BLA BLA BLA BLA BLA BLA BLA BLA BLA BLA BLA BLA BLA BLA 
BLA BLA BLA BLA BLA BLA BLA BLA BLA BLA BLA BLA BLA BLA BLA BLA BLA BLA BLA BLA 
BLA BLA BLA BLA BLA BLA BLA BLA BLA BLA BLA BLA BLA BLA BLA BLA BLA BLA BLA BLA 
BLA BLA BLA BLA BLA BLA BLA BLA BLA BLA BLA BLA BLA BLA BLA BLA BLA BLA BLA BLA 
BLA BLA BLA BLA BLA BLA BLA BLA BLA BLA BLA BLA BLA BLA BLA BLA BLA BLA BLA BLA 
BLA BLA BLA BLA BLA BLA BLA BLA BLA BLA BLA BLA BLA BLA BLA BLA BLA BLA BLA BLA 
BLA BLA BLA BLA BLA BLA BLA BLA BLA BLA BLA BLA BLA BLA BLA BLA BLA BLA BLA BLA 
BLA BLA BLA BLA BLA BLA BLA BLA BLA BLA BLA BLA BLA BLA BLA BLA BLA BLA BLA BLA 
BLA BLA BLA BLA BLA BLA BLA BLA BLA BLA BLA BLA BLA BLA BLA BLA BLA BLA BLA BLA 
BLA BLA BLA BLA BLA BLA BLA BLA BLA BLA BLA BLA BLA BLA BLA BLA BLA BLA BLA BLA 
BLA BLA BLA BLA BLA BLA BLA BLA BLA BLA BLA BLA BLA BLA BLA BLA BLA BLA BLA BLA 
BLA BLA BLA BLA BLA BLA BLA BLA BLA BLA BLA BLA BLA BLA BLA BLA BLA BLA BLA BLA 
BLA BLA BLA BLA BLA BLA BLA BLA BLA BLA BLA BLA BLA BLA BLA BLA BLA BLA BLA BLA 
BLA BLA BLA BLA BLA BLA BLA BLA BLA BLA BLA BLA BLA BLA BLA BLA BLA BLA BLA BLA 
BLA BLA BLA BLA BLA BLA BLA BLA BLA BLA BLA BLA BLA BLA BLA BLA BLA BLA BLA BLA 
BLA BLA BLA BLA BLA BLA BLA BLA BLA BLA BLA BLA BLA BLA BLA BLA BLA BLA BLA BLA 
BLA BLA BLA BLA BLA BLA BLA BLA BLA BLA BLA BLA BLA BLA BLA BLA BLA BLA BLA BLA 
BLA BLA BLA BLA BLA BLA BLA BLA BLA BLA BLA BLA BLA BLA BLA BLA BLA BLA BLA BLA 
BLA BLA BLA BLA BLA BLA BLA BLA BLA BLA BLA BLA BLA BLA BLA BLA BLA BLA BLA BLA 
BLA BLA BLA BLA BLA BLA BLA BLA BLA BLA BLA BLA BLA BLA BLA BLA BLA BLA BLA BLA 
BLA BLA BLA BLA BLA BLA BLA BLA BLA BLA BLA BLA BLA BLA BLA BLA BLA BLA BLA BLA 
BLA BLA BLA BLA BLA BLA BLA BLA BLA BLA BLA BLA BLA BLA BLA BLA BLA BLA BLA BLA 
BLA BLA BLA BLA BLA BLA BLA BLA BLA BLA BLA BLA BLA BLA BLA BLA BLA BLA BLA BLA 
BLA BLA BLA BLA BLA BLA BLA BLA BLA BLA BLA BLA BLA BLA BLA BLA BLA BLA BLA BLA 
BLA BLA BLA BLA BLA BLA BLA BLA BLA BLA BLA BLA BLA BLA BLA BLA BLA BLA BLA BLA 
BLA BLA BLA BLA BLA BLA BLA BLA BLA BLA BLA BLA BLA BLA BLA BLA BLA BLA BLA BLA 
BLA BLA BLA BLA BLA BLA BLA BLA BLA BLA BLA BLA BLA BLA BLA BLA BLA BLA BLA BLA 
BLA BLA BLA BLA BLA BLA BLA BLA BLA BLA BLA BLA BLA BLA BLA BLA BLA BLA BLA BLA 
BLA BLA BLA BLA BLA BLA BLA BLA BLA BLA BLA BLA BLA BLA BLA BLA BLA BLA BLA BLA 
BLA BLA BLA BLA BLA BLA BLA BLA BLA BLA BLA BLA BLA BLA BLA BLA BLA BLA BLA BLA 
BLA BLA BLA BLA BLA BLA BLA BLA BLA BLA BLA BLA BLA BLA BLA BLA BLA BLA BLA BLA 
BLA BLA BLA BLA BLA BLA BLA BLA BLA BLA BLA BLA BLA BLA BLA BLA BLA BLA BLA BLA 
BLA BLA BLA BLA BLA BLA BLA BLA BLA BLA BLA BLA BLA BLA BLA BLA BLA BLA BLA BLA 
BLA BLA BLA BLA BLA BLA BLA BLA BLA BLA BLA BLA BLA BLA BLA BLA BLA BLA BLA BLA 
BLA BLA BLA BLA BLA BLA BLA BLA BLA BLA BLA BLA BLA BLA BLA BLA BLA BLA BLA BLA 
BLA BLA BLA BLA BLA BLA BLA BLA BLA BLA BLA BLA BLA BLA BLA BLA BLA BLA BLA BLA 
BLA BLA BLA BLA BLA BLA BLA BLA BLA BLA BLA BLA BLA BLA BLA BLA BLA BLA BLA BLA 
BLA BLA BLA BLA BLA BLA BLA BLA BLA BLA BLA BLA BLA BLA BLA BLA BLA BLA BLA BLA 
BLA BLA BLA BLA BLA BLA BLA BLA BLA BLA BLA BLA BLA BLA BLA BLA BLA BLA BLA BLA 
BLA BLA BLA BLA BLA BLA BLA BLA BLA BLA BLA BLA BLA BLA BLA BLA BLA BLA BLA BLA 
BLA BLA BLA BLA BLA BLA BLA BLA BLA BLA BLA BLA BLA BLA BLA BLA BLA BLA BLA BLA 
BLA BLA BLA BLA BLA BLA BLA BLA BLA BLA BLA BLA BLA BLA BLA BLA BLA BLA BLA BLA 
BLA BLA BLA BLA BLA BLA BLA BLA BLA BLA BLA BLA BLA BLA BLA BLA BLA BLA BLA BLA 
BLA BLA BLA BLA BLA BLA BLA BLA BLA BLA BLA BLA BLA BLA BLA BLA BLA BLA BLA BLA 
BLA BLA BLA BLA BLA BLA BLA BLA BLA BLA BLA BLA BLA BLA BLA BLA BLA BLA BLA BLA 
BLA BLA BLA BLA BLA BLA BLA BLA BLA BLA BLA BLA BLA BLA BLA BLA BLA BLA BLA BLA 
BLA BLA BLA BLA BLA BLA BLA BLA BLA BLA BLA BLA BLA BLA BLA BLA BLA BLA BLA BLA 
BLA BLA BLA BLA BLA BLA BLA BLA BLA BLA BLA BLA BLA BLA BLA BLA BLA BLA BLA BLA 
BLA BLA BLA BLA BLA BLA BLA BLA BLA BLA BLA BLA BLA BLA BLA BLA BLA BLA BLA BLA 
BLA BLA BLA BLA BLA BLA BLA BLA BLA BLA BLA BLA BLA BLA BLA BLA BLA BLA BLA BLA 
BLA BLA BLA BLA BLA BLA BLA BLA BLA BLA BLA BLA BLA BLA BLA BLA BLA BLA BLA BLA 
BLA BLA BLA BLA BLA BLA BLA BLA BLA BLA BLA BLA BLA BLA BLA BLA BLA BLA BLA BLA 
BLA BLA BLA BLA BLA BLA BLA BLA BLA BLA BLA BLA BLA BLA BLA BLA BLA BLA BLA BLA 
BLA BLA BLA BLA BLA BLA BLA BLA BLA BLA BLA BLA BLA BLA BLA BLA BLA BLA BLA BLA 
BLA BLA BLA BLA BLA BLA BLA BLA BLA BLA BLA BLA BLA BLA BLA BLA BLA BLA BLA BLA 
BLA BLA BLA BLA BLA BLA BLA BLA BLA BLA BLA BLA BLA BLA BLA BLA BLA BLA BLA BLA 
BLA BLA BLA BLA BLA BLA BLA BLA BLA BLA BLA BLA BLA BLA BLA BLA BLA BLA BLA BLA 
BLA BLA BLA BLA BLA BLA BLA BLA BLA BLA BLA BLA BLA BLA BLA BLA BLA BLA BLA BLA 
BLA BLA BLA BLA BLA BLA BLA BLA BLA BLA BLA BLA BLA BLA BLA BLA BLA BLA BLA BLA 
BLA BLA BLA BLA BLA BLA BLA BLA BLA BLA BLA BLA BLA BLA BLA BLA BLA BLA BLA BLA 
BLA BLA BLA BLA BLA BLA BLA BLA BLA BLA BLA BLA BLA BLA BLA BLA BLA BLA BLA BLA 
BLA BLA BLA BLA BLA BLA BLA BLA BLA BLA BLA BLA BLA BLA BLA BLA BLA BLA BLA BLA 
BLA BLA BLA BLA BLA BLA BLA BLA BLA BLA BLA BLA BLA BLA BLA BLA BLA BLA BLA BLA 
BLA BLA BLA BLA BLA BLA BLA BLA BLA BLA BLA BLA BLA BLA BLA BLA BLA BLA BLA BLA 
BLA BLA BLA BLA BLA BLA BLA BLA BLA BLA BLA BLA BLA BLA BLA BLA BLA BLA BLA BLA 
BLA BLA BLA BLA BLA BLA BLA BLA BLA BLA BLA BLA BLA BLA BLA BLA BLA BLA BLA BLA 
BLA BLA BLA BLA BLA BLA BLA BLA BLA BLA BLA BLA BLA BLA BLA BLA BLA BLA BLA BLA 
BLA BLA BLA BLA BLA BLA BLA BLA BLA BLA BLA BLA BLA BLA BLA BLA BLA BLA BLA BLA 
BLA BLA BLA BLA BLA BLA BLA BLA BLA BLA BLA BLA BLA BLA BLA BLA BLA BLA BLA BLA 
BLA BLA BLA BLA BLA BLA BLA BLA BLA BLA BLA BLA BLA BLA BLA BLA BLA BLA BLA BLA 
BLA BLA BLA BLA BLA BLA BLA BLA BLA BLA BLA BLA BLA BLA BLA BLA BLA BLA BLA BLA 
BLA BLA BLA BLA BLA BLA BLA BLA BLA BLA BLA BLA BLA BLA BLA BLA BLA BLA BLA BLA 
BLA BLA BLA BLA BLA BLA BLA BLA BLA BLA BLA BLA BLA BLA BLA BLA BLA BLA BLA BLA 
BLA BLA BLA BLA BLA BLA BLA BLA BLA BLA BLA BLA BLA BLA BLA BLA BLA BLA BLA BLA 
BLA BLA BLA BLA BLA BLA BLA BLA BLA BLA BLA BLA BLA BLA BLA BLA BLA BLA BLA BLA 
BLA BLA BLA BLA BLA BLA BLA BLA BLA BLA BLA BLA BLA BLA BLA BLA BLA BLA BLA BLA 
BLA BLA BLA BLA BLA BLA BLA BLA BLA BLA BLA BLA BLA BLA BLA BLA BLA BLA BLA BLA 
BLA BLA BLA BLA BLA BLA BLA BLA BLA BLA BLA BLA BLA BLA BLA BLA BLA BLA BLA BLA 
BLA BLA BLA BLA BLA BLA BLA BLA BLA BLA BLA BLA BLA BLA BLA BLA BLA BLA BLA BLA 
BLA BLA BLA BLA BLA BLA BLA BLA BLA BLA BLA BLA BLA BLA BLA BLA BLA BLA BLA BLA 
BLA BLA BLA BLA BLA BLA BLA BLA BLA BLA BLA BLA BLA BLA BLA BLA BLA BLA BLA BLA 
BLA BLA BLA BLA BLA BLA BLA BLA BLA BLA BLA BLA BLA BLA BLA BLA BLA BLA BLA BLA 
BLA BLA BLA BLA BLA BLA BLA BLA BLA BLA BLA BLA BLA BLA BLA BLA BLA BLA BLA BLA 
BLA BLA BLA BLA BLA BLA BLA BLA BLA BLA BLA BLA BLA BLA BLA BLA BLA BLA BLA BLA 
BLA BLA BLA BLA BLA BLA BLA BLA BLA BLA BLA BLA BLA BLA BLA BLA BLA BLA BLA BLA 
BLA BLA BLA BLA BLA BLA BLA BLA BLA BLA BLA BLA BLA BLA BLA BLA BLA BLA BLA BLA 
BLA BLA BLA BLA BLA BLA BLA BLA BLA BLA BLA BLA BLA BLA BLA BLA BLA BLA BLA BLA 
BLA BLA BLA BLA BLA BLA BLA BLA BLA BLA BLA BLA BLA BLA BLA BLA BLA BLA BLA BLA 
BLA BLA BLA BLA BLA BLA BLA BLA BLA BLA BLA BLA BLA BLA BLA BLA BLA BLA BLA BLA 
BLA BLA BLA BLA BLA BLA BLA BLA BLA BLA BLA BLA BLA BLA BLA BLA BLA BLA BLA BLA 
BLA BLA BLA BLA BLA BLA BLA BLA BLA BLA BLA BLA BLA BLA BLA BLA BLA BLA BLA BLA 
BLA BLA BLA BLA BLA BLA BLA BLA BLA BLA BLA BLA BLA BLA BLA BLA BLA BLA BLA BLA 
BLA BLA BLA BLA BLA BLA BLA BLA BLA BLA BLA BLA BLA BLA BLA BLA BLA BLA BLA BLA 
BLA BLA BLA BLA BLA BLA BLA BLA BLA BLA BLA BLA BLA BLA BLA BLA BLA BLA BLA BLA 
BLA BLA BLA BLA BLA BLA BLA BLA BLA BLA BLA BLA BLA BLA BLA BLA BLA BLA BLA BLA 
BLA BLA BLA BLA BLA BLA BLA BLA BLA BLA BLA BLA BLA BLA BLA BLA BLA BLA BLA BLA 
BLA BLA BLA BLA BLA BLA BLA BLA BLA BLA BLA BLA BLA BLA BLA BLA BLA BLA BLA BLA 
BLA BLA BLA BLA BLA BLA BLA BLA BLA BLA BLA BLA BLA BLA BLA BLA BLA BLA BLA BLA 
BLA BLA BLA BLA BLA BLA BLA BLA BLA BLA BLA BLA BLA BLA BLA BLA BLA BLA BLA BLA 
BLA BLA BLA BLA BLA BLA BLA BLA BLA BLA BLA BLA BLA BLA BLA BLA BLA BLA BLA BLA 
BLA BLA BLA BLA BLA BLA BLA BLA BLA BLA BLA BLA BLA BLA BLA BLA BLA BLA BLA BLA 
BLA BLA BLA BLA BLA BLA BLA BLA BLA BLA BLA BLA BLA BLA BLA BLA BLA BLA BLA BLA 
BLA BLA BLA BLA BLA BLA BLA BLA BLA BLA BLA BLA BLA BLA BLA BLA BLA BLA BLA BLA 
BLA BLA BLA BLA BLA BLA BLA BLA BLA BLA BLA BLA BLA BLA BLA BLA BLA BLA BLA BLA 
BLA BLA BLA BLA BLA BLA BLA BLA BLA BLA BLA BLA BLA BLA BLA BLA BLA BLA BLA BLA 
BLA BLA BLA BLA BLA BLA BLA BLA BLA BLA BLA BLA BLA BLA BLA BLA BLA BLA BLA BLA 
BLA BLA BLA BLA BLA BLA BLA BLA BLA BLA BLA BLA BLA BLA BLA BLA BLA BLA BLA BLA 
BLA BLA BLA BLA BLA BLA BLA BLA BLA BLA BLA BLA BLA BLA BLA BLA BLA BLA BLA BLA 
BLA BLA BLA BLA BLA BLA BLA BLA BLA BLA BLA BLA BLA BLA BLA BLA BLA BLA BLA BLA 
BLA BLA BLA BLA BLA BLA BLA BLA BLA BLA BLA BLA BLA BLA BLA BLA BLA BLA BLA BLA 
BLA BLA BLA BLA BLA BLA BLA BLA BLA BLA BLA BLA BLA BLA BLA BLA BLA BLA BLA BLA 
BLA BLA BLA BLA BLA BLA BLA BLA BLA BLA BLA BLA BLA BLA BLA BLA BLA BLA BLA BLA 
BLA BLA BLA BLA BLA BLA BLA BLA BLA BLA BLA BLA BLA BLA BLA BLA BLA BLA BLA BLA 
BLA BLA BLA BLA BLA BLA BLA BLA BLA BLA BLA BLA BLA BLA BLA BLA BLA BLA BLA BLA 
BLA BLA BLA BLA BLA BLA BLA BLA BLA BLA BLA BLA BLA BLA BLA BLA BLA BLA BLA BLA 
BLA BLA BLA BLA BLA BLA BLA BLA BLA BLA BLA BLA BLA BLA BLA BLA BLA BLA BLA BLA 
BLA BLA BLA BLA BLA BLA BLA BLA BLA BLA BLA BLA BLA BLA BLA BLA BLA BLA BLA BLA 
BLA BLA BLA BLA BLA BLA BLA BLA BLA BLA BLA BLA BLA BLA BLA BLA BLA BLA BLA BLA 
BLA BLA BLA BLA BLA BLA BLA BLA BLA BLA BLA BLA BLA BLA BLA BLA BLA BLA BLA BLA 
BLA BLA BLA BLA BLA BLA BLA BLA BLA BLA BLA BLA BLA BLA BLA BLA BLA BLA BLA BLA 
BLA BLA BLA BLA BLA BLA BLA BLA BLA BLA BLA BLA BLA BLA BLA BLA BLA BLA BLA BLA 
BLA BLA BLA BLA BLA BLA BLA BLA BLA BLA BLA BLA BLA BLA BLA BLA BLA BLA BLA BLA 
BLA BLA BLA BLA BLA BLA BLA BLA BLA BLA BLA BLA BLA BLA BLA BLA BLA BLA BLA BLA 
BLA BLA BLA BLA BLA BLA BLA BLA BLA BLA BLA BLA BLA BLA BLA BLA BLA BLA BLA BLA 
BLA BLA BLA BLA BLA BLA BLA BLA BLA BLA BLA BLA BLA BLA BLA BLA BLA BLA BLA BLA 
BLA BLA BLA BLA BLA BLA BLA BLA BLA BLA BLA BLA BLA BLA BLA BLA BLA BLA BLA BLA 
BLA BLA BLA BLA BLA BLA BLA BLA BLA BLA BLA BLA BLA BLA BLA BLA BLA BLA BLA BLA 
BLA BLA BLA BLA BLA BLA BLA BLA BLA BLA BLA BLA BLA BLA BLA BLA BLA BLA BLA BLA 
BLA BLA BLA BLA BLA BLA BLA BLA BLA BLA BLA BLA BLA BLA BLA BLA BLA BLA BLA BLA 
BLA BLA BLA BLA BLA BLA BLA BLA BLA BLA BLA BLA BLA BLA BLA BLA BLA BLA BLA BLA 
BLA BLA BLA BLA BLA BLA BLA BLA BLA BLA BLA BLA BLA BLA BLA BLA BLA BLA BLA BLA 
BLA BLA BLA BLA BLA BLA BLA BLA BLA BLA BLA BLA BLA BLA BLA BLA BLA BLA BLA BLA 
BLA BLA BLA BLA BLA BLA BLA BLA BLA BLA BLA BLA BLA BLA BLA BLA BLA BLA BLA BLA 
BLA BLA BLA BLA BLA BLA BLA BLA BLA BLA BLA BLA BLA BLA BLA BLA BLA BLA BLA BLA 
BLA BLA BLA BLA BLA BLA BLA BLA BLA BLA BLA BLA BLA BLA BLA BLA BLA BLA BLA BLA 
BLA BLA BLA BLA BLA BLA BLA BLA BLA BLA BLA BLA BLA BLA BLA BLA BLA BLA BLA BLA 
BLA BLA BLA BLA BLA BLA BLA BLA BLA BLA BLA BLA BLA BLA BLA BLA BLA BLA BLA BLA 
BLA BLA BLA BLA BLA BLA BLA BLA BLA BLA BLA BLA BLA BLA BLA BLA BLA BLA BLA BLA 
BLA BLA BLA BLA BLA BLA BLA BLA BLA BLA BLA BLA BLA BLA BLA BLA BLA BLA BLA BLA 
BLA BLA BLA BLA BLA BLA BLA BLA BLA BLA BLA BLA BLA BLA BLA BLA BLA BLA BLA BLA 
BLA BLA BLA BLA BLA BLA BLA BLA BLA BLA BLA BLA BLA BLA BLA BLA BLA BLA BLA BLA 
BLA BLA BLA BLA BLA BLA BLA BLA BLA BLA BLA BLA BLA BLA BLA BLA BLA BLA BLA BLA 
BLA BLA BLA BLA BLA BLA BLA BLA BLA BLA BLA BLA BLA BLA BLA BLA BLA BLA BLA BLA 
BLA BLA BLA BLA BLA BLA BLA BLA BLA BLA BLA BLA BLA BLA BLA BLA BLA BLA BLA BLA 
BLA BLA BLA BLA BLA BLA BLA BLA BLA BLA BLA BLA BLA BLA BLA BLA BLA BLA BLA BLA 
BLA BLA BLA BLA BLA BLA BLA BLA BLA BLA BLA BLA BLA BLA BLA BLA BLA BLA BLA BLA 
BLA BLA BLA BLA BLA BLA BLA BLA BLA BLA BLA BLA BLA BLA BLA BLA BLA BLA BLA BLA 
BLA BLA BLA BLA BLA BLA BLA BLA BLA BLA BLA BLA BLA BLA BLA BLA BLA BLA BLA BLA 
BLA BLA BLA BLA BLA BLA BLA BLA BLA BLA BLA BLA BLA BLA BLA BLA BLA BLA BLA BLA 
BLA BLA BLA BLA BLA BLA BLA BLA BLA BLA BLA BLA BLA BLA BLA BLA BLA BLA BLA BLA 
BLA BLA BLA BLA BLA BLA BLA BLA BLA BLA BLA BLA BLA BLA BLA BLA BLA BLA BLA BLA 
BLA BLA BLA BLA BLA BLA BLA BLA BLA BLA BLA BLA BLA BLA BLA BLA BLA BLA BLA BLA 
BLA BLA BLA BLA BLA BLA BLA BLA BLA BLA BLA BLA BLA BLA BLA BLA BLA BLA BLA BLA 
BLA BLA BLA BLA BLA BLA BLA BLA BLA BLA BLA BLA BLA BLA BLA BLA BLA BLA BLA BLA 
BLA BLA BLA BLA BLA BLA BLA BLA BLA BLA BLA BLA BLA BLA BLA BLA BLA BLA BLA BLA 
BLA BLA BLA BLA BLA BLA BLA BLA BLA BLA BLA BLA BLA BLA BLA BLA BLA BLA BLA BLA 
BLA BLA BLA BLA BLA BLA BLA BLA BLA BLA BLA BLA BLA BLA BLA BLA BLA BLA BLA BLA 
BLA BLA BLA BLA BLA BLA BLA BLA BLA BLA BLA BLA BLA BLA BLA BLA BLA BLA BLA BLA 
BLA BLA BLA BLA BLA BLA BLA BLA BLA BLA BLA BLA BLA BLA BLA BLA BLA BLA BLA BLA 
BLA BLA BLA BLA BLA BLA BLA BLA BLA BLA BLA BLA BLA BLA BLA BLA BLA BLA BLA BLA 
BLA BLA BLA BLA BLA BLA BLA BLA BLA BLA BLA BLA BLA BLA BLA BLA BLA BLA BLA BLA 
BLA BLA BLA BLA BLA BLA BLA BLA BLA BLA BLA BLA BLA BLA BLA BLA BLA BLA BLA BLA 
BLA BLA BLA BLA BLA BLA BLA BLA BLA BLA BLA BLA BLA BLA BLA BLA BLA BLA BLA BLA 
BLA BLA BLA BLA BLA BLA BLA BLA BLA BLA BLA BLA BLA BLA BLA BLA BLA BLA BLA BLA 
BLA BLA BLA BLA BLA BLA BLA BLA BLA BLA BLA BLA BLA BLA BLA BLA BLA BLA BLA BLA 
BLA BLA BLA BLA BLA BLA BLA BLA BLA BLA BLA BLA BLA BLA BLA BLA BLA BLA BLA BLA 
BLA BLA BLA BLA BLA BLA BLA BLA BLA BLA BLA BLA BLA BLA BLA BLA BLA BLA BLA BLA 
BLA BLA BLA BLA BLA BLA BLA BLA BLA BLA BLA BLA BLA BLA BLA BLA BLA BLA BLA BLA 
BLA BLA BLA BLA BLA BLA BLA BLA BLA BLA BLA BLA BLA BLA BLA BLA BLA BLA BLA BLA 
BLA BLA BLA BLA BLA BLA BLA BLA BLA BLA BLA BLA BLA BLA BLA BLA BLA BLA BLA BLA 
BLA BLA BLA BLA BLA BLA BLA BLA BLA BLA BLA BLA BLA BLA BLA BLA BLA BLA BLA BLA 
BLA BLA BLA BLA BLA BLA BLA BLA BLA BLA BLA BLA BLA BLA BLA BLA BLA BLA BLA BLA 
BLA BLA BLA BLA BLA BLA BLA BLA BLA BLA BLA BLA BLA BLA BLA BLA BLA BLA BLA BLA 
BLA BLA BLA BLA BLA BLA BLA BLA BLA BLA BLA BLA BLA BLA BLA BLA BLA BLA BLA BLA 
BLA BLA BLA BLA BLA BLA BLA BLA BLA BLA BLA BLA BLA BLA BLA BLA BLA BLA BLA BLA 
BLA BLA BLA BLA BLA BLA BLA BLA BLA BLA BLA BLA BLA BLA BLA BLA BLA BLA BLA BLA 
BLA BLA BLA BLA BLA BLA BLA BLA BLA BLA BLA BLA BLA BLA BLA BLA BLA BLA BLA BLA 
BLA BLA BLA BLA BLA BLA BLA BLA BLA BLA BLA BLA BLA BLA BLA BLA BLA BLA BLA BLA 
BLA BLA BLA BLA BLA BLA BLA BLA BLA BLA BLA BLA BLA BLA BLA BLA BLA BLA BLA BLA 
BLA BLA BLA BLA BLA BLA BLA BLA BLA BLA BLA BLA BLA BLA BLA BLA BLA BLA BLA BLA 
BLA BLA BLA BLA BLA BLA BLA BLA BLA BLA BLA BLA BLA BLA BLA BLA BLA BLA BLA BLA 
BLA BLA BLA BLA BLA BLA BLA BLA BLA BLA BLA BLA BLA BLA BLA BLA BLA BLA BLA BLA 
BLA BLA BLA BLA BLA BLA BLA BLA BLA BLA BLA BLA BLA BLA BLA BLA BLA BLA BLA BLA 
BLA BLA BLA BLA BLA BLA BLA BLA BLA BLA BLA BLA BLA BLA BLA BLA BLA BLA BLA BLA 
BLA BLA BLA BLA BLA BLA BLA BLA BLA BLA BLA BLA BLA BLA BLA BLA BLA BLA BLA BLA 
BLA BLA BLA BLA BLA BLA BLA BLA BLA BLA BLA BLA BLA BLA BLA BLA BLA BLA BLA BLA 
BLA BLA BLA BLA BLA BLA BLA BLA BLA BLA BLA BLA BLA BLA BLA BLA BLA BLA BLA BLA 
BLA BLA BLA BLA BLA BLA BLA BLA BLA BLA BLA BLA BLA BLA BLA BLA BLA BLA BLA BLA 
BLA BLA BLA BLA BLA BLA BLA BLA BLA BLA BLA BLA BLA BLA BLA BLA BLA BLA BLA BLA 
BLA BLA BLA BLA BLA BLA BLA BLA BLA BLA BLA BLA BLA BLA BLA BLA BLA BLA BLA BLA 
BLA BLA BLA BLA BLA BLA BLA BLA BLA BLA BLA BLA BLA BLA BLA BLA BLA BLA BLA BLA 
BLA BLA BLA BLA BLA BLA BLA BLA BLA BLA BLA BLA BLA BLA BLA BLA BLA BLA BLA BLA 
BLA BLA BLA BLA BLA BLA BLA BLA BLA BLA BLA BLA BLA BLA BLA BLA BLA BLA BLA BLA 
BLA BLA BLA BLA BLA BLA BLA BLA BLA BLA BLA BLA BLA BLA BLA BLA BLA BLA BLA BLA 
BLA BLA BLA BLA BLA BLA BLA BLA BLA BLA BLA BLA BLA BLA BLA BLA BLA BLA BLA BLA 
BLA BLA BLA BLA BLA BLA BLA BLA BLA BLA BLA BLA BLA BLA BLA BLA BLA BLA BLA BLA 
BLA BLA BLA BLA BLA BLA BLA BLA BLA BLA BLA BLA BLA BLA BLA BLA BLA BLA BLA BLA 
BLA BLA BLA BLA BLA BLA BLA BLA BLA BLA BLA BLA BLA BLA BLA BLA BLA BLA BLA BLA 
BLA BLA BLA BLA BLA BLA BLA BLA BLA BLA BLA BLA BLA BLA BLA BLA BLA BLA BLA BLA 
BLA BLA BLA BLA BLA BLA BLA BLA BLA BLA BLA BLA BLA BLA BLA BLA BLA BLA BLA BLA 
BLA BLA BLA BLA BLA BLA BLA BLA BLA BLA BLA BLA BLA BLA BLA BLA BLA BLA BLA BLA 
BLA BLA BLA BLA BLA BLA BLA BLA BLA BLA BLA BLA BLA BLA BLA BLA BLA BLA BLA BLA 
BLA BLA BLA BLA BLA BLA BLA BLA BLA BLA BLA BLA BLA BLA BLA BLA BLA BLA BLA BLA 
BLA BLA BLA BLA BLA BLA BLA BLA BLA BLA BLA BLA BLA BLA BLA BLA BLA BLA BLA BLA 
BLA BLA BLA BLA BLA BLA BLA BLA BLA BLA BLA BLA BLA BLA BLA BLA BLA BLA BLA BLA 
BLA BLA BLA BLA BLA BLA BLA BLA BLA BLA BLA BLA BLA BLA BLA BLA BLA BLA BLA BLA 
BLA BLA BLA BLA BLA BLA BLA BLA BLA BLA BLA BLA BLA BLA BLA BLA BLA BLA BLA BLA 
BLA BLA BLA BLA BLA BLA BLA BLA BLA BLA BLA BLA BLA BLA BLA BLA BLA BLA BLA BLA 
BLA BLA BLA BLA BLA BLA BLA BLA BLA BLA BLA BLA BLA BLA BLA BLA BLA BLA BLA BLA 
BLA BLA BLA BLA BLA BLA BLA BLA BLA BLA BLA BLA BLA BLA BLA BLA BLA BLA BLA BLA 
BLA BLA BLA BLA BLA BLA BLA BLA BLA BLA BLA BLA BLA BLA BLA BLA BLA BLA BLA BLA 
BLA BLA BLA BLA BLA BLA BLA BLA BLA BLA BLA BLA BLA BLA BLA BLA BLA BLA BLA BLA 
BLA BLA BLA BLA BLA BLA BLA BLA BLA BLA BLA BLA BLA BLA BLA BLA BLA BLA BLA BLA 
BLA BLA BLA BLA BLA BLA BLA BLA BLA BLA BLA BLA BLA BLA BLA BLA BLA BLA BLA BLA 
BLA BLA BLA BLA BLA BLA BLA BLA BLA BLA BLA BLA BLA BLA BLA BLA BLA BLA BLA BLA 
BLA BLA BLA BLA BLA BLA BLA BLA BLA BLA BLA BLA BLA BLA BLA BLA BLA BLA BLA BLA 
BLA BLA BLA BLA BLA BLA BLA BLA BLA BLA BLA BLA BLA BLA BLA BLA BLA BLA BLA BLA 
BLA BLA BLA BLA BLA BLA BLA BLA BLA BLA BLA BLA BLA BLA BLA BLA BLA BLA BLA BLA 
BLA BLA BLA BLA BLA BLA BLA BLA BLA BLA BLA BLA BLA BLA BLA BLA BLA BLA BLA BLA 
BLA BLA BLA BLA BLA BLA BLA BLA BLA BLA BLA BLA BLA BLA BLA BLA BLA BLA BLA BLA 
BLA BLA BLA BLA BLA BLA BLA BLA BLA BLA BLA BLA BLA BLA BLA BLA BLA BLA BLA BLA 
BLA BLA BLA BLA BLA BLA BLA BLA BLA BLA BLA BLA BLA BLA BLA BLA BLA BLA BLA BLA 
BLA BLA BLA BLA BLA BLA BLA BLA BLA BLA BLA BLA BLA BLA BLA BLA BLA BLA BLA BLA 
BLA BLA BLA BLA BLA BLA BLA BLA BLA BLA BLA BLA BLA BLA BLA BLA BLA BLA BLA BLA 
BLA BLA BLA BLA BLA BLA BLA BLA BLA BLA BLA BLA BLA BLA BLA BLA BLA BLA BLA BLA 
BLA BLA BLA BLA BLA BLA BLA BLA BLA BLA BLA BLA BLA BLA BLA BLA BLA BLA BLA BLA 
BLA BLA BLA BLA BLA BLA BLA BLA BLA BLA BLA BLA BLA BLA BLA BLA BLA BLA BLA BLA 
BLA BLA BLA BLA BLA BLA BLA BLA BLA BLA BLA BLA BLA BLA BLA BLA BLA BLA BLA BLA 
BLA BLA BLA BLA BLA BLA BLA BLA BLA BLA BLA BLA BLA BLA BLA BLA BLA BLA BLA BLA 
BLA BLA BLA BLA BLA BLA BLA BLA BLA BLA BLA BLA BLA BLA BLA BLA BLA BLA BLA BLA 
BLA BLA BLA BLA BLA BLA BLA BLA BLA BLA BLA BLA BLA BLA BLA BLA BLA BLA BLA BLA 
BLA BLA BLA BLA BLA BLA BLA BLA BLA BLA BLA BLA BLA BLA BLA BLA BLA BLA BLA BLA 
BLA BLA BLA BLA BLA BLA BLA BLA BLA BLA BLA BLA BLA BLA BLA BLA BLA BLA BLA BLA 
BLA BLA BLA BLA BLA BLA BLA BLA BLA BLA BLA BLA BLA BLA BLA BLA BLA BLA BLA BLA 
BLA BLA BLA BLA BLA BLA BLA BLA BLA BLA BLA BLA BLA BLA BLA BLA BLA BLA BLA BLA 
BLA BLA BLA BLA BLA BLA BLA BLA BLA BLA BLA BLA BLA BLA BLA BLA BLA BLA BLA BLA 
BLA BLA BLA BLA BLA BLA BLA BLA BLA BLA BLA BLA BLA BLA BLA BLA BLA BLA BLA BLA 
BLA BLA BLA BLA BLA BLA BLA BLA BLA BLA BLA BLA BLA BLA BLA BLA BLA BLA BLA BLA 
BLA BLA BLA BLA BLA BLA BLA BLA BLA BLA BLA BLA BLA BLA BLA BLA BLA BLA BLA BLA 
BLA BLA BLA BLA BLA BLA BLA BLA BLA BLA BLA BLA BLA BLA BLA BLA BLA BLA BLA BLA 
BLA BLA BLA BLA BLA BLA BLA BLA BLA BLA BLA BLA BLA BLA BLA BLA BLA BLA BLA BLA 
BLA BLA BLA BLA BLA BLA BLA BLA BLA BLA BLA BLA BLA BLA BLA BLA BLA BLA BLA BLA 
BLA BLA BLA BLA BLA BLA BLA BLA BLA BLA BLA BLA BLA BLA BLA BLA BLA BLA BLA BLA 
BLA BLA BLA BLA BLA BLA BLA BLA BLA BLA BLA BLA BLA BLA BLA BLA BLA BLA BLA BLA 
BLA BLA BLA BLA BLA BLA BLA BLA BLA BLA BLA BLA BLA BLA BLA BLA BLA BLA BLA BLA 
BLA BLA BLA BLA BLA BLA BLA BLA BLA BLA BLA BLA BLA BLA BLA BLA BLA BLA BLA BLA 
BLA BLA BLA BLA BLA BLA BLA BLA BLA BLA BLA BLA BLA BLA BLA BLA BLA BLA BLA BLA 
BLA BLA BLA BLA BLA BLA BLA BLA BLA BLA BLA BLA BLA BLA BLA BLA BLA BLA BLA BLA 
BLA BLA BLA BLA BLA BLA BLA BLA BLA BLA BLA BLA BLA BLA BLA BLA BLA BLA BLA BLA 
BLA BLA BLA BLA BLA BLA BLA BLA BLA BLA BLA BLA BLA BLA BLA BLA BLA BLA BLA BLA 
BLA BLA BLA BLA BLA BLA BLA BLA BLA BLA BLA BLA BLA BLA BLA BLA BLA BLA BLA BLA 
BLA BLA BLA BLA BLA BLA BLA BLA BLA BLA BLA BLA BLA BLA BLA BLA BLA BLA BLA BLA 
BLA BLA BLA BLA BLA BLA BLA BLA BLA BLA BLA BLA BLA BLA BLA BLA BLA BLA BLA BLA 
BLA BLA BLA BLA BLA BLA BLA BLA BLA BLA BLA BLA BLA BLA BLA BLA BLA BLA BLA BLA 
BLA BLA BLA BLA BLA BLA BLA BLA BLA BLA BLA BLA BLA BLA BLA BLA BLA BLA BLA BLA 
BLA BLA BLA BLA BLA BLA BLA BLA BLA BLA BLA BLA BLA BLA BLA BLA BLA BLA BLA BLA 
BLA BLA BLA BLA BLA BLA BLA BLA BLA BLA BLA BLA BLA BLA BLA BLA BLA BLA BLA BLA 
BLA BLA BLA BLA BLA BLA BLA BLA BLA BLA BLA BLA BLA BLA BLA BLA BLA BLA BLA BLA 
BLA BLA BLA BLA BLA BLA BLA BLA BLA BLA BLA BLA BLA BLA BLA BLA BLA BLA BLA BLA 
BLA BLA BLA BLA BLA BLA BLA BLA BLA BLA BLA BLA BLA BLA BLA BLA BLA BLA BLA BLA 
BLA BLA BLA BLA BLA BLA BLA BLA BLA BLA BLA BLA BLA BLA BLA BLA BLA BLA BLA BLA 
BLA BLA BLA BLA BLA BLA BLA BLA BLA BLA BLA BLA BLA BLA BLA BLA BLA BLA BLA BLA 
BLA BLA BLA BLA BLA BLA BLA BLA BLA BLA BLA BLA BLA BLA BLA BLA BLA BLA BLA BLA 
BLA BLA BLA BLA BLA BLA BLA BLA BLA BLA BLA BLA BLA BLA BLA BLA BLA BLA BLA BLA 
BLA BLA BLA BLA BLA BLA BLA BLA BLA BLA BLA BLA BLA BLA BLA BLA BLA BLA BLA BLA 
BLA BLA BLA BLA BLA BLA BLA BLA BLA BLA BLA BLA BLA BLA BLA BLA BLA BLA BLA BLA 
BLA BLA BLA BLA BLA BLA BLA BLA BLA BLA BLA BLA BLA BLA BLA BLA BLA BLA BLA BLA 
BLA BLA BLA BLA BLA BLA BLA BLA BLA BLA BLA BLA BLA BLA BLA BLA BLA BLA BLA BLA 
BLA BLA BLA BLA BLA BLA BLA BLA BLA BLA BLA BLA BLA BLA BLA BLA BLA BLA BLA BLA 
BLA BLA BLA BLA BLA BLA BLA BLA BLA BLA BLA BLA BLA BLA BLA BLA BLA BLA BLA BLA 
BLA BLA BLA BLA BLA BLA BLA BLA BLA BLA BLA BLA BLA BLA BLA BLA BLA BLA BLA BLA 
BLA BLA BLA BLA BLA BLA BLA BLA BLA BLA BLA BLA BLA BLA BLA BLA BLA BLA BLA BLA 
BLA BLA BLA BLA BLA BLA BLA BLA BLA BLA BLA BLA BLA BLA BLA BLA BLA BLA BLA BLA 
BLA BLA BLA BLA BLA BLA BLA BLA BLA BLA BLA BLA BLA BLA BLA BLA BLA BLA BLA BLA 
BLA BLA BLA BLA BLA BLA BLA BLA BLA BLA BLA BLA BLA BLA BLA BLA BLA BLA BLA BLA 
BLA BLA BLA BLA BLA BLA BLA BLA BLA BLA BLA BLA BLA BLA BLA BLA BLA BLA BLA BLA 
BLA BLA BLA BLA BLA BLA BLA BLA BLA BLA BLA BLA BLA BLA BLA BLA BLA BLA BLA BLA 
BLA BLA BLA BLA BLA BLA BLA BLA BLA BLA BLA BLA BLA BLA BLA BLA BLA BLA BLA BLA 
BLA BLA BLA BLA BLA BLA BLA BLA BLA BLA BLA BLA BLA BLA BLA BLA BLA BLA BLA BLA 
BLA BLA BLA BLA BLA BLA BLA BLA BLA BLA BLA BLA BLA BLA BLA BLA BLA BLA BLA BLA 
BLA BLA BLA BLA BLA BLA BLA BLA BLA BLA BLA BLA BLA BLA BLA BLA BLA BLA BLA BLA 
BLA BLA BLA BLA BLA BLA BLA BLA BLA BLA BLA BLA BLA BLA BLA BLA BLA BLA BLA BLA 
BLA BLA BLA BLA BLA BLA BLA BLA BLA BLA BLA BLA BLA BLA BLA BLA BLA BLA BLA BLA 
BLA BLA BLA BLA BLA BLA BLA BLA BLA BLA BLA BLA BLA BLA BLA BLA BLA BLA BLA BLA 
BLA BLA BLA BLA BLA BLA BLA BLA BLA BLA BLA BLA BLA BLA BLA BLA BLA BLA BLA BLA 
BLA BLA BLA BLA BLA BLA BLA BLA BLA BLA BLA BLA BLA BLA BLA BLA BLA BLA BLA BLA 
BLA BLA BLA BLA BLA BLA BLA BLA BLA BLA BLA BLA BLA BLA BLA BLA BLA BLA BLA BLA 
BLA BLA BLA BLA BLA BLA BLA BLA BLA BLA BLA BLA BLA BLA BLA BLA BLA BLA BLA BLA 
BLA BLA BLA BLA BLA BLA BLA BLA BLA BLA BLA BLA BLA BLA BLA BLA BLA BLA BLA BLA 
BLA BLA BLA BLA BLA BLA BLA BLA BLA BLA BLA BLA BLA BLA BLA BLA BLA BLA BLA BLA 
BLA BLA BLA BLA BLA BLA BLA BLA BLA BLA BLA BLA BLA BLA BLA BLA BLA BLA BLA BLA 
BLA BLA BLA BLA BLA BLA BLA BLA BLA BLA BLA BLA BLA BLA BLA BLA BLA BLA BLA BLA 
BLA BLA BLA BLA BLA BLA BLA BLA BLA BLA BLA BLA BLA BLA BLA BLA BLA BLA BLA BLA 
BLA BLA BLA BLA BLA BLA BLA BLA BLA BLA BLA BLA BLA BLA BLA BLA BLA BLA BLA BLA 
BLA BLA BLA BLA BLA BLA BLA BLA BLA BLA BLA BLA BLA BLA BLA BLA BLA BLA BLA BLA 
BLA BLA BLA BLA BLA BLA BLA BLA BLA BLA BLA BLA BLA BLA BLA BLA BLA BLA BLA BLA 
BLA BLA BLA BLA BLA BLA BLA BLA BLA BLA BLA BLA BLA BLA BLA BLA BLA BLA BLA BLA 
BLA BLA BLA BLA BLA BLA BLA BLA BLA BLA BLA BLA BLA BLA BLA BLA BLA BLA BLA BLA 
BLA BLA BLA BLA BLA BLA BLA BLA BLA BLA BLA BLA BLA BLA BLA BLA BLA BLA BLA BLA 
BLA BLA BLA BLA BLA BLA BLA BLA BLA BLA BLA BLA BLA BLA BLA BLA BLA BLA BLA BLA 
BLA BLA BLA BLA BLA BLA BLA BLA BLA BLA BLA BLA BLA BLA BLA BLA BLA BLA BLA BLA 
BLA BLA BLA BLA BLA BLA BLA BLA BLA BLA BLA BLA BLA BLA BLA BLA BLA BLA BLA BLA 
BLA BLA BLA BLA BLA BLA BLA BLA BLA BLA BLA BLA BLA BLA BLA BLA BLA BLA BLA BLA 
BLA BLA BLA BLA BLA BLA BLA BLA BLA BLA BLA BLA BLA BLA BLA BLA BLA BLA BLA BLA 
BLA BLA BLA BLA BLA BLA BLA BLA BLA BLA BLA BLA BLA BLA BLA BLA BLA BLA BLA BLA 
BLA BLA BLA BLA BLA BLA BLA BLA BLA BLA BLA BLA BLA BLA BLA BLA BLA BLA BLA BLA 
BLA BLA BLA BLA BLA BLA BLA BLA BLA BLA BLA BLA BLA BLA BLA BLA BLA BLA BLA BLA 
BLA BLA BLA BLA BLA BLA BLA BLA BLA BLA BLA BLA BLA BLA BLA BLA BLA BLA BLA BLA 
BLA BLA BLA BLA BLA BLA BLA BLA BLA BLA BLA BLA BLA BLA BLA BLA BLA BLA BLA BLA 
BLA BLA BLA BLA BLA BLA BLA BLA BLA BLA BLA BLA BLA BLA BLA BLA BLA BLA BLA BLA 
BLA BLA BLA BLA BLA BLA BLA BLA BLA BLA BLA BLA BLA BLA BLA BLA BLA BLA BLA BLA 
BLA BLA BLA BLA BLA BLA BLA BLA BLA BLA BLA BLA BLA BLA BLA BLA BLA BLA BLA BLA 
BLA BLA BLA BLA BLA BLA BLA BLA BLA BLA BLA BLA BLA BLA BLA BLA BLA BLA BLA BLA 
BLA BLA BLA BLA BLA BLA BLA BLA BLA BLA BLA BLA BLA BLA BLA BLA BLA BLA BLA BLA 
BLA BLA BLA BLA BLA BLA BLA BLA BLA BLA BLA BLA BLA BLA BLA BLA BLA BLA BLA BLA 
BLA BLA BLA BLA BLA BLA BLA BLA BLA BLA BLA BLA BLA BLA BLA BLA BLA BLA BLA BLA 
BLA BLA BLA BLA BLA BLA BLA BLA BLA BLA BLA BLA BLA BLA BLA BLA BLA BLA BLA BLA 
BLA BLA BLA BLA BLA BLA BLA BLA BLA BLA BLA BLA BLA BLA BLA BLA BLA BLA BLA BLA 
BLA BLA BLA BLA BLA BLA BLA BLA BLA BLA BLA BLA BLA BLA BLA BLA BLA BLA BLA BLA 
BLA BLA BLA BLA BLA BLA BLA BLA BLA BLA BLA BLA BLA BLA BLA BLA BLA BLA BLA BLA 
BLA BLA BLA BLA BLA BLA BLA BLA BLA BLA BLA BLA BLA BLA BLA BLA BLA BLA BLA BLA 
BLA BLA BLA BLA BLA BLA BLA BLA BLA BLA BLA BLA BLA BLA BLA BLA BLA BLA BLA BLA 
BLA BLA BLA BLA BLA BLA BLA BLA BLA BLA BLA BLA BLA BLA BLA BLA BLA BLA BLA BLA 
BLA BLA BLA BLA BLA BLA BLA BLA BLA BLA BLA BLA BLA BLA BLA BLA BLA BLA BLA BLA 
BLA BLA BLA BLA BLA BLA BLA BLA BLA BLA BLA BLA BLA BLA BLA BLA BLA BLA BLA BLA 
BLA BLA BLA BLA BLA BLA BLA BLA BLA BLA BLA BLA BLA BLA BLA BLA BLA BLA BLA BLA 
BLA BLA BLA BLA BLA BLA BLA BLA BLA BLA BLA BLA BLA BLA BLA BLA BLA BLA BLA BLA 
BLA BLA BLA BLA BLA BLA BLA BLA BLA BLA BLA BLA BLA BLA BLA BLA BLA BLA BLA BLA 
BLA BLA BLA BLA BLA BLA BLA BLA BLA BLA BLA BLA BLA BLA BLA BLA BLA BLA BLA BLA 
BLA BLA BLA BLA BLA BLA BLA BLA BLA BLA BLA BLA BLA BLA BLA BLA BLA BLA BLA BLA 
BLA BLA BLA BLA BLA BLA BLA BLA BLA BLA BLA BLA BLA BLA BLA BLA BLA BLA BLA BLA 
BLA BLA BLA BLA BLA BLA BLA BLA BLA BLA BLA BLA BLA BLA BLA BLA BLA BLA BLA BLA 
BLA BLA BLA BLA BLA BLA BLA BLA BLA BLA BLA BLA BLA BLA BLA BLA BLA BLA BLA BLA 
BLA BLA BLA BLA BLA BLA BLA BLA BLA BLA BLA BLA BLA BLA BLA BLA BLA BLA BLA BLA 
BLA BLA BLA BLA BLA BLA BLA BLA BLA BLA BLA BLA BLA BLA BLA BLA BLA BLA BLA BLA 
BLA BLA BLA BLA BLA BLA BLA BLA BLA BLA BLA BLA BLA BLA BLA BLA BLA BLA BLA BLA 
BLA BLA BLA BLA BLA BLA BLA BLA BLA BLA BLA BLA BLA BLA BLA BLA BLA BLA BLA BLA 
BLA BLA BLA BLA BLA BLA BLA BLA BLA BLA BLA BLA BLA BLA BLA BLA BLA BLA BLA BLA 
BLA BLA BLA BLA BLA BLA BLA BLA BLA BLA BLA BLA BLA BLA BLA BLA BLA BLA BLA BLA 
BLA BLA BLA BLA BLA BLA BLA BLA BLA BLA BLA BLA BLA BLA BLA BLA BLA BLA BLA BLA 
BLA BLA BLA BLA BLA BLA BLA BLA BLA BLA BLA BLA BLA BLA BLA BLA BLA BLA BLA BLA 
BLA BLA BLA BLA BLA BLA BLA BLA BLA BLA BLA BLA BLA BLA BLA BLA BLA BLA BLA BLA 
BLA BLA BLA BLA BLA BLA BLA BLA BLA BLA BLA BLA BLA BLA BLA BLA BLA BLA BLA BLA 
BLA BLA BLA BLA BLA BLA BLA BLA BLA BLA BLA BLA BLA BLA BLA BLA BLA BLA BLA BLA 
BLA BLA BLA BLA BLA BLA BLA BLA BLA BLA BLA BLA BLA BLA BLA BLA BLA BLA BLA BLA 
BLA BLA BLA BLA BLA BLA BLA BLA BLA BLA BLA BLA BLA BLA BLA BLA BLA BLA BLA BLA 
BLA BLA BLA BLA BLA BLA BLA BLA BLA BLA BLA BLA BLA BLA BLA BLA BLA BLA BLA BLA 
BLA BLA BLA BLA BLA BLA BLA BLA BLA BLA BLA BLA BLA BLA BLA BLA BLA BLA BLA BLA 
BLA BLA BLA BLA BLA BLA BLA BLA BLA BLA BLA BLA BLA BLA BLA BLA BLA BLA BLA BLA 
BLA BLA BLA BLA BLA BLA BLA BLA BLA BLA BLA BLA BLA BLA BLA BLA BLA BLA BLA BLA 
BLA BLA BLA BLA BLA BLA BLA BLA BLA BLA BLA BLA BLA BLA BLA BLA BLA BLA BLA BLA 
BLA BLA BLA BLA BLA BLA BLA BLA BLA BLA BLA BLA BLA BLA BLA BLA BLA BLA BLA BLA 
BLA BLA BLA BLA BLA BLA BLA BLA BLA BLA BLA BLA BLA BLA BLA BLA BLA BLA BLA BLA 
BLA BLA BLA BLA BLA BLA BLA BLA BLA BLA BLA BLA BLA BLA BLA BLA BLA BLA BLA BLA 
BLA BLA BLA BLA BLA BLA BLA BLA BLA BLA BLA BLA BLA BLA BLA BLA BLA BLA BLA BLA 
BLA BLA BLA BLA BLA BLA BLA BLA BLA BLA BLA BLA BLA BLA BLA BLA BLA BLA BLA BLA 
BLA BLA BLA BLA BLA BLA BLA BLA BLA BLA BLA BLA BLA BLA BLA BLA BLA BLA BLA BLA 
BLA BLA BLA BLA BLA BLA BLA BLA BLA BLA BLA BLA BLA BLA BLA BLA BLA BLA BLA BLA 
BLA BLA BLA BLA BLA BLA BLA BLA BLA BLA BLA BLA BLA BLA BLA BLA BLA BLA BLA BLA 
BLA BLA BLA BLA BLA BLA BLA BLA BLA BLA BLA BLA BLA BLA BLA BLA BLA BLA BLA BLA 
BLA BLA BLA BLA BLA BLA BLA BLA BLA BLA BLA BLA BLA BLA BLA BLA BLA BLA BLA BLA 
BLA BLA BLA BLA BLA BLA BLA BLA BLA BLA BLA BLA BLA BLA BLA BLA BLA BLA BLA BLA 
BLA BLA BLA BLA BLA BLA BLA BLA BLA BLA BLA BLA BLA BLA BLA BLA BLA BLA BLA BLA 
BLA BLA BLA BLA BLA BLA BLA BLA BLA BLA BLA BLA BLA BLA BLA BLA BLA BLA BLA BLA 
BLA BLA BLA BLA BLA BLA BLA BLA BLA BLA BLA BLA BLA BLA BLA BLA BLA BLA BLA BLA 
BLA BLA BLA BLA BLA BLA BLA BLA BLA BLA BLA BLA BLA BLA BLA BLA BLA BLA BLA BLA 
BLA BLA BLA BLA BLA BLA BLA BLA BLA BLA BLA BLA BLA BLA BLA BLA BLA BLA BLA BLA 
BLA BLA BLA BLA BLA BLA BLA BLA BLA BLA BLA BLA BLA BLA BLA BLA BLA BLA BLA BLA 
BLA BLA BLA BLA BLA BLA BLA BLA BLA BLA BLA BLA BLA BLA BLA BLA BLA BLA BLA BLA 
BLA BLA BLA BLA BLA BLA BLA BLA BLA BLA BLA BLA BLA BLA BLA BLA BLA BLA BLA BLA 
BLA BLA BLA BLA BLA BLA BLA BLA BLA BLA BLA BLA BLA BLA BLA BLA BLA BLA BLA BLA 
BLA BLA BLA BLA BLA BLA BLA BLA BLA BLA BLA BLA BLA BLA BLA BLA BLA BLA BLA BLA 
BLA BLA BLA BLA BLA BLA BLA BLA BLA BLA BLA BLA BLA BLA BLA BLA BLA BLA BLA BLA 
BLA BLA BLA BLA BLA BLA BLA BLA BLA BLA BLA BLA BLA BLA BLA BLA BLA BLA BLA BLA 
BLA BLA BLA BLA BLA BLA BLA BLA BLA BLA BLA BLA BLA BLA BLA BLA BLA BLA BLA BLA 
BLA BLA BLA BLA BLA BLA BLA BLA BLA BLA BLA BLA BLA BLA BLA BLA BLA BLA BLA BLA 
BLA BLA BLA BLA BLA BLA BLA BLA BLA BLA BLA BLA BLA BLA BLA BLA BLA BLA BLA BLA 
BLA BLA BLA BLA BLA BLA BLA BLA BLA BLA BLA BLA BLA BLA BLA BLA BLA BLA BLA BLA 
BLA BLA BLA BLA BLA BLA BLA BLA BLA BLA BLA BLA BLA BLA BLA BLA BLA BLA BLA BLA 
BLA BLA BLA BLA BLA BLA BLA BLA BLA BLA BLA BLA BLA BLA BLA BLA BLA BLA BLA BLA 
BLA BLA BLA BLA BLA BLA BLA BLA BLA BLA BLA BLA BLA BLA BLA BLA BLA BLA BLA BLA 
BLA BLA BLA BLA BLA BLA BLA BLA BLA BLA BLA BLA BLA BLA BLA BLA BLA BLA BLA BLA 
BLA BLA BLA BLA BLA BLA BLA BLA BLA BLA BLA BLA BLA BLA BLA BLA BLA BLA BLA BLA 
BLA BLA BLA BLA BLA BLA BLA BLA BLA BLA BLA BLA BLA BLA BLA BLA BLA BLA BLA BLA 
BLA BLA BLA BLA BLA BLA BLA BLA BLA BLA BLA BLA BLA BLA BLA BLA BLA BLA BLA BLA 
BLA BLA BLA BLA BLA BLA BLA BLA BLA BLA BLA BLA BLA BLA BLA BLA BLA BLA BLA BLA 
BLA BLA BLA BLA BLA BLA BLA BLA BLA BLA BLA BLA BLA BLA BLA BLA BLA BLA BLA BLA 
BLA BLA BLA BLA BLA BLA BLA BLA BLA BLA BLA BLA BLA BLA BLA BLA BLA BLA BLA BLA 
BLA BLA BLA BLA BLA BLA BLA BLA BLA BLA BLA BLA BLA BLA BLA BLA BLA BLA BLA BLA 
BLA BLA BLA BLA BLA BLA BLA BLA BLA BLA BLA BLA BLA BLA BLA BLA BLA BLA BLA BLA 
BLA BLA BLA BLA BLA BLA BLA BLA BLA BLA BLA BLA BLA BLA BLA BLA BLA BLA BLA BLA 
BLA BLA BLA BLA BLA BLA BLA BLA BLA BLA BLA BLA BLA BLA BLA BLA BLA BLA BLA BLA 
BLA BLA BLA BLA BLA BLA BLA BLA BLA BLA BLA BLA BLA BLA BLA BLA BLA BLA BLA BLA 
BLA BLA BLA BLA BLA BLA BLA BLA BLA BLA BLA BLA BLA BLA BLA BLA BLA BLA BLA BLA 
BLA BLA BLA BLA BLA BLA BLA BLA BLA BLA BLA BLA BLA BLA BLA BLA BLA BLA BLA BLA 
BLA BLA BLA BLA BLA BLA BLA BLA BLA BLA BLA BLA BLA BLA BLA BLA BLA BLA BLA BLA 
BLA BLA BLA BLA BLA BLA BLA BLA BLA BLA BLA BLA BLA BLA BLA BLA BLA BLA BLA BLA 
BLA BLA BLA BLA BLA BLA BLA BLA BLA BLA BLA BLA BLA BLA BLA BLA BLA BLA BLA BLA 
BLA BLA BLA BLA BLA BLA BLA BLA BLA BLA BLA BLA BLA BLA BLA BLA BLA BLA BLA BLA 
BLA BLA BLA BLA BLA BLA BLA BLA BLA BLA BLA BLA BLA BLA BLA BLA BLA BLA BLA BLA 
BLA BLA BLA BLA BLA BLA BLA BLA BLA BLA BLA BLA BLA BLA BLA BLA BLA BLA BLA BLA 
BLA BLA BLA BLA BLA BLA BLA BLA BLA BLA BLA BLA BLA BLA BLA BLA BLA BLA BLA BLA 
BLA BLA BLA BLA BLA BLA BLA BLA BLA BLA BLA BLA BLA BLA BLA BLA BLA BLA BLA BLA 
BLA BLA BLA BLA BLA BLA BLA BLA BLA BLA BLA BLA BLA BLA BLA BLA BLA BLA BLA BLA 
BLA BLA BLA BLA BLA BLA BLA BLA BLA BLA BLA BLA BLA BLA BLA BLA BLA BLA BLA BLA 
BLA BLA BLA BLA BLA BLA BLA BLA BLA BLA BLA BLA BLA BLA BLA BLA BLA BLA BLA BLA 
BLA BLA BLA BLA BLA BLA BLA BLA BLA BLA BLA BLA BLA BLA BLA BLA BLA BLA BLA BLA 
BLA BLA BLA BLA BLA BLA BLA BLA BLA BLA BLA BLA BLA BLA BLA BLA BLA BLA BLA BLA 
BLA BLA BLA BLA BLA BLA BLA BLA BLA BLA BLA BLA BLA BLA BLA BLA BLA BLA BLA BLA 
BLA BLA BLA BLA BLA BLA BLA BLA BLA BLA BLA BLA BLA BLA BLA BLA BLA BLA BLA BLA 
BLA BLA BLA BLA BLA BLA BLA BLA BLA BLA BLA BLA BLA BLA BLA BLA BLA BLA BLA BLA 
BLA BLA BLA BLA BLA BLA BLA BLA BLA BLA BLA BLA BLA BLA BLA BLA BLA BLA BLA BLA 
BLA BLA BLA BLA BLA BLA BLA BLA BLA BLA BLA BLA BLA BLA BLA BLA BLA BLA BLA BLA 
BLA BLA BLA BLA BLA BLA BLA BLA BLA BLA BLA BLA BLA BLA BLA BLA BLA BLA BLA BLA 
BLA BLA BLA BLA BLA BLA BLA BLA BLA BLA BLA BLA BLA BLA BLA BLA BLA BLA BLA BLA 
BLA BLA BLA BLA BLA BLA BLA BLA BLA BLA BLA BLA BLA BLA BLA BLA BLA BLA BLA BLA 
BLA BLA BLA BLA BLA BLA BLA BLA BLA BLA BLA BLA BLA BLA BLA BLA BLA BLA BLA BLA 
BLA BLA BLA BLA BLA BLA BLA BLA BLA BLA BLA BLA BLA BLA BLA BLA BLA BLA BLA BLA 
BLA BLA BLA BLA BLA BLA BLA BLA BLA BLA BLA BLA BLA BLA BLA BLA BLA BLA BLA BLA 
BLA BLA BLA BLA BLA BLA BLA BLA BLA BLA BLA BLA BLA BLA BLA BLA BLA BLA BLA BLA 
BLA BLA BLA BLA BLA BLA BLA BLA BLA BLA BLA BLA BLA BLA BLA BLA BLA BLA BLA BLA 
BLA BLA BLA BLA BLA BLA BLA BLA BLA BLA BLA BLA BLA BLA BLA BLA BLA BLA BLA BLA 
BLA BLA BLA BLA BLA BLA BLA BLA BLA BLA BLA BLA BLA BLA BLA BLA BLA BLA BLA BLA 
BLA BLA BLA BLA BLA BLA BLA BLA BLA BLA BLA BLA BLA BLA BLA BLA BLA BLA BLA BLA 
BLA BLA BLA BLA BLA BLA BLA BLA BLA BLA BLA BLA BLA BLA BLA BLA BLA BLA BLA BLA 
BLA BLA BLA BLA BLA BLA BLA BLA BLA BLA BLA BLA BLA BLA BLA BLA BLA BLA BLA BLA 
BLA BLA BLA BLA BLA BLA BLA BLA BLA BLA BLA BLA BLA BLA BLA BLA BLA BLA BLA BLA 
BLA BLA BLA BLA BLA BLA BLA BLA BLA BLA BLA BLA BLA BLA BLA BLA BLA BLA BLA BLA 
BLA BLA BLA BLA BLA BLA BLA BLA BLA BLA BLA BLA BLA BLA BLA BLA BLA BLA BLA BLA 
BLA BLA BLA BLA BLA BLA BLA BLA BLA BLA BLA BLA BLA BLA BLA BLA BLA BLA BLA BLA 
BLA BLA BLA BLA BLA BLA BLA BLA BLA BLA BLA BLA BLA BLA BLA BLA BLA BLA BLA BLA 
BLA BLA BLA BLA BLA BLA BLA BLA BLA BLA BLA BLA BLA BLA BLA BLA BLA BLA BLA BLA 
BLA BLA BLA BLA BLA BLA BLA BLA BLA BLA BLA BLA BLA BLA BLA BLA BLA BLA BLA BLA 
BLA BLA BLA BLA BLA BLA BLA BLA BLA BLA BLA BLA BLA BLA BLA BLA BLA BLA BLA BLA 
BLA BLA BLA BLA BLA BLA BLA BLA BLA BLA BLA BLA BLA BLA BLA BLA BLA BLA BLA BLA 
BLA BLA BLA BLA BLA BLA BLA BLA BLA BLA BLA BLA BLA BLA BLA BLA BLA BLA BLA BLA 
BLA BLA BLA BLA BLA BLA BLA BLA BLA BLA BLA BLA BLA BLA BLA BLA BLA BLA BLA BLA 
BLA BLA BLA BLA BLA BLA BLA BLA BLA BLA BLA BLA BLA BLA BLA BLA BLA BLA BLA BLA 
BLA BLA BLA BLA BLA BLA BLA BLA BLA BLA BLA BLA BLA BLA BLA BLA BLA BLA BLA BLA 
BLA BLA BLA BLA BLA BLA BLA BLA BLA BLA BLA BLA BLA BLA BLA BLA BLA BLA BLA BLA 
BLA BLA BLA BLA BLA BLA BLA BLA BLA BLA BLA BLA BLA BLA BLA BLA BLA BLA BLA BLA 
BLA BLA BLA BLA BLA BLA BLA BLA BLA BLA BLA BLA BLA BLA BLA BLA BLA BLA BLA BLA 
BLA BLA BLA BLA BLA BLA BLA BLA BLA BLA BLA BLA BLA BLA BLA BLA BLA BLA BLA BLA 
BLA BLA BLA BLA BLA BLA BLA BLA BLA BLA BLA BLA BLA BLA BLA BLA BLA BLA BLA BLA 
BLA BLA BLA BLA BLA BLA BLA BLA BLA BLA BLA BLA BLA BLA BLA BLA BLA BLA BLA BLA 
BLA BLA BLA BLA BLA BLA BLA BLA BLA BLA BLA BLA BLA BLA BLA BLA BLA BLA BLA BLA 
BLA BLA BLA BLA BLA BLA BLA BLA BLA BLA BLA BLA BLA BLA BLA BLA BLA BLA BLA BLA 
BLA BLA BLA BLA BLA BLA BLA BLA BLA BLA BLA BLA BLA BLA BLA BLA BLA BLA BLA BLA 
BLA BLA BLA BLA BLA BLA BLA BLA BLA BLA BLA BLA BLA BLA BLA BLA BLA BLA BLA BLA 
BLA BLA BLA BLA BLA BLA BLA BLA BLA BLA BLA BLA BLA BLA BLA BLA BLA BLA BLA BLA 
BLA BLA BLA BLA BLA BLA BLA BLA BLA BLA BLA BLA BLA BLA BLA BLA BLA BLA BLA BLA 
BLA BLA BLA BLA BLA BLA BLA BLA BLA BLA BLA BLA BLA BLA BLA BLA BLA BLA BLA BLA 
BLA BLA BLA BLA BLA BLA BLA BLA BLA BLA BLA BLA BLA BLA BLA BLA BLA BLA BLA BLA 
BLA BLA BLA BLA BLA BLA BLA BLA BLA BLA BLA BLA BLA BLA BLA BLA BLA BLA BLA BLA 
BLA BLA BLA BLA BLA BLA BLA BLA BLA BLA BLA BLA BLA BLA BLA BLA BLA BLA BLA BLA 
BLA BLA BLA BLA BLA BLA BLA BLA BLA BLA BLA BLA BLA BLA BLA BLA BLA BLA BLA BLA 
BLA BLA BLA BLA BLA BLA BLA BLA BLA BLA BLA BLA BLA BLA BLA BLA BLA BLA BLA BLA 
BLA BLA BLA BLA BLA BLA BLA BLA BLA BLA BLA BLA BLA BLA BLA BLA BLA BLA BLA BLA 
BLA BLA BLA BLA BLA BLA BLA BLA BLA BLA BLA BLA BLA BLA BLA BLA BLA BLA BLA BLA 
BLA BLA BLA BLA BLA BLA BLA BLA BLA BLA BLA BLA BLA BLA BLA BLA BLA BLA BLA BLA 
BLA BLA BLA BLA BLA BLA BLA BLA BLA BLA BLA BLA BLA BLA BLA BLA BLA BLA BLA BLA 
BLA BLA BLA BLA BLA BLA BLA BLA BLA BLA BLA BLA BLA BLA BLA BLA BLA BLA BLA BLA 
BLA BLA BLA BLA BLA BLA BLA BLA BLA BLA BLA BLA BLA BLA BLA BLA BLA BLA BLA BLA 
BLA BLA BLA BLA BLA BLA BLA BLA BLA BLA BLA BLA BLA BLA BLA BLA BLA BLA BLA BLA 
BLA BLA BLA BLA BLA BLA BLA BLA BLA BLA BLA BLA BLA BLA BLA BLA BLA BLA BLA BLA 
BLA BLA BLA BLA BLA BLA BLA BLA BLA BLA BLA BLA BLA BLA BLA BLA BLA BLA BLA BLA 
BLA BLA BLA BLA BLA BLA BLA BLA BLA BLA BLA BLA BLA BLA BLA BLA BLA BLA BLA BLA 
BLA BLA BLA BLA BLA BLA BLA BLA BLA BLA BLA BLA BLA BLA BLA BLA BLA BLA BLA BLA 
BLA BLA BLA BLA BLA BLA BLA BLA BLA BLA BLA BLA BLA BLA BLA BLA BLA BLA BLA BLA 
BLA BLA BLA BLA BLA BLA BLA BLA BLA BLA BLA BLA BLA BLA BLA BLA BLA BLA BLA BLA 
BLA BLA BLA BLA BLA BLA BLA BLA BLA BLA BLA BLA BLA BLA BLA BLA BLA BLA BLA BLA 
BLA BLA BLA BLA BLA BLA BLA BLA BLA BLA BLA BLA BLA BLA BLA BLA BLA BLA BLA BLA 
BLA BLA BLA BLA BLA BLA BLA BLA BLA BLA BLA BLA BLA BLA BLA BLA BLA BLA BLA BLA 
BLA BLA BLA BLA BLA BLA BLA BLA BLA BLA BLA BLA BLA BLA BLA BLA BLA BLA BLA BLA 
BLA BLA BLA BLA BLA BLA BLA BLA BLA BLA BLA BLA BLA BLA BLA BLA BLA BLA BLA BLA 
BLA BLA BLA BLA BLA BLA BLA BLA BLA BLA BLA BLA BLA BLA BLA BLA BLA BLA BLA BLA 
BLA BLA BLA BLA BLA BLA BLA BLA BLA BLA BLA BLA BLA BLA BLA BLA BLA BLA BLA BLA 
BLA BLA BLA BLA BLA BLA BLA BLA BLA BLA BLA BLA BLA BLA BLA BLA BLA BLA BLA BLA 
BLA BLA BLA BLA BLA BLA BLA BLA BLA BLA BLA BLA BLA BLA BLA BLA BLA BLA BLA BLA 
BLA BLA BLA BLA BLA BLA BLA BLA BLA BLA BLA BLA BLA BLA BLA BLA BLA BLA BLA BLA 
BLA BLA BLA BLA BLA BLA BLA BLA BLA BLA BLA BLA BLA BLA BLA BLA BLA BLA BLA BLA 
BLA BLA BLA BLA BLA BLA BLA BLA BLA BLA BLA BLA BLA BLA BLA BLA BLA BLA BLA BLA 
BLA BLA BLA BLA BLA BLA BLA BLA BLA BLA BLA BLA BLA BLA BLA BLA BLA BLA BLA BLA 
BLA BLA BLA BLA BLA BLA BLA BLA BLA BLA BLA BLA BLA BLA BLA BLA BLA BLA BLA BLA 
BLA BLA BLA BLA BLA BLA BLA BLA BLA BLA BLA BLA BLA BLA BLA BLA BLA BLA BLA BLA 
BLA BLA BLA BLA BLA BLA BLA BLA BLA BLA BLA BLA BLA BLA BLA BLA BLA BLA BLA BLA 
BLA BLA BLA BLA BLA BLA BLA BLA BLA BLA BLA BLA BLA BLA BLA BLA BLA BLA BLA BLA 
BLA BLA BLA BLA BLA BLA BLA BLA BLA BLA BLA BLA BLA BLA BLA BLA BLA BLA BLA BLA 
BLA BLA BLA BLA BLA BLA BLA BLA BLA BLA BLA BLA BLA BLA BLA BLA BLA BLA BLA BLA 
BLA BLA BLA BLA BLA BLA BLA BLA BLA BLA BLA BLA BLA BLA BLA BLA BLA BLA BLA BLA 
BLA BLA BLA BLA BLA BLA BLA BLA BLA BLA BLA BLA BLA BLA BLA BLA BLA BLA BLA BLA 
BLA BLA BLA BLA BLA BLA BLA BLA BLA BLA BLA BLA BLA BLA BLA BLA BLA BLA BLA BLA 
BLA BLA BLA BLA BLA BLA BLA BLA BLA BLA BLA BLA BLA BLA BLA BLA BLA BLA BLA BLA 
BLA BLA BLA BLA BLA BLA BLA BLA BLA BLA BLA BLA BLA BLA BLA BLA BLA BLA BLA BLA 
BLA BLA BLA BLA BLA BLA BLA BLA BLA BLA BLA BLA BLA BLA BLA BLA BLA BLA BLA BLA 
BLA BLA BLA BLA BLA BLA BLA BLA BLA BLA BLA BLA BLA BLA BLA BLA BLA BLA BLA BLA 
BLA BLA BLA BLA BLA BLA BLA BLA BLA BLA BLA BLA BLA BLA BLA BLA BLA BLA BLA BLA 
BLA BLA BLA BLA BLA BLA BLA BLA BLA BLA BLA BLA BLA BLA BLA BLA BLA BLA BLA BLA 
BLA BLA BLA BLA BLA BLA BLA BLA BLA BLA BLA BLA BLA BLA BLA BLA BLA BLA BLA BLA 
BLA BLA BLA BLA BLA BLA BLA BLA BLA BLA BLA BLA BLA BLA BLA BLA BLA BLA BLA BLA 
BLA BLA BLA BLA BLA BLA BLA BLA BLA BLA BLA BLA BLA BLA BLA BLA BLA BLA BLA BLA 
BLA BLA BLA BLA BLA BLA BLA BLA BLA BLA BLA BLA BLA BLA BLA BLA BLA BLA BLA BLA 
BLA BLA BLA BLA BLA BLA BLA BLA BLA BLA BLA BLA BLA BLA BLA BLA BLA BLA BLA BLA 
BLA BLA BLA BLA BLA BLA BLA BLA BLA BLA BLA BLA BLA BLA BLA BLA BLA BLA BLA BLA 
BLA BLA BLA BLA BLA BLA BLA BLA BLA BLA BLA BLA BLA BLA BLA BLA BLA BLA BLA BLA 
BLA BLA BLA BLA BLA BLA BLA BLA BLA BLA BLA BLA BLA BLA BLA BLA BLA BLA BLA BLA 
BLA BLA BLA BLA BLA BLA BLA BLA BLA BLA BLA BLA BLA BLA BLA BLA BLA BLA BLA BLA 
BLA BLA BLA BLA BLA BLA BLA BLA BLA BLA BLA BLA BLA BLA BLA BLA BLA BLA BLA BLA 
BLA BLA BLA BLA BLA BLA BLA BLA BLA BLA BLA BLA BLA BLA BLA BLA BLA BLA BLA BLA 
BLA BLA BLA BLA BLA BLA BLA BLA BLA BLA BLA BLA BLA BLA BLA BLA BLA BLA BLA BLA 
BLA BLA BLA BLA BLA BLA BLA BLA BLA BLA BLA BLA BLA BLA BLA BLA BLA BLA BLA BLA 
BLA BLA BLA BLA BLA BLA BLA BLA BLA BLA BLA BLA BLA BLA BLA BLA BLA BLA BLA BLA 
BLA BLA BLA BLA BLA BLA BLA BLA BLA BLA BLA BLA BLA BLA BLA BLA BLA BLA BLA BLA 
BLA BLA BLA BLA BLA BLA BLA BLA BLA BLA BLA BLA BLA BLA BLA BLA BLA BLA BLA BLA 
BLA BLA BLA BLA BLA BLA BLA BLA BLA BLA BLA BLA BLA BLA BLA BLA BLA BLA BLA BLA 
BLA BLA BLA BLA BLA BLA BLA BLA BLA BLA BLA BLA BLA BLA BLA BLA BLA BLA BLA BLA 
BLA BLA BLA BLA BLA BLA BLA BLA BLA BLA BLA BLA BLA BLA BLA BLA BLA BLA BLA BLA 
BLA BLA BLA BLA BLA BLA BLA BLA BLA BLA BLA BLA BLA BLA BLA BLA BLA BLA BLA BLA 
BLA BLA BLA BLA BLA BLA BLA BLA BLA BLA BLA BLA BLA BLA BLA BLA BLA BLA BLA BLA 
BLA BLA BLA BLA BLA BLA BLA BLA BLA BLA BLA BLA BLA BLA BLA BLA BLA BLA BLA BLA 
BLA BLA BLA BLA BLA BLA BLA BLA BLA BLA BLA BLA BLA BLA BLA BLA BLA BLA BLA BLA 
BLA BLA BLA BLA BLA BLA BLA BLA BLA BLA BLA BLA BLA BLA BLA BLA BLA BLA BLA BLA 
BLA BLA BLA BLA BLA BLA BLA BLA BLA BLA BLA BLA BLA BLA BLA BLA BLA BLA BLA BLA 
BLA BLA BLA BLA BLA BLA BLA BLA BLA BLA BLA BLA BLA BLA BLA BLA BLA BLA BLA BLA 
BLA BLA BLA BLA BLA BLA BLA BLA BLA BLA BLA BLA BLA BLA BLA BLA BLA BLA BLA BLA 
BLA BLA BLA BLA BLA BLA BLA BLA BLA BLA BLA BLA BLA BLA BLA BLA BLA BLA BLA BLA 
BLA BLA BLA BLA BLA BLA BLA BLA BLA BLA BLA BLA BLA BLA BLA BLA BLA BLA BLA BLA 
BLA BLA BLA BLA BLA BLA BLA BLA BLA BLA BLA BLA BLA BLA BLA BLA BLA BLA BLA BLA 
BLA BLA BLA BLA BLA BLA BLA BLA BLA BLA BLA BLA BLA BLA BLA BLA BLA BLA BLA BLA 
BLA BLA BLA BLA BLA BLA BLA BLA BLA BLA BLA BLA BLA BLA BLA BLA BLA BLA BLA BLA 
BLA BLA BLA BLA BLA BLA BLA BLA BLA BLA BLA BLA BLA BLA BLA BLA BLA BLA BLA BLA 
BLA BLA BLA BLA BLA BLA BLA BLA BLA BLA BLA BLA BLA BLA BLA BLA BLA BLA BLA BLA 
BLA BLA BLA BLA BLA BLA BLA BLA BLA BLA BLA BLA BLA BLA BLA BLA BLA BLA BLA BLA 
BLA BLA BLA BLA BLA BLA BLA BLA BLA BLA BLA BLA BLA BLA BLA BLA BLA BLA BLA BLA 
BLA BLA BLA BLA BLA BLA BLA BLA BLA BLA BLA BLA BLA BLA BLA BLA BLA BLA BLA BLA 
BLA BLA BLA BLA BLA BLA BLA BLA BLA BLA BLA BLA BLA BLA BLA BLA BLA BLA BLA BLA 
BLA BLA BLA BLA BLA BLA BLA BLA BLA BLA BLA BLA BLA BLA BLA BLA BLA BLA BLA BLA 
BLA BLA BLA BLA BLA BLA BLA BLA BLA BLA BLA BLA BLA BLA BLA BLA BLA BLA BLA BLA 
BLA BLA BLA BLA BLA BLA BLA BLA BLA BLA BLA BLA BLA BLA BLA BLA BLA BLA BLA BLA 
BLA BLA BLA BLA BLA BLA BLA BLA BLA BLA BLA BLA BLA BLA BLA BLA BLA BLA BLA BLA 
BLA BLA BLA BLA BLA BLA BLA BLA BLA BLA BLA BLA BLA BLA BLA BLA BLA BLA BLA BLA 
BLA BLA BLA BLA BLA BLA BLA BLA BLA BLA BLA BLA BLA BLA BLA BLA BLA BLA BLA BLA 
BLA BLA BLA BLA BLA BLA BLA BLA BLA BLA BLA BLA BLA BLA BLA BLA BLA BLA BLA BLA 
BLA BLA BLA BLA BLA BLA BLA BLA BLA BLA BLA BLA BLA BLA BLA BLA BLA BLA BLA BLA 
BLA BLA BLA BLA BLA BLA BLA BLA BLA BLA BLA BLA BLA BLA BLA BLA BLA BLA BLA BLA 
BLA BLA BLA BLA BLA BLA BLA BLA BLA BLA BLA BLA BLA BLA BLA BLA BLA BLA BLA BLA 
BLA BLA BLA BLA BLA BLA BLA BLA BLA BLA BLA BLA BLA BLA BLA BLA BLA BLA BLA BLA 
BLA BLA BLA BLA BLA BLA BLA BLA BLA BLA BLA BLA BLA BLA BLA BLA BLA BLA BLA BLA 
BLA BLA BLA BLA BLA BLA BLA BLA BLA BLA BLA BLA BLA BLA BLA BLA BLA BLA BLA BLA 
BLA BLA BLA BLA BLA BLA BLA BLA BLA BLA BLA BLA BLA BLA BLA BLA BLA BLA BLA BLA 
BLA BLA BLA BLA BLA BLA BLA BLA BLA BLA BLA BLA BLA BLA BLA BLA BLA BLA BLA BLA 
BLA BLA BLA BLA BLA BLA BLA BLA BLA BLA BLA BLA BLA BLA BLA BLA BLA BLA BLA BLA 
BLA BLA BLA BLA BLA BLA BLA BLA BLA BLA BLA BLA BLA BLA BLA BLA BLA BLA BLA BLA 
BLA BLA BLA BLA BLA BLA BLA BLA BLA BLA BLA BLA BLA BLA BLA BLA BLA BLA BLA BLA 
BLA BLA BLA BLA BLA BLA BLA BLA BLA BLA BLA BLA BLA BLA BLA BLA BLA BLA BLA BLA 
BLA BLA BLA BLA BLA BLA BLA BLA BLA BLA BLA BLA BLA BLA BLA BLA BLA BLA BLA BLA 
BLA BLA BLA BLA BLA BLA BLA BLA BLA BLA BLA BLA BLA BLA BLA BLA BLA BLA BLA BLA 
BLA BLA BLA BLA BLA BLA BLA BLA BLA BLA BLA BLA BLA BLA BLA BLA BLA BLA BLA BLA 
BLA BLA BLA BLA BLA BLA BLA BLA BLA BLA BLA BLA BLA BLA BLA BLA BLA BLA BLA BLA 
BLA BLA BLA BLA BLA BLA BLA BLA BLA BLA BLA BLA BLA BLA BLA BLA BLA BLA BLA BLA 
BLA BLA BLA BLA BLA BLA BLA BLA BLA BLA BLA BLA BLA BLA BLA BLA BLA BLA BLA BLA 
BLA BLA BLA BLA BLA BLA BLA BLA BLA BLA BLA BLA BLA BLA BLA BLA BLA BLA BLA BLA 
BLA BLA BLA BLA BLA BLA BLA BLA BLA BLA BLA BLA BLA BLA BLA BLA BLA BLA BLA BLA 
BLA BLA BLA BLA BLA BLA BLA BLA BLA BLA BLA BLA BLA BLA BLA BLA BLA BLA BLA BLA 
BLA BLA BLA BLA BLA BLA BLA BLA BLA BLA BLA BLA BLA BLA BLA BLA BLA BLA BLA BLA 
BLA BLA BLA BLA BLA BLA BLA BLA BLA BLA BLA BLA BLA BLA BLA BLA BLA BLA BLA BLA 
BLA BLA BLA BLA BLA BLA BLA BLA BLA BLA BLA BLA BLA BLA BLA BLA BLA BLA BLA BLA 
BLA BLA BLA BLA BLA BLA BLA BLA BLA BLA BLA BLA BLA BLA BLA BLA BLA BLA BLA BLA 
BLA BLA BLA BLA BLA BLA BLA BLA BLA BLA BLA BLA BLA BLA BLA BLA BLA BLA BLA BLA 
BLA BLA BLA BLA BLA BLA BLA BLA BLA BLA BLA BLA BLA BLA BLA BLA BLA BLA BLA BLA 
BLA BLA BLA BLA BLA BLA BLA BLA BLA BLA BLA BLA BLA BLA BLA BLA BLA BLA BLA BLA 
BLA BLA BLA BLA BLA BLA BLA BLA BLA BLA BLA BLA BLA BLA BLA BLA BLA BLA BLA BLA 
BLA BLA BLA BLA BLA BLA BLA BLA BLA BLA BLA BLA BLA BLA BLA BLA BLA BLA BLA BLA 
BLA BLA BLA BLA BLA BLA BLA BLA BLA BLA BLA BLA BLA BLA BLA BLA BLA BLA BLA BLA 
BLA BLA BLA BLA BLA BLA BLA BLA BLA BLA BLA BLA BLA BLA BLA BLA BLA BLA BLA BLA 
BLA BLA BLA BLA BLA BLA BLA BLA BLA BLA BLA BLA BLA BLA BLA BLA BLA BLA BLA BLA 
BLA BLA BLA BLA BLA BLA BLA BLA BLA BLA BLA BLA BLA BLA BLA BLA BLA BLA BLA BLA 
BLA BLA BLA BLA BLA BLA BLA BLA BLA BLA BLA BLA BLA BLA BLA BLA BLA BLA BLA BLA 
BLA BLA BLA BLA BLA BLA BLA BLA BLA BLA BLA BLA BLA BLA BLA BLA BLA BLA BLA BLA 
BLA BLA BLA BLA BLA BLA BLA BLA BLA BLA BLA BLA BLA BLA BLA BLA BLA BLA BLA BLA 
BLA BLA BLA BLA BLA BLA BLA BLA BLA BLA BLA BLA BLA BLA BLA BLA BLA BLA BLA BLA 
BLA BLA BLA BLA BLA BLA BLA BLA BLA BLA BLA BLA BLA BLA BLA BLA BLA BLA BLA BLA 
BLA BLA BLA BLA BLA BLA BLA BLA BLA BLA BLA BLA BLA BLA BLA BLA BLA BLA BLA BLA 
BLA BLA BLA BLA BLA BLA BLA BLA BLA BLA BLA BLA BLA BLA BLA BLA BLA BLA BLA BLA 
BLA BLA BLA BLA BLA BLA BLA BLA BLA BLA BLA BLA BLA BLA BLA BLA BLA BLA BLA BLA 
BLA BLA BLA BLA BLA BLA BLA BLA BLA BLA BLA BLA BLA BLA BLA BLA BLA BLA BLA BLA 
BLA BLA BLA BLA BLA BLA BLA BLA BLA BLA BLA BLA BLA BLA BLA BLA BLA BLA BLA BLA 
BLA BLA BLA BLA BLA BLA BLA BLA BLA BLA BLA BLA BLA BLA BLA BLA BLA BLA BLA BLA 
BLA BLA BLA BLA BLA BLA BLA BLA BLA BLA BLA BLA BLA BLA BLA BLA BLA BLA BLA BLA 
BLA BLA BLA BLA BLA BLA BLA BLA BLA BLA BLA BLA BLA BLA BLA BLA BLA BLA BLA BLA 
BLA BLA BLA BLA BLA BLA BLA BLA BLA BLA BLA BLA BLA BLA BLA BLA BLA BLA BLA BLA 
BLA BLA BLA BLA BLA BLA BLA BLA BLA BLA BLA BLA BLA BLA BLA BLA BLA BLA BLA BLA 
BLA BLA BLA BLA BLA BLA BLA BLA BLA BLA BLA BLA BLA BLA BLA BLA BLA BLA BLA BLA 
BLA BLA BLA BLA BLA BLA BLA BLA BLA BLA BLA BLA BLA BLA BLA BLA BLA BLA BLA BLA 
BLA BLA BLA BLA BLA BLA BLA BLA BLA BLA BLA BLA BLA BLA BLA BLA BLA BLA BLA BLA 
BLA BLA BLA BLA BLA BLA BLA BLA BLA BLA BLA BLA BLA BLA BLA BLA BLA BLA BLA BLA 
BLA BLA BLA BLA BLA BLA BLA BLA BLA BLA BLA BLA BLA BLA BLA BLA BLA BLA BLA BLA 
BLA BLA BLA BLA BLA BLA BLA BLA BLA BLA BLA BLA BLA BLA BLA BLA BLA BLA BLA BLA 
BLA BLA BLA BLA BLA BLA BLA BLA BLA BLA BLA BLA BLA BLA BLA BLA BLA BLA BLA BLA 
BLA BLA BLA BLA BLA BLA BLA BLA BLA BLA BLA BLA BLA BLA BLA BLA BLA BLA BLA BLA 
BLA BLA BLA BLA BLA BLA BLA BLA BLA BLA BLA BLA BLA BLA BLA BLA BLA BLA BLA BLA 
BLA BLA BLA BLA BLA BLA BLA BLA BLA BLA BLA BLA BLA BLA BLA BLA BLA BLA BLA BLA 
BLA BLA BLA BLA BLA BLA BLA BLA BLA BLA BLA BLA BLA BLA BLA BLA BLA BLA BLA BLA 
BLA BLA BLA BLA BLA BLA BLA BLA BLA BLA BLA BLA BLA BLA BLA BLA BLA BLA BLA BLA 
BLA BLA BLA BLA BLA BLA BLA BLA BLA BLA BLA BLA BLA BLA BLA BLA BLA BLA BLA BLA 
BLA BLA BLA BLA BLA BLA BLA BLA BLA BLA BLA BLA BLA BLA BLA BLA BLA BLA BLA BLA 
BLA BLA BLA BLA BLA BLA BLA BLA BLA BLA BLA BLA BLA BLA BLA BLA BLA BLA BLA BLA 
BLA BLA BLA BLA BLA BLA BLA BLA BLA BLA BLA BLA BLA BLA BLA BLA BLA BLA BLA BLA 
BLA BLA BLA BLA BLA BLA BLA BLA BLA BLA BLA BLA BLA BLA BLA BLA BLA BLA BLA BLA 
BLA BLA BLA BLA BLA BLA BLA BLA BLA BLA BLA BLA BLA BLA BLA BLA BLA BLA BLA BLA 
BLA BLA BLA BLA BLA BLA BLA BLA BLA BLA BLA BLA BLA BLA BLA BLA BLA BLA BLA BLA 
BLA BLA BLA BLA BLA BLA BLA BLA BLA BLA BLA BLA BLA BLA BLA BLA BLA BLA BLA BLA 
BLA BLA BLA BLA BLA BLA BLA BLA BLA BLA BLA BLA BLA BLA BLA BLA BLA BLA BLA BLA 
BLA BLA BLA BLA BLA BLA BLA BLA BLA BLA BLA BLA BLA BLA BLA BLA BLA BLA BLA BLA 
BLA BLA BLA BLA BLA BLA BLA BLA BLA BLA BLA BLA BLA BLA BLA BLA BLA BLA BLA BLA 
BLA BLA BLA BLA BLA BLA BLA BLA BLA BLA BLA BLA BLA BLA BLA BLA BLA BLA BLA BLA 
BLA BLA BLA BLA BLA BLA BLA BLA BLA BLA BLA BLA BLA BLA BLA BLA BLA BLA BLA BLA 
BLA BLA BLA BLA BLA BLA BLA BLA BLA BLA BLA BLA BLA BLA BLA BLA BLA BLA BLA BLA 
BLA BLA BLA BLA BLA BLA BLA BLA BLA BLA BLA BLA BLA BLA BLA BLA BLA BLA BLA BLA 
BLA BLA BLA BLA BLA BLA BLA BLA BLA BLA BLA BLA BLA BLA BLA BLA BLA BLA BLA BLA 
BLA BLA BLA BLA BLA BLA BLA BLA BLA BLA BLA BLA BLA BLA BLA BLA BLA BLA BLA BLA 
BLA BLA BLA BLA BLA BLA BLA BLA BLA BLA BLA BLA BLA BLA BLA BLA BLA BLA BLA BLA 
BLA BLA BLA BLA BLA BLA BLA BLA BLA BLA BLA BLA BLA BLA BLA BLA BLA BLA BLA BLA 
BLA BLA BLA BLA BLA BLA BLA BLA BLA BLA BLA BLA BLA BLA BLA BLA BLA BLA BLA BLA 
BLA BLA BLA BLA BLA BLA BLA BLA BLA BLA BLA BLA BLA BLA BLA BLA BLA BLA BLA BLA 
BLA BLA BLA BLA BLA BLA BLA BLA BLA BLA BLA BLA BLA BLA BLA BLA BLA BLA BLA BLA 
BLA BLA BLA BLA BLA BLA BLA BLA BLA BLA BLA BLA BLA BLA BLA BLA BLA BLA BLA BLA 
BLA BLA BLA BLA BLA BLA BLA BLA BLA BLA BLA BLA BLA BLA BLA BLA BLA BLA BLA BLA 
BLA BLA BLA BLA BLA BLA BLA BLA BLA BLA BLA BLA BLA BLA BLA BLA BLA BLA BLA BLA 
BLA BLA BLA BLA BLA BLA BLA BLA BLA BLA BLA BLA BLA BLA BLA BLA BLA BLA BLA BLA 
BLA BLA BLA BLA BLA BLA BLA BLA BLA BLA BLA BLA BLA BLA BLA BLA BLA BLA BLA BLA 
BLA BLA BLA BLA BLA BLA BLA BLA BLA BLA BLA BLA BLA BLA BLA BLA BLA BLA BLA BLA 
BLA BLA BLA BLA BLA BLA BLA BLA BLA BLA BLA BLA BLA BLA BLA BLA BLA BLA BLA BLA 
BLA BLA BLA BLA BLA BLA BLA BLA BLA BLA BLA BLA BLA BLA BLA BLA BLA BLA BLA BLA 
BLA BLA BLA BLA BLA BLA BLA BLA BLA BLA BLA BLA BLA BLA BLA BLA BLA BLA BLA BLA 
BLA BLA BLA BLA BLA BLA BLA BLA BLA BLA BLA BLA BLA BLA BLA BLA BLA BLA BLA BLA 
BLA BLA BLA BLA BLA BLA BLA BLA BLA BLA BLA BLA BLA BLA BLA BLA BLA BLA BLA BLA 
BLA BLA BLA BLA BLA BLA BLA BLA BLA BLA BLA BLA BLA BLA BLA BLA BLA BLA BLA BLA 
BLA BLA BLA BLA BLA BLA BLA BLA BLA BLA BLA BLA BLA BLA BLA BLA BLA BLA BLA BLA 
BLA BLA BLA BLA BLA BLA BLA BLA BLA BLA BLA BLA BLA BLA BLA BLA BLA BLA BLA BLA 
BLA BLA BLA BLA BLA BLA BLA BLA BLA BLA BLA BLA BLA BLA BLA BLA BLA BLA BLA BLA 
BLA BLA BLA BLA BLA BLA BLA BLA BLA BLA BLA BLA BLA BLA BLA BLA BLA BLA BLA BLA 
BLA BLA BLA BLA BLA BLA BLA BLA BLA BLA BLA BLA BLA BLA BLA BLA BLA BLA BLA BLA 
BLA BLA BLA BLA BLA BLA BLA BLA BLA BLA BLA BLA BLA BLA BLA BLA BLA BLA BLA BLA 
BLA BLA BLA BLA BLA BLA BLA BLA BLA BLA BLA BLA BLA BLA BLA BLA BLA BLA BLA BLA 
BLA BLA BLA BLA BLA BLA BLA BLA BLA BLA BLA BLA BLA BLA BLA BLA BLA BLA BLA BLA 
BLA BLA BLA BLA BLA BLA BLA BLA BLA BLA BLA BLA BLA BLA BLA BLA BLA BLA BLA BLA 
BLA BLA BLA BLA BLA BLA BLA BLA BLA BLA BLA BLA BLA BLA BLA BLA BLA BLA BLA BLA 
BLA BLA BLA BLA BLA BLA BLA BLA BLA BLA BLA BLA BLA BLA BLA BLA BLA BLA BLA BLA 
BLA BLA BLA BLA BLA BLA BLA BLA BLA BLA BLA BLA BLA BLA BLA BLA BLA BLA BLA BLA 
BLA BLA BLA BLA BLA BLA BLA BLA BLA BLA BLA BLA BLA BLA BLA BLA BLA BLA BLA BLA 
BLA BLA BLA BLA BLA BLA BLA BLA BLA BLA BLA BLA BLA BLA BLA BLA BLA BLA BLA BLA 
BLA BLA BLA BLA BLA BLA BLA BLA BLA BLA BLA BLA BLA BLA BLA BLA BLA BLA BLA BLA 
BLA BLA BLA BLA BLA BLA BLA BLA BLA BLA BLA BLA BLA BLA BLA BLA BLA BLA BLA BLA 
BLA BLA BLA BLA BLA BLA BLA BLA BLA BLA BLA BLA BLA BLA BLA BLA BLA BLA BLA BLA 
BLA BLA BLA BLA BLA BLA BLA BLA BLA BLA BLA BLA BLA BLA BLA BLA BLA BLA BLA BLA 
BLA BLA BLA BLA BLA BLA BLA BLA BLA BLA BLA BLA BLA BLA BLA BLA BLA BLA BLA BLA 
BLA BLA BLA BLA BLA BLA BLA BLA BLA BLA BLA BLA BLA BLA BLA BLA BLA BLA BLA BLA 
BLA BLA BLA BLA BLA BLA BLA BLA BLA BLA BLA BLA BLA BLA BLA BLA BLA BLA BLA BLA 
BLA BLA BLA BLA BLA BLA BLA BLA BLA BLA BLA BLA BLA BLA BLA BLA BLA BLA BLA BLA 
BLA BLA BLA BLA BLA BLA BLA BLA BLA BLA BLA BLA BLA BLA BLA BLA BLA BLA BLA BLA 
BLA BLA BLA BLA BLA BLA BLA BLA BLA BLA BLA BLA BLA BLA BLA BLA BLA BLA BLA BLA 
BLA BLA BLA BLA BLA BLA BLA BLA BLA BLA BLA BLA BLA BLA BLA BLA BLA BLA BLA BLA 
BLA BLA BLA BLA BLA BLA BLA BLA BLA BLA BLA BLA BLA BLA BLA BLA BLA BLA BLA BLA 
BLA BLA BLA BLA BLA BLA BLA BLA BLA BLA BLA BLA BLA BLA BLA BLA BLA BLA BLA BLA 
BLA BLA BLA BLA BLA BLA BLA BLA BLA BLA BLA BLA BLA BLA BLA BLA BLA BLA BLA BLA 
BLA BLA BLA BLA BLA BLA BLA BLA BLA BLA BLA BLA BLA BLA BLA BLA BLA BLA BLA BLA 
BLA BLA BLA BLA BLA BLA BLA BLA BLA BLA BLA BLA BLA BLA BLA BLA BLA BLA BLA BLA 
BLA BLA BLA BLA BLA BLA BLA BLA BLA BLA BLA BLA BLA BLA BLA BLA BLA BLA BLA BLA 
BLA BLA BLA BLA BLA BLA BLA BLA BLA BLA BLA BLA BLA BLA BLA BLA BLA BLA BLA BLA 
BLA BLA BLA BLA BLA BLA BLA BLA BLA BLA BLA BLA BLA BLA BLA BLA BLA BLA BLA BLA 
BLA BLA BLA BLA BLA BLA BLA BLA BLA BLA BLA BLA BLA BLA BLA BLA BLA BLA BLA BLA 
BLA BLA BLA BLA BLA BLA BLA BLA BLA BLA BLA BLA BLA BLA BLA BLA BLA BLA BLA BLA 
BLA BLA BLA BLA BLA BLA BLA BLA BLA BLA BLA BLA BLA BLA BLA BLA BLA BLA BLA BLA 
BLA BLA BLA BLA BLA BLA BLA BLA BLA BLA BLA BLA BLA BLA BLA BLA BLA BLA BLA BLA 
BLA BLA BLA BLA BLA BLA BLA BLA BLA BLA BLA BLA BLA BLA BLA BLA BLA BLA BLA BLA 
BLA BLA BLA BLA BLA BLA BLA BLA BLA BLA BLA BLA BLA BLA BLA BLA BLA BLA BLA BLA 
BLA BLA BLA BLA BLA BLA BLA BLA BLA BLA BLA BLA BLA BLA BLA BLA BLA BLA BLA BLA 
BLA BLA BLA BLA BLA BLA BLA BLA BLA BLA BLA BLA BLA BLA BLA BLA BLA BLA BLA BLA 
BLA BLA BLA BLA BLA BLA BLA BLA BLA BLA BLA BLA BLA BLA BLA BLA BLA BLA BLA BLA 
BLA BLA BLA BLA BLA BLA BLA BLA BLA BLA BLA BLA BLA BLA BLA BLA BLA BLA BLA BLA 
BLA BLA BLA BLA BLA BLA BLA BLA BLA BLA BLA BLA BLA BLA BLA BLA BLA BLA BLA BLA 
BLA BLA BLA BLA BLA BLA BLA BLA BLA BLA BLA BLA BLA BLA BLA BLA BLA BLA BLA BLA 
BLA BLA BLA BLA BLA BLA BLA BLA BLA BLA BLA BLA BLA BLA BLA BLA BLA BLA BLA BLA 
BLA BLA BLA BLA BLA BLA BLA BLA BLA BLA BLA BLA BLA BLA BLA BLA BLA BLA BLA BLA 
BLA BLA BLA BLA BLA BLA BLA BLA BLA BLA BLA BLA BLA BLA BLA BLA BLA BLA BLA BLA 
BLA BLA BLA BLA BLA BLA BLA BLA BLA BLA BLA BLA BLA BLA BLA BLA BLA BLA BLA BLA 
BLA BLA BLA BLA BLA BLA BLA BLA BLA BLA BLA BLA BLA BLA BLA BLA BLA BLA BLA BLA 
BLA BLA BLA BLA BLA BLA BLA BLA BLA BLA BLA BLA BLA BLA BLA BLA BLA BLA BLA BLA 
BLA BLA BLA BLA BLA BLA BLA BLA BLA BLA BLA BLA BLA BLA BLA BLA BLA BLA BLA BLA 
BLA BLA BLA BLA BLA BLA BLA BLA BLA BLA BLA BLA BLA BLA BLA BLA BLA BLA BLA BLA 
BLA BLA BLA BLA BLA BLA BLA BLA BLA BLA BLA BLA BLA BLA BLA BLA BLA BLA BLA BLA 
BLA BLA BLA BLA BLA BLA BLA BLA BLA BLA BLA BLA BLA BLA BLA BLA BLA BLA BLA BLA 
BLA BLA BLA BLA BLA BLA BLA BLA BLA BLA BLA BLA BLA BLA BLA BLA BLA BLA BLA BLA 
BLA BLA BLA BLA BLA BLA BLA BLA BLA BLA BLA BLA BLA BLA BLA BLA BLA BLA BLA BLA 
BLA BLA BLA BLA BLA BLA BLA BLA BLA BLA BLA BLA BLA BLA BLA BLA BLA BLA BLA BLA 
BLA BLA BLA BLA BLA BLA BLA BLA BLA BLA BLA BLA BLA BLA BLA BLA BLA BLA BLA BLA 
BLA BLA BLA BLA BLA BLA BLA BLA BLA BLA BLA BLA BLA BLA BLA BLA BLA BLA BLA BLA 
BLA BLA BLA BLA BLA BLA BLA BLA BLA BLA BLA BLA BLA BLA BLA BLA BLA BLA BLA BLA 
BLA BLA BLA BLA BLA BLA BLA BLA BLA BLA BLA BLA BLA BLA BLA BLA BLA BLA BLA BLA 
BLA BLA BLA BLA BLA BLA BLA BLA BLA BLA BLA BLA BLA BLA BLA BLA BLA BLA BLA BLA 
BLA BLA BLA BLA BLA BLA BLA BLA BLA BLA BLA BLA BLA BLA BLA BLA BLA BLA BLA BLA 
BLA BLA BLA BLA BLA BLA BLA BLA BLA BLA BLA BLA BLA BLA BLA BLA BLA BLA BLA BLA 
BLA BLA BLA BLA BLA BLA BLA BLA BLA BLA BLA BLA BLA BLA BLA BLA BLA BLA BLA BLA 
BLA BLA BLA BLA BLA BLA BLA BLA BLA BLA BLA BLA BLA BLA BLA BLA BLA BLA BLA BLA 
BLA BLA BLA BLA BLA BLA BLA BLA BLA BLA BLA BLA BLA BLA BLA BLA BLA BLA BLA BLA 
BLA BLA BLA BLA BLA BLA BLA BLA BLA BLA BLA BLA BLA BLA BLA BLA BLA BLA BLA BLA 
BLA BLA BLA BLA BLA BLA BLA BLA BLA BLA BLA BLA BLA BLA BLA BLA BLA BLA BLA BLA 
BLA BLA BLA BLA BLA BLA BLA BLA BLA BLA BLA BLA BLA BLA BLA BLA BLA BLA BLA BLA 
BLA BLA BLA BLA BLA BLA BLA BLA BLA BLA BLA BLA BLA BLA BLA BLA BLA BLA BLA BLA 
BLA BLA BLA BLA BLA BLA BLA BLA BLA BLA BLA BLA BLA BLA BLA BLA BLA BLA BLA BLA 
BLA BLA BLA BLA BLA BLA BLA BLA BLA BLA BLA BLA BLA BLA BLA BLA BLA BLA BLA BLA 
BLA BLA BLA BLA BLA BLA BLA BLA BLA BLA BLA BLA BLA BLA BLA BLA BLA BLA BLA BLA 
BLA BLA BLA BLA BLA BLA BLA BLA BLA BLA BLA BLA BLA BLA BLA BLA BLA BLA BLA BLA 
BLA BLA BLA BLA BLA BLA BLA BLA BLA BLA BLA BLA BLA BLA BLA BLA BLA BLA BLA BLA 
BLA BLA BLA BLA BLA BLA BLA BLA BLA BLA BLA BLA BLA BLA BLA BLA BLA BLA BLA BLA 
BLA BLA BLA BLA BLA BLA BLA BLA BLA BLA BLA BLA BLA BLA BLA BLA BLA BLA BLA BLA 
BLA BLA BLA BLA BLA BLA BLA BLA BLA BLA BLA BLA BLA BLA BLA BLA BLA BLA BLA BLA 
BLA BLA BLA BLA BLA BLA BLA BLA BLA BLA BLA BLA BLA BLA BLA BLA BLA BLA BLA BLA 
BLA BLA BLA BLA BLA BLA BLA BLA BLA BLA BLA BLA BLA BLA BLA BLA BLA BLA BLA BLA 
BLA BLA BLA BLA BLA BLA BLA BLA BLA BLA BLA BLA BLA BLA BLA BLA BLA BLA BLA BLA 
BLA BLA BLA BLA BLA BLA BLA BLA BLA BLA BLA BLA BLA BLA BLA BLA BLA BLA BLA BLA 
BLA BLA BLA BLA BLA BLA BLA BLA BLA BLA BLA BLA BLA BLA BLA BLA BLA BLA BLA BLA 
BLA BLA BLA BLA BLA BLA BLA BLA BLA BLA BLA BLA BLA BLA BLA BLA BLA BLA BLA BLA 
BLA BLA BLA BLA BLA BLA BLA BLA BLA BLA BLA BLA BLA BLA BLA BLA BLA BLA BLA BLA 
BLA BLA BLA BLA BLA BLA BLA BLA BLA BLA BLA BLA BLA BLA BLA BLA BLA BLA BLA BLA 
BLA BLA BLA BLA BLA BLA BLA BLA BLA BLA BLA BLA BLA BLA BLA BLA BLA BLA BLA BLA 
BLA BLA BLA BLA BLA BLA BLA BLA BLA BLA BLA BLA BLA BLA BLA BLA BLA BLA BLA BLA 
BLA BLA BLA BLA BLA BLA BLA BLA BLA BLA BLA BLA BLA BLA BLA BLA BLA BLA BLA BLA 
BLA BLA BLA BLA BLA BLA BLA BLA BLA BLA BLA BLA BLA BLA BLA BLA BLA BLA BLA BLA 
BLA BLA BLA BLA BLA BLA BLA BLA BLA BLA BLA BLA BLA BLA BLA BLA BLA BLA BLA BLA 
BLA BLA BLA BLA BLA BLA BLA BLA BLA BLA BLA BLA BLA BLA BLA BLA BLA BLA BLA BLA 
BLA BLA BLA BLA BLA BLA BLA BLA BLA BLA BLA BLA BLA BLA BLA BLA BLA BLA BLA BLA 
BLA BLA BLA BLA BLA BLA BLA BLA BLA BLA BLA BLA BLA BLA BLA BLA BLA BLA BLA BLA 
BLA BLA BLA BLA BLA BLA BLA BLA BLA BLA BLA BLA BLA BLA BLA BLA BLA BLA BLA BLA 
BLA BLA BLA BLA BLA BLA BLA BLA BLA BLA BLA BLA BLA BLA BLA BLA BLA BLA BLA BLA 
BLA BLA BLA BLA BLA BLA BLA BLA BLA BLA BLA BLA BLA BLA BLA BLA BLA BLA BLA BLA 
BLA BLA BLA BLA BLA BLA BLA BLA BLA BLA BLA BLA BLA BLA BLA BLA BLA BLA BLA BLA 
BLA BLA BLA BLA BLA BLA BLA BLA BLA BLA BLA BLA BLA BLA BLA BLA BLA BLA BLA BLA 
BLA BLA BLA BLA BLA BLA BLA BLA BLA BLA BLA BLA BLA BLA BLA BLA BLA BLA BLA BLA 
BLA BLA BLA BLA BLA BLA BLA BLA BLA BLA BLA BLA BLA BLA BLA BLA BLA BLA BLA BLA 
BLA BLA BLA BLA BLA BLA BLA BLA BLA BLA BLA BLA BLA BLA BLA BLA BLA BLA BLA BLA 
BLA BLA BLA BLA BLA BLA BLA BLA BLA BLA BLA BLA BLA BLA BLA BLA BLA BLA BLA BLA 
BLA BLA BLA BLA BLA BLA BLA BLA BLA BLA BLA BLA BLA BLA BLA BLA BLA BLA BLA BLA 
BLA BLA BLA BLA BLA BLA BLA BLA BLA BLA BLA BLA BLA BLA BLA BLA BLA BLA BLA BLA 
BLA BLA BLA BLA BLA BLA BLA BLA BLA BLA BLA BLA BLA BLA BLA BLA BLA BLA BLA BLA 
BLA BLA BLA BLA BLA BLA BLA BLA BLA BLA BLA BLA BLA BLA BLA BLA BLA BLA BLA BLA 
BLA BLA BLA BLA BLA BLA BLA BLA BLA BLA BLA BLA BLA BLA BLA BLA BLA BLA BLA BLA 
BLA BLA BLA BLA BLA BLA BLA BLA BLA BLA BLA BLA BLA BLA BLA BLA BLA BLA BLA BLA 
BLA BLA BLA BLA BLA BLA BLA BLA BLA BLA BLA BLA BLA BLA BLA BLA BLA BLA BLA BLA 
BLA BLA BLA BLA BLA BLA BLA BLA BLA BLA BLA BLA BLA BLA BLA BLA BLA BLA BLA BLA 
BLA BLA BLA BLA BLA BLA BLA BLA BLA BLA BLA BLA BLA BLA BLA BLA BLA BLA BLA BLA 
BLA BLA BLA BLA BLA BLA BLA BLA BLA BLA BLA BLA BLA BLA BLA BLA BLA BLA BLA BLA 
BLA BLA BLA BLA BLA BLA BLA BLA BLA BLA BLA BLA BLA BLA BLA BLA BLA BLA BLA BLA 
BLA BLA BLA BLA BLA BLA BLA BLA BLA BLA BLA BLA BLA BLA BLA BLA BLA BLA BLA BLA 
BLA BLA BLA BLA BLA BLA BLA BLA BLA BLA BLA BLA BLA BLA BLA BLA BLA BLA BLA BLA 
BLA BLA BLA BLA BLA BLA BLA BLA BLA BLA BLA BLA BLA BLA BLA BLA BLA BLA BLA BLA 
BLA BLA BLA BLA BLA BLA BLA BLA BLA BLA BLA BLA BLA BLA BLA BLA BLA BLA BLA BLA 
BLA BLA BLA BLA BLA BLA BLA BLA BLA BLA BLA BLA BLA BLA BLA BLA BLA BLA BLA BLA 
BLA BLA BLA BLA BLA BLA BLA BLA BLA BLA BLA BLA BLA BLA BLA BLA BLA BLA BLA BLA 
BLA BLA BLA BLA BLA BLA BLA BLA BLA BLA BLA BLA BLA BLA BLA BLA BLA BLA BLA BLA 
BLA BLA BLA BLA BLA BLA BLA BLA BLA BLA BLA BLA BLA BLA BLA BLA BLA BLA BLA BLA 
BLA BLA BLA BLA BLA BLA BLA BLA BLA BLA BLA BLA BLA BLA BLA BLA BLA BLA BLA BLA 
BLA BLA BLA BLA BLA BLA BLA BLA BLA BLA BLA BLA BLA BLA BLA BLA BLA BLA BLA BLA 
BLA BLA BLA BLA BLA BLA BLA BLA BLA BLA BLA BLA BLA BLA BLA BLA BLA BLA BLA BLA 
BLA BLA BLA BLA BLA BLA BLA BLA BLA BLA BLA BLA BLA BLA BLA BLA BLA BLA BLA BLA 
BLA BLA BLA BLA BLA BLA BLA BLA BLA BLA BLA BLA BLA BLA BLA BLA BLA BLA BLA BLA 
BLA BLA BLA BLA BLA BLA BLA BLA BLA BLA BLA BLA BLA BLA BLA BLA BLA BLA BLA BLA 
BLA BLA BLA BLA BLA BLA BLA BLA BLA BLA BLA BLA BLA BLA BLA BLA BLA BLA BLA BLA 
BLA BLA BLA BLA BLA BLA BLA BLA BLA BLA BLA BLA BLA BLA BLA BLA BLA BLA BLA BLA 
BLA BLA BLA BLA BLA BLA BLA BLA BLA BLA BLA BLA BLA BLA BLA BLA BLA BLA BLA BLA 
BLA BLA BLA BLA BLA BLA BLA BLA BLA BLA BLA BLA BLA BLA BLA BLA BLA BLA BLA BLA 
BLA BLA BLA BLA BLA BLA BLA BLA BLA BLA BLA BLA BLA BLA BLA BLA BLA BLA BLA BLA 
BLA BLA BLA BLA BLA BLA BLA BLA BLA BLA BLA BLA BLA BLA BLA BLA BLA BLA BLA BLA 
BLA BLA BLA BLA BLA BLA BLA BLA BLA BLA BLA BLA BLA BLA BLA BLA BLA BLA BLA BLA 
BLA BLA BLA BLA BLA BLA BLA BLA BLA BLA BLA BLA BLA BLA BLA BLA BLA BLA BLA BLA 
BLA BLA BLA BLA BLA BLA BLA BLA BLA BLA BLA BLA BLA BLA BLA BLA BLA BLA BLA BLA 
BLA BLA BLA BLA BLA BLA BLA BLA BLA BLA BLA BLA BLA BLA BLA BLA BLA BLA BLA BLA 
BLA BLA BLA BLA BLA BLA BLA BLA BLA BLA BLA BLA BLA BLA BLA BLA BLA BLA BLA BLA 
BLA BLA BLA BLA BLA BLA BLA BLA BLA BLA BLA BLA BLA BLA BLA BLA BLA BLA BLA BLA 
BLA BLA BLA BLA BLA BLA BLA BLA BLA BLA 
%FLAG JOIN_ARRAY                                                                
%FORMAT(10I8)                                                                   
       0       0       0       0       0       0       0       0       0       0
       0       0       0       0       0       0       0       0       0       0
       0       0       0       0       0       0       0       0       0       0
       0       0       0       0       0       0       0       0       0       0
       0       0       0       0       0       0       0       0       0       0
       0       0       0       0       0       0       0       0       0       0
       0       0       0       0       0       0       0       0       0       0
       0       0       0       0       0       0       0       0       0       0
       0       0       0       0       0       0       0       0       0       0
       0       0       0       0       0       0       0       0       0       0
       0       0       0       0       0       0       0       0       0       0
       0       0       0       0       0       0       0       0       0       0
       0       0       0       0       0       0       0       0       0       0
       0       0       0       0       0       0       0       0       0       0
       0       0       0       0       0       0       0       0       0       0
       0       0       0       0       0       0       0       0       0       0
       0       0       0       0       0       0       0       0       0       0
       0       0       0       0       0       0       0       0       0       0
       0       0       0       0       0       0       0       0       0       0
       0       0       0       0       0       0       0       0       0       0
       0       0       0       0       0       0       0       0       0       0
       0       0       0       0       0       0       0       0       0       0
       0       0       0       0       0       0       0       0       0       0
       0       0       0       0       0       0       0       0       0       0
       0       0       0       0       0       0       0       0       0       0
       0       0       0       0       0       0       0       0       0       0
       0       0       0       0       0       0       0       0       0       0
       0       0       0       0       0       0       0       0       0       0
       0       0       0       0       0       0       0       0       0       0
       0       0       0       0       0       0       0       0       0       0
       0       0       0       0       0       0       0       0       0       0
       0       0       0       0       0       0       0       0       0       0
       0       0       0       0       0       0       0       0       0       0
       0       0       0       0       0       0       0       0       0       0
       0       0       0       0       0       0       0       0       0       0
       0       0       0       0       0       0       0       0       0       0
       0       0       0       0       0       0       0       0       0       0
       0       0       0       0       0       0       0       0       0       0
       0       0       0       0       0       0       0       0       0       0
       0       0       0       0       0       0       0       0       0       0
       0       0       0       0       0       0       0       0       0       0
       0       0       0       0       0       0       0       0       0       0
       0       0       0       0       0       0       0       0       0       0
       0       0       0       0       0       0       0       0       0       0
       0       0       0       0       0       0       0       0       0       0
       0       0       0       0       0       0       0       0       0       0
       0       0       0       0       0       0       0       0       0       0
       0       0       0       0       0       0       0       0       0       0
       0       0       0       0       0       0       0       0       0       0
       0       0       0       0       0       0       0       0       0       0
       0       0       0       0       0       0       0       0       0       0
       0       0       0       0       0       0       0       0       0       0
       0       0       0       0       0       0       0       0       0       0
       0       0       0       0       0       0       0       0       0       0
       0       0       0       0       0       0       0       0       0       0
       0       0       0       0       0       0       0       0       0       0
       0       0       0       0       0       0       0       0       0       0
       0       0       0       0       0       0       0       0       0       0
       0       0       0       0       0       0       0       0       0       0
       0       0       0       0       0       0       0       0       0       0
       0       0       0       0       0       0       0       0       0       0
       0       0       0       0       0       0       0       0       0       0
       0       0       0       0       0       0       0       0       0       0
       0       0       0       0       0       0       0       0       0       0
       0       0       0       0       0       0       0       0       0       0
       0       0       0       0       0       0       0       0       0       0
       0       0       0       0       0       0       0       0       0       0
       0       0       0       0       0       0       0       0       0       0
       0       0       0       0       0       0       0       0       0       0
       0       0       0       0       0       0       0       0       0       0
       0       0       0       0       0       0       0       0       0       0
       0       0       0       0       0       0       0       0       0       0
       0       0       0       0       0       0       0       0       0       0
       0       0       0       0       0       0       0       0       0       0
       0       0       0       0       0       0       0       0       0       0
       0       0       0       0       0       0       0       0       0       0
       0       0       0       0       0       0       0       0       0       0
       0       0       0       0       0       0       0       0       0       0
       0       0       0       0       0       0       0       0       0       0
       0       0       0       0       0       0       0       0       0       0
       0       0       0       0       0       0       0       0       0       0
       0       0       0       0       0       0       0       0       0       0
       0       0       0       0       0       0       0       0       0       0
       0       0       0       0       0       0       0       0       0       0
       0       0       0       0       0       0       0       0       0       0
       0       0       0       0       0       0       0       0       0       0
       0       0       0       0       0       0       0       0       0       0
       0       0       0       0       0       0       0       0       0       0
       0       0       0       0       0       0       0       0       0       0
       0       0       0       0       0       0       0       0       0       0
       0       0       0       0       0       0       0       0       0       0
       0       0       0       0       0       0       0       0       0       0
       0       0       0       0       0       0       0       0       0       0
       0       0       0       0       0       0       0       0       0       0
       0       0       0       0       0       0       0       0       0       0
       0       0       0       0       0       0       0       0       0       0
       0       0       0       0       0       0       0       0       0       0
       0       0       0       0       0       0       0       0       0       0
       0       0       0       0       0       0       0       0       0       0
       0       0       0       0       0       0       0       0       0       0
       0       0       0       0       0       0       0       0       0       0
       0       0       0       0       0       0       0       0       0       0
       0       0       0       0       0       0       0       0       0       0
       0       0       0       0       0       0       0       0       0       0
       0       0       0       0       0       0       0       0       0       0
       0       0       0       0       0       0       0       0       0       0
       0       0       0       0       0       0       0       0       0       0
       0       0       0       0       0       0       0       0       0       0
       0       0       0       0       0       0       0       0       0       0
       0       0       0       0       0       0       0       0       0       0
       0       0       0       0       0       0       0       0       0       0
       0       0       0       0       0       0       0       0       0       0
       0       0       0       0       0       0       0       0       0       0
       0       0       0       0       0       0       0       0       0       0
       0       0       0       0       0       0       0       0       0       0
       0       0       0       0       0       0       0       0       0       0
       0       0       0       0       0       0       0       0       0       0
       0       0       0       0       0       0       0       0       0       0
       0       0       0       0       0       0       0       0       0       0
       0       0       0       0       0       0       0       0       0       0
       0       0       0       0       0       0       0       0       0       0
       0       0       0       0       0       0       0       0       0       0
       0       0       0       0       0       0       0       0       0       0
       0       0       0       0       0       0       0       0       0       0
       0       0       0       0       0       0       0       0       0       0
       0       0       0       0       0       0       0       0       0       0
       0       0       0       0       0       0       0       0       0       0
       0       0       0       0       0       0       0       0       0       0
       0       0       0       0       0       0       0       0       0       0
       0       0       0       0       0       0       0       0       0       0
       0       0       0       0       0       0       0       0       0       0
       0       0       0       0       0       0       0       0       0       0
       0       0       0       0       0       0       0       0       0       0
       0       0       0       0       0       0       0       0       0       0
       0       0       0       0       0       0       0       0       0       0
       0       0       0       0       0       0       0       0       0       0
       0       0       0       0       0       0       0       0       0       0
       0       0       0       0       0       0       0       0       0       0
       0       0       0       0       0       0       0       0       0       0
       0       0       0       0       0       0       0       0       0       0
       0       0       0       0       0       0       0       0       0       0
       0       0       0       0       0       0       0       0       0       0
       0       0       0       0       0       0       0       0       0       0
       0       0       0       0       0       0       0       0       0       0
       0       0       0       0       0       0       0       0       0       0
       0       0       0       0       0       0       0       0       0       0
       0       0       0       0       0       0       0       0       0       0
       0       0       0       0       0       0       0       0       0       0
       0       0       0       0       0       0       0       0       0       0
       0       0       0       0       0       0       0       0       0       0
       0       0       0       0       0       0       0       0       0       0
       0       0       0       0       0       0       0       0       0       0
       0       0       0       0       0       0       0       0       0       0
       0       0       0       0       0       0       0       0       0       0
       0       0       0       0       0       0       0       0       0       0
       0       0       0       0       0       0       0       0       0       0
       0       0       0       0       0       0       0       0       0       0
       0       0       0       0       0       0       0       0       0       0
       0       0       0       0       0       0       0       0       0       0
       0       0       0       0       0       0       0       0       0       0
       0       0       0       0       0       0       0       0       0       0
       0       0       0       0       0       0       0       0       0       0
       0       0       0       0       0       0       0       0       0       0
       0       0       0       0       0       0       0       0       0       0
       0       0       0       0       0       0       0       0       0       0
       0       0       0       0       0       0       0       0       0       0
       0       0       0       0       0       0       0       0       0       0
       0       0       0       0       0       0       0       0       0       0
       0       0       0       0       0       0       0       0       0       0
       0       0       0       0       0       0       0       0       0       0
       0       0       0       0       0       0       0       0       0       0
       0       0       0       0       0       0       0       0       0       0
       0       0       0       0       0       0       0       0       0       0
       0       0       0       0       0       0       0       0       0       0
       0       0       0       0       0       0       0       0       0       0
       0       0       0       0       0       0       0       0       0       0
       0       0       0       0       0       0       0       0       0       0
       0       0       0       0       0       0       0       0       0       0
       0       0       0       0       0       0       0       0       0       0
       0       0       0       0       0       0       0       0       0       0
       0       0       0       0       0       0       0       0       0       0
       0       0       0       0       0       0       0       0       0       0
       0       0       0       0       0       0       0       0       0       0
       0       0       0       0       0       0       0       0       0       0
       0       0       0       0       0       0       0       0       0       0
       0       0       0       0       0       0       0       0       0       0
       0       0       0       0       0       0       0       0       0       0
       0       0       0       0       0       0       0       0       0       0
       0       0       0       0       0       0       0       0       0       0
       0       0       0       0       0       0       0       0       0       0
       0       0       0       0       0       0       0       0       0       0
       0       0       0       0       0       0       0       0       0       0
       0       0       0       0       0       0       0       0       0       0
       0       0       0       0       0       0       0       0       0       0
       0       0       0       0       0       0       0       0       0       0
       0       0       0       0       0       0       0       0       0       0
       0       0       0       0       0       0       0       0       0       0
       0       0       0       0       0       0       0       0       0       0
       0       0       0       0       0       0       0       0       0       0
       0       0       0       0       0       0       0       0       0       0
       0       0       0       0       0       0       0       0       0       0
       0       0       0       0       0       0       0       0       0       0
       0       0       0       0       0       0       0       0       0       0
       0       0       0       0       0       0       0       0       0       0
       0       0       0       0       0       0       0       0       0       0
       0       0       0       0       0       0       0       0       0       0
       0       0       0       0       0       0       0       0       0       0
       0       0       0       0       0       0       0       0       0       0
       0       0       0       0       0       0       0       0       0       0
       0       0       0       0       0       0       0       0       0       0
       0       0       0       0       0       0       0       0       0       0
       0       0       0       0       0       0       0       0       0       0
       0       0       0       0       0       0       0       0       0       0
       0       0       0       0       0       0       0       0       0       0
       0       0       0       0       0       0       0       0       0       0
       0       0       0       0       0       0       0       0       0       0
       0       0       0       0       0       0       0       0       0       0
       0       0       0       0       0       0       0       0       0       0
       0       0       0       0       0       0       0       0       0       0
       0       0       0       0       0       0       0       0       0       0
       0       0       0       0       0       0       0       0       0       0
       0       0       0       0       0       0       0       0       0       0
       0       0       0       0       0       0       0       0       0       0
       0       0       0       0       0       0       0       0       0       0
       0       0       0       0       0       0       0       0       0       0
       0       0       0       0       0       0       0       0       0       0
       0       0       0       0       0       0       0       0       0       0
       0       0       0       0       0       0       0       0       0       0
       0       0       0       0       0       0       0       0       0       0
       0       0       0       0       0       0       0       0       0       0
       0       0       0       0       0       0       0       0       0       0
       0       0       0       0       0       0       0       0       0       0
       0       0       0       0       0       0       0       0       0       0
       0       0       0       0       0       0       0       0       0       0
       0       0       0       0       0       0       0       0       0       0
       0       0       0       0       0       0       0       0       0       0
       0       0       0       0       0       0       0       0       0       0
       0       0       0       0       0       0       0       0       0       0
       0       0       0       0       0       0       0       0       0       0
       0       0       0       0       0       0       0       0       0       0
       0       0       0       0       0       0       0       0       0       0
       0       0       0       0       0       0       0       0       0       0
       0       0       0       0       0       0       0       0       0       0
       0       0       0       0       0       0       0       0       0       0
       0       0       0       0       0       0       0       0       0       0
       0       0       0       0       0       0       0       0       0       0
       0       0       0       0       0       0       0       0       0       0
       0       0       0       0       0       0       0       0       0       0
       0       0       0       0       0       0       0       0       0       0
       0       0       0       0       0       0       0       0       0       0
       0       0       0       0       0       0       0       0       0       0
       0       0       0       0       0       0       0       0       0       0
       0       0       0       0       0       0       0       0       0       0
       0       0       0       0       0       0       0       0       0       0
       0       0       0       0       0       0       0       0       0       0
       0       0       0       0       0       0       0       0       0       0
       0       0       0       0       0       0       0       0       0       0
       0       0       0       0       0       0       0       0       0       0
       0       0       0       0       0       0       0       0       0       0
       0       0       0       0       0       0       0       0       0       0
       0       0       0       0       0       0       0       0       0       0
       0       0       0       0       0       0       0       0       0       0
       0       0       0       0       0       0       0       0       0       0
       0       0       0       0       0       0       0       0       0       0
       0       0       0       0       0       0       0       0       0       0
       0       0       0       0       0       0       0       0       0       0
       0       0       0       0       0       0       0       0       0       0
       0       0       0       0       0       0       0       0       0       0
       0       0       0       0       0       0       0       0       0       0
       0       0       0       0       0       0       0       0       0       0
       0       0       0       0       0       0       0       0       0       0
       0       0       0       0       0       0       0       0       0       0
       0       0       0       0       0       0       0       0       0       0
       0       0       0       0       0       0       0       0       0       0
       0       0       0       0       0       0       0       0       0       0
       0       0       0       0       0       0       0       0       0       0
       0       0       0       0       0       0       0       0       0       0
       0       0       0       0       0       0       0       0       0       0
       0       0       0       0       0       0       0       0       0       0
       0       0       0       0       0       0       0       0       0       0
       0       0       0       0       0       0       0       0       0       0
       0       0       0       0       0       0       0       0       0       0
       0       0       0       0       0       0       0       0       0       0
       0       0       0       0       0       0       0       0       0       0
       0       0       0       0       0       0       0       0       0       0
       0       0       0       0       0       0       0       0       0       0
       0       0       0       0       0       0       0       0       0       0
       0       0       0       0       0       0       0       0       0       0
       0       0       0       0       0       0       0       0       0       0
       0       0       0       0       0       0       0       0       0       0
       0       0       0       0       0       0       0       0       0       0
       0       0       0       0       0       0       0       0       0       0
       0       0       0       0       0       0       0       0       0       0
       0       0       0       0       0       0       0       0       0       0
       0       0       0       0       0       0       0       0       0       0
       0       0       0       0       0       0       0       0       0       0
       0       0       0       0       0       0       0       0       0       0
       0       0       0       0       0       0       0       0       0       0
       0       0       0       0       0       0       0       0       0       0
       0       0       0       0       0       0       0       0       0       0
       0       0       0       0       0       0       0       0       0       0
       0       0       0       0       0       0       0       0       0       0
       0       0       0       0       0       0       0       0       0       0
       0       0       0       0       0       0       0       0       0       0
       0       0       0       0       0       0       0       0       0       0
       0       0       0       0       0       0       0       0       0       0
       0       0       0       0       0       0       0       0       0       0
       0       0       0       0       0       0       0       0       0       0
       0       0       0       0       0       0       0       0       0       0
       0       0       0       0       0       0       0       0       0       0
       0       0       0       0       0       0       0       0       0       0
       0       0       0       0       0       0       0       0       0       0
       0       0       0       0       0       0       0       0       0       0
       0       0       0       0       0       0       0       0       0       0
       0       0       0       0       0       0       0       0       0       0
       0       0       0       0       0       0       0       0       0       0
       0       0       0       0       0       0       0       0       0       0
       0       0       0       0       0       0       0       0       0       0
       0       0       0       0       0       0       0       0       0       0
       0       0       0       0       0       0       0       0       0       0
       0       0       0       0       0       0       0       0       0       0
       0       0       0       0       0       0       0       0       0       0
       0       0       0       0       0       0       0       0       0       0
       0       0       0       0       0       0       0       0       0       0
       0       0       0       0       0       0       0       0       0       0
       0       0       0       0       0       0       0       0       0       0
       0       0       0       0       0       0       0       0       0       0
       0       0       0       0       0       0       0       0       0       0
       0       0       0       0       0       0       0       0       0       0
       0       0       0       0       0       0       0       0       0       0
       0       0       0       0       0       0       0       0       0       0
       0       0       0       0       0       0       0       0       0       0
       0       0       0       0       0       0       0       0       0       0
       0       0       0       0       0       0       0       0       0       0
       0       0       0       0       0       0       0       0       0       0
       0       0       0       0       0       0       0       0       0       0
       0       0       0       0       0       0       0       0       0       0
       0       0       0       0       0       0       0       0       0       0
       0       0       0       0       0       0       0       0       0       0
       0       0       0       0       0       0       0       0       0       0
       0       0       0       0       0       0       0       0       0       0
       0       0       0       0       0       0       0       0       0       0
       0       0       0       0       0       0       0       0       0       0
       0       0       0       0       0       0       0       0       0       0
       0       0       0       0       0       0       0       0       0       0
       0       0       0       0       0       0       0       0       0       0
       0       0       0       0       0       0       0       0       0       0
       0       0       0       0       0       0       0       0       0       0
       0       0       0       0       0       0       0       0       0       0
       0       0       0       0       0       0       0       0       0       0
       0       0       0       0       0       0       0       0       0       0
       0       0       0       0       0       0       0       0       0       0
       0       0       0       0       0       0       0       0       0       0
       0       0       0       0       0       0       0       0       0       0
       0       0       0       0       0       0       0       0       0       0
       0       0       0       0       0       0       0       0       0       0
       0       0       0       0       0       0       0       0       0       0
       0       0       0       0       0       0       0       0       0       0
       0       0       0       0       0       0       0       0       0       0
       0       0       0       0       0       0       0       0       0       0
       0       0       0       0       0       0       0       0       0       0
       0       0       0       0       0       0       0       0       0       0
       0       0       0       0       0       0       0       0       0       0
       0       0       0       0       0       0       0       0       0       0
       0       0       0       0       0       0       0       0       0       0
       0       0       0       0       0       0       0       0       0       0
       0       0       0       0       0       0       0       0       0       0
       0       0       0       0       0       0       0       0       0       0
       0       0       0       0       0       0       0       0       0       0
       0       0       0       0       0       0       0       0       0       0
       0       0       0       0       0       0       0       0       0       0
       0       0       0       0       0       0       0       0       0       0
       0       0       0       0       0       0       0       0       0       0
       0       0       0       0       0       0       0       0       0       0
       0       0       0       0       0       0       0       0       0       0
       0       0       0       0       0       0       0       0       0       0
       0       0       0       0       0       0       0       0       0       0
       0       0       0       0       0       0       0       0       0       0
       0       0       0       0       0       0       0       0       0       0
       0       0       0       0       0       0       0       0       0       0
       0       0       0       0       0       0       0       0       0       0
       0       0       0       0       0       0       0       0       0       0
       0       0       0       0       0       0       0       0       0       0
       0       0       0       0       0       0       0       0       0       0
       0       0       0       0       0       0       0       0       0       0
       0       0       0       0       0       0       0       0       0       0
       0       0       0       0       0       0       0       0       0       0
       0       0       0       0       0       0       0       0       0       0
       0       0       0       0       0       0       0       0       0       0
       0       0       0       0       0       0       0       0       0       0
       0       0       0       0       0       0       0       0       0       0
       0       0       0       0       0       0       0       0       0       0
       0       0       0       0       0       0       0       0       0       0
       0       0       0       0       0       0       0       0       0       0
       0       0       0       0       0       0       0       0       0       0
       0       0       0       0       0       0       0       0       0       0
       0       0       0       0       0       0       0       0       0       0
       0       0       0       0       0       0       0       0       0       0
       0       0       0       0       0       0       0       0       0       0
       0       0       0       0       0       0       0       0       0       0
       0       0       0       0       0       0       0       0       0       0
       0       0       0       0       0       0       0       0       0       0
       0       0       0       0       0       0       0       0       0       0
       0       0       0       0       0       0       0       0       0       0
       0       0       0       0       0       0       0       0       0       0
       0       0       0       0       0       0       0       0       0       0
       0       0       0       0       0       0       0       0       0       0
       0       0       0       0       0       0       0       0       0       0
       0       0       0       0       0       0       0       0       0       0
       0       0       0       0       0       0       0       0       0       0
       0       0       0       0       0       0       0       0       0       0
       0       0       0       0       0       0       0       0       0       0
       0       0       0       0       0       0       0       0       0       0
       0       0       0       0       0       0       0       0       0       0
       0       0       0       0       0       0       0       0       0       0
       0       0       0       0       0       0       0       0       0       0
       0       0       0       0       0       0       0       0       0       0
       0       0       0       0       0       0       0       0       0       0
       0       0       0       0       0       0       0       0       0       0
       0       0       0       0       0       0       0       0       0       0
       0       0       0       0       0       0       0       0       0       0
       0       0       0       0       0       0       0       0       0       0
       0       0       0       0       0       0       0       0       0       0
       0       0       0       0       0       0       0       0       0       0
       0       0       0       0       0       0       0       0       0       0
       0       0       0       0       0       0       0       0       0       0
       0       0       0       0       0       0       0       0       0       0
       0       0       0       0       0       0       0       0       0       0
       0       0       0       0       0       0       0       0       0       0
       0       0       0       0       0       0       0       0       0       0
       0       0       0       0       0       0       0       0       0       0
       0       0       0       0       0       0       0       0       0       0
       0       0       0       0       0       0       0       0       0       0
       0       0       0       0       0       0       0       0       0       0
       0       0       0       0       0       0       0       0       0       0
       0       0       0       0       0       0       0       0       0       0
       0       0       0       0       0       0       0       0       0       0
       0       0       0       0       0       0       0       0       0       0
       0       0       0       0       0       0       0       0       0       0
       0       0       0       0       0       0       0       0       0       0
       0       0       0       0       0       0       0       0       0       0
       0       0       0       0       0       0       0       0       0       0
       0       0       0       0       0       0       0       0       0       0
       0       0       0       0       0       0       0       0       0       0
       0       0       0       0       0       0       0       0       0       0
       0       0       0       0       0       0       0       0       0       0
       0       0       0       0       0       0       0       0       0       0
       0       0       0       0       0       0       0       0       0       0
       0       0       0       0       0       0       0       0       0       0
       0       0       0       0       0       0       0       0       0       0
       0       0       0       0       0       0       0       0       0       0
       0       0       0       0       0       0       0       0       0       0
       0       0       0       0       0       0       0       0       0       0
       0       0       0       0       0       0       0       0       0       0
       0       0       0       0       0       0       0       0       0       0
       0       0       0       0       0       0       0       0       0       0
       0       0       0       0       0       0       0       0       0       0
       0       0       0       0       0       0       0       0       0       0
       0       0       0       0       0       0       0       0       0       0
       0       0       0       0       0       0       0       0       0       0
       0       0       0       0       0       0       0       0       0       0
       0       0       0       0       0       0       0       0       0       0
       0       0       0       0       0       0       0       0       0       0
       0       0       0       0       0       0       0       0       0       0
       0       0       0       0       0       0       0       0       0       0
       0       0       0       0       0       0       0       0       0       0
       0       0       0       0       0       0       0       0       0       0
       0       0       0       0       0       0       0       0       0       0
       0       0       0       0       0       0       0       0       0       0
       0       0       0       0       0       0       0       0       0       0
       0       0       0       0       0       0       0       0       0       0
       0       0       0       0       0       0       0       0       0       0
       0       0       0       0       0       0       0       0       0       0
       0       0       0       0       0       0       0       0       0       0
       0       0       0       0       0       0       0       0       0       0
       0       0       0       0       0       0       0       0       0       0
       0       0       0       0       0       0       0       0       0       0
       0       0       0       0       0       0       0       0       0       0
       0       0       0       0       0       0       0       0       0       0
       0       0       0       0       0       0       0       0       0       0
       0       0       0       0       0       0       0       0       0       0
       0       0       0       0       0       0       0       0       0       0
       0       0       0       0       0       0       0       0       0       0
       0       0       0       0       0       0       0       0       0       0
       0       0       0       0       0       0       0       0       0       0
       0       0       0       0       0       0       0       0       0       0
       0       0       0       0       0       0       0       0       0       0
       0       0       0       0       0       0       0       0       0       0
       0       0       0       0       0       0       0       0       0       0
       0       0       0       0       0       0       0       0       0       0
       0       0       0       0       0       0       0       0       0       0
       0       0       0       0       0       0       0       0       0       0
       0       0       0       0       0       0       0       0       0       0
       0       0       0       0       0       0       0       0       0       0
       0       0       0       0       0       0       0       0       0       0
       0       0       0       0       0       0       0       0       0       0
       0       0       0       0       0       0       0       0       0       0
       0       0       0       0       0       0       0       0       0       0
       0       0       0       0       0       0       0       0       0       0
       0       0       0       0       0       0       0       0       0       0
       0       0       0       0       0       0       0       0       0       0
       0       0       0       0       0       0       0       0       0       0
       0       0       0       0       0       0       0       0       0       0
       0       0       0       0       0       0       0       0       0       0
       0       0       0       0       0       0       0       0       0       0
       0       0       0       0       0       0       0       0       0       0
       0       0       0       0       0       0       0       0       0       0
       0       0       0       0       0       0       0       0       0       0
       0       0       0       0       0       0       0       0       0       0
       0       0       0       0       0       0       0       0       0       0
       0       0       0       0       0       0       0       0       0       0
       0       0       0       0       0       0       0       0       0       0
       0       0       0       0       0       0       0       0       0       0
       0       0       0       0       0       0       0       0       0       0
       0       0       0       0       0       0       0       0       0       0
       0       0       0       0       0       0       0       0       0       0
       0       0       0       0       0       0       0       0       0       0
       0       0       0       0       0       0       0       0       0       0
       0       0       0       0       0       0       0       0       0       0
       0       0       0       0       0       0       0       0       0       0
       0       0       0       0       0       0       0       0       0       0
       0       0       0       0       0       0       0       0       0       0
       0       0       0       0       0       0       0       0       0       0
       0       0       0       0       0       0       0       0       0       0
       0       0       0       0       0       0       0       0       0       0
       0       0       0       0       0       0       0       0       0       0
       0       0       0       0       0       0       0       0       0       0
       0       0       0       0       0       0       0       0       0       0
       0       0       0       0       0       0       0       0       0       0
       0       0       0       0       0       0       0       0       0       0
       0       0       0       0       0       0       0       0       0       0
       0       0       0       0       0       0       0       0       0       0
       0       0       0       0       0       0       0       0       0       0
       0       0       0       0       0       0       0       0       0       0
       0       0       0       0       0       0       0       0       0       0
       0       0       0       0       0       0       0       0       0       0
       0       0       0       0       0       0       0       0       0       0
       0       0       0       0       0       0       0       0       0       0
       0       0       0       0       0       0       0       0       0       0
       0       0       0       0       0       0       0       0       0       0
       0       0       0       0       0       0       0       0       0       0
       0       0       0       0       0       0       0       0       0       0
       0       0       0       0       0       0       0       0       0       0
       0       0       0       0       0       0       0       0       0       0
       0       0       0       0       0       0       0       0       0       0
       0       0       0       0       0       0       0       0       0       0
       0       0       0       0       0       0       0       0       0       0
       0       0       0       0       0       0       0       0       0       0
       0       0       0       0       0       0       0       0       0       0
       0       0       0       0       0       0       0       0       0       0
       0       0       0       0       0       0       0       0       0       0
       0       0       0       0       0       0       0       0       0       0
       0       0       0       0       0       0       0       0       0       0
       0       0       0       0       0       0       0       0       0       0
       0       0       0       0       0       0       0       0       0       0
       0       0       0       0       0       0       0       0       0       0
       0       0       0       0       0       0       0       0       0       0
       0       0       0       0       0       0       0       0       0       0
       0       0       0       0       0       0       0       0       0       0
       0       0       0       0       0       0       0       0       0       0
       0       0       0       0       0       0       0       0       0       0
       0       0       0       0       0       0       0       0       0       0
       0       0       0       0       0       0       0       0       0       0
       0       0       0       0       0       0       0       0       0       0
       0       0       0       0       0       0       0       0       0       0
       0       0       0       0       0       0       0       0       0       0
       0       0       0       0       0       0       0       0       0       0
       0       0       0       0       0       0       0       0       0       0
       0       0       0       0       0       0       0       0       0       0
       0       0       0       0       0       0       0       0       0       0
       0       0       0       0       0       0       0       0       0       0
       0       0       0       0       0       0       0       0       0       0
       0       0       0       0       0       0       0       0       0       0
       0       0       0       0       0       0       0       0       0       0
       0       0       0       0       0       0       0       0       0       0
       0       0       0       0       0       0       0       0       0       0
       0       0       0       0       0       0       0       0       0       0
       0       0       0       0       0       0       0       0       0       0
       0       0       0       0       0       0       0       0       0       0
       0       0       0       0       0       0       0       0       0       0
       0       0       0       0       0       0       0       0       0       0
       0       0       0       0       0       0       0       0       0       0
       0       0       0       0       0       0       0       0       0       0
       0       0       0       0       0       0       0       0       0       0
       0       0       0       0       0       0       0       0       0       0
       0       0       0       0       0       0       0       0       0       0
       0       0       0       0       0       0       0       0       0       0
       0       0       0       0       0       0       0       0       0       0
       0       0       0       0       0       0       0       0       0       0
       0       0       0       0       0       0       0       0       0       0
       0       0       0       0       0       0       0       0       0       0
       0       0       0       0       0       0       0       0       0       0
       0       0       0       0       0       0       0       0       0       0
       0       0       0       0       0       0       0       0       0       0
       0       0       0       0       0       0       0       0       0       0
       0       0       0       0       0       0       0       0       0       0
       0       0       0       0       0       0       0       0       0       0
       0       0       0       0       0       0       0       0       0       0
       0       0       0       0       0       0       0       0       0       0
       0       0       0       0       0       0       0       0       0       0
       0       0       0       0       0       0       0       0       0       0
       0       0       0       0       0       0       0       0       0       0
       0       0       0       0       0       0       0       0       0       0
       0       0       0       0       0       0       0       0       0       0
       0       0       0       0       0       0       0       0       0       0
       0       0       0       0       0       0       0       0       0       0
       0       0       0       0       0       0       0       0       0       0
       0       0       0       0       0       0       0       0       0       0
       0       0       0       0       0       0       0       0       0       0
       0       0       0       0       0       0       0       0       0       0
       0       0       0       0       0       0       0       0       0       0
       0       0       0       0       0       0       0       0       0       0
       0       0       0       0       0       0       0       0       0       0
       0       0       0       0       0       0       0       0       0       0
       0       0       0       0       0       0       0       0       0       0
       0       0       0       0       0       0       0       0       0       0
       0       0       0       0       0       0       0       0       0       0
       0       0       0       0       0       0       0       0       0       0
       0       0       0       0       0       0       0       0       0       0
       0       0       0       0       0       0       0       0       0       0
       0       0       0       0       0       0       0       0       0       0
       0       0       0       0       0       0       0       0       0       0
       0       0       0       0       0       0       0       0       0       0
       0       0       0       0       0       0       0       0       0       0
       0       0       0       0       0       0       0       0       0       0
       0       0       0       0       0       0       0       0       0       0
       0       0       0       0       0       0       0       0       0       0
       0       0       0       0       0       0       0       0       0       0
       0       0       0       0       0       0       0       0       0       0
       0       0       0       0       0       0       0       0       0       0
       0       0       0       0       0       0       0       0       0       0
       0       0       0       0       0       0       0       0       0       0
       0       0       0       0       0       0       0       0       0       0
       0       0       0       0       0       0       0       0       0       0
       0       0       0       0       0       0       0       0       0       0
       0       0       0       0       0       0       0       0       0       0
       0       0       0       0       0       0       0       0       0       0
       0       0       0       0       0       0       0       0       0       0
       0       0       0       0       0       0       0       0       0       0
       0       0       0       0       0       0       0       0       0       0
       0       0       0       0       0       0       0       0       0       0
       0       0       0       0       0       0       0       0       0       0
       0       0       0       0       0       0       0       0       0       0
       0       0       0       0       0       0       0       0       0       0
       0       0       0       0       0       0       0       0       0       0
       0       0       0       0       0       0       0       0       0       0
       0       0       0       0       0       0       0       0       0       0
       0       0       0       0       0       0       0       0       0       0
       0       0       0       0       0       0       0       0       0       0
       0       0       0       0       0       0       0       0       0       0
       0       0       0       0       0       0       0       0       0       0
       0       0       0       0       0       0       0       0       0       0
       0       0       0       0       0       0       0       0       0       0
       0       0       0       0       0       0       0       0       0       0
       0       0       0       0       0       0       0       0       0       0
       0       0       0       0       0       0       0       0       0       0
       0       0       0       0       0       0       0       0       0       0
       0       0       0       0       0       0       0       0       0       0
       0       0       0       0       0       0       0       0       0       0
       0       0       0       0       0       0       0       0       0       0
       0       0       0       0       0       0       0       0       0       0
       0       0       0       0       0       0       0       0       0       0
       0       0       0       0       0       0       0       0       0       0
       0       0       0       0       0       0       0       0       0       0
       0       0       0       0       0       0       0       0       0       0
       0       0       0       0       0       0       0       0       0       0
       0       0       0       0       0       0       0       0       0       0
       0       0       0       0       0       0       0       0       0       0
       0       0       0       0       0       0       0       0       0       0
       0       0       0       0       0       0       0       0       0       0
       0       0       0       0       0       0       0       0       0       0
       0       0       0       0       0       0       0       0       0       0
       0       0       0       0       0       0       0       0       0       0
       0       0       0       0       0       0       0       0       0       0
       0       0       0       0       0       0       0       0       0       0
       0       0       0       0       0       0       0       0       0       0
       0       0       0       0       0       0       0       0       0       0
       0       0       0       0       0       0       0       0       0       0
       0       0       0       0       0       0       0       0       0       0
       0       0       0       0       0       0       0       0       0       0
       0       0       0       0       0       0       0       0       0       0
       0       0       0       0       0       0       0       0       0       0
       0       0       0       0       0       0       0       0       0       0
       0       0       0       0       0       0       0       0       0       0
       0       0       0       0       0       0       0       0       0       0
       0       0       0       0       0       0       0       0       0       0
       0       0       0       0       0       0       0       0       0       0
       0       0       0       0       0       0       0       0       0       0
       0       0       0       0       0       0       0       0       0       0
       0       0       0       0       0       0       0       0       0       0
       0       0       0       0       0       0       0       0       0       0
       0       0       0       0       0       0       0       0       0       0
       0       0       0       0       0       0       0       0       0       0
       0       0       0       0       0       0       0       0       0       0
       0       0       0       0       0       0       0       0       0       0
       0       0       0       0       0       0       0       0       0       0
       0       0       0       0       0       0       0       0       0       0
       0       0       0       0       0       0       0       0       0       0
       0       0       0       0       0       0       0       0       0       0
       0       0       0       0       0       0       0       0       0       0
       0       0       0       0       0       0       0       0       0       0
       0       0       0       0       0       0       0       0       0       0
       0       0       0       0       0       0       0       0       0       0
       0       0       0       0       0       0       0       0       0       0
       0       0       0       0       0       0       0       0       0       0
       0       0       0       0       0       0       0       0       0       0
       0       0       0       0       0       0       0       0       0       0
       0       0       0       0       0       0       0       0       0       0
       0       0       0       0       0       0       0       0       0       0
       0       0       0       0       0       0       0       0       0       0
       0       0       0       0       0       0       0       0       0       0
       0       0       0       0       0       0       0       0       0       0
       0       0       0       0       0       0       0       0       0       0
       0       0       0       0       0       0       0       0       0       0
       0       0       0       0       0       0       0       0       0       0
       0       0       0       0       0       0       0       0       0       0
       0       0       0       0       0       0       0       0       0       0
       0       0       0       0       0       0       0       0       0       0
       0       0       0       0       0       0       0       0       0       0
       0       0       0       0       0       0       0       0       0       0
       0       0       0       0       0       0       0       0       0       0
       0       0       0       0       0       0       0       0       0       0
       0       0       0       0       0       0       0       0       0       0
       0       0       0       0       0       0       0       0       0       0
       0       0       0       0       0       0       0       0       0       0
       0       0       0       0       0       0       0       0       0       0
       0       0       0       0       0       0       0       0       0       0
       0       0       0       0       0       0       0       0       0       0
       0       0       0       0       0       0       0       0       0       0
       0       0       0       0       0       0       0       0       0       0
       0       0       0       0       0       0       0       0       0       0
       0       0       0       0       0       0       0       0       0       0
       0       0       0       0       0       0       0       0       0       0
       0       0       0       0       0       0       0       0       0       0
       0       0       0       0       0       0       0       0       0       0
       0       0       0       0       0       0       0       0       0       0
       0       0       0       0       0       0       0       0       0       0
       0       0       0       0       0       0       0       0       0       0
       0       0       0       0       0       0       0       0       0       0
       0       0       0       0       0       0       0       0       0       0
       0       0       0       0       0       0       0       0       0       0
       0       0       0       0       0       0       0       0       0       0
       0       0       0       0       0       0       0       0       0       0
       0       0       0       0       0       0       0       0       0       0
       0       0       0       0       0       0       0       0       0       0
       0       0       0       0       0       0       0       0       0       0
       0       0       0       0       0       0       0       0       0       0
       0       0       0       0       0       0       0       0       0       0
       0       0       0       0       0       0       0       0       0       0
       0       0       0       0       0       0       0       0       0       0
       0       0       0       0       0       0       0       0       0       0
       0       0       0       0       0       0       0       0       0       0
       0       0       0       0       0       0       0       0       0       0
       0       0       0       0       0       0       0       0       0       0
       0       0       0       0       0       0       0       0       0       0
       0       0       0       0       0       0       0       0       0       0
       0       0       0       0       0       0       0       0       0       0
       0       0       0       0       0       0       0       0       0       0
       0       0       0       0       0       0       0       0       0       0
       0       0       0       0       0       0       0       0       0       0
       0       0       0       0       0       0       0       0       0       0
       0       0       0       0       0       0       0       0       0       0
       0       0       0       0       0       0       0       0       0       0
       0       0       0       0       0       0       0       0       0       0
       0       0       0       0       0       0       0       0       0       0
       0       0       0       0       0       0       0       0       0       0
       0       0       0       0       0       0       0       0       0       0
       0       0       0       0       0       0       0       0       0       0
       0       0       0       0       0       0       0       0       0       0
       0       0       0       0       0       0       0       0       0       0
       0       0       0       0       0       0       0       0       0       0
       0       0       0       0       0       0       0       0       0       0
       0       0       0       0       0       0       0       0       0       0
       0       0       0       0       0       0       0       0       0       0
       0       0       0       0       0       0       0       0       0       0
       0       0       0       0       0       0       0       0       0       0
       0       0       0       0       0       0       0       0       0       0
       0       0       0       0       0       0       0       0       0       0
       0       0       0       0       0       0       0       0       0       0
       0       0       0       0       0       0       0       0       0       0
       0       0       0       0       0       0       0       0       0       0
       0       0       0       0       0       0       0       0       0       0
       0       0       0       0       0       0       0       0       0       0
       0       0       0       0       0       0       0       0       0       0
       0       0       0       0       0       0       0       0       0       0
       0       0       0       0       0       0       0       0       0       0
       0       0       0       0       0       0       0       0       0       0
       0       0       0       0       0       0       0       0       0       0
       0       0       0       0       0       0       0       0       0       0
       0       0       0       0       0       0       0       0       0       0
       0       0       0       0       0       0       0       0       0       0
       0       0       0       0       0       0       0       0       0       0
       0       0       0       0       0       0       0       0       0       0
       0       0       0       0       0       0       0       0       0       0
       0       0       0       0       0       0       0       0       0       0
       0       0       0       0       0       0       0       0       0       0
       0       0       0       0       0       0       0       0       0       0
       0       0       0       0       0       0       0       0       0       0
       0       0       0       0       0       0       0       0       0       0
       0       0       0       0       0       0       0       0       0       0
       0       0       0       0       0       0       0       0       0       0
       0       0       0       0       0       0       0       0       0       0
       0       0       0       0       0       0       0       0       0       0
       0       0       0       0       0       0       0       0       0       0
       0       0       0       0       0       0       0       0       0       0
       0       0       0       0       0       0       0       0       0       0
       0       0       0       0       0       0       0       0       0       0
       0       0       0       0       0       0       0       0       0       0
       0       0       0       0       0       0       0       0       0       0
       0       0       0       0       0       0       0       0       0       0
       0       0       0       0       0       0       0       0       0       0
       0       0       0       0       0       0       0       0       0       0
       0       0       0       0       0       0       0       0       0       0
       0       0       0       0       0       0       0       0       0       0
       0       0       0       0       0       0       0       0       0       0
       0       0       0       0       0       0       0       0       0       0
       0       0       0       0       0       0       0       0       0       0
       0       0       0       0       0       0       0       0       0       0
       0       0       0       0       0       0       0       0       0       0
       0       0       0       0       0       0       0       0       0       0
       0       0       0       0       0       0       0       0       0       0
       0       0       0       0       0       0       0       0       0       0
       0       0       0       0       0       0       0       0       0       0
       0       0       0       0       0       0       0       0       0       0
       0       0       0       0       0       0       0       0       0       0
       0       0       0       0       0       0       0       0       0       0
       0       0       0       0       0       0       0       0       0       0
       0       0       0       0       0       0       0       0       0       0
       0       0       0       0       0       0       0       0       0       0
       0       0       0       0       0       0       0       0       0       0
       0       0       0       0       0       0       0       0       0       0
       0       0       0       0       0       0       0       0       0       0
       0       0       0       0       0       0       0       0       0       0
       0       0       0       0       0       0       0       0       0       0
       0       0       0       0       0       0       0       0       0       0
       0       0       0       0       0       0       0       0       0       0
       0       0       0       0       0       0       0       0       0       0
       0       0       0       0       0       0       0       0       0       0
       0       0       0       0       0       0       0       0       0       0
       0       0       0       0       0       0       0       0       0       0
       0       0       0       0       0       0       0       0       0       0
       0       0       0       0       0       0       0       0       0       0
       0       0       0       0       0       0       0       0       0       0
       0       0       0       0       0       0       0       0       0       0
       0       0       0       0       0       0       0       0       0       0
       0       0       0       0       0       0       0       0       0       0
       0       0       0       0       0       0       0       0       0       0
       0       0       0       0       0       0       0       0       0       0
       0       0       0       0       0       0       0       0       0       0
       0       0       0       0       0       0       0       0       0       0
       0       0       0       0       0       0       0       0       0       0
       0       0       0       0       0       0       0       0       0       0
       0       0       0       0       0       0       0       0       0       0
       0       0       0       0       0       0       0       0       0       0
       0       0       0       0       0       0       0       0       0       0
       0       0       0       0       0       0       0       0       0       0
       0       0       0       0       0       0       0       0       0       0
       0       0       0       0       0       0       0       0       0       0
       0       0       0       0       0       0       0       0       0       0
       0       0       0       0       0       0       0       0       0       0
       0       0       0       0       0       0       0       0       0       0
       0       0       0       0       0       0       0       0       0       0
       0       0       0       0       0       0       0       0       0       0
       0       0       0       0       0       0       0       0       0       0
       0       0       0       0       0       0       0       0       0       0
       0       0       0       0       0       0       0       0       0       0
       0       0       0       0       0       0       0       0       0       0
       0       0       0       0       0       0       0       0       0       0
       0       0       0       0       0       0       0       0       0       0
       0       0       0       0       0       0       0       0       0       0
       0       0       0       0       0       0       0       0       0       0
       0       0       0       0       0       0       0       0       0       0
       0       0       0       0       0       0       0       0       0       0
       0       0       0       0       0       0       0       0       0       0
       0       0       0       0       0       0       0       0       0       0
       0       0       0       0       0       0       0       0       0       0
       0       0       0       0       0       0       0       0       0       0
       0       0       0       0       0       0       0       0       0       0
       0       0       0       0       0       0       0       0       0       0
       0       0       0       0       0       0       0       0       0       0
       0       0       0       0       0       0       0       0       0       0
       0       0       0       0       0       0       0       0       0       0
       0       0       0       0       0       0       0       0       0       0
       0       0       0       0       0       0       0       0       0       0
       0       0       0       0       0       0       0       0       0       0
       0       0       0       0       0       0       0       0       0       0
       0       0       0       0       0       0       0       0       0       0
       0       0       0       0       0       0       0       0       0       0
       0       0       0       0       0       0       0       0       0       0
       0       0       0       0       0       0       0       0       0       0
       0       0       0       0       0       0       0       0       0       0
       0       0       0       0       0       0       0       0       0       0
       0       0       0       0       0       0       0       0       0       0
       0       0       0       0       0       0       0       0       0       0
       0       0       0       0       0       0       0       0       0       0
       0       0       0       0       0       0       0       0       0       0
       0       0       0       0       0       0       0       0       0       0
       0       0       0       0       0       0       0       0       0       0
       0       0       0       0       0       0       0       0       0       0
       0       0       0       0       0       0       0       0       0       0
       0       0       0       0       0       0       0       0       0       0
       0       0       0       0       0       0       0       0       0       0
       0       0       0       0       0       0       0       0       0       0
       0       0       0       0       0       0       0       0       0       0
       0       0       0       0       0       0       0       0       0       0
       0       0       0       0       0       0       0       0       0       0
       0       0       0       0       0       0       0       0       0       0
       0       0       0       0       0       0       0       0       0       0
       0       0       0       0       0       0       0       0       0       0
       0       0       0       0       0       0       0       0       0       0
       0       0       0       0       0       0       0       0       0       0
       0       0       0       0       0       0       0       0       0       0
       0       0       0       0       0       0       0       0       0       0
       0       0       0       0       0       0       0       0       0       0
       0       0       0       0       0       0       0       0       0       0
       0       0       0       0       0       0       0       0       0       0
       0       0       0       0       0       0       0       0       0       0
       0       0       0       0       0       0       0       0       0       0
       0       0       0       0       0       0       0       0       0       0
       0       0       0       0       0       0       0       0       0       0
       0       0       0       0       0       0       0       0       0       0
       0       0       0       0       0       0       0       0       0       0
       0       0       0       0       0       0       0       0       0       0
       0       0       0       0       0       0       0       0       0       0
       0       0       0       0       0       0       0       0       0       0
       0       0       0       0       0       0       0       0       0       0
       0       0       0       0       0       0       0       0       0       0
       0       0       0       0       0       0       0       0       0       0
       0       0       0       0       0       0       0       0       0       0
       0       0       0       0       0       0       0       0       0       0
       0       0       0       0       0       0       0       0       0       0
       0       0       0       0       0       0       0       0       0       0
       0       0       0       0       0       0       0       0       0       0
       0       0       0       0       0       0       0       0       0       0
       0       0       0       0       0       0       0       0       0       0
       0       0       0       0       0       0       0       0       0       0
       0       0       0       0       0       0       0       0       0       0
       0       0       0       0       0       0       0       0       0       0
       0       0       0       0       0       0       0       0       0       0
       0       0       0       0       0       0       0       0       0       0
       0       0       0       0       0       0       0       0       0       0
       0       0       0       0       0       0       0       0       0       0
       0       0       0       0       0       0       0       0       0       0
       0       0       0       0       0       0       0       0       0       0
       0       0       0       0       0       0       0       0       0       0
       0       0       0       0       0       0       0       0       0       0
       0       0       0       0       0       0       0       0       0       0
       0       0       0       0       0       0       0       0       0       0
       0       0       0       0       0       0       0       0       0       0
       0       0       0       0       0       0       0       0       0       0
       0       0       0       0       0       0       0       0       0       0
       0       0       0       0       0       0       0       0       0       0
       0       0       0       0       0       0       0       0       0       0
       0       0       0       0       0       0       0       0       0       0
       0       0       0       0       0       0       0       0       0       0
       0       0       0       0       0       0       0       0       0       0
       0       0       0       0       0       0       0       0       0       0
       0       0       0       0       0       0       0       0       0       0
       0       0       0       0       0       0       0       0       0       0
       0       0       0       0       0       0       0       0       0       0
       0       0       0       0       0       0       0       0       0       0
       0       0       0       0       0       0       0       0       0       0
       0       0       0       0       0       0       0       0       0       0
       0       0       0       0       0       0       0       0       0       0
       0       0       0       0       0       0       0       0       0       0
       0       0       0       0       0       0       0       0       0       0
       0       0       0       0       0       0       0       0       0       0
       0       0       0       0       0       0       0       0       0       0
       0       0       0       0       0       0       0       0       0       0
       0       0       0       0       0       0       0       0       0       0
       0       0       0       0       0       0       0       0       0       0
       0       0       0       0       0       0       0       0       0       0
       0       0       0       0       0       0       0       0       0       0
       0       0       0       0       0       0       0       0       0       0
       0       0       0       0       0       0       0       0       0       0
       0       0       0       0       0       0       0       0       0       0
       0       0       0       0       0       0       0       0       0       0
       0       0       0       0       0       0       0       0       0       0
       0       0       0       0       0       0       0       0       0       0
       0       0       0       0       0       0       0       0       0       0
       0       0       0       0       0       0       0       0       0       0
       0       0       0       0       0       0       0       0       0       0
       0       0       0       0       0       0       0       0       0       0
       0       0       0       0       0       0       0       0       0       0
       0       0       0       0       0       0       0       0       0       0
       0       0       0       0       0       0       0       0       0       0
       0       0       0       0       0       0       0       0       0       0
       0       0       0       0       0       0       0       0       0       0
       0       0       0       0       0       0       0       0       0       0
       0       0       0       0       0       0       0       0       0       0
       0       0       0       0       0       0       0       0       0       0
       0       0       0       0       0       0       0       0       0       0
       0       0       0       0       0       0       0       0       0       0
       0       0       0       0       0       0       0       0       0       0
       0       0       0       0       0       0       0       0       0       0
       0       0       0       0       0       0       0       0       0       0
       0       0       0       0       0       0       0       0       0       0
       0       0       0       0       0       0       0       0       0       0
       0       0       0       0       0       0       0       0       0       0
       0       0       0       0       0       0       0       0       0       0
       0       0       0       0       0       0       0       0       0       0
       0       0       0       0       0       0       0       0       0       0
       0       0       0       0       0       0       0       0       0       0
       0       0       0       0       0       0       0       0       0       0
       0       0       0       0       0       0       0       0       0       0
       0       0       0       0       0       0       0       0       0       0
       0       0       0       0       0       0       0       0       0       0
       0       0       0       0       0       0       0       0       0       0
       0       0       0       0       0       0       0       0       0       0
       0       0       0       0       0       0       0       0       0       0
       0       0       0       0       0       0       0       0       0       0
       0       0       0       0       0       0       0       0       0       0
       0       0       0       0       0       0       0       0       0       0
       0       0       0       0       0       0       0       0       0       0
       0       0       0       0       0       0       0       0       0       0
       0       0       0       0       0       0       0       0       0       0
       0       0       0       0       0       0       0       0       0       0
       0       0       0       0       0       0       0       0       0       0
       0       0       0       0       0       0       0       0       0       0
       0       0       0       0       0       0       0       0       0       0
       0       0       0       0       0       0       0       0       0       0
       0       0       0       0       0       0       0       0       0       0
       0       0       0       0       0       0       0       0       0       0
       0       0       0       0       0       0       0       0       0       0
       0       0       0       0       0       0       0       0       0       0
       0       0       0       0       0       0       0       0       0       0
       0       0       0       0       0       0       0       0       0       0
       0       0       0       0       0       0       0       0       0       0
       0       0       0       0       0       0       0       0       0       0
       0       0       0       0       0       0       0       0       0       0
       0       0       0       0       0       0       0       0       0       0
       0       0       0       0       0       0       0       0       0       0
       0       0       0       0       0       0       0       0       0       0
       0       0       0       0       0       0       0       0       0       0
       0       0       0       0       0       0       0       0       0       0
       0       0       0       0       0       0       0       0       0       0
       0       0       0       0       0       0       0       0       0       0
       0       0       0       0       0       0       0       0       0       0
       0       0       0       0       0       0       0       0       0       0
       0       0       0       0       0       0       0       0       0       0
       0       0       0       0       0       0       0       0       0       0
       0       0       0       0       0       0       0       0       0       0
       0       0       0       0       0       0       0       0       0       0
       0       0       0       0       0       0       0       0       0       0
       0       0       0       0       0       0       0       0       0       0
       0       0       0       0       0       0       0       0       0       0
       0       0       0       0       0       0       0       0       0       0
       0       0       0       0       0       0       0       0       0       0
       0       0       0       0       0       0       0       0       0       0
       0       0       0       0       0       0       0       0       0       0
       0       0       0       0       0       0       0       0       0       0
       0       0       0       0       0       0       0       0       0       0
       0       0       0       0       0       0       0       0       0       0
       0       0       0       0       0       0       0       0       0       0
       0       0       0       0       0       0       0       0       0       0
       0       0       0       0       0       0       0       0       0       0
       0       0       0       0       0       0       0       0       0       0
       0       0       0       0       0       0       0       0       0       0
       0       0       0       0       0       0       0       0       0       0
       0       0       0       0       0       0       0       0       0       0
       0       0       0       0       0       0       0       0       0       0
       0       0       0       0       0       0       0       0       0       0
       0       0       0       0       0       0       0       0       0       0
       0       0       0       0       0       0       0       0       0       0
       0       0       0       0       0       0       0       0       0       0
       0       0       0       0       0       0       0       0       0       0
       0       0       0       0       0       0       0       0       0       0
       0       0       0       0       0       0       0       0       0       0
       0       0       0       0       0       0       0       0       0       0
       0       0       0       0       0       0       0       0       0       0
       0       0       0       0       0       0       0       0       0       0
       0       0       0       0       0       0       0       0       0       0
       0       0       0       0       0       0       0       0       0       0
       0       0       0       0       0       0       0       0       0       0
       0       0       0       0       0       0       0       0       0       0
       0       0       0       0       0       0       0       0       0       0
       0       0       0       0       0       0       0       0       0       0
       0       0       0       0       0       0       0       0       0       0
       0       0       0       0       0       0       0       0       0       0
       0       0       0       0       0       0       0       0       0       0
       0       0       0       0       0       0       0       0       0       0
       0       0       0       0       0       0       0       0       0       0
       0       0       0       0       0       0       0       0       0       0
       0       0       0       0       0       0       0       0       0       0
       0       0       0       0       0       0       0       0       0       0
       0       0       0       0       0       0       0       0       0       0
       0       0       0       0       0       0       0       0       0       0
       0       0       0       0       0       0       0       0       0       0
       0       0       0       0       0       0       0       0       0       0
       0       0       0       0       0       0       0       0       0       0
       0       0       0       0       0       0       0       0       0       0
       0       0       0       0       0       0       0       0       0       0
       0       0       0       0       0       0       0       0       0       0
       0       0       0       0       0       0       0       0       0       0
       0       0       0       0       0       0       0       0       0       0
       0       0       0       0       0       0       0       0       0       0
       0       0       0       0       0       0       0       0       0       0
       0       0       0       0       0       0       0       0       0       0
       0       0       0       0       0       0       0       0       0       0
       0       0       0       0       0       0       0       0       0       0
       0       0       0       0       0       0       0       0       0       0
       0       0       0       0       0       0       0       0       0       0
       0       0       0       0       0       0       0       0       0       0
       0       0       0       0       0       0       0       0       0       0
       0       0       0       0       0       0       0       0       0       0
       0       0       0       0       0       0       0       0       0       0
       0       0       0       0       0       0       0       0       0       0
       0       0       0       0       0       0       0       0       0       0
       0       0       0       0       0       0       0       0       0       0
       0       0       0       0       0       0       0       0       0       0
       0       0       0       0       0       0       0       0       0       0
       0       0       0       0       0       0       0       0       0       0
       0       0       0       0       0       0       0       0       0       0
       0       0       0       0       0       0       0       0       0       0
       0       0       0       0       0       0       0       0       0       0
       0       0       0       0       0       0       0       0       0       0
       0       0       0       0       0       0       0       0       0       0
       0       0       0       0       0       0       0       0       0       0
       0       0       0       0       0       0       0       0       0       0
       0       0       0       0       0       0       0       0       0       0
       0       0       0       0       0       0       0       0       0       0
       0       0       0       0       0       0       0       0       0       0
       0       0       0       0       0       0       0       0       0       0
       0       0       0       0       0       0       0       0       0       0
       0       0       0       0       0       0       0       0       0       0
       0       0       0       0       0       0       0       0       0       0
       0       0       0       0       0       0       0       0       0       0
       0       0       0       0       0       0       0       0       0       0
       0       0       0       0       0       0       0       0       0       0
       0       0       0       0       0       0       0       0       0       0
       0       0       0       0       0       0       0       0       0       0
       0       0       0       0       0       0       0       0       0       0
       0       0       0       0       0       0       0       0       0       0
       0       0       0       0       0       0       0       0       0       0
       0       0       0       0       0       0       0       0       0       0
       0       0       0       0       0       0       0       0       0       0
       0       0       0       0       0       0       0       0       0       0
       0       0       0       0       0       0       0       0       0       0
       0       0       0       0       0       0       0       0       0       0
       0       0       0       0       0       0       0       0       0       0
       0       0       0       0       0       0       0       0       0       0
       0       0       0       0       0       0       0       0       0       0
       0       0       0       0       0       0       0       0       0       0
       0       0       0       0       0       0       0       0       0       0
       0       0       0       0       0       0       0       0       0       0
       0       0       0       0       0       0       0       0       0       0
       0       0       0       0       0       0       0       0       0       0
       0       0       0       0       0       0       0       0       0       0
       0       0       0       0       0       0       0       0       0       0
       0       0       0       0       0       0       0       0       0       0
       0       0       0       0       0       0       0       0       0       0
       0       0       0       0       0       0       0       0       0       0
       0       0       0       0       0       0       0       0       0       0
       0       0       0       0       0       0       0       0       0       0
       0       0       0       0       0       0       0       0       0       0
       0       0       0       0       0       0       0       0       0       0
       0       0       0       0       0       0       0       0       0       0
       0       0       0       0       0       0       0       0       0       0
       0       0       0       0       0       0       0       0       0       0
       0       0       0       0       0       0       0       0       0       0
       0       0       0       0       0       0       0       0       0       0
       0       0       0       0       0       0       0       0       0       0
       0       0       0       0       0       0       0       0       0       0
       0       0       0       0       0       0       0       0       0       0
       0       0       0       0       0       0       0       0       0       0
       0       0       0       0       0       0       0       0       0       0
       0       0       0       0       0       0       0       0       0       0
       0       0       0       0       0       0       0       0       0       0
       0       0       0       0       0       0       0       0       0       0
       0       0       0       0       0       0       0       0       0       0
       0       0       0       0       0       0       0       0       0       0
       0       0       0       0       0       0       0       0       0       0
       0       0       0       0       0       0       0       0       0       0
       0       0       0       0       0       0       0       0       0       0
       0       0       0       0       0       0       0       0       0       0
       0       0       0       0       0       0       0       0       0       0
       0       0       0       0       0       0       0       0       0       0
       0       0       0       0       0       0       0       0       0       0
       0       0       0       0       0       0       0       0       0       0
       0       0       0       0       0       0       0       0       0       0
       0       0       0       0       0       0       0       0       0       0
       0       0       0       0       0       0       0       0       0       0
       0       0       0       0       0       0       0       0       0       0
       0       0       0       0       0       0       0       0       0       0
       0       0       0       0       0       0       0       0       0       0
       0       0       0       0       0       0       0       0       0       0
       0       0       0       0       0       0       0       0       0       0
       0       0       0       0       0       0       0       0       0       0
       0       0       0       0       0       0       0       0       0       0
       0       0       0       0       0       0       0       0       0       0
       0       0       0       0       0       0       0       0       0       0
       0       0       0       0       0       0       0       0       0       0
       0       0       0       0       0       0       0       0       0       0
       0       0       0       0       0       0       0       0       0       0
       0       0       0       0       0       0       0       0       0       0
       0       0       0       0       0       0       0       0       0       0
       0       0       0       0       0       0       0       0       0       0
       0       0       0       0       0       0       0       0       0       0
       0       0       0       0       0       0       0       0       0       0
       0       0       0       0       0       0       0       0       0       0
       0       0       0       0       0       0       0       0       0       0
       0       0       0       0       0       0       0       0       0       0
       0       0       0       0       0       0       0       0       0       0
       0       0       0       0       0       0       0       0       0       0
       0       0       0       0       0       0       0       0       0       0
       0       0       0       0       0       0       0       0       0       0
       0       0       0       0       0       0       0       0       0       0
       0       0       0       0       0       0       0       0       0       0
       0       0       0       0       0       0       0       0       0       0
       0       0       0       0       0       0       0       0       0       0
       0       0       0       0       0       0       0       0       0       0
       0       0       0       0       0       0       0       0       0       0
       0       0       0       0       0       0       0       0       0       0
       0       0       0       0       0       0       0       0       0       0
       0       0       0       0       0       0       0       0       0       0
       0       0       0       0       0       0       0       0       0       0
       0       0       0       0       0       0       0       0       0       0
       0       0       0       0       0       0       0       0       0       0
       0       0       0       0       0       0       0       0       0       0
       0       0       0       0       0       0       0       0       0       0
       0       0       0       0       0       0       0       0       0       0
       0       0       0       0       0       0       0       0       0       0
       0       0       0       0       0       0       0       0       0       0
       0       0       0       0       0       0       0       0       0       0
       0       0       0       0       0       0       0       0       0       0
       0       0       0       0       0       0       0       0       0       0
       0       0       0       0       0       0       0       0       0       0
       0       0       0       0       0       0       0       0       0       0
       0       0       0       0       0       0       0       0       0       0
       0       0       0       0       0       0       0       0       0       0
       0       0       0       0       0       0       0       0       0       0
       0       0       0       0       0       0       0       0       0       0
       0       0       0       0       0       0       0       0       0       0
       0       0       0       0       0       0       0       0       0       0
       0       0       0       0       0       0       0       0       0       0
       0       0       0       0       0       0       0       0       0       0
       0       0       0       0       0       0       0       0       0       0
       0       0       0       0       0       0       0       0       0       0
       0       0       0       0       0       0       0       0       0       0
       0       0       0       0       0       0       0       0       0       0
       0       0       0       0       0       0       0       0       0       0
       0       0       0       0       0       0       0       0       0       0
       0       0       0       0       0       0       0       0       0       0
       0       0       0       0       0       0       0       0       0       0
       0       0       0       0       0       0       0       0       0       0
       0       0       0       0       0       0       0       0       0       0
       0       0       0       0       0       0       0       0       0       0
       0       0       0       0       0       0       0       0       0       0
       0       0       0       0       0       0       0       0       0       0
       0       0       0       0       0       0       0       0       0       0
       0       0       0       0       0       0       0       0       0       0
       0       0       0       0       0       0       0       0       0       0
       0       0       0       0       0       0       0       0       0       0
       0       0       0       0       0       0       0       0       0       0
       0       0       0       0       0       0       0       0       0       0
       0       0       0       0       0       0       0       0       0       0
       0       0       0       0       0       0       0       0       0       0
       0       0       0       0       0       0       0       0       0       0
       0       0       0       0       0       0       0       0       0       0
       0       0       0       0       0       0       0       0       0       0
       0       0       0       0       0       0       0       0       0       0
       0       0       0       0       0       0       0       0       0       0
       0       0       0       0       0       0       0       0       0       0
       0       0       0       0       0       0       0       0       0       0
       0       0       0       0       0       0       0       0       0       0
       0       0       0       0       0       0       0       0       0       0
       0       0       0       0       0       0       0       0       0       0
       0       0       0       0       0       0       0       0       0       0
       0       0       0       0       0       0       0       0       0       0
       0       0       0       0       0       0       0       0       0       0
       0       0       0       0       0       0       0       0       0       0
       0       0       0       0       0       0       0       0       0       0
       0       0       0       0       0       0       0       0       0       0
       0       0       0       0       0       0       0       0       0       0
       0       0       0       0       0       0       0       0       0       0
       0       0       0       0       0       0       0       0       0       0
       0       0       0       0       0       0       0       0       0       0
       0       0       0       0       0       0       0       0       0       0
       0       0       0       0       0       0       0       0       0       0
       0       0       0       0       0       0       0       0       0       0
       0       0       0       0       0       0       0       0       0       0
       0       0       0       0       0       0       0       0       0       0
       0       0       0       0       0       0       0       0       0       0
       0       0       0       0       0       0       0       0       0       0
       0       0       0       0       0       0       0       0       0       0
       0       0       0       0       0       0       0       0       0       0
       0       0       0       0       0       0       0       0       0       0
       0       0       0       0       0       0       0       0       0       0
       0       0       0       0       0       0       0       0       0       0
       0       0       0       0       0       0       0       0       0       0
       0       0       0       0       0       0       0       0       0       0
       0       0       0       0       0       0       0       0       0       0
       0       0       0       0       0       0       0       0       0       0
       0       0       0       0       0       0       0       0       0       0
       0       0       0       0       0       0       0       0       0       0
       0       0       0       0       0       0       0       0       0       0
       0       0       0       0       0       0       0       0       0       0
       0       0       0       0       0       0       0       0       0       0
       0       0       0       0       0       0       0       0       0       0
       0       0       0       0       0       0       0       0       0       0
       0       0       0       0       0       0       0       0       0       0
       0       0       0       0       0       0       0       0       0       0
       0       0       0       0       0       0       0       0       0       0
       0       0       0       0       0       0       0       0       0       0
       0       0       0       0       0       0       0       0       0       0
       0       0       0       0       0       0       0       0       0       0
       0       0       0       0       0       0       0       0       0       0
       0       0       0       0       0       0       0       0       0       0
       0       0       0       0       0       0       0       0       0       0
       0       0       0       0       0       0       0       0       0       0
       0       0       0       0       0       0       0       0       0       0
       0       0       0       0       0       0       0       0       0       0
       0       0       0       0       0       0       0       0       0       0
       0       0       0       0       0       0       0       0       0       0
       0       0       0       0       0       0       0       0       0       0
       0       0       0       0       0       0       0       0       0       0
       0       0       0       0       0       0       0       0       0       0
       0       0       0       0       0       0       0       0       0       0
       0       0       0       0       0       0       0       0       0       0
       0       0       0       0       0       0       0       0       0       0
       0       0       0       0       0       0       0       0       0       0
       0       0       0       0       0       0       0       0       0       0
       0       0       0       0       0       0       0       0       0       0
       0       0       0       0       0       0       0       0       0       0
       0       0       0       0       0       0       0       0       0       0
       0       0       0       0       0       0       0       0       0       0
       0       0       0       0       0       0       0       0       0       0
       0       0       0       0       0       0       0       0       0       0
       0       0       0       0       0       0       0       0       0       0
       0       0       0       0       0       0       0       0       0       0
       0       0       0       0       0       0       0       0       0       0
       0       0       0       0       0       0       0       0       0       0
       0       0       0       0       0       0       0       0       0       0
       0       0       0       0       0       0       0       0       0       0
       0       0       0       0       0       0       0       0       0       0
       0       0       0       0       0       0       0       0       0       0
       0       0       0       0       0       0       0       0       0       0
       0       0       0       0       0       0       0       0       0       0
       0       0       0       0       0       0       0       0       0       0
       0       0       0       0       0       0       0       0       0       0
       0       0       0       0       0       0       0       0       0       0
       0       0       0       0       0       0       0       0       0       0
       0       0       0       0       0       0       0       0       0       0
       0       0       0       0       0       0       0       0       0       0
       0       0       0       0       0       0       0       0       0       0
       0       0       0       0       0       0       0       0       0       0
       0       0       0       0       0       0       0       0       0       0
       0       0       0       0       0       0       0       0       0       0
       0       0       0       0       0       0       0       0       0       0
       0       0       0       0       0       0       0       0       0       0
       0       0       0       0       0       0       0       0       0       0
       0       0       0       0       0       0       0       0       0       0
       0       0       0       0       0       0       0       0       0       0
       0       0       0       0       0       0       0       0       0       0
       0       0       0       0       0       0       0       0       0       0
       0       0       0       0       0       0       0       0       0       0
       0       0       0       0       0       0       0       0       0       0
       0       0       0       0       0       0       0       0       0       0
       0       0       0       0       0       0       0       0       0       0
       0       0       0       0       0       0       0       0       0       0
       0       0       0       0       0       0       0       0       0       0
       0       0       0       0       0       0       0       0       0       0
       0       0       0       0       0       0       0       0       0       0
       0       0       0       0       0       0       0       0       0       0
       0       0       0       0       0       0       0       0       0       0
       0       0       0       0       0       0       0       0       0       0
       0       0       0       0       0       0       0       0       0       0
       0       0       0       0       0       0       0       0       0       0
       0       0       0       0       0       0       0       0       0       0
       0       0       0       0       0       0       0       0       0       0
       0       0       0       0       0       0       0       0       0       0
       0       0       0       0       0       0       0       0       0       0
       0       0       0       0       0       0       0       0       0       0
       0       0       0       0       0       0       0       0       0       0
       0       0       0       0       0       0       0       0       0       0
       0       0       0       0       0       0       0       0       0       0
       0       0       0       0       0       0       0       0       0       0
       0       0       0       0       0       0       0       0       0       0
       0       0       0       0       0       0       0       0       0       0
       0       0       0       0       0       0       0       0       0       0
       0       0       0       0       0       0       0       0       0       0
       0       0       0       0       0       0       0       0       0       0
       0       0       0       0       0       0       0       0       0       0
       0       0       0       0       0       0       0       0       0       0
       0       0       0       0       0       0       0       0       0       0
       0       0       0       0       0       0       0       0       0       0
       0       0       0       0       0       0       0       0       0       0
       0       0       0       0       0       0       0       0       0       0
       0       0       0       0       0       0       0       0       0       0
       0       0       0       0       0       0       0       0       0       0
       0       0       0       0       0       0       0       0       0       0
       0       0       0       0       0       0       0       0       0       0
       0       0       0       0       0       0       0       0       0       0
       0       0       0       0       0       0       0       0       0       0
       0       0       0       0       0       0       0       0       0       0
       0       0       0       0       0       0       0       0       0       0
       0       0       0       0       0       0       0       0       0       0
       0       0       0       0       0       0       0       0       0       0
       0       0       0       0       0       0       0       0       0       0
       0       0       0       0       0       0       0       0       0       0
       0       0       0       0       0       0       0       0       0       0
       0       0       0       0       0       0       0       0       0       0
       0       0       0       0       0       0       0       0       0       0
       0       0       0       0       0       0       0       0       0       0
       0       0       0       0       0       0       0       0       0       0
       0       0       0       0       0       0       0       0       0       0
       0       0       0       0       0       0       0       0       0       0
       0       0       0       0       0       0       0       0       0       0
       0       0       0       0       0       0       0       0       0       0
       0       0       0       0       0       0       0       0       0       0
       0       0       0       0       0       0       0       0       0       0
       0       0       0       0       0       0       0       0       0       0
       0       0       0       0       0       0       0       0       0       0
       0       0       0       0       0       0       0       0       0       0
       0       0       0       0       0       0       0       0       0       0
       0       0       0       0       0       0       0       0       0       0
       0       0       0       0       0       0       0       0       0       0
       0       0       0       0       0       0       0       0       0       0
       0       0       0       0       0       0       0       0       0       0
       0       0       0       0       0       0       0       0       0       0
       0       0       0       0       0       0       0       0       0       0
       0       0       0       0       0       0       0       0       0       0
       0       0       0       0       0       0       0       0       0       0
       0       0       0       0       0       0       0       0       0       0
       0       0       0       0       0       0       0       0       0       0
       0       0       0       0       0       0       0       0       0       0
       0       0       0       0       0       0       0       0       0       0
       0       0       0       0       0       0       0       0       0       0
       0       0       0       0       0       0       0       0       0       0
       0       0       0       0       0       0       0       0       0       0
       0       0       0       0       0       0       0       0       0       0
       0       0       0       0       0       0       0       0       0       0
       0       0       0       0       0       0       0       0       0       0
       0       0       0       0       0       0       0       0       0       0
       0       0       0       0       0       0       0       0       0       0
       0       0       0       0       0       0       0       0       0       0
       0       0       0       0       0       0       0       0       0       0
       0       0       0       0       0       0       0       0       0       0
       0       0       0       0       0       0       0       0       0       0
       0       0       0       0       0       0       0       0       0       0
       0       0       0       0       0       0       0       0       0       0
       0       0       0       0       0       0       0       0       0       0
       0       0       0       0       0       0       0       0       0       0
       0       0       0       0       0       0       0       0       0       0
       0       0       0       0       0       0       0       0       0       0
       0       0       0       0       0       0       0       0       0       0
       0       0       0       0       0       0       0       0       0       0
       0       0       0       0       0       0       0       0       0       0
       0       0       0       0       0       0       0       0       0       0
       0       0       0       0       0       0       0       0       0       0
       0       0       0       0       0       0       0       0       0       0
       0       0       0       0       0       0       0       0       0       0
       0       0       0       0       0       0       0       0       0       0
       0       0       0       0       0       0       0       0       0       0
       0       0       0       0       0       0       0       0       0       0
       0       0       0       0       0       0       0       0       0       0
       0       0       0       0       0       0       0       0       0       0
       0       0       0       0       0       0       0       0       0       0
       0       0       0       0       0       0       0       0       0       0
       0       0       0       0       0       0       0       0       0       0
       0       0       0       0       0       0       0       0       0       0
       0       0       0       0       0       0       0       0       0       0
       0       0       0       0       0       0       0       0       0       0
       0       0       0       0       0       0       0       0       0       0
       0       0       0       0       0       0       0       0       0       0
       0       0       0       0       0       0       0       0       0       0
       0       0       0       0       0       0       0       0       0       0
       0       0       0       0       0       0       0       0       0       0
       0       0       0       0       0       0       0       0       0       0
       0       0       0       0       0       0       0       0       0       0
       0       0       0       0       0       0       0       0       0       0
       0       0       0       0       0       0       0       0       0       0
       0       0       0       0       0       0       0       0       0       0
       0       0       0       0       0       0       0       0       0       0
       0       0       0       0       0       0       0       0       0       0
       0       0       0       0       0       0       0       0       0       0
       0       0       0       0       0       0       0       0       0       0
       0       0       0       0       0       0       0       0       0       0
       0       0       0       0       0       0       0       0       0       0
       0       0       0       0       0       0       0       0       0       0
       0       0       0       0       0       0       0       0       0       0
       0       0       0       0       0       0       0       0       0       0
       0       0       0       0       0       0       0       0       0       0
       0       0       0       0       0       0       0       0       0       0
       0       0       0       0       0       0       0       0       0       0
       0       0       0       0       0       0       0       0       0       0
       0       0       0       0       0       0       0       0       0       0
       0       0       0       0       0       0       0       0       0       0
       0       0       0       0       0       0       0       0       0       0
       0       0       0       0       0       0       0       0       0       0
       0       0       0       0       0       0       0       0       0       0
       0       0       0       0       0       0       0       0       0       0
       0       0       0       0       0       0       0       0       0       0
       0       0       0       0       0       0       0       0       0       0
       0       0       0       0       0       0       0       0       0       0
       0       0       0       0       0       0       0       0       0       0
       0       0       0       0       0       0       0       0       0       0
       0       0       0       0       0       0       0       0       0       0
       0       0       0       0       0       0       0       0       0       0
       0       0       0       0       0       0       0       0       0       0
       0       0       0       0       0       0       0       0       0       0
       0       0       0       0       0       0       0       0       0       0
       0       0       0       0       0       0       0       0       0       0
       0       0       0       0       0       0       0       0       0       0
       0       0       0       0       0       0       0       0       0       0
       0       0       0       0       0       0       0       0       0       0
       0       0       0       0       0       0       0       0       0       0
       0       0       0       0       0       0       0       0       0       0
       0       0       0       0       0       0       0       0       0       0
       0       0       0       0       0       0       0       0       0       0
       0       0       0       0       0       0       0       0       0       0
       0       0       0       0       0       0       0       0       0       0
       0       0       0       0       0       0       0       0       0       0
       0       0       0       0       0       0       0       0       0       0
       0       0       0       0       0       0       0       0       0       0
       0       0       0       0       0       0       0       0       0       0
       0       0       0       0       0       0       0       0       0       0
       0       0       0       0       0       0       0       0       0       0
       0       0       0       0       0       0       0       0       0       0
       0       0       0       0       0       0       0       0       0       0
       0       0       0       0       0       0       0       0       0       0
       0       0       0       0       0       0       0       0       0       0
       0       0       0       0       0       0       0       0       0       0
       0       0       0       0       0       0       0       0       0       0
       0       0       0       0       0       0       0       0       0       0
       0       0       0       0       0       0       0       0       0       0
       0       0       0       0       0       0       0       0       0       0
       0       0       0       0       0       0       0       0       0       0
       0       0       0       0       0       0       0       0       0       0
       0       0       0       0       0       0       0       0       0       0
       0       0       0       0       0       0       0       0       0       0
       0       0       0       0       0       0       0       0       0       0
       0       0       0       0       0       0       0       0       0       0
       0       0       0       0       0       0       0       0       0       0
       0       0       0       0       0       0       0       0       0       0
       0       0       0       0       0       0       0       0       0       0
       0       0       0       0       0       0       0       0       0       0
       0       0       0       0       0       0       0       0       0       0
       0       0       0       0       0       0       0       0       0       0
       0       0       0       0       0       0       0       0       0       0
       0       0       0       0       0       0       0       0       0       0
       0       0       0       0       0       0       0       0       0       0
       0       0       0       0       0       0       0       0       0       0
       0       0       0       0       0       0       0       0       0       0
       0       0       0       0       0       0       0       0       0       0
       0       0       0       0       0       0       0       0       0       0
       0       0       0       0       0       0       0       0       0       0
       0       0       0       0       0       0       0       0       0       0
       0       0       0       0       0       0       0       0       0       0
       0       0       0       0       0       0       0       0       0       0
       0       0       0       0       0       0       0       0       0       0
       0       0       0       0       0       0       0       0       0       0
       0       0       0       0       0       0       0       0       0       0
       0       0       0       0       0       0       0       0       0       0
       0       0       0       0       0       0       0       0       0       0
       0       0       0       0       0       0       0       0       0       0
       0       0       0       0       0       0       0       0       0       0
       0       0       0       0       0       0       0       0       0       0
       0       0       0       0       0       0       0       0       0       0
       0       0       0       0       0       0       0       0       0       0
       0       0       0       0       0       0       0       0       0       0
       0       0       0       0       0       0       0       0       0       0
       0       0       0       0       0       0       0       0       0       0
       0       0       0       0       0       0       0       0       0       0
       0       0       0       0       0       0       0       0       0       0
       0       0       0       0       0       0       0       0       0       0
       0       0       0       0       0       0       0       0       0       0
       0       0       0       0       0       0       0       0       0       0
       0       0       0       0       0       0       0       0       0       0
       0       0       0       0       0       0       0       0       0       0
       0       0       0       0       0       0       0       0       0       0
       0       0       0       0       0       0       0       0       0       0
       0       0       0       0       0       0       0       0       0       0
       0       0       0       0       0       0       0       0       0       0
       0       0       0       0       0       0       0       0       0       0
       0       0       0       0       0       0       0       0       0       0
       0       0       0       0       0       0       0       0       0       0
       0       0       0       0       0       0       0       0       0       0
       0       0       0       0       0       0       0       0       0       0
       0       0       0       0       0       0       0       0       0       0
       0       0       0       0       0       0       0       0       0       0
       0       0       0       0       0       0       0       0       0       0
       0       0       0       0       0       0       0       0       0       0
       0       0       0       0       0       0       0       0       0       0
       0       0       0       0       0       0       0       0       0       0
       0       0       0       0       0       0       0       0       0       0
       0       0       0       0       0       0       0       0       0       0
       0       0       0       0       0       0       0       0       0       0
       0       0       0       0       0       0       0       0       0       0
       0       0       0       0       0       0       0       0       0       0
       0       0       0       0       0       0       0       0       0       0
       0       0       0       0       0       0       0       0       0       0
       0       0       0       0       0       0       0       0       0       0
       0       0       0       0       0       0       0       0       0       0
       0       0       0       0       0       0       0       0       0       0
       0       0       0       0       0       0       0       0       0       0
       0       0       0       0       0       0       0       0       0       0
       0       0       0       0       0       0       0       0       0       0
       0       0       0       0       0       0       0       0       0       0
       0       0       0       0       0       0       0       0       0       0
       0       0       0       0       0       0       0       0       0       0
       0       0       0       0       0       0       0       0       0       0
       0       0       0       0       0       0       0       0       0       0
       0       0       0       0       0       0       0       0       0       0
       0       0       0       0       0       0       0       0       0       0
       0       0       0       0       0       0       0       0       0       0
       0       0       0       0       0       0       0       0       0       0
       0       0       0       0       0       0       0       0       0       0
       0       0       0       0       0       0       0       0       0       0
       0       0       0       0       0       0       0       0       0       0
       0       0       0       0       0       0       0       0       0       0
       0       0       0       0       0       0       0       0       0       0
       0       0       0       0       0       0       0       0       0       0
       0       0       0       0       0       0       0       0       0       0
       0       0       0       0       0       0       0       0       0       0
       0       0       0       0       0       0       0       0       0       0
       0       0       0       0       0       0       0       0       0       0
       0       0       0       0       0       0       0       0       0       0
       0       0       0       0       0       0       0       0       0       0
       0       0       0       0       0       0       0       0       0       0
       0       0       0       0       0       0       0       0       0       0
       0       0       0       0       0       0       0       0       0       0
       0       0       0       0       0       0       0       0       0       0
       0       0       0       0       0       0       0       0       0       0
       0       0       0       0       0       0       0       0       0       0
       0       0       0       0       0       0       0       0       0       0
       0       0       0       0       0       0       0       0       0       0
       0       0       0       0       0       0       0       0       0       0
       0       0       0       0       0       0       0       0       0       0
       0       0       0       0       0       0       0       0       0       0
       0       0       0       0       0       0       0       0       0       0
       0       0       0       0       0       0       0       0       0       0
       0       0       0       0       0       0       0       0       0       0
       0       0       0       0       0       0       0       0       0       0
       0       0       0       0       0       0       0       0       0       0
       0       0       0       0       0       0       0       0       0       0
       0       0       0       0       0       0       0       0       0       0
       0       0       0       0       0       0       0       0       0       0
       0       0       0       0       0       0       0       0       0       0
       0       0       0       0       0       0       0       0       0       0
       0       0       0       0       0       0       0       0       0       0
       0       0       0       0       0       0       0       0       0       0
       0       0       0       0       0       0       0       0       0       0
       0       0       0       0       0       0       0       0       0       0
       0       0       0       0       0       0       0       0       0       0
       0       0       0       0       0       0       0       0       0       0
       0       0       0       0       0       0       0       0       0       0
       0       0       0       0       0       0       0       0       0       0
       0       0       0       0       0       0       0       0       0       0
       0       0       0       0       0       0       0       0       0       0
       0       0       0       0       0       0       0       0       0       0
       0       0       0       0       0       0       0       0       0       0
       0       0       0       0       0       0       0       0       0       0
       0       0       0       0       0       0       0       0       0       0
       0       0       0       0       0       0       0       0       0       0
       0       0       0       0       0       0       0       0       0       0
       0       0       0       0       0       0       0       0       0       0
       0       0       0       0       0       0       0       0       0       0
       0       0       0       0       0       0       0       0       0       0
       0       0       0       0       0       0       0       0       0       0
       0       0       0       0       0       0       0       0       0       0
       0       0       0       0       0       0       0       0       0       0
       0       0       0       0       0       0       0       0       0       0
       0       0       0       0       0       0       0       0       0       0
       0       0       0       0       0       0       0       0       0       0
       0       0       0       0       0       0       0       0       0       0
       0       0       0       0       0       0       0       0       0       0
       0       0       0       0       0       0       0       0       0       0
       0       0       0       0       0       0       0       0       0       0
       0       0       0       0       0       0       0       0       0       0
       0       0       0       0       0       0       0       0       0       0
       0       0       0       0       0       0       0       0       0       0
       0       0       0       0       0       0       0       0       0       0
       0       0       0       0       0       0       0       0       0       0
       0       0       0       0       0       0       0       0       0       0
       0       0       0       0       0       0       0       0       0       0
       0       0       0       0       0       0       0       0       0       0
       0       0       0       0       0       0       0       0       0       0
       0       0       0       0       0       0       0       0       0       0
       0       0       0       0       0       0       0       0       0       0
       0       0       0       0       0       0       0       0       0       0
       0       0       0       0       0       0       0       0       0       0
       0       0       0       0       0       0       0       0       0       0
       0       0       0       0       0       0       0       0       0       0
       0       0       0       0       0       0       0       0       0       0
       0       0       0       0       0       0       0       0       0       0
       0       0       0       0       0       0       0       0       0       0
       0       0       0       0       0       0       0       0       0       0
       0       0       0       0       0       0       0       0       0       0
       0       0       0       0       0       0       0       0       0       0
       0       0       0       0       0       0       0       0       0       0
       0       0       0       0       0       0       0       0       0       0
       0       0       0       0       0       0       0       0       0       0
       0       0       0       0       0       0       0       0       0       0
       0       0       0       0       0       0       0       0       0       0
       0       0       0       0       0       0       0       0       0       0
       0       0       0       0       0       0       0       0       0       0
       0       0       0       0       0       0       0       0       0       0
       0       0       0       0       0       0       0       0       0       0
       0       0       0       0       0       0       0       0       0       0
       0       0       0       0       0       0       0       0       0       0
       0       0       0       0       0       0       0       0       0       0
       0       0       0       0       0       0       0       0       0       0
       0       0       0       0       0       0       0       0       0       0
       0       0       0       0       0       0       0       0       0       0
       0       0       0       0       0       0       0       0       0       0
       0       0       0       0       0       0       0       0       0       0
       0       0       0       0       0       0       0       0       0       0
       0       0       0       0       0       0       0       0       0       0
       0       0       0       0       0       0       0       0       0       0
       0       0       0       0       0       0       0       0       0       0
       0       0       0       0       0       0       0       0       0       0
       0       0       0       0       0       0       0       0       0       0
       0       0       0       0       0       0       0       0       0       0
       0       0       0       0       0       0       0       0       0       0
       0       0       0       0       0       0       0       0       0       0
       0       0       0       0       0       0       0       0       0       0
       0       0       0       0       0       0       0       0       0       0
       0       0       0       0       0       0       0       0       0       0
       0       0       0       0       0       0       0       0       0       0
       0       0       0       0       0       0       0       0       0       0
       0       0       0       0       0       0       0       0       0       0
       0       0       0       0       0       0       0       0       0       0
       0       0       0       0       0       0       0       0       0       0
       0       0       0       0       0       0       0       0       0       0
       0       0       0       0       0       0       0       0       0       0
       0       0       0       0       0       0       0       0       0       0
       0       0       0       0       0       0       0       0       0       0
       0       0       0       0       0       0       0       0       0       0
       0       0       0       0       0       0       0       0       0       0
       0       0       0       0       0       0       0       0       0       0
       0       0       0       0       0       0       0       0       0       0
       0       0       0       0       0       0       0       0       0       0
       0       0       0       0       0       0       0       0       0       0
       0       0       0       0       0       0       0       0       0       0
       0       0       0       0       0       0       0       0       0       0
       0       0       0       0       0       0       0       0       0       0
       0       0       0       0       0       0       0       0       0       0
       0       0       0       0       0       0       0       0       0       0
       0       0       0       0       0       0       0       0       0       0
       0       0       0       0       0       0       0       0       0       0
       0       0       0       0       0       0       0       0       0       0
       0       0       0       0       0       0       0       0       0       0
       0       0       0       0       0       0       0       0       0       0
       0       0       0       0       0       0       0       0       0       0
       0       0       0       0       0       0       0       0       0       0
       0       0       0       0       0       0       0       0       0       0
       0       0       0       0       0       0       0       0       0       0
       0       0       0       0       0       0       0       0       0       0
       0       0       0       0       0       0       0       0       0       0
       0       0       0       0       0       0       0       0       0       0
       0       0       0       0       0       0       0       0       0       0
       0       0       0       0       0       0       0       0       0       0
       0       0       0       0       0       0       0       0       0       0
       0       0       0       0       0       0       0       0       0       0
       0       0       0       0       0       0       0       0       0       0
       0       0       0       0       0       0       0       0       0       0
       0       0       0       0       0       0       0       0       0       0
       0       0       0       0       0       0       0       0       0       0
       0       0       0       0       0       0       0       0       0       0
       0       0       0       0       0       0       0       0       0       0
       0       0       0       0       0       0       0       0       0       0
       0       0       0       0       0       0       0       0       0       0
       0       0       0       0       0       0       0       0       0       0
       0       0       0       0       0       0       0       0       0       0
       0       0       0       0       0       0       0       0       0       0
       0       0       0       0       0       0       0       0       0       0
       0       0       0       0       0       0       0       0       0       0
       0       0       0       0       0       0       0       0       0       0
       0       0       0       0       0       0       0       0       0       0
       0       0       0       0       0       0       0       0       0       0
       0       0       0       0       0       0       0       0       0       0
       0       0       0       0       0       0       0       0       0       0
       0       0       0       0       0       0       0       0       0       0
       0       0       0       0       0       0       0       0       0       0
       0       0       0       0       0       0       0       0       0       0
       0       0       0       0       0       0       0       0       0       0
       0       0       0       0       0       0       0       0       0       0
       0       0       0       0       0       0       0       0       0       0
       0       0       0       0       0       0       0       0       0       0
       0       0       0       0       0       0       0       0       0       0
       0       0       0       0       0       0       0       0       0       0
       0       0       0       0       0       0       0       0       0       0
       0       0       0       0       0       0       0       0       0       0
       0       0       0       0       0       0       0       0       0       0
       0       0       0       0       0       0       0       0       0       0
       0       0       0       0       0       0       0       0       0       0
       0       0       0       0       0       0       0       0       0       0
       0       0       0       0       0       0       0       0       0       0
       0       0       0       0       0       0       0       0       0       0
       0       0       0       0       0       0       0       0       0       0
       0       0       0       0       0       0       0       0       0       0
       0       0       0       0       0       0       0       0       0       0
       0       0       0       0       0       0       0       0       0       0
       0       0       0       0       0       0       0       0       0       0
       0       0       0       0       0       0       0       0       0       0
       0       0       0       0       0       0       0       0       0       0
       0       0       0       0       0       0       0       0       0       0
       0       0       0       0       0       0       0       0       0       0
       0       0       0       0       0       0       0       0       0       0
       0       0       0       0       0       0       0       0       0       0
       0       0       0       0       0       0       0       0       0       0
       0       0       0       0       0       0       0       0       0       0
       0       0       0       0       0       0       0       0       0       0
       0       0       0       0       0       0       0       0       0       0
       0       0       0       0       0       0       0       0       0       0
       0       0       0       0       0       0       0       0       0       0
       0       0       0       0       0       0       0       0       0       0
       0       0       0       0       0       0       0       0       0       0
       0       0       0       0       0       0       0       0       0       0
       0       0       0       0       0       0       0       0       0       0
       0       0       0       0       0       0       0       0       0       0
       0       0       0       0       0       0       0       0       0       0
       0       0       0       0       0       0       0       0       0       0
       0       0       0       0       0       0       0       0       0       0
       0       0       0       0       0       0       0       0       0       0
       0       0       0       0       0       0       0       0       0       0
       0       0       0       0       0       0       0       0       0       0
       0       0       0       0       0       0       0       0       0       0
       0       0       0       0       0       0       0       0       0       0
       0       0       0       0       0       0       0       0       0       0
       0       0       0       0       0       0       0       0       0       0
       0       0       0       0       0       0       0       0       0       0
       0       0       0       0       0       0       0       0       0       0
       0       0       0       0       0       0       0       0       0       0
       0       0       0       0       0       0       0       0       0       0
       0       0       0       0       0       0       0       0       0       0
       0       0       0       0       0       0       0       0       0       0
       0       0       0       0       0       0       0       0       0       0
       0       0       0       0       0       0       0       0       0       0
       0       0       0       0       0       0       0       0       0       0
       0       0       0       0       0       0       0       0       0       0
       0       0       0       0       0       0       0       0       0       0
       0       0       0       0       0       0       0       0       0       0
       0       0       0       0       0       0       0       0       0       0
       0       0       0       0       0       0       0       0       0       0
       0       0       0       0       0       0       0       0       0       0
       0       0       0       0       0       0       0       0       0       0
       0       0       0       0       0       0       0       0       0       0
       0       0       0       0       0       0       0       0       0       0
       0       0       0       0       0       0       0       0       0       0
       0       0       0       0       0       0       0       0       0       0
       0       0       0       0       0       0       0       0       0       0
       0       0       0       0       0       0       0       0       0       0
       0       0       0       0       0       0       0       0       0       0
       0       0       0       0       0       0       0       0       0       0
       0       0       0       0       0       0       0       0       0       0
       0       0       0       0       0       0       0       0       0       0
       0       0       0       0       0       0       0       0       0       0
       0       0       0       0       0       0       0       0       0       0
       0       0       0       0       0       0       0       0       0       0
       0       0       0       0       0       0       0       0       0       0
       0       0       0       0       0       0       0       0       0       0
       0       0       0       0       0       0       0       0       0       0
       0       0       0       0       0       0       0       0       0       0
       0       0       0       0       0       0       0       0       0       0
       0       0       0       0       0       0       0       0       0       0
       0       0       0       0       0       0       0       0       0       0
       0       0       0       0       0       0       0       0       0       0
       0       0       0       0       0       0       0       0       0       0
       0       0       0       0       0       0       0       0       0       0
       0       0       0       0       0       0       0       0       0       0
       0       0       0       0       0       0       0       0       0       0
       0       0       0       0       0       0       0       0       0       0
       0       0       0       0       0       0       0       0       0       0
       0       0       0       0       0       0       0       0       0       0
       0       0       0       0       0       0       0       0       0       0
       0       0       0       0       0       0       0       0       0       0
       0       0       0       0       0       0       0       0       0       0
       0       0       0       0       0       0       0       0       0       0
       0       0       0       0       0       0       0       0       0       0
       0       0       0       0       0       0       0       0       0       0
       0       0       0       0       0       0       0       0       0       0
       0       0       0       0       0       0       0       0       0       0
       0       0       0       0       0       0       0       0       0       0
       0       0       0       0       0       0       0       0       0       0
       0       0       0       0       0       0       0       0       0       0
       0       0       0       0       0       0       0       0       0       0
       0       0       0       0       0       0       0       0       0       0
       0       0       0       0       0       0       0       0       0       0
       0       0       0       0       0       0       0       0       0       0
       0       0       0       0       0       0       0       0       0       0
       0       0       0       0       0       0       0       0       0       0
       0       0       0       0       0       0       0       0       0       0
       0       0       0       0       0       0       0       0       0       0
       0       0       0       0       0       0       0       0       0       0
       0       0       0       0       0       0       0       0       0       0
       0       0       0       0       0       0       0       0       0       0
       0       0       0       0       0       0       0       0       0       0
       0       0       0       0       0       0       0       0       0       0
       0       0       0       0       0       0       0       0       0       0
       0       0       0       0       0       0       0       0       0       0
       0       0       0       0       0       0       0       0       0       0
       0       0       0       0       0       0       0       0       0       0
       0       0       0       0       0       0       0       0       0       0
       0       0       0       0       0       0       0       0       0       0
       0       0       0       0       0       0       0       0       0       0
       0       0       0       0       0       0       0       0       0       0
       0       0       0       0       0       0       0       0       0       0
       0       0       0       0       0       0       0       0       0       0
       0       0       0       0       0       0       0       0       0       0
       0       0       0       0       0       0       0       0       0       0
       0       0       0       0       0       0       0       0       0       0
       0       0       0       0       0       0       0       0       0       0
       0       0       0       0       0       0       0       0       0       0
       0       0       0       0       0       0       0       0       0       0
       0       0       0       0       0       0       0       0       0       0
       0       0       0       0       0       0       0       0       0       0
       0       0       0       0       0       0       0       0       0       0
       0       0       0       0       0       0       0       0       0       0
       0       0       0       0       0       0       0       0       0       0
       0       0       0       0       0       0       0       0       0       0
       0       0       0       0       0       0       0       0       0       0
       0       0       0       0       0       0       0       0       0       0
       0       0       0       0       0       0       0       0       0       0
       0       0       0       0       0       0       0       0       0       0
       0       0       0       0       0       0       0       0       0       0
       0       0       0       0       0       0       0       0       0       0
       0       0       0       0       0       0       0       0       0       0
       0       0       0       0       0       0       0       0       0       0
       0       0       0       0       0       0       0       0       0       0
       0       0       0       0       0       0       0       0       0       0
       0       0       0       0       0       0       0       0       0       0
       0       0       0       0       0       0       0       0       0       0
       0       0       0       0       0       0       0       0       0       0
       0       0       0       0       0       0       0       0       0       0
       0       0       0       0       0       0       0       0       0       0
       0       0       0       0       0       0       0       0       0       0
       0       0       0       0       0       0       0       0       0       0
       0       0       0       0       0       0       0       0       0       0
       0       0       0       0       0       0       0       0       0       0
       0       0       0       0       0       0       0       0       0       0
       0       0       0       0       0       0       0       0       0       0
       0       0       0       0       0       0       0       0       0       0
       0       0       0       0       0       0       0       0       0       0
       0       0       0       0       0       0       0       0       0       0
       0       0       0       0       0       0       0       0       0       0
       0       0       0       0       0       0       0       0       0       0
       0       0       0       0       0       0       0       0       0       0
       0       0       0       0       0       0       0       0       0       0
       0       0       0       0       0       0       0       0       0       0
       0       0       0       0       0       0       0       0       0       0
       0       0       0       0       0       0       0       0       0       0
       0       0       0       0       0       0       0       0       0       0
       0       0       0       0       0       0       0       0       0       0
       0       0       0       0       0       0       0       0       0       0
       0       0       0       0       0       0       0       0       0       0
       0       0       0       0       0       0       0       0       0       0
       0       0       0       0       0       0       0       0       0       0
       0       0       0       0       0       0       0       0       0       0
       0       0       0       0       0       0       0       0       0       0
       0       0       0       0       0       0       0       0       0       0
       0       0       0       0       0       0       0       0       0       0
       0       0       0       0       0       0       0       0       0       0
       0       0       0       0       0       0       0       0       0       0
       0       0       0       0       0       0       0       0       0       0
       0       0       0       0       0       0       0       0       0       0
       0       0       0       0       0       0       0       0       0       0
       0       0       0       0       0       0       0       0       0       0
       0       0       0       0       0       0       0       0       0       0
       0       0       0       0       0       0       0       0       0       0
       0       0       0       0       0       0       0       0       0       0
       0       0       0       0       0       0       0       0       0       0
       0       0       0       0       0       0       0       0       0       0
       0       0       0       0       0       0       0       0       0       0
       0       0       0       0       0       0       0       0       0       0
       0       0       0       0       0       0       0       0       0       0
       0       0       0       0       0       0       0       0       0       0
       0       0       0       0       0       0       0       0       0       0
       0       0       0       0       0       0       0       0       0       0
       0       0       0       0       0       0       0       0       0       0
       0       0       0       0       0       0       0       0       0       0
       0       0       0       0       0       0       0       0       0       0
       0       0       0       0       0       0       0       0       0       0
       0       0       0       0       0       0       0       0       0       0
       0       0       0       0       0       0       0       0       0       0
       0       0       0       0       0       0       0       0       0       0
       0       0       0       0       0       0       0       0       0       0
       0       0       0       0       0       0       0       0       0       0
       0       0       0       0       0       0       0       0       0       0
       0       0       0       0       0       0       0       0       0       0
       0       0       0       0       0       0       0       0       0       0
       0       0       0       0       0       0       0       0       0       0
       0       0       0       0       0       0       0       0       0       0
       0       0       0       0       0       0       0       0       0       0
       0       0       0       0       0       0       0       0       0       0
       0       0       0       0       0       0       0       0       0       0
       0       0       0       0       0       0       0       0       0       0
       0       0       0       0       0       0       0       0       0       0
       0       0       0       0       0       0       0       0       0       0
       0       0       0       0       0       0       0       0       0       0
       0       0       0       0       0       0       0       0       0       0
       0       0       0       0       0       0       0       0       0       0
       0       0       0       0       0       0       0       0       0       0
       0       0       0       0       0       0       0       0       0       0
       0       0       0       0       0       0       0       0       0       0
       0       0       0       0       0       0       0       0       0       0
       0       0       0       0       0       0       0       0       0       0
       0       0       0       0       0       0       0       0       0       0
       0       0       0       0       0       0       0       0       0       0
       0       0       0       0       0       0       0       0       0       0
       0       0       0       0       0       0       0       0       0       0
       0       0       0       0       0       0       0       0       0       0
       0       0       0       0       0       0       0       0       0       0
       0       0       0       0       0       0       0       0       0       0
       0       0       0       0       0       0       0       0       0       0
       0       0       0       0       0       0       0       0       0       0
       0       0       0       0       0       0       0       0       0       0
       0       0       0       0       0       0       0       0       0       0
       0       0       0       0       0       0       0       0       0       0
       0       0       0       0       0       0       0       0       0       0
       0       0       0       0       0       0       0       0       0       0
       0       0       0       0       0       0       0       0       0       0
       0       0       0       0       0       0       0       0       0       0
       0       0       0       0       0       0       0       0       0       0
       0       0       0       0       0       0       0       0       0       0
       0       0       0       0       0       0       0       0       0       0
       0       0       0       0       0       0       0       0       0       0
       0       0       0       0       0       0       0       0       0       0
       0       0       0       0       0       0       0       0       0       0
       0       0       0       0       0       0       0       0       0       0
       0       0       0       0       0       0       0       0       0       0
       0       0       0       0       0       0       0       0       0       0
       0       0       0       0       0       0       0       0       0       0
       0       0       0       0       0       0       0       0       0       0
       0       0       0       0       0       0       0       0       0       0
       0       0       0       0       0       0       0       0       0       0
       0       0       0       0       0       0       0       0       0       0
       0       0       0       0       0       0       0       0       0       0
       0       0       0       0       0       0       0       0       0       0
       0       0       0       0       0       0       0       0       0       0
       0       0       0       0       0       0       0       0       0       0
       0       0       0       0       0       0       0       0       0       0
       0       0       0       0       0       0       0       0       0       0
       0       0       0       0       0       0       0       0       0       0
       0       0       0       0       0       0       0       0       0       0
       0       0       0       0       0       0       0       0       0       0
       0       0       0       0       0       0       0       0       0       0
       0       0       0       0       0       0       0       0       0       0
       0       0       0       0       0       0       0       0       0       0
       0       0       0       0       0       0       0       0       0       0
       0       0       0       0       0       0       0       0       0       0
       0       0       0       0       0       0       0       0       0       0
       0       0       0       0       0       0       0       0       0       0
       0       0       0       0       0       0       0       0       0       0
       0       0       0       0       0       0       0       0       0       0
       0       0       0       0       0       0       0       0       0       0
       0       0       0       0       0       0       0       0       0       0
       0       0       0       0       0       0       0       0       0       0
       0       0       0       0       0       0       0       0       0       0
       0       0       0       0       0       0       0       0       0       0
       0       0       0       0       0       0       0       0       0       0
       0       0       0       0       0       0       0       0       0       0
       0       0       0       0       0       0       0       0       0       0
       0       0       0       0       0       0       0       0       0       0
       0       0       0       0       0       0       0       0       0       0
       0       0       0       0       0       0       0       0       0       0
       0       0       0       0       0       0       0       0       0       0
       0       0       0       0       0       0       0       0       0       0
       0       0       0       0       0       0       0       0       0       0
       0       0       0       0       0       0       0       0       0       0
       0       0       0       0       0       0       0       0       0       0
       0       0       0       0       0       0       0       0       0       0
       0       0       0       0       0       0       0       0       0       0
       0       0       0       0       0       0       0       0       0       0
       0       0       0       0       0       0       0       0       0       0
       0       0       0       0       0       0       0       0       0       0
       0       0       0       0       0       0       0       0       0       0
       0       0       0       0       0       0       0       0       0       0
       0       0       0       0       0       0       0       0       0       0
       0       0       0       0       0       0       0       0       0       0
       0       0       0       0       0       0       0       0       0       0
       0       0       0       0       0       0       0       0       0       0
       0       0       0       0       0       0       0       0       0       0
       0       0       0       0       0       0       0       0       0       0
       0       0       0       0       0       0       0       0       0       0
       0       0       0       0       0       0       0       0       0       0
       0       0       0       0       0       0       0       0       0       0
       0       0       0       0       0       0       0       0       0       0
       0       0       0       0       0       0       0       0       0       0
       0       0       0       0       0       0       0       0       0       0
       0       0       0       0       0       0       0       0       0       0
       0       0       0       0       0       0       0       0       0       0
       0       0       0       0       0       0       0       0       0       0
       0       0       0       0       0       0       0       0       0       0
       0       0       0       0       0       0       0       0       0       0
       0       0       0       0       0       0       0       0       0       0
       0       0       0       0       0       0       0       0       0       0
       0       0       0       0       0       0       0       0       0       0
       0       0       0       0       0       0       0       0       0       0
       0       0       0       0       0       0       0       0       0       0
       0       0       0       0       0       0       0       0       0       0
       0       0       0       0       0       0       0       0       0       0
       0       0       0       0       0       0       0       0       0       0
       0       0       0       0       0       0       0       0       0       0
       0       0       0       0       0       0       0       0       0       0
       0       0       0       0       0       0       0       0       0       0
       0       0       0       0       0       0       0       0       0       0
       0       0       0       0       0       0       0       0       0       0
       0       0       0       0       0       0       0       0       0       0
       0       0       0       0       0       0       0       0       0       0
       0       0       0       0       0       0       0       0       0       0
       0       0       0       0       0       0       0       0       0       0
       0       0       0       0       0       0       0       0       0       0
       0       0       0       0       0       0       0       0       0       0
       0       0       0       0       0       0       0       0       0       0
       0       0       0       0       0       0       0       0       0       0
       0       0       0       0       0       0       0       0       0       0
       0       0       0       0       0       0       0       0       0       0
       0       0       0       0       0       0       0       0       0       0
       0       0       0       0       0       0       0       0       0       0
       0       0       0       0       0       0       0       0       0       0
       0       0       0       0       0       0       0       0       0       0
       0       0       0       0       0       0       0       0       0       0
       0       0       0       0       0       0       0       0       0       0
       0       0       0       0       0       0       0       0       0       0
       0       0       0       0       0       0       0       0       0       0
       0       0       0       0       0       0       0       0       0       0
       0       0       0       0       0       0       0       0       0       0
       0       0       0       0       0       0       0       0       0       0
       0       0       0       0       0       0       0       0       0       0
       0       0       0       0       0       0       0       0       0       0
       0       0       0       0       0       0       0       0       0       0
       0       0       0       0       0       0       0       0       0       0
       0       0       0       0       0       0       0       0       0       0
       0       0       0       0       0       0       0       0       0       0
       0       0       0       0       0       0       0       0       0       0
       0       0       0       0       0       0       0       0       0       0
       0       0       0       0       0       0       0       0       0       0
       0       0       0       0       0       0       0       0       0       0
       0       0       0       0       0       0       0       0       0       0
       0       0       0       0       0       0       0       0       0       0
       0       0       0       0       0       0       0       0       0       0
       0       0       0       0       0       0       0       0       0       0
       0       0       0       0       0       0       0       0       0       0
       0       0       0       0       0       0       0       0       0       0
       0       0       0       0       0       0       0       0       0       0
       0       0       0       0       0       0       0       0       0       0
       0       0       0       0       0       0       0       0       0       0
       0       0       0       0       0       0       0       0       0       0
       0       0       0       0       0       0       0       0       0       0
       0       0       0       0       0       0       0       0       0       0
       0       0       0       0       0       0       0       0       0       0
       0       0       0       0       0       0       0       0       0       0
       0       0       0       0       0       0       0       0       0       0
       0       0       0       0       0       0       0       0       0       0
       0       0       0       0       0       0       0       0       0       0
       0       0       0       0       0       0       0       0       0       0
       0       0       0       0       0       0       0       0       0       0
       0       0       0       0       0       0       0       0       0       0
       0       0       0       0       0       0       0       0       0       0
       0       0       0       0       0       0       0       0       0       0
       0       0       0       0       0       0       0       0       0       0
       0       0       0       0       0       0       0       0       0       0
       0       0       0       0       0       0       0       0       0       0
       0       0       0       0       0       0       0       0       0       0
       0       0       0       0       0       0       0       0       0       0
       0       0       0       0       0       0       0       0       0       0
       0       0       0       0       0       0       0       0       0       0
       0       0       0       0       0       0       0       0       0       0
       0       0       0       0       0       0       0       0       0       0
       0       0       0       0       0       0       0       0       0       0
       0       0       0       0       0       0       0       0       0       0
       0       0       0       0       0       0       0       0       0       0
       0       0       0       0       0       0       0       0       0       0
       0       0       0       0       0       0       0       0       0       0
       0       0       0       0       0       0       0       0       0       0
       0       0       0       0       0       0       0       0       0       0
       0       0       0       0       0       0       0       0       0       0
       0       0       0       0       0       0       0       0       0       0
       0       0       0       0       0       0       0       0       0       0
       0       0       0       0       0       0       0       0       0       0
       0       0       0       0       0       0       0       0       0       0
       0       0       0       0       0       0       0       0       0       0
       0       0       0       0       0       0       0       0       0       0
       0       0       0       0       0       0       0       0       0       0
       0       0       0       0       0       0       0       0       0       0
       0       0       0       0       0       0       0       0       0       0
       0       0       0       0       0       0       0       0       0       0
       0       0       0       0       0       0       0       0       0       0
       0       0       0       0       0       0       0       0       0       0
       0       0       0       0       0       0       0       0       0       0
       0       0       0       0       0       0       0       0       0       0
       0       0       0       0       0       0       0       0       0       0
       0       0       0       0       0       0       0       0       0       0
       0       0       0       0       0       0       0       0       0       0
       0       0       0       0       0       0       0       0       0       0
       0       0       0       0       0       0       0       0       0       0
       0       0       0       0       0       0       0       0       0       0
       0       0       0       0       0       0       0       0       0       0
       0       0       0       0       0       0       0       0       0       0
       0       0       0       0       0       0       0       0       0       0
       0       0       0       0       0       0       0       0       0       0
       0       0       0       0       0       0       0       0       0       0
       0       0       0       0       0       0       0       0       0       0
       0       0       0       0       0       0       0       0       0       0
       0       0       0       0       0       0       0       0       0       0
       0       0       0       0       0       0       0       0       0       0
       0       0       0       0       0       0       0       0       0       0
       0       0       0       0       0       0       0       0       0       0
       0       0       0       0       0       0       0       0       0       0
       0       0       0       0       0       0       0       0       0       0
       0       0       0       0       0       0       0       0       0       0
       0       0       0       0       0       0       0       0       0       0
       0       0       0       0       0       0       0       0       0       0
       0       0       0       0       0       0       0       0       0       0
       0       0       0       0       0       0       0       0       0       0
       0       0       0       0       0       0       0       0       0       0
       0       0       0       0       0       0       0       0       0       0
       0       0       0       0       0       0       0       0       0       0
       0       0       0       0       0       0       0       0       0       0
       0       0       0       0       0       0       0       0       0       0
       0       0       0       0       0       0       0       0       0       0
       0       0       0       0       0       0       0       0       0       0
       0       0       0       0       0       0       0       0       0       0
       0       0       0       0       0       0       0       0       0       0
       0       0       0       0       0       0       0       0       0       0
       0       0       0       0       0       0       0       0       0       0
       0       0       0       0       0       0       0       0       0       0
       0       0       0       0       0       0       0       0       0       0
       0       0       0       0       0       0       0       0       0       0
       0       0       0       0       0       0       0       0       0       0
       0       0       0       0       0       0       0       0       0       0
       0       0       0       0       0       0       0       0       0       0
       0       0       0       0       0       0       0       0       0       0
       0       0       0       0       0       0       0       0       0       0
       0       0       0       0       0       0       0       0       0       0
       0       0       0       0       0       0       0       0       0       0
       0       0       0       0       0       0       0       0       0       0
       0       0       0       0       0       0       0       0       0       0
       0       0       0       0       0       0       0       0       0       0
       0       0       0       0       0       0       0       0       0       0
       0       0       0       0       0       0       0       0       0       0
       0       0       0       0       0       0       0       0       0       0
       0       0       0       0       0       0       0       0       0       0
       0       0       0       0       0       0       0       0       0       0
       0       0       0       0       0       0       0       0       0       0
       0       0       0       0       0       0       0       0       0       0
       0       0       0       0       0       0       0       0       0       0
       0       0       0       0       0       0       0       0       0       0
       0       0       0       0       0       0       0       0       0       0
       0       0       0       0       0       0       0       0       0       0
       0       0       0       0       0       0       0       0       0       0
       0       0       0       0       0       0       0       0       0       0
       0       0       0       0       0       0       0       0       0       0
       0       0       0       0       0       0       0       0       0       0
       0       0       0       0       0       0       0       0       0       0
       0       0       0       0       0       0       0       0       0       0
       0       0       0       0       0       0       0       0       0       0
       0       0       0       0       0       0       0       0       0       0
       0       0       0       0       0       0       0       0       0       0
       0       0       0       0       0       0       0       0       0       0
       0       0       0       0       0       0       0       0       0       0
       0       0       0       0       0       0       0       0       0       0
       0       0       0       0       0       0       0       0       0       0
       0       0       0       0       0       0       0       0       0       0
       0       0       0       0       0       0       0       0       0       0
       0       0       0       0       0       0       0       0       0       0
       0       0       0       0       0       0       0       0       0       0
       0       0       0       0       0       0       0       0       0       0
       0       0       0       0       0       0       0       0       0       0
       0       0       0       0       0       0       0       0       0       0
       0       0       0       0       0       0       0       0       0       0
       0       0       0       0       0       0       0       0       0       0
       0       0       0       0       0       0       0       0       0       0
       0       0       0       0       0       0       0       0       0       0
       0       0       0       0       0       0       0       0       0       0
       0       0       0       0       0       0       0       0       0       0
       0       0       0       0       0       0       0       0       0       0
       0       0       0       0       0       0       0       0       0       0
       0       0       0       0       0       0       0       0       0       0
       0       0       0       0       0       0       0       0       0       0
       0       0       0       0       0       0       0       0       0       0
       0       0       0       0       0       0       0       0       0       0
       0       0       0       0       0       0       0       0       0       0
       0       0       0       0       0       0       0       0       0       0
       0       0       0       0       0       0       0       0       0       0
       0       0       0       0       0       0       0       0       0       0
       0       0       0       0       0       0       0       0       0       0
       0       0       0       0       0       0       0       0       0       0
       0       0       0       0       0       0       0       0       0       0
       0       0       0       0       0       0       0       0       0       0
       0       0       0       0       0       0       0       0       0       0
       0       0       0       0       0       0       0       0       0       0
       0       0       0       0       0       0       0       0       0       0
       0       0       0       0       0       0       0       0       0       0
       0       0       0       0       0       0       0       0       0       0
       0       0       0       0       0       0       0       0       0       0
       0       0       0       0       0       0       0       0       0       0
       0       0       0       0       0       0       0       0       0       0
       0       0       0       0       0       0       0       0       0       0
       0       0       0       0       0       0       0       0       0       0
       0       0       0       0       0       0       0       0       0       0
       0       0       0       0       0       0       0       0       0       0
       0       0       0       0       0       0       0       0       0       0
       0       0       0       0       0       0       0       0       0       0
       0       0       0       0       0       0       0       0       0       0
       0       0       0       0       0       0       0       0       0       0
       0       0       0       0       0       0       0       0       0       0
       0       0       0       0       0       0       0       0       0       0
       0       0       0       0       0       0       0       0       0       0
       0       0       0       0       0       0       0       0       0       0
       0       0       0       0       0       0       0       0       0       0
       0       0       0       0       0       0       0       0       0       0
       0       0       0       0       0       0       0       0       0       0
       0       0       0       0       0       0       0       0       0       0
       0       0       0       0       0       0       0       0       0       0
       0       0       0       0       0       0       0       0       0       0
       0       0       0       0       0       0       0       0       0       0
       0       0       0       0       0       0       0       0       0       0
       0       0       0       0       0       0       0       0       0       0
       0       0       0       0       0       0       0       0       0       0
       0       0       0       0       0       0       0       0       0       0
       0       0       0       0       0       0       0       0       0       0
       0       0       0       0       0       0       0       0       0       0
       0       0       0       0       0       0       0       0       0       0
       0       0       0       0       0       0       0       0       0       0
       0       0       0       0       0       0       0       0       0       0
       0       0       0       0       0       0       0       0       0       0
       0       0       0       0       0       0       0       0       0       0
       0       0       0       0       0       0       0       0       0       0
       0       0       0       0       0       0       0       0       0       0
       0       0       0       0       0       0       0       0       0       0
       0       0       0       0       0       0       0       0       0       0
       0       0       0       0       0       0       0       0       0       0
       0       0       0       0       0       0       0       0       0       0
       0       0       0       0       0       0       0       0       0       0
       0       0       0       0       0       0       0       0       0       0
       0       0       0       0       0       0       0       0       0       0
       0       0       0       0       0       0       0       0       0       0
       0       0       0       0       0       0       0       0       0       0
       0       0       0       0       0       0       0       0       0       0
       0       0       0       0       0       0       0       0       0       0
       0       0       0       0       0       0       0       0       0       0
       0       0       0       0       0       0       0       0       0       0
       0       0       0       0       0       0       0       0       0       0
       0       0       0       0       0       0       0       0       0       0
       0       0       0       0       0       0       0       0       0       0
       0       0       0       0       0       0       0       0       0       0
       0       0       0       0       0       0       0       0       0       0
       0       0       0       0       0       0       0       0       0       0
       0       0       0       0       0       0       0       0       0       0
       0       0       0       0       0       0       0       0       0       0
       0       0       0       0       0       0       0       0       0       0
       0       0       0       0       0       0       0       0       0       0
       0       0       0       0       0       0       0       0       0       0
       0       0       0       0       0       0       0       0       0       0
       0       0       0       0       0       0       0       0       0       0
       0       0       0       0       0       0       0       0       0       0
       0       0       0       0       0       0       0       0       0       0
       0       0       0       0       0       0       0       0       0       0
       0       0       0       0       0       0       0       0       0       0
       0       0       0       0       0       0       0       0       0       0
       0       0       0       0       0       0       0       0       0       0
       0       0       0       0       0       0       0       0       0       0
       0       0       0       0       0       0       0       0       0       0
       0       0       0       0       0       0       0       0       0       0
       0       0       0       0       0       0       0       0       0       0
       0       0       0       0       0       0       0       0       0       0
       0       0       0       0       0       0       0       0       0       0
       0       0       0       0       0       0       0       0       0       0
       0       0       0       0       0       0       0       0       0       0
       0       0       0       0       0       0       0       0       0       0
       0       0       0       0       0       0       0       0       0       0
       0       0       0       0       0       0       0       0       0       0
       0       0       0       0       0       0       0       0       0       0
       0       0       0       0       0       0       0       0       0       0
       0       0       0       0       0       0       0       0       0       0
       0       0       0       0       0       0       0       0       0       0
       0       0       0       0       0       0       0       0       0       0
       0       0       0       0       0       0       0       0       0       0
       0       0       0       0       0       0       0       0       0       0
       0       0       0       0       0       0       0       0       0       0
       0       0       0       0       0       0       0       0       0       0
       0       0       0       0       0       0       0       0       0       0
       0       0       0       0       0       0       0       0       0       0
       0       0       0       0       0       0       0       0       0       0
       0       0       0       0       0       0       0       0       0       0
       0       0       0       0       0       0       0       0       0       0
       0       0       0       0       0       0       0       0       0       0
       0       0       0       0       0       0       0       0       0       0
       0       0       0       0       0       0       0       0       0       0
       0       0       0       0       0       0       0       0       0       0
       0       0       0       0       0       0       0       0       0       0
       0       0       0       0       0       0       0       0       0       0
       0       0       0       0       0       0       0       0       0       0
       0       0       0       0       0       0       0       0       0       0
       0       0       0       0       0       0       0       0       0       0
       0       0       0       0       0       0       0       0       0       0
       0       0       0       0       0       0       0       0       0       0
       0       0       0       0       0       0       0       0       0       0
       0       0       0       0       0       0       0       0       0       0
       0       0       0       0       0       0       0       0       0       0
       0       0       0       0       0       0       0       0       0       0
       0       0       0       0       0       0       0       0       0       0
       0       0       0       0       0       0       0       0       0       0
       0       0       0       0       0       0       0       0       0       0
       0       0       0       0       0       0       0       0       0       0
       0       0       0       0       0       0       0       0       0       0
       0       0       0       0       0       0       0       0       0       0
       0       0       0       0       0       0       0       0       0       0
       0       0       0       0       0       0       0       0       0       0
       0       0       0       0       0       0       0       0       0       0
       0       0       0       0       0       0       0       0       0       0
       0       0       0       0       0       0       0       0       0       0
       0       0       0       0       0       0       0       0       0       0
       0       0       0       0       0       0       0       0       0       0
       0       0       0       0       0       0       0       0       0       0
       0       0       0       0       0       0       0       0       0       0
       0       0       0       0       0       0       0       0       0       0
       0       0       0       0       0       0       0       0       0       0
       0       0       0       0       0       0       0       0       0       0
       0       0       0       0       0       0       0       0       0       0
       0       0       0       0       0       0       0       0       0       0
       0       0       0       0       0       0       0       0       0       0
       0       0       0       0       0       0       0       0       0       0
       0       0       0       0       0       0       0       0       0       0
       0       0       0       0       0       0       0       0       0       0
       0       0       0       0       0       0       0       0       0       0
       0       0       0       0       0       0       0       0       0       0
       0       0       0       0       0       0       0       0       0       0
       0       0       0       0       0       0       0       0       0       0
       0       0       0       0       0       0       0       0       0       0
       0       0       0       0       0       0       0       0       0       0
       0       0       0       0       0       0       0       0       0       0
       0       0       0       0       0       0       0       0       0       0
       0       0       0       0       0       0       0       0       0       0
       0       0       0       0       0       0       0       0       0       0
       0       0       0       0       0       0       0       0       0       0
       0       0       0       0       0       0       0       0       0       0
       0       0       0       0       0       0       0       0       0       0
       0       0       0       0       0       0       0       0       0       0
       0       0       0       0       0       0       0       0       0       0
       0       0       0       0       0       0       0       0       0       0
       0       0       0       0       0       0       0       0       0       0
       0       0       0       0       0       0       0       0       0       0
       0       0       0       0       0       0       0       0       0       0
       0       0       0       0       0       0       0       0       0       0
       0       0       0       0       0       0       0       0       0       0
       0       0       0       0       0       0       0       0       0       0
       0       0       0       0       0       0       0       0       0       0
       0       0       0       0       0       0       0       0       0       0
       0       0       0       0       0       0       0       0       0       0
       0       0       0       0       0       0       0       0       0       0
       0       0       0       0       0       0       0       0       0       0
       0       0       0       0       0       0       0       0       0       0
       0       0       0       0       0       0       0       0       0       0
       0       0       0       0       0       0       0       0       0       0
       0       0       0       0       0       0       0       0       0       0
       0       0       0       0       0       0       0       0       0       0
       0       0       0       0       0       0       0       0       0       0
       0       0       0       0       0       0       0       0       0       0
       0       0       0       0       0       0       0       0       0       0
       0       0       0       0       0       0       0       0       0       0
       0       0       0       0       0       0       0       0       0       0
       0       0       0       0       0       0       0       0       0       0
       0       0       0       0       0       0       0       0       0       0
       0       0       0       0       0       0       0       0       0       0
       0       0       0       0       0       0       0       0       0       0
       0       0       0       0       0       0       0       0       0       0
       0       0       0       0       0       0       0       0       0       0
       0       0       0       0       0       0       0       0       0       0
       0       0       0       0       0       0       0       0       0       0
       0       0       0       0       0       0       0       0       0       0
       0       0       0       0       0       0       0       0       0       0
       0       0       0       0       0       0       0       0       0       0
       0       0       0       0       0       0       0       0       0       0
       0       0       0       0       0       0       0       0       0       0
       0       0       0       0       0       0       0       0       0       0
       0       0       0       0       0       0       0       0       0       0
       0       0       0       0       0       0       0       0       0       0
       0       0       0       0       0       0       0       0       0       0
       0       0       0       0       0       0       0       0       0       0
       0       0       0       0       0       0       0       0       0       0
       0       0       0       0       0       0       0       0       0       0
       0       0       0       0       0       0       0       0       0       0
       0       0       0       0       0       0       0       0       0       0
       0       0       0       0       0       0       0       0       0       0
       0       0       0       0       0       0       0       0       0       0
       0       0       0       0       0       0       0       0       0       0
       0       0       0       0       0       0       0       0       0       0
       0       0       0       0       0       0       0       0       0       0
       0       0       0       0       0       0       0       0       0       0
       0       0       0       0       0       0       0       0       0       0
       0       0       0       0       0       0       0       0       0       0
       0       0       0       0       0       0       0       0       0       0
       0       0       0       0       0       0       0       0       0       0
       0       0       0       0       0       0       0       0       0       0
       0       0       0       0       0       0       0       0       0       0
       0       0       0       0       0       0       0       0       0       0
       0       0       0       0       0       0       0       0       0       0
       0       0       0       0       0       0       0       0       0       0
       0       0       0       0       0       0       0       0       0       0
       0       0       0       0       0       0       0       0       0       0
       0       0       0       0       0       0       0       0       0       0
       0       0       0       0       0       0       0       0       0       0
       0       0       0       0       0       0       0       0       0       0
       0       0       0       0       0       0       0       0       0       0
       0       0       0       0       0       0       0       0       0       0
       0       0       0       0       0       0       0       0       0       0
       0       0       0       0       0       0       0       0       0       0
       0       0       0       0       0       0       0       0       0       0
       0       0       0       0       0       0       0       0       0       0
       0       0       0       0       0       0       0       0       0       0
       0       0       0       0       0       0       0       0       0       0
       0       0       0       0       0       0       0       0       0       0
       0       0       0       0       0       0       0       0       0       0
       0       0       0       0       0       0       0       0       0       0
       0       0       0       0       0       0       0       0       0       0
       0       0       0       0       0       0       0       0       0       0
       0       0       0       0       0       0       0       0       0       0
       0       0       0       0       0       0       0       0       0       0
       0       0       0       0       0       0       0       0       0       0
       0       0       0       0       0       0       0       0       0       0
       0       0       0       0       0       0       0       0       0       0
       0       0       0       0       0       0       0       0       0       0
       0       0       0       0       0       0       0       0       0       0
       0       0       0       0       0       0       0       0       0       0
       0       0       0       0       0       0       0       0       0       0
       0       0       0       0       0       0       0       0       0       0
       0       0       0       0       0       0       0       0       0       0
       0       0       0       0       0       0       0       0       0       0
       0       0       0       0       0       0       0       0       0       0
       0       0       0       0       0       0       0       0       0       0
       0       0       0       0       0       0       0       0       0       0
       0       0       0       0       0       0       0       0       0       0
       0       0       0       0       0       0       0       0       0       0
       0       0       0       0       0       0       0       0       0       0
       0       0       0       0       0       0       0       0       0       0
       0       0       0       0       0       0       0       0       0       0
       0       0       0       0       0       0       0       0       0       0
       0       0       0       0       0       0       0       0       0       0
       0       0       0       0       0       0       0       0       0       0
       0       0       0       0       0       0       0       0       0       0
       0       0       0       0       0       0       0       0       0       0
       0       0       0       0       0       0       0       0       0       0
       0       0       0       0       0       0       0       0       0       0
       0       0       0       0       0       0       0       0       0       0
       0       0       0       0       0       0       0       0       0       0
       0       0       0       0       0       0       0       0       0       0
       0       0       0       0       0       0       0       0       0       0
       0       0       0       0       0       0       0       0       0       0
       0       0       0       0       0       0       0       0       0       0
       0       0       0       0       0       0       0       0       0       0
       0       0       0       0       0       0       0       0       0       0
       0       0       0       0       0       0       0       0       0       0
       0       0       0       0       0       0       0       0       0       0
       0       0       0       0       0       0       0       0       0       0
       0       0       0       0       0       0       0       0       0       0
       0       0       0       0       0       0       0       0       0       0
       0       0       0       0       0       0       0       0       0       0
       0       0       0       0       0       0       0       0       0       0
       0       0       0       0       0       0       0       0       0       0
       0       0       0       0       0       0       0       0       0       0
       0       0       0       0       0       0       0       0       0       0
       0       0       0       0       0       0       0       0       0       0
       0       0       0       0       0       0       0       0       0       0
       0       0       0       0       0       0       0       0       0       0
       0       0       0       0       0       0       0       0       0       0
       0       0       0       0       0       0       0       0       0       0
       0       0       0       0       0       0       0       0       0       0
       0       0       0       0       0       0       0       0       0       0
       0       0       0       0       0       0       0       0       0       0
       0       0       0       0       0       0       0       0       0       0
       0       0       0       0       0       0       0       0       0       0
       0       0       0       0       0       0       0       0       0       0
       0       0       0       0       0       0       0       0       0       0
       0       0       0       0       0       0       0       0       0       0
       0       0       0       0       0       0       0       0       0       0
       0       0       0       0       0       0       0       0       0       0
       0       0       0       0       0       0       0       0       0       0
       0       0       0       0       0       0       0       0       0       0
       0       0       0       0       0       0       0       0       0       0
       0       0       0       0       0       0       0       0       0       0
       0       0       0       0       0       0       0       0       0       0
       0       0       0       0       0       0       0       0       0       0
       0       0       0       0       0       0       0       0       0       0
       0       0       0       0       0       0       0       0       0       0
       0       0       0       0       0       0       0       0       0       0
       0       0       0       0       0       0       0       0       0       0
       0       0       0       0       0       0       0       0       0       0
       0       0       0       0       0       0       0       0       0       0
       0       0       0       0       0       0       0       0       0       0
       0       0       0       0       0       0       0       0       0       0
       0       0       0       0       0       0       0       0       0       0
       0       0       0       0       0       0       0       0       0       0
       0       0       0       0       0       0       0       0       0       0
       0       0       0       0       0       0       0       0       0       0
       0       0       0       0       0       0       0       0       0       0
       0       0       0       0       0       0       0       0       0       0
       0       0       0       0       0       0       0       0       0       0
       0       0       0       0       0       0       0       0       0       0
       0       0       0       0       0       0       0       0       0       0
       0       0       0       0       0       0       0       0       0       0
       0       0       0       0       0       0       0       0       0       0
       0       0       0       0       0       0       0       0       0       0
       0       0       0       0       0       0       0       0       0       0
       0       0       0       0       0       0       0       0       0       0
       0       0       0       0       0       0       0       0       0       0
       0       0       0       0       0       0       0       0       0       0
       0       0       0       0       0       0       0       0       0       0
       0       0       0       0       0       0       0       0       0       0
       0       0       0       0       0       0       0       0       0       0
       0       0       0       0       0       0       0       0       0       0
       0       0       0       0       0       0       0       0       0       0
       0       0       0       0       0       0       0       0       0       0
       0       0       0       0       0       0       0       0       0       0
       0       0       0       0       0       0       0       0       0       0
       0       0       0       0       0       0       0       0       0       0
       0       0       0       0       0       0       0       0       0       0
       0       0       0       0       0       0       0       0       0       0
       0       0       0       0       0       0       0       0       0       0
       0       0       0       0       0       0       0       0       0       0
       0       0       0       0       0       0       0       0       0       0
       0       0       0       0       0       0       0       0       0       0
       0       0       0       0       0       0       0       0       0       0
       0       0       0       0       0       0       0       0       0       0
       0       0       0       0       0       0       0       0       0       0
       0       0       0       0       0       0       0       0       0       0
       0       0       0       0       0       0       0       0       0       0
       0       0       0       0       0       0       0       0       0       0
       0       0       0       0       0       0       0       0       0       0
       0       0       0       0       0       0       0       0       0       0
       0       0       0       0       0       0       0       0       0       0
       0       0       0       0       0       0       0       0       0       0
       0       0       0       0       0       0       0       0       0       0
       0       0       0       0       0       0       0       0       0       0
       0       0       0       0       0       0       0       0       0       0
       0       0       0       0       0       0       0       0       0       0
       0       0       0       0       0       0       0       0       0       0
       0       0       0       0       0       0       0       0       0       0
       0       0       0       0       0       0       0       0       0       0
       0       0       0       0       0       0       0       0       0       0
       0       0       0       0       0       0       0       0       0       0
       0       0       0       0       0       0       0       0       0       0
       0       0       0       0       0       0       0       0       0       0
       0       0       0       0       0       0       0       0       0       0
       0       0       0       0       0       0       0       0       0       0
       0       0       0       0       0       0       0       0       0       0
       0       0       0       0       0       0       0       0       0       0
       0       0       0       0       0       0       0       0       0       0
       0       0       0       0       0       0       0       0       0       0
       0       0       0       0       0       0       0       0       0       0
       0       0       0       0       0       0       0       0       0       0
       0       0       0       0       0       0       0       0       0       0
       0       0       0       0       0       0       0       0       0       0
       0       0       0       0       0       0       0       0       0       0
       0       0       0       0       0       0       0       0       0       0
       0       0       0       0       0       0       0       0       0       0
       0       0       0       0       0       0       0       0       0       0
       0       0       0       0       0       0       0       0       0       0
       0       0       0       0       0       0       0       0       0       0
       0       0       0       0       0       0       0       0       0       0
       0       0       0       0       0       0       0       0       0       0
       0       0       0       0       0       0       0       0       0       0
       0       0       0       0       0       0       0       0       0       0
       0       0       0       0       0       0       0       0       0       0
       0       0       0       0       0       0       0       0       0       0
       0       0       0       0       0       0       0       0       0       0
       0       0       0       0       0       0       0       0       0       0
       0       0       0       0       0       0       0       0       0       0
       0       0       0       0       0       0       0       0       0       0
       0       0       0       0       0       0       0       0       0       0
       0       0       0       0       0       0       0       0       0       0
       0       0       0       0       0       0       0       0       0       0
       0       0       0       0       0       0       0       0       0       0
       0       0       0       0       0       0       0       0       0       0
       0       0       0       0       0       0       0       0       0       0
       0       0       0       0       0       0       0       0       0       0
       0       0       0       0       0       0       0       0       0       0
       0       0       0       0       0       0       0       0       0       0
       0       0       0       0       0       0       0       0       0       0
       0       0       0       0       0       0       0       0       0       0
       0       0       0       0       0       0       0       0       0       0
       0       0       0       0       0       0       0       0       0       0
       0       0       0       0       0       0       0       0       0       0
       0       0       0       0       0       0       0       0       0       0
       0       0       0       0       0       0       0       0       0       0
       0       0       0       0       0       0       0       0       0       0
       0       0       0       0       0       0       0       0       0       0
       0       0       0       0       0       0       0       0       0       0
       0       0       0       0       0       0       0       0       0       0
       0       0       0       0       0       0       0       0       0       0
       0       0       0       0       0       0       0       0       0       0
       0       0       0       0       0       0       0       0       0       0
       0       0       0       0       0       0       0       0       0       0
       0       0       0       0       0       0       0       0       0       0
       0       0       0       0       0       0       0       0       0       0
       0       0       0       0       0       0       0       0       0       0
       0       0       0       0       0       0       0       0       0       0
       0       0       0       0       0       0       0       0       0       0
       0       0       0       0       0       0       0       0       0       0
       0       0       0       0       0       0       0       0       0       0
       0       0       0       0       0       0       0       0       0       0
       0       0       0       0       0       0       0       0       0       0
       0       0       0       0       0       0       0       0       0       0
       0       0       0       0       0       0       0       0       0       0
       0       0       0       0       0       0       0       0       0       0
       0       0       0       0       0       0       0       0       0       0
       0       0       0       0       0       0       0       0       0       0
       0       0       0       0       0       0       0       0       0       0
       0       0       0       0       0       0       0       0       0       0
       0       0       0       0       0       0       0       0       0       0
       0       0       0       0       0       0       0       0       0       0
       0       0       0       0       0       0       0       0       0       0
       0       0       0       0       0       0       0       0       0       0
       0       0       0       0       0       0       0       0       0       0
       0       0       0       0       0       0       0       0       0       0
       0       0       0       0       0       0       0       0       0       0
       0       0       0       0       0       0       0       0       0       0
       0       0       0       0       0       0       0       0       0       0
       0       0       0       0       0       0       0       0       0       0
       0       0       0       0       0       0       0       0       0       0
       0       0       0       0       0       0       0       0       0       0
       0       0       0       0       0       0       0       0       0       0
       0       0       0       0       0       0       0       0       0       0
       0       0       0       0       0       0       0       0       0       0
       0       0       0       0       0       0       0       0       0       0
       0       0       0       0       0       0       0       0       0       0
       0       0       0       0       0       0       0       0       0       0
       0       0       0       0       0       0       0       0       0       0
       0       0       0       0       0       0       0       0       0       0
       0       0       0       0       0       0       0       0       0       0
       0       0       0       0       0       0       0       0       0       0
       0       0       0       0       0       0       0       0       0       0
       0       0       0       0       0       0       0       0       0       0
       0       0       0       0       0       0       0       0       0       0
       0       0       0       0       0       0       0       0       0       0
       0       0       0       0       0       0       0       0       0       0
       0       0       0       0       0       0       0       0       0       0
       0       0       0       0       0       0       0       0       0       0
       0       0       0       0       0       0       0       0       0       0
       0       0       0       0       0       0       0       0       0       0
       0       0       0       0       0       0       0       0       0       0
       0       0       0       0       0       0       0       0       0       0
       0       0       0       0       0       0       0       0       0       0
       0       0       0       0       0       0       0       0       0       0
       0       0       0       0       0       0       0       0       0       0
       0       0       0       0       0       0       0       0       0       0
       0       0       0       0       0       0       0       0       0       0
       0       0       0       0       0       0       0       0       0       0
       0       0       0       0       0       0       0       0       0       0
       0       0       0       0       0       0       0       0       0       0
       0       0       0       0       0       0       0       0       0       0
       0       0       0       0       0       0       0       0       0       0
       0       0       0       0       0       0       0       0       0       0
       0       0       0       0       0       0       0       0       0       0
       0       0       0       0       0       0       0       0       0       0
       0       0       0       0       0       0       0       0       0       0
       0       0       0       0       0       0       0       0       0       0
       0       0       0       0       0       0       0       0       0       0
       0       0       0       0       0       0       0       0       0       0
       0       0       0       0       0       0       0       0       0       0
       0       0       0       0       0       0       0       0       0       0
       0       0       0       0       0       0       0       0       0       0
       0       0       0       0       0       0       0       0       0       0
       0       0       0       0       0       0       0       0       0       0
       0       0       0       0       0       0       0       0       0       0
       0       0       0       0       0       0       0       0       0       0
       0       0       0       0       0       0       0       0       0       0
       0       0       0       0       0       0       0       0       0       0
       0       0       0       0       0       0       0       0       0       0
       0       0       0       0       0       0       0       0       0       0
       0       0       0       0       0       0       0       0       0       0
       0       0       0       0       0       0       0       0       0       0
       0       0       0       0       0       0       0       0       0       0
       0       0       0       0       0       0       0       0       0       0
       0       0       0       0       0       0       0       0       0       0
       0       0       0       0       0       0       0       0       0       0
       0       0       0       0       0       0       0       0       0       0
       0       0       0       0       0       0       0       0       0       0
       0       0       0       0       0       0       0       0       0       0
       0       0       0       0       0       0       0       0       0       0
       0       0       0       0       0       0       0       0       0       0
       0       0       0       0       0       0       0       0       0       0
       0       0       0       0       0       0       0       0       0       0
       0       0       0       0       0       0       0       0       0       0
       0       0       0       0       0       0       0       0       0       0
       0       0       0       0       0       0       0       0       0       0
       0       0       0       0       0       0       0       0       0       0
       0       0       0       0       0       0       0       0       0       0
       0       0       0       0       0       0       0       0       0       0
       0       0       0       0       0       0       0       0       0       0
       0       0       0       0       0       0       0       0       0       0
       0       0       0       0       0       0       0       0       0       0
       0       0       0       0       0       0       0       0       0       0
       0       0       0       0       0       0       0       0       0       0
       0       0       0       0       0       0       0       0       0       0
       0       0       0       0       0       0       0       0       0       0
       0       0       0       0       0       0       0       0       0       0
       0       0       0       0       0       0       0       0       0       0
       0       0       0       0       0       0       0       0       0       0
       0       0       0       0       0       0       0       0       0       0
       0       0       0       0       0       0       0       0       0       0
       0       0       0       0       0       0       0       0       0       0
       0       0       0       0       0       0       0       0       0       0
       0       0       0       0       0       0       0       0       0       0
       0       0       0       0       0       0       0       0       0       0
       0       0       0       0       0       0       0       0       0       0
       0       0       0       0       0       0       0       0       0       0
       0       0       0       0       0       0       0       0       0       0
       0       0       0       0       0       0       0       0       0       0
       0       0       0       0       0       0       0       0       0       0
       0       0       0       0       0       0       0       0       0       0
       0       0       0       0       0       0       0       0       0       0
       0       0       0       0       0       0       0       0       0       0
       0       0       0       0       0       0       0       0       0       0
       0       0       0       0       0       0       0       0       0       0
       0       0       0       0       0       0       0       0       0       0
       0       0       0       0       0       0       0       0       0       0
       0       0       0       0       0       0       0       0       0       0
       0       0       0       0       0       0       0       0       0       0
       0       0       0       0       0       0       0       0       0       0
       0       0       0       0       0       0       0       0       0       0
       0       0       0       0       0       0       0       0       0       0
       0       0       0       0       0       0       0       0       0       0
       0       0       0       0       0       0       0       0       0       0
       0       0       0       0       0       0       0       0       0       0
       0       0       0       0       0       0       0       0       0       0
       0       0       0       0       0       0       0       0       0       0
       0       0       0       0       0       0       0       0       0       0
       0       0       0       0       0       0       0       0       0       0
       0       0       0       0       0       0       0       0       0       0
       0       0       0       0       0       0       0       0       0       0
       0       0       0       0       0       0       0       0       0       0
       0       0       0       0       0       0       0       0       0       0
       0       0       0       0       0       0       0       0       0       0
       0       0       0       0       0       0       0       0       0       0
       0       0       0       0       0       0       0       0       0       0
       0       0       0       0       0       0       0       0       0       0
       0       0       0       0       0       0       0       0       0       0
       0       0       0       0       0       0       0       0       0       0
       0       0       0       0       0       0       0       0       0       0
       0       0       0       0       0       0       0       0       0       0
       0       0       0       0       0       0       0       0       0       0
       0       0       0       0       0       0       0       0       0       0
       0       0       0       0       0       0       0       0       0       0
       0       0       0       0       0       0       0       0       0       0
       0       0       0       0       0       0       0       0       0       0
       0       0       0       0       0       0       0       0       0       0
       0       0       0       0       0       0       0       0       0       0
       0       0       0       0       0       0       0       0       0       0
       0       0       0       0       0       0       0       0       0       0
       0       0       0       0       0       0       0       0       0       0
       0       0       0       0       0       0       0       0       0       0
       0       0       0       0       0       0       0       0       0       0
       0       0       0       0       0       0       0       0       0       0
       0       0       0       0       0       0       0       0       0       0
       0       0       0       0       0       0       0       0       0       0
       0       0       0       0       0       0       0       0       0       0
       0       0       0       0       0       0       0       0       0       0
       0       0       0       0       0       0       0       0       0       0
       0       0       0       0       0       0       0       0       0       0
       0       0       0       0       0       0       0       0       0       0
       0       0       0       0       0       0       0       0       0       0
       0       0       0       0       0       0       0       0       0       0
       0       0       0       0       0       0       0       0       0       0
       0       0       0       0       0       0       0       0       0       0
       0       0       0       0       0       0       0       0       0       0
       0       0       0       0       0       0       0       0       0       0
       0       0       0       0       0       0       0       0       0       0
       0       0       0       0       0       0       0       0       0       0
       0       0       0       0       0       0       0       0       0       0
       0       0       0       0       0       0       0       0       0       0
       0       0       0       0       0       0       0       0       0       0
       0       0       0       0       0       0       0       0       0       0
       0       0       0       0       0       0       0       0       0       0
       0       0       0       0       0       0       0       0       0       0
       0       0       0       0       0       0       0       0       0       0
       0       0       0       0       0       0       0       0       0       0
       0       0       0       0       0       0       0       0       0       0
       0       0       0       0       0       0       0       0       0       0
       0       0       0       0       0       0       0       0       0       0
       0       0       0       0       0       0       0       0       0       0
       0       0       0       0       0       0       0       0       0       0
       0       0       0       0       0       0       0       0       0       0
       0       0       0       0       0       0       0       0       0       0
       0       0       0       0       0       0       0       0       0       0
       0       0       0       0       0       0       0       0       0       0
       0       0       0       0       0       0       0       0       0       0
       0       0       0       0       0       0       0       0       0       0
       0       0       0       0       0       0       0       0       0       0
       0       0       0       0       0       0       0       0       0       0
       0       0       0       0       0       0       0       0       0       0
       0       0       0       0       0       0       0       0       0       0
       0       0       0       0       0       0       0       0       0       0
       0       0       0       0       0       0       0       0       0       0
       0       0       0       0       0       0       0       0       0       0
       0       0       0       0       0       0       0       0       0       0
       0       0       0       0       0       0       0       0       0       0
       0       0       0       0       0       0       0       0       0       0
       0       0       0       0       0       0       0       0       0       0
       0       0       0       0       0       0       0       0       0       0
       0       0       0       0       0       0       0       0       0       0
       0       0       0       0       0       0       0       0       0       0
       0       0       0       0       0       0       0       0       0       0
       0       0       0       0       0       0       0       0       0       0
       0       0       0       0       0       0       0       0       0       0
       0       0       0       0       0       0       0       0       0       0
       0       0       0       0       0       0       0       0       0       0
       0       0       0       0       0       0       0       0       0       0
       0       0       0       0       0       0       0       0       0       0
       0       0       0       0       0       0       0       0       0       0
       0       0       0       0       0       0       0       0       0       0
       0       0       0       0       0       0       0       0       0       0
       0       0       0       0       0       0       0       0       0       0
       0       0       0       0       0       0       0       0       0       0
       0       0       0       0       0       0       0       0       0       0
       0       0       0       0       0       0       0       0       0       0
       0       0       0       0       0       0       0       0       0       0
       0       0       0       0       0       0       0       0       0       0
       0       0       0       0       0       0       0       0       0       0
       0       0       0       0       0       0       0       0       0       0
       0       0       0       0       0       0       0       0       0       0
       0       0       0       0       0       0       0       0       0       0
       0       0       0       0       0       0       0       0       0       0
       0       0       0       0       0       0       0       0       0       0
       0       0       0       0       0       0       0       0       0       0
       0       0       0       0       0       0       0       0       0       0
       0       0       0       0       0       0       0       0       0       0
       0       0       0       0       0       0       0       0       0       0
       0       0       0       0       0       0       0       0       0       0
       0       0       0       0       0       0       0       0       0       0
       0       0       0       0       0       0       0       0       0       0
       0       0       0       0       0       0       0       0       0       0
       0       0       0       0       0       0       0       0       0       0
       0       0       0       0       0       0       0       0       0       0
       0       0       0       0       0       0       0       0       0       0
       0       0       0       0       0       0       0       0       0       0
       0       0       0       0       0       0       0       0       0       0
       0       0       0       0       0       0       0       0       0       0
       0       0       0       0       0       0       0       0       0       0
       0       0       0       0       0       0       0       0       0       0
       0       0       0       0       0       0       0       0       0       0
       0       0       0       0       0       0       0       0       0       0
       0       0       0       0       0       0       0       0       0       0
       0       0       0       0       0       0       0       0       0       0
       0       0       0       0       0       0       0       0       0       0
       0       0       0       0       0       0       0       0       0       0
       0       0       0       0       0       0       0       0       0       0
       0       0       0       0       0       0       0       0       0       0
       0       0       0       0       0       0       0       0       0       0
       0       0       0       0       0       0       0       0       0       0
       0       0       0       0       0       0       0       0       0       0
       0       0       0       0       0       0       0       0       0       0
       0       0       0       0       0       0       0       0       0       0
       0       0       0       0       0       0       0       0       0       0
       0       0       0       0       0       0       0       0       0       0
       0       0       0       0       0       0       0       0       0       0
       0       0       0       0       0       0       0       0       0       0
       0       0       0       0       0       0       0       0       0       0
       0       0       0       0       0       0       0       0       0       0
       0       0       0       0       0       0       0       0       0       0
       0       0       0       0       0       0       0       0       0       0
       0       0       0       0       0       0       0       0       0       0
       0       0       0       0       0       0       0       0       0       0
       0       0       0       0       0       0       0       0       0       0
       0       0       0       0       0       0       0       0       0       0
       0       0       0       0       0       0       0       0       0       0
       0       0       0       0       0       0       0       0       0       0
       0       0       0       0       0       0       0       0       0       0
       0       0       0       0       0       0       0       0       0       0
       0       0       0       0       0       0       0       0       0       0
       0       0       0       0       0       0       0       0       0       0
       0       0       0       0       0       0       0       0       0       0
       0       0       0       0       0       0       0       0       0       0
       0       0       0       0       0       0       0       0       0       0
       0       0       0       0       0       0       0       0       0       0
       0       0       0       0       0       0       0       0       0       0
       0       0       0       0       0       0       0       0       0       0
       0       0       0       0       0       0       0       0       0       0
       0       0       0       0       0       0       0       0       0       0
       0       0       0       0       0       0       0       0       0       0
       0       0       0       0       0       0       0       0       0       0
       0       0       0       0       0       0       0       0       0       0
       0       0       0       0       0       0       0       0       0       0
       0       0       0       0       0       0       0       0       0       0
       0       0       0       0       0       0       0       0       0       0
       0       0       0       0       0       0       0       0       0       0
       0       0       0       0       0       0       0       0       0       0
       0       0       0       0       0       0       0       0       0       0
       0       0       0       0       0       0       0       0       0       0
       0       0       0       0       0       0       0       0       0       0
       0       0       0       0       0       0       0       0       0       0
       0       0       0       0       0       0       0       0       0       0
       0       0       0       0       0       0       0       0       0       0
       0       0       0       0       0       0       0       0       0       0
       0       0       0       0       0       0       0       0       0       0
       0       0       0       0       0       0       0       0       0       0
       0       0       0       0       0       0       0       0       0       0
       0       0       0       0       0       0       0       0       0       0
       0       0       0       0       0       0       0       0       0       0
       0       0       0       0       0       0       0       0       0       0
       0       0       0       0       0       0       0       0       0       0
       0       0       0       0       0       0       0       0       0       0
       0       0       0       0       0       0       0       0       0       0
       0       0       0       0       0       0       0       0       0       0
       0       0       0       0       0       0       0       0       0       0
       0       0       0       0       0       0       0       0       0       0
       0       0       0       0       0       0       0       0       0       0
       0       0       0       0       0       0       0       0       0       0
       0       0       0       0       0       0       0       0       0       0
       0       0       0       0       0       0       0       0       0       0
       0       0       0       0       0       0       0       0       0       0
       0       0       0       0       0       0       0       0       0       0
       0       0       0       0       0       0       0       0       0       0
       0       0       0       0       0       0       0       0       0       0
       0       0       0       0       0       0       0       0       0       0
       0       0       0       0       0       0       0       0       0       0
       0       0       0       0       0       0       0       0       0       0
       0       0       0       0       0       0       0       0       0       0
       0       0       0       0       0       0       0       0       0       0
       0       0       0       0       0       0       0       0       0       0
       0       0       0       0       0       0       0       0       0       0
       0       0       0       0       0       0       0       0       0       0
       0       0       0       0       0       0       0       0       0       0
       0       0       0       0       0       0       0       0       0       0
       0       0       0       0       0       0       0       0       0       0
       0       0       0       0       0       0       0       0       0       0
       0       0       0       0       0       0       0       0       0       0
       0       0       0       0       0       0       0       0       0       0
       0       0       0       0       0       0       0       0       0       0
       0       0       0       0       0       0       0       0       0       0
       0       0       0       0       0       0       0       0       0       0
       0       0       0       0       0       0       0       0       0       0
       0       0       0       0       0       0       0       0       0       0
       0       0       0       0       0       0       0       0       0       0
       0       0       0       0       0       0       0       0       0       0
       0       0       0       0       0       0       0       0       0       0
       0       0       0       0       0       0       0       0       0       0
       0       0       0       0       0       0       0       0       0       0
       0       0       0       0       0       0       0       0       0       0
       0       0       0       0       0       0       0       0       0       0
       0       0       0       0       0       0       0       0       0       0
       0       0       0       0       0       0       0       0       0       0
       0       0       0       0       0       0       0       0       0       0
       0       0       0       0       0       0       0       0       0       0
       0       0       0       0       0       0       0       0       0       0
       0       0       0       0       0       0       0       0       0       0
       0       0       0       0       0       0       0       0       0       0
       0       0       0       0       0       0       0       0       0       0
       0       0       0       0       0       0       0       0       0       0
       0       0       0       0       0       0       0       0       0       0
       0       0       0       0       0       0       0       0       0       0
       0       0       0       0       0       0       0       0       0       0
       0       0       0       0       0       0       0       0       0       0
       0       0       0       0       0       0       0       0       0       0
       0       0       0       0       0       0       0       0       0       0
       0       0       0       0       0       0       0       0       0       0
       0       0       0       0       0       0       0       0       0       0
       0       0       0       0       0       0       0       0       0       0
       0       0       0       0       0       0       0       0       0       0
       0       0       0       0       0       0       0       0       0       0
       0       0       0       0       0       0       0       0       0       0
       0       0       0       0       0       0       0       0       0       0
       0       0       0       0       0       0       0       0       0       0
       0       0       0       0       0       0       0       0       0       0
       0       0       0       0       0       0       0       0       0       0
       0       0       0       0       0       0       0       0       0       0
       0       0       0       0       0       0       0       0       0       0
       0       0       0       0       0       0       0       0       0       0
       0       0       0       0       0       0       0       0       0       0
       0       0       0       0       0       0       0       0       0       0
       0       0       0       0       0       0       0       0       0       0
       0       0       0       0       0       0       0       0       0       0
       0       0       0       0       0       0       0       0       0       0
       0       0       0       0       0       0       0       0       0       0
       0       0       0       0       0       0       0       0       0       0
       0       0       0       0       0       0       0       0       0       0
       0       0       0       0       0       0       0       0       0       0
       0       0       0       0       0       0       0       0       0       0
       0       0       0       0       0       0       0       0       0       0
       0       0       0       0       0       0       0       0       0       0
       0       0       0       0       0       0       0       0       0       0
       0       0       0       0       0       0       0       0       0       0
       0       0       0       0       0       0       0       0       0       0
       0       0       0       0       0       0       0       0       0       0
       0       0       0       0       0       0       0       0       0       0
       0       0       0       0       0       0       0       0       0       0
       0       0       0       0       0       0       0       0       0       0
       0       0       0       0       0       0       0       0       0       0
       0       0       0       0       0       0       0       0       0       0
       0       0       0       0       0       0       0       0       0       0
       0       0       0       0       0       0       0       0       0       0
       0       0       0       0       0       0       0       0       0       0
       0       0       0       0       0       0       0       0       0       0
       0       0       0       0       0       0       0       0       0       0
       0       0       0       0       0       0       0       0       0       0
       0       0       0       0       0       0       0       0       0       0
       0       0       0       0       0       0       0       0       0       0
       0       0       0       0       0       0       0       0       0       0
       0       0       0       0       0       0       0       0       0       0
       0       0       0       0       0       0       0       0       0       0
       0       0       0       0       0       0       0       0       0       0
       0       0       0       0       0       0       0       0       0       0
       0       0       0       0       0       0       0       0       0       0
       0       0       0       0       0       0       0       0       0       0
       0       0       0       0       0       0       0       0       0       0
       0       0       0       0       0       0       0       0       0       0
       0       0       0       0       0       0       0       0       0       0
       0       0       0       0       0       0       0       0       0       0
       0       0       0       0       0       0       0       0       0       0
       0       0       0       0       0       0       0       0       0       0
       0       0       0       0       0       0       0       0       0       0
       0       0       0       0       0       0       0       0       0       0
       0       0       0       0       0       0       0       0       0       0
       0       0       0       0       0       0       0       0       0       0
       0       0       0       0       0       0       0       0       0       0
       0       0       0       0       0       0       0       0       0       0
       0       0       0       0       0       0       0       0       0       0
       0       0       0       0       0       0       0       0       0       0
       0       0       0       0       0       0       0       0       0       0
       0       0       0       0       0       0       0       0       0       0
       0       0       0       0       0       0       0       0       0       0
       0       0       0       0       0       0       0       0       0       0
       0       0       0       0       0       0       0       0       0       0
       0       0       0       0       0       0       0       0       0       0
       0       0       0       0       0       0       0       0       0       0
       0       0       0       0       0       0       0       0       0       0
       0       0       0       0       0       0       0       0       0       0
       0       0       0       0       0       0       0       0       0       0
       0       0       0       0       0       0       0       0       0       0
       0       0       0       0       0       0       0       0       0       0
       0       0       0       0       0       0       0       0       0       0
       0       0       0       0       0       0       0       0       0       0
       0       0       0       0       0       0       0       0       0       0
       0       0       0       0       0       0       0       0       0       0
       0       0       0       0       0       0       0       0       0       0
       0       0       0       0       0       0       0       0       0       0
       0       0       0       0       0       0       0       0       0       0
       0       0       0       0       0       0       0       0       0       0
       0       0       0       0       0       0       0       0       0       0
       0       0       0       0       0       0       0       0       0       0
       0       0       0       0       0       0       0       0       0       0
       0       0       0       0       0       0       0       0       0       0
       0       0       0       0       0       0       0       0       0       0
       0       0       0       0       0       0       0       0       0       0
       0       0       0       0       0       0       0       0       0       0
       0       0       0       0       0       0       0       0       0       0
       0       0       0       0       0       0       0       0       0       0
       0       0       0       0       0       0       0       0       0       0
       0       0       0       0       0       0       0       0       0       0
       0       0       0       0       0       0       0       0       0       0
       0       0       0       0       0       0       0       0       0       0
       0       0       0       0       0       0       0       0       0       0
       0       0       0       0       0       0       0       0       0       0
       0       0       0       0       0       0       0       0       0       0
       0       0       0       0       0       0       0       0       0       0
       0       0       0       0       0       0       0       0       0       0
       0       0       0       0       0       0       0       0       0       0
       0       0       0       0       0       0       0       0       0       0
       0       0       0       0       0       0       0       0       0       0
       0       0       0       0       0       0       0       0       0       0
       0       0       0       0       0       0       0       0       0       0
       0       0       0       0       0       0       0       0       0       0
       0       0       0       0       0       0       0       0       0       0
       0       0       0       0       0       0       0       0       0       0
       0       0       0       0       0       0       0       0       0       0
       0       0       0       0       0       0       0       0       0       0
       0       0       0       0       0       0       0       0       0       0
       0       0       0       0       0       0       0       0       0       0
       0       0       0       0       0       0       0       0       0       0
       0       0       0       0       0       0       0       0       0       0
       0       0       0       0       0       0       0       0       0       0
       0       0       0       0       0       0       0       0       0       0
       0       0       0       0       0       0       0       0       0       0
       0       0       0       0       0       0       0       0       0       0
       0       0       0       0       0       0       0       0       0       0
       0       0       0       0       0       0       0       0       0       0
       0       0       0       0       0       0       0       0       0       0
       0       0       0       0       0       0       0       0       0       0
       0       0       0       0       0       0       0       0       0       0
       0       0       0       0       0       0       0       0       0       0
       0       0       0       0       0       0       0       0       0       0
       0       0       0       0       0       0       0       0       0       0
       0       0       0       0       0       0       0       0       0       0
       0       0       0       0       0       0       0       0       0       0
       0       0       0       0       0       0       0       0       0       0
       0       0       0       0       0       0       0       0       0       0
       0       0       0       0       0       0       0       0       0       0
       0       0       0       0       0       0       0       0       0       0
       0       0       0       0       0       0       0       0       0       0
       0       0       0       0       0       0       0       0       0       0
       0       0       0       0       0       0       0       0       0       0
       0       0       0       0       0       0       0       0       0       0
       0       0       0       0       0       0       0       0       0       0
       0       0       0       0       0       0       0       0       0       0
       0       0       0       0       0       0       0       0       0       0
       0       0       0       0       0       0       0       0       0       0
       0       0       0       0       0       0       0       0       0       0
       0       0       0       0       0       0       0       0       0       0
       0       0       0       0       0       0       0       0       0       0
       0       0       0       0       0       0       0       0       0       0
       0       0       0       0       0       0       0       0       0       0
       0       0       0       0       0       0       0       0       0       0
       0       0       0       0       0       0       0       0       0       0
       0       0       0       0       0       0       0       0       0       0
       0       0       0       0       0       0       0       0       0       0
       0       0       0       0       0       0       0       0       0       0
       0       0       0       0       0       0       0       0       0       0
       0       0       0       0       0       0       0       0       0       0
       0       0       0       0       0       0       0       0       0       0
       0       0       0       0       0       0       0       0       0       0
       0       0       0       0       0       0       0       0       0       0
       0       0       0       0       0       0       0       0       0       0
       0       0       0       0       0       0       0       0       0       0
       0       0       0       0       0       0       0       0       0       0
       0       0       0       0       0       0       0       0       0       0
       0       0       0       0       0       0       0       0       0       0
       0       0       0       0       0       0       0       0       0       0
       0       0       0       0       0       0       0       0       0       0
       0       0       0       0       0       0       0       0       0       0
       0       0       0       0       0       0       0       0       0       0
       0       0       0       0       0       0       0       0       0       0
       0       0       0       0       0       0       0       0       0       0
       0       0       0       0       0       0       0       0       0       0
       0       0       0       0       0       0       0       0       0       0
       0       0       0       0       0       0       0       0       0       0
       0       0       0       0       0       0       0       0       0       0
       0       0       0       0       0       0       0       0       0       0
       0       0       0       0       0       0       0       0       0       0
       0       0       0       0       0       0       0       0       0       0
       0       0       0       0       0       0       0       0       0       0
       0       0       0       0       0       0       0       0       0       0
       0       0       0       0       0       0       0       0       0       0
       0       0       0       0       0       0       0       0       0       0
       0       0       0       0       0       0       0       0       0       0
       0       0       0       0       0       0       0       0       0       0
       0       0       0       0       0       0       0       0       0       0
       0       0       0       0       0       0       0       0       0       0
       0       0       0       0       0       0       0       0       0       0
       0       0       0       0       0       0       0       0       0       0
       0       0       0       0       0       0       0       0       0       0
       0       0       0       0       0       0       0       0       0       0
       0       0       0       0       0       0       0       0       0       0
       0       0       0       0       0       0       0       0       0       0
       0       0       0       0       0       0       0       0       0       0
       0       0       0       0       0       0       0       0       0       0
       0       0       0       0       0       0       0       0       0       0
       0       0       0       0       0       0       0       0       0       0
       0       0       0       0       0       0       0       0       0       0
       0       0       0       0       0       0       0       0       0       0
       0       0       0       0       0       0       0       0       0       0
       0       0       0       0       0       0       0       0       0       0
       0       0       0       0       0       0       0       0       0       0
       0       0       0       0       0       0       0       0       0       0
       0       0       0       0       0       0       0       0       0       0
       0       0       0       0       0       0       0       0       0       0
       0       0       0       0       0       0       0       0       0       0
       0       0       0       0       0       0       0       0       0       0
       0       0       0       0       0       0       0       0       0       0
       0       0       0       0       0       0       0       0       0       0
       0       0       0       0       0       0       0       0       0       0
       0       0       0       0       0       0       0       0       0       0
       0       0       0       0       0       0       0       0       0       0
       0       0       0       0       0       0       0       0       0       0
       0       0       0       0       0       0       0       0       0       0
       0       0       0       0       0       0       0       0       0       0
       0       0       0       0       0       0       0       0       0       0
       0       0       0       0       0       0       0       0       0       0
       0       0       0       0       0       0       0       0       0       0
       0       0       0       0       0       0       0       0       0       0
       0       0       0       0       0       0       0       0       0       0
       0       0       0       0       0       0       0       0       0       0
       0       0       0       0       0       0       0       0       0       0
       0       0       0       0       0       0       0       0       0       0
       0       0       0       0       0       0       0       0       0       0
       0       0       0       0       0       0       0       0       0       0
       0       0       0       0       0       0       0       0       0       0
       0       0       0       0       0       0       0       0       0       0
       0       0       0       0       0       0       0       0       0       0
       0       0       0       0       0       0       0       0       0       0
       0       0       0       0       0       0       0       0       0       0
       0       0       0       0       0       0       0       0       0       0
       0       0       0       0       0       0       0       0       0       0
       0       0       0       0       0       0       0       0       0       0
       0       0       0       0       0       0       0       0       0       0
       0       0       0       0       0       0       0       0       0       0
       0       0       0       0       0       0       0       0       0       0
       0       0       0       0       0       0       0       0       0       0
       0       0       0       0       0       0       0       0       0       0
       0       0       0       0       0       0       0       0       0       0
       0       0       0       0       0       0       0       0       0       0
       0       0       0       0       0       0       0       0       0       0
       0       0       0       0       0       0       0       0       0       0
       0       0       0       0       0       0       0       0       0       0
       0       0       0       0       0       0       0       0       0       0
       0       0       0       0       0       0       0       0       0       0
       0       0       0       0       0       0       0       0       0       0
       0       0       0       0       0       0       0       0       0       0
       0       0       0       0       0       0       0       0       0       0
       0       0       0       0       0       0       0       0       0       0
       0       0       0       0       0       0       0       0       0       0
       0       0       0       0       0       0       0       0       0       0
       0       0       0       0       0       0       0       0       0       0
       0       0       0       0       0       0       0       0       0       0
       0       0       0       0       0       0       0       0       0       0
       0       0       0       0       0       0       0       0       0       0
       0       0       0       0       0       0       0       0       0       0
       0       0       0       0       0       0       0       0       0       0
       0       0       0       0       0       0       0       0       0       0
       0       0       0       0       0       0       0       0       0       0
       0       0       0       0       0       0       0       0       0       0
       0       0       0       0       0       0       0       0       0       0
       0       0       0       0       0       0       0       0       0       0
       0       0       0       0       0       0       0       0       0       0
       0       0       0       0       0       0       0       0       0       0
       0       0       0       0       0       0       0       0       0       0
       0       0       0       0       0       0       0       0       0       0
       0       0       0       0       0       0       0       0       0       0
       0       0       0       0       0       0       0       0       0       0
       0       0       0       0       0       0       0       0       0       0
       0       0       0       0       0       0       0       0       0       0
       0       0       0       0       0       0       0       0       0       0
       0       0       0       0       0       0       0       0       0       0
       0       0       0       0       0       0       0       0       0       0
       0       0       0       0       0       0       0       0       0       0
       0       0       0       0       0       0       0       0       0       0
       0       0       0       0       0       0       0       0       0       0
       0       0       0       0       0       0       0       0       0       0
       0       0       0       0       0       0       0       0       0       0
       0       0       0       0       0       0       0       0       0       0
       0       0       0       0       0       0       0       0       0       0
       0       0       0       0       0       0       0       0       0       0
       0       0       0       0       0       0       0       0       0       0
       0       0       0       0       0       0       0       0       0       0
       0       0       0       0       0       0       0       0       0       0
       0       0       0       0       0       0       0       0       0       0
       0       0       0       0       0       0       0       0       0       0
       0       0       0       0       0       0       0       0       0       0
       0       0       0       0       0       0       0       0       0       0
       0       0       0       0       0       0       0       0       0       0
       0       0       0       0       0       0       0       0       0       0
       0       0       0       0       0       0       0       0       0       0
       0       0       0       0       0       0       0       0       0       0
       0       0       0       0       0       0       0       0       0       0
       0       0       0       0       0       0       0       0       0       0
       0       0       0       0       0       0       0       0       0       0
       0       0       0       0       0       0       0       0       0       0
       0       0       0       0       0       0       0       0       0       0
       0       0       0       0       0       0       0       0       0       0
       0       0       0       0       0       0       0       0       0       0
       0       0       0       0       0       0       0       0       0       0
       0       0       0       0       0       0       0       0       0       0
       0       0       0       0       0       0       0       0       0       0
       0       0       0       0       0       0       0       0       0       0
       0       0       0       0       0       0       0       0       0       0
       0       0       0       0       0       0       0       0       0       0
       0       0       0       0       0       0       0       0       0       0
       0       0       0       0       0       0       0       0       0       0
       0       0       0       0       0       0       0       0       0       0
       0       0       0       0       0       0       0       0       0       0
       0       0       0       0       0       0       0       0       0       0
       0       0       0       0       0       0       0       0       0       0
       0       0       0       0       0       0       0       0       0       0
       0       0       0       0       0       0       0       0       0       0
       0       0       0       0       0       0       0       0       0       0
       0       0       0       0       0       0       0       0       0       0
       0       0       0       0       0       0       0       0       0       0
       0       0       0       0       0       0       0       0       0       0
       0       0       0       0       0       0       0       0       0       0
       0       0       0       0       0       0       0       0       0       0
       0       0       0       0       0       0       0       0       0       0
       0       0       0       0       0       0       0       0       0       0
       0       0       0       0       0       0       0       0       0       0
       0       0       0       0       0       0       0       0       0       0
       0       0       0       0       0       0       0       0       0       0
       0       0       0       0       0       0       0       0       0       0
       0       0       0       0       0       0       0       0       0       0
       0       0       0       0       0       0       0       0       0       0
       0       0       0       0       0       0       0       0       0       0
       0       0       0       0       0       0       0       0       0       0
       0       0       0       0       0       0       0       0       0       0
       0       0       0       0       0       0       0       0       0       0
       0       0       0       0       0       0       0       0       0       0
       0       0       0       0       0       0       0       0       0       0
       0       0       0       0       0       0       0       0       0       0
       0       0       0       0       0       0       0       0       0       0
       0       0       0       0       0       0       0       0       0       0
       0       0       0       0       0       0       0       0       0       0
       0       0       0       0       0       0       0       0       0       0
       0       0       0       0       0       0       0       0       0       0
       0       0       0       0       0       0       0       0       0       0
       0       0       0       0       0       0       0       0       0       0
       0       0       0       0       0       0       0       0       0       0
       0       0       0       0       0       0       0       0       0       0
       0       0       0       0       0       0       0       0       0       0
       0       0       0       0       0       0       0       0       0       0
       0       0       0       0       0       0       0       0       0       0
       0       0       0       0       0       0       0       0       0       0
       0       0       0       0       0       0       0       0       0       0
       0       0       0       0       0       0       0       0       0       0
       0       0       0       0       0       0       0       0       0       0
       0       0       0       0       0       0       0       0       0       0
       0       0       0       0       0       0       0       0       0       0
       0       0       0       0       0       0       0       0       0       0
       0       0       0       0       0       0       0       0       0       0
       0       0       0       0       0       0       0       0       0       0
       0       0       0       0       0       0       0       0       0       0
       0       0       0       0       0       0       0       0       0       0
       0       0       0       0       0       0       0       0       0       0
       0       0       0       0       0       0       0       0       0       0
       0       0       0       0       0       0       0       0       0       0
       0       0       0       0       0       0       0       0       0       0
       0       0       0       0       0       0       0       0       0       0
       0       0       0       0       0       0       0       0       0       0
       0       0       0       0       0       0       0       0       0       0
       0       0       0       0       0       0       0       0       0       0
       0       0       0       0       0       0       0       0       0       0
       0       0       0       0       0       0       0       0       0       0
       0       0       0       0       0       0       0       0       0       0
       0       0       0       0       0       0       0       0       0       0
       0       0       0       0       0       0       0       0       0       0
       0       0       0       0       0       0       0       0       0       0
       0       0       0       0       0       0       0       0       0       0
       0       0       0       0       0       0       0       0       0       0
       0       0       0       0       0       0       0       0       0       0
       0       0       0       0       0       0       0       0       0       0
       0       0       0       0       0       0       0       0       0       0
       0       0       0       0       0       0       0       0       0       0
       0       0       0       0       0       0       0       0       0       0
       0       0       0       0       0       0       0       0       0       0
       0       0       0       0       0       0       0       0       0       0
       0       0       0       0       0       0       0       0       0       0
       0       0       0       0       0       0       0       0       0       0
       0       0       0       0       0       0       0       0       0       0
       0       0       0       0       0       0       0       0       0       0
       0       0       0       0       0       0       0       0       0       0
       0       0       0       0       0       0       0       0       0       0
       0       0       0       0       0       0       0       0       0       0
       0       0       0       0       0       0       0       0       0       0
       0       0       0       0       0       0       0       0       0       0
       0       0       0       0       0       0       0       0       0       0
       0       0       0       0       0       0       0       0       0       0
       0       0       0       0       0       0       0       0       0       0
       0       0       0       0       0       0       0       0       0       0
       0       0       0       0       0       0       0       0       0       0
       0       0       0       0       0       0       0       0       0       0
       0       0       0       0       0       0       0       0       0       0
       0       0       0       0       0       0       0       0       0       0
       0       0       0       0       0       0       0       0       0       0
       0       0       0       0       0       0       0       0       0       0
       0       0       0       0       0       0       0       0       0       0
       0       0       0       0       0       0       0       0       0       0
       0       0       0       0       0       0       0       0       0       0
       0       0       0       0       0       0       0       0       0       0
       0       0       0       0       0       0       0       0       0       0
       0       0       0       0       0       0       0       0       0       0
       0       0       0       0       0       0       0       0       0       0
       0       0       0       0       0       0       0       0       0       0
       0       0       0       0       0       0       0       0       0       0
       0       0       0       0       0       0       0       0       0       0
       0       0       0       0       0       0       0       0       0       0
       0       0       0       0       0       0       0       0       0       0
       0       0       0       0       0       0       0       0       0       0
       0       0       0       0       0       0       0       0       0       0
       0       0       0       0       0       0       0       0       0       0
       0       0       0       0       0       0       0       0       0       0
       0       0       0       0       0       0       0       0       0       0
       0       0       0       0       0       0       0       0       0       0
       0       0       0       0       0       0       0       0       0       0
       0       0       0       0       0       0       0       0       0       0
       0       0       0       0       0       0       0       0       0       0
       0       0       0       0       0       0       0       0       0       0
       0       0       0       0       0       0       0       0       0       0
       0       0       0       0       0       0       0       0       0       0
       0       0       0       0       0       0       0       0       0       0
       0       0       0       0       0       0       0       0       0       0
       0       0       0       0       0       0       0       0       0       0
       0       0       0       0       0       0       0       0       0       0
       0       0       0       0       0       0       0       0       0       0
       0       0       0       0       0       0       0       0       0       0
       0       0       0       0       0       0       0       0       0       0
       0       0       0       0       0       0       0       0       0       0
       0       0       0       0       0       0       0       0       0       0
       0       0       0       0       0       0       0       0       0       0
       0       0       0       0       0       0       0       0       0       0
       0       0       0       0       0       0       0       0       0       0
       0       0       0       0       0       0       0       0       0       0
       0       0       0       0       0       0       0       0       0       0
       0       0       0       0       0       0       0       0       0       0
       0       0       0       0       0       0       0       0       0       0
       0       0       0       0       0       0       0       0       0       0
       0       0       0       0       0       0       0       0       0       0
       0       0       0       0       0       0       0       0       0       0
       0       0       0       0       0       0       0       0       0       0
       0       0       0       0       0       0       0       0       0       0
       0       0       0       0       0       0       0       0       0       0
       0       0       0       0       0       0       0       0       0       0
       0       0       0       0       0       0       0       0       0       0
       0       0       0       0       0       0       0       0       0       0
       0       0       0       0       0       0       0       0       0       0
       0       0       0       0       0       0       0       0       0       0
       0       0       0       0       0       0       0       0       0       0
       0       0       0       0       0       0       0       0       0       0
       0       0       0       0       0       0       0       0       0       0
       0       0       0       0       0       0       0       0       0       0
       0       0       0       0       0       0       0       0       0       0
       0       0       0       0       0       0       0       0       0       0
       0       0       0       0       0       0       0       0       0       0
       0       0       0       0       0       0       0       0       0       0
       0       0       0       0       0       0       0       0       0       0
       0       0       0       0       0       0       0       0       0       0
       0       0       0       0       0       0       0       0       0       0
       0       0       0       0       0       0       0       0       0       0
       0       0       0       0       0       0       0       0       0       0
       0       0       0       0       0       0       0       0       0       0
       0       0       0       0       0       0       0       0       0       0
       0       0       0       0       0       0       0       0       0       0
       0       0       0       0       0       0       0       0       0       0
       0       0       0       0       0       0       0       0       0       0
       0       0       0       0       0       0       0       0       0       0
       0       0       0       0       0       0       0       0       0       0
       0       0       0       0       0       0       0       0       0       0
       0       0       0       0       0       0       0       0       0       0
       0       0       0       0       0       0       0       0       0       0
       0       0       0       0       0       0       0       0       0       0
       0       0       0       0       0       0       0       0       0       0
       0       0       0       0       0       0       0       0       0       0
       0       0       0       0       0       0       0       0       0       0
       0       0       0       0       0       0       0       0       0       0
       0       0       0       0       0       0       0       0       0       0
       0       0       0       0       0       0       0       0       0       0
       0       0       0       0       0       0       0       0       0       0
       0       0       0       0       0       0       0       0       0       0
       0       0       0       0       0       0       0       0       0       0
       0       0       0       0       0       0       0       0       0       0
       0       0       0       0       0       0       0       0       0       0
       0       0       0       0       0       0       0       0       0       0
       0       0       0       0       0       0       0       0       0       0
       0       0       0       0       0       0       0       0       0       0
       0       0       0       0       0       0       0       0       0       0
       0       0       0       0       0       0       0       0       0       0
       0       0       0       0       0       0       0       0       0       0
       0       0       0       0       0       0       0       0       0       0
       0       0       0       0       0       0       0       0       0       0
       0       0       0       0       0       0       0       0       0       0
       0       0       0       0       0       0       0       0       0       0
       0       0       0       0       0       0       0       0       0       0
       0       0       0       0       0       0       0       0       0       0
       0       0       0       0       0       0       0       0       0       0
       0       0       0       0       0       0       0       0       0       0
       0       0       0       0       0       0       0       0       0       0
       0       0       0       0       0       0       0       0       0       0
       0       0       0       0       0       0       0       0       0       0
       0       0       0       0       0       0       0       0       0       0
       0       0       0       0       0       0       0       0       0       0
       0       0       0       0       0       0       0       0       0       0
       0       0       0       0       0       0       0       0       0       0
       0       0       0       0       0       0       0       0       0       0
       0       0       0       0       0       0       0       0       0       0
       0       0       0       0       0       0       0       0       0       0
       0       0       0       0       0       0       0       0       0       0
       0       0       0       0       0       0       0       0       0       0
       0       0       0       0       0       0       0       0       0       0
       0       0       0       0       0       0       0       0       0       0
       0       0       0       0       0       0       0       0       0       0
       0       0       0       0       0       0       0       0       0       0
       0       0       0       0       0       0       0       0       0       0
       0       0       0       0       0       0       0       0       0       0
       0       0       0       0       0       0       0       0       0       0
       0       0       0       0       0       0       0       0       0       0
       0       0       0       0       0       0       0       0       0       0
       0       0       0       0       0       0       0       0       0       0
       0       0       0       0       0       0       0       0       0       0
       0       0       0       0       0       0       0       0       0       0
       0       0       0       0       0       0       0       0       0       0
       0       0       0       0       0       0       0       0       0       0
       0       0       0       0       0       0       0       0       0       0
       0       0       0       0       0       0       0       0       0       0
       0       0       0       0       0       0       0       0       0       0
       0       0       0       0       0       0       0       0       0       0
       0       0       0       0       0       0       0       0       0       0
       0       0       0       0       0       0       0       0       0       0
       0       0       0       0       0       0       0       0       0       0
       0       0       0       0       0       0       0       0       0       0
       0       0       0       0       0       0       0       0       0       0
       0       0       0       0       0       0       0       0       0       0
       0       0       0       0       0       0       0       0       0       0
       0       0       0       0       0       0       0       0       0       0
       0       0       0       0       0       0       0       0       0       0
       0       0       0       0       0       0       0       0       0       0
       0       0       0       0       0       0       0       0       0       0
       0       0       0       0       0       0       0       0       0       0
       0       0       0       0       0       0       0       0       0       0
       0       0       0       0       0       0       0       0       0       0
       0       0       0       0       0       0       0       0       0       0
       0       0       0       0       0       0       0       0       0       0
       0       0       0       0       0       0       0       0       0       0
       0       0       0       0       0       0       0       0       0       0
       0       0       0       0       0       0       0       0       0       0
       0       0       0       0       0       0       0       0       0       0
       0       0       0       0       0       0       0       0       0       0
       0       0       0       0       0       0       0       0       0       0
       0       0       0       0       0       0       0       0       0       0
       0       0       0       0       0       0       0       0       0       0
       0       0       0       0       0       0       0       0       0       0
       0       0       0       0       0       0       0       0       0       0
       0       0       0       0       0       0       0       0       0       0
       0       0       0       0       0       0       0       0       0       0
       0       0       0       0       0       0       0       0       0       0
       0       0       0       0       0       0       0       0       0       0
       0       0       0       0       0       0       0       0       0       0
       0       0       0       0       0       0       0       0       0       0
       0       0       0       0       0       0       0       0       0       0
       0       0       0       0       0       0       0       0       0       0
       0       0       0       0       0       0       0       0       0       0
       0       0       0       0       0       0       0       0       0       0
       0       0       0       0       0       0       0       0       0       0
       0       0       0       0       0       0       0       0       0       0
       0       0       0       0       0       0       0       0       0       0
       0       0       0       0       0       0       0       0       0       0
       0       0       0       0       0       0       0       0       0       0
       0       0       0       0       0       0       0       0       0       0
       0       0       0       0       0       0       0       0       0       0
       0       0       0       0       0       0       0       0       0       0
       0       0       0       0       0       0       0       0       0       0
       0       0       0       0       0       0       0       0       0       0
       0       0       0       0       0       0       0       0       0       0
       0       0       0       0       0       0       0       0       0       0
       0       0       0       0       0       0       0       0       0       0
       0       0       0       0       0       0       0       0       0       0
       0       0       0       0       0       0       0       0       0       0
       0       0       0       0       0       0       0       0       0       0
       0       0       0       0       0       0       0       0       0       0
       0       0       0       0       0       0       0       0       0       0
       0       0       0       0       0       0       0       0       0       0
       0       0       0       0       0       0       0       0       0       0
       0       0       0       0       0       0       0       0       0       0
       0       0       0       0       0       0       0       0       0       0
       0       0       0       0       0       0       0       0       0       0
       0       0       0       0       0       0       0       0       0       0
       0       0       0       0       0       0       0       0       0       0
       0       0       0       0       0       0       0       0       0       0
       0       0       0       0       0       0       0       0       0       0
       0       0       0       0       0       0       0       0       0       0
       0       0       0       0       0       0       0       0       0       0
       0       0       0       0       0       0       0       0       0       0
       0       0       0       0       0       0       0       0       0       0
       0       0       0       0       0       0       0       0       0       0
       0       0       0       0       0       0       0       0       0       0
       0       0       0       0       0       0       0       0       0       0
       0       0       0       0       0       0       0       0       0       0
       0       0       0       0       0       0       0       0       0       0
       0       0       0       0       0       0       0       0       0       0
       0       0       0       0       0       0       0       0       0       0
       0       0       0       0       0       0       0       0       0       0
       0       0       0       0       0       0       0       0       0       0
       0       0       0       0       0       0       0       0       0       0
       0       0       0       0       0       0       0       0       0       0
       0       0       0       0       0       0       0       0       0       0
       0       0       0       0       0       0       0       0       0       0
       0       0       0       0       0       0       0       0       0       0
       0       0       0       0       0       0       0       0       0       0
       0       0       0       0       0       0       0       0       0       0
       0       0       0       0       0       0       0       0       0       0
       0       0       0       0       0       0       0       0       0       0
       0       0       0       0       0       0       0       0       0       0
       0       0       0       0       0       0       0       0       0       0
       0       0       0       0       0       0       0       0       0       0
       0       0       0       0       0       0       0       0       0       0
       0       0       0       0       0       0       0       0       0       0
       0       0       0       0       0       0       0       0       0       0
       0       0       0       0       0       0       0       0       0       0
       0       0       0       0       0       0       0       0       0       0
       0       0       0       0       0       0       0       0       0       0
       0       0       0       0       0       0       0       0       0       0
       0       0       0       0       0       0       0       0       0       0
       0       0       0       0       0       0       0       0       0       0
       0       0       0       0       0       0       0       0       0       0
       0       0       0       0       0       0       0       0       0       0
       0       0       0       0       0       0       0       0       0       0
       0       0       0       0       0       0       0       0       0       0
       0       0       0       0       0       0       0       0       0       0
       0       0       0       0       0       0       0       0       0       0
       0       0       0       0       0       0       0       0       0       0
       0       0       0       0       0       0       0       0       0       0
       0       0       0       0       0       0       0       0       0       0
       0       0       0       0       0       0       0       0       0       0
       0       0       0       0       0       0       0       0       0       0
       0       0       0       0       0       0       0       0       0       0
       0       0       0       0       0       0       0       0       0       0
       0       0       0       0       0       0       0       0       0       0
       0       0       0       0       0       0       0       0       0       0
       0       0       0       0       0       0       0       0       0       0
       0       0       0       0       0       0       0       0       0       0
       0       0       0       0       0       0       0       0       0       0
       0       0       0       0       0       0       0       0       0       0
       0       0       0       0       0       0       0       0       0       0
       0       0       0       0       0       0       0       0       0       0
       0       0       0       0       0       0       0       0       0       0
       0       0       0       0       0       0       0       0       0       0
       0       0       0       0       0       0       0       0       0       0
       0       0       0       0       0       0       0       0       0       0
       0       0       0       0       0       0       0       0       0       0
       0       0       0       0       0       0       0       0       0       0
       0       0       0       0       0       0       0       0       0       0
       0       0       0       0       0       0       0       0       0       0
       0       0       0       0       0       0       0       0       0       0
       0       0       0       0       0       0       0       0       0       0
       0       0       0       0       0       0       0       0       0       0
       0       0       0       0       0       0       0       0       0       0
       0       0       0       0       0       0       0       0       0       0
       0       0       0       0       0       0       0       0       0       0
       0       0       0       0       0       0       0       0       0       0
       0       0       0       0       0       0       0       0       0       0
       0       0       0       0       0       0       0       0       0       0
       0       0       0       0       0       0       0       0       0       0
       0       0       0       0       0       0       0       0       0       0
       0       0       0       0       0       0       0       0       0       0
       0       0       0       0       0       0       0       0       0       0
       0       0       0       0       0       0       0       0       0       0
       0       0       0       0       0       0       0       0       0       0
       0       0       0       0       0       0       0       0       0       0
       0       0       0       0       0       0       0       0       0       0
       0       0       0       0       0       0       0       0       0       0
       0       0       0       0       0       0       0       0       0       0
       0       0       0       0       0       0       0       0       0       0
       0       0       0       0       0       0       0       0       0       0
       0       0       0       0       0       0       0       0       0       0
       0       0       0       0       0       0       0       0       0       0
       0       0       0       0       0       0       0       0       0       0
       0       0       0       0       0       0       0       0       0       0
       0       0       0       0       0       0       0       0       0       0
       0       0       0       0       0       0       0       0       0       0
       0       0       0       0       0       0       0       0       0       0
       0       0       0       0       0       0       0       0       0       0
       0       0       0       0       0       0       0       0       0       0
       0       0       0       0       0       0       0       0       0       0
       0       0       0       0       0       0       0       0       0       0
       0       0       0       0       0       0       0       0       0       0
       0       0       0       0       0       0       0       0       0       0
       0       0       0       0       0       0       0       0       0       0
       0       0       0       0       0       0       0       0       0       0
       0       0       0       0       0       0       0       0       0       0
       0       0       0       0       0       0       0       0       0       0
       0       0       0       0       0       0       0       0       0       0
       0       0       0       0       0       0       0       0       0       0
       0       0       0       0       0       0       0       0       0       0
       0       0       0       0       0       0       0       0       0       0
       0       0       0       0       0       0       0       0       0       0
       0       0       0       0       0       0       0       0       0       0
       0       0       0       0       0       0       0       0       0       0
       0       0       0       0       0       0       0       0       0       0
       0       0       0       0       0       0       0       0       0       0
       0       0       0       0       0       0       0       0       0       0
       0       0       0       0       0       0       0       0       0       0
       0       0       0       0       0       0       0       0       0       0
       0       0       0       0       0       0       0       0       0       0
       0       0       0       0       0       0       0       0       0       0
       0       0       0       0       0       0       0       0       0       0
       0       0       0       0       0       0       0       0       0       0
       0       0       0       0       0       0       0       0       0       0
       0       0       0       0       0       0       0       0       0       0
       0       0       0       0       0       0       0       0       0       0
       0       0       0       0       0       0       0       0       0       0
       0       0       0       0       0       0       0       0       0       0
       0       0       0       0       0       0       0       0       0       0
       0       0       0       0       0       0       0       0       0       0
       0       0       0       0       0       0       0       0       0       0
       0       0       0       0       0       0       0       0       0       0
       0       0       0       0       0       0       0       0       0       0
       0       0       0       0       0       0       0       0       0       0
       0       0       0       0       0       0       0       0       0       0
       0       0       0       0       0       0       0       0       0       0
       0       0       0       0       0       0       0       0       0       0
       0       0       0       0       0       0       0       0       0       0
       0       0       0       0       0       0       0       0       0       0
       0       0       0       0       0       0       0       0       0       0
       0       0       0       0       0       0       0       0       0       0
       0       0       0       0       0       0       0       0       0       0
       0       0       0       0       0       0       0       0       0       0
       0       0       0       0       0       0       0       0       0       0
       0       0       0       0       0       0       0       0       0       0
       0       0       0       0       0       0       0       0       0       0
       0       0       0       0       0       0       0       0       0       0
       0       0       0       0       0       0       0       0       0       0
       0       0       0       0       0       0       0       0       0       0
       0       0       0       0       0       0       0       0       0       0
       0       0       0       0       0       0       0       0       0       0
       0       0       0       0       0       0       0       0       0       0
       0       0       0       0       0       0       0       0       0       0
       0       0       0       0       0       0       0       0       0       0
       0       0       0       0       0       0       0       0       0       0
       0       0       0       0       0       0       0       0       0       0
       0       0       0       0       0       0       0       0       0       0
       0       0       0       0       0       0       0       0       0       0
       0       0       0       0       0       0       0       0       0       0
       0       0       0       0       0       0       0       0       0       0
       0       0       0       0       0       0       0       0       0       0
       0       0       0       0       0       0       0       0       0       0
       0       0       0       0       0       0       0       0       0       0
       0       0       0       0       0       0       0       0       0       0
       0       0       0       0       0       0       0       0       0       0
       0       0       0       0       0       0       0       0       0       0
       0       0       0       0       0       0       0       0       0       0
       0       0       0       0       0       0       0       0       0       0
       0       0       0       0       0       0       0       0       0       0
       0       0       0       0       0       0       0       0       0       0
       0       0       0       0       0       0       0       0       0       0
       0       0       0       0       0       0       0       0       0       0
       0       0       0       0       0       0       0       0       0       0
       0       0       0       0       0       0       0       0       0       0
       0       0       0       0       0       0       0       0       0       0
       0       0       0       0       0       0       0       0       0       0
       0       0       0       0       0       0       0       0       0       0
       0       0       0       0       0       0       0       0       0       0
       0       0       0       0       0       0       0       0       0       0
       0       0       0       0       0       0       0       0       0       0
       0       0       0       0       0       0       0       0       0       0
       0       0       0       0       0       0       0       0       0       0
       0       0       0       0       0       0       0       0       0       0
       0       0       0       0       0       0       0       0       0       0
       0       0       0       0       0       0       0       0       0       0
       0       0       0       0       0       0       0       0       0       0
       0       0       0       0       0       0       0       0       0       0
       0       0       0       0       0       0       0       0       0       0
       0       0       0       0       0       0       0       0       0       0
       0       0       0       0       0       0       0       0       0       0
       0       0       0       0       0       0       0       0       0       0
       0       0       0       0       0       0       0       0       0       0
       0       0       0       0       0       0       0       0       0       0
       0       0       0       0       0       0       0       0       0       0
       0       0       0       0       0       0       0       0       0       0
       0       0       0       0       0       0       0       0       0       0
       0       0       0       0       0       0       0       0       0       0
       0       0       0       0       0       0       0       0       0       0
       0       0       0       0       0       0       0       0       0       0
       0       0       0       0       0       0       0       0       0       0
       0       0       0       0       0       0       0       0       0       0
       0       0       0       0       0       0       0       0       0       0
       0       0       0       0       0       0       0       0       0       0
       0       0       0       0       0       0       0       0       0       0
       0       0       0       0       0       0       0       0       0       0
       0       0       0       0       0       0       0       0       0       0
       0       0       0       0       0       0       0       0       0       0
       0       0       0       0       0       0       0       0       0       0
       0       0       0       0       0       0       0       0       0       0
       0       0       0       0       0       0       0       0       0       0
       0       0       0       0       0       0       0       0       0       0
       0       0       0       0       0       0       0       0       0       0
       0       0       0       0       0       0       0       0       0       0
       0       0       0       0       0       0       0       0       0       0
       0       0       0       0       0       0       0       0       0       0
       0       0       0       0       0       0       0       0       0       0
       0       0       0       0       0       0       0       0       0       0
       0       0       0       0       0       0       0       0       0       0
       0       0       0       0       0       0       0       0       0       0
       0       0       0       0       0       0       0       0       0       0
       0       0       0       0       0       0       0       0       0       0
       0       0       0       0       0       0       0       0       0       0
       0       0       0       0       0       0       0       0       0       0
       0       0       0       0       0       0       0       0       0       0
       0       0       0       0       0       0       0       0       0       0
       0       0       0       0       0       0       0       0       0       0
       0       0       0       0       0       0       0       0       0       0
       0       0       0       0       0       0       0       0       0       0
       0       0       0       0       0       0       0       0       0       0
       0       0       0       0       0       0       0       0       0       0
       0       0       0       0       0       0       0       0       0       0
       0       0       0       0       0       0       0       0       0       0
       0       0       0       0       0       0       0       0       0       0
       0       0       0       0       0       0       0       0       0       0
       0       0       0       0       0       0       0       0       0       0
       0       0       0       0       0       0       0       0       0       0
       0       0       0       0       0       0       0       0       0       0
       0       0       0       0       0       0       0       0       0       0
       0       0       0       0       0       0       0       0       0       0
       0       0       0       0       0       0       0       0       0       0
       0       0       0       0       0       0       0       0       0       0
       0       0       0       0       0       0       0       0       0       0
       0       0       0       0       0       0       0       0       0       0
       0       0       0       0       0       0       0       0       0       0
       0       0       0       0       0       0       0       0       0       0
       0       0       0       0       0       0       0       0       0       0
       0       0       0       0       0       0       0       0       0       0
       0       0       0       0       0       0       0       0       0       0
       0       0       0       0       0       0       0       0       0       0
       0       0       0       0       0       0       0       0       0       0
       0       0       0       0       0       0       0       0       0       0
       0       0       0       0       0       0       0       0       0       0
       0       0       0       0       0       0       0       0       0       0
       0       0       0       0       0       0       0       0       0       0
       0       0       0       0       0       0       0       0       0       0
       0       0       0       0       0       0       0       0       0       0
       0       0       0       0       0       0       0       0       0       0
       0       0       0       0       0       0       0       0       0       0
       0       0       0       0       0       0       0       0       0       0
       0       0       0       0       0       0       0       0       0       0
       0       0       0       0       0       0       0       0       0       0
       0       0       0       0       0       0       0       0       0       0
       0       0       0       0       0       0       0       0       0       0
       0       0       0       0       0       0       0       0       0       0
       0       0       0       0       0       0       0       0       0       0
       0       0       0       0       0       0       0       0       0       0
       0       0       0       0       0       0       0       0       0       0
       0       0       0       0       0       0       0       0       0       0
       0       0       0       0       0       0       0       0       0       0
       0       0       0       0       0       0       0       0       0       0
       0       0       0       0       0       0       0       0       0       0
       0       0       0       0       0       0       0       0       0       0
       0       0       0       0       0       0       0       0       0       0
       0       0       0       0       0       0       0       0       0       0
       0       0       0       0       0       0       0       0       0       0
       0       0       0       0       0       0       0       0       0       0
       0       0       0       0       0       0       0       0       0       0
       0       0       0       0       0       0       0       0       0       0
       0       0       0       0       0       0       0       0       0       0
       0       0       0       0       0       0       0       0       0       0
       0       0       0       0       0       0       0       0       0       0
       0       0       0       0       0       0       0       0       0       0
       0       0       0       0       0       0       0       0       0       0
       0       0       0       0       0       0       0       0       0       0
       0       0       0       0       0       0       0       0       0       0
       0       0       0       0       0       0       0       0       0       0
       0       0       0       0       0       0       0       0       0       0
       0       0       0       0       0       0       0       0       0       0
       0       0       0       0       0       0       0       0       0       0
       0       0       0       0       0       0       0       0       0       0
       0       0       0       0       0       0       0       0       0       0
       0       0       0       0       0       0       0       0       0       0
       0       0       0       0       0       0       0       0       0       0
       0       0       0       0       0       0       0       0       0       0
       0       0       0       0       0       0       0       0       0       0
       0       0       0       0       0       0       0       0       0       0
       0       0       0       0       0       0       0       0       0       0
       0       0       0       0       0       0       0       0       0       0
       0       0       0       0       0       0       0       0       0       0
       0       0       0       0       0       0       0       0       0       0
       0       0       0       0       0       0       0       0       0       0
       0       0       0       0       0       0       0       0       0       0
       0       0       0       0       0       0       0       0       0       0
       0       0       0       0       0       0       0       0       0       0
       0       0       0       0       0       0       0       0       0       0
       0       0       0       0       0       0       0       0       0       0
       0       0       0       0       0       0       0       0       0       0
       0       0       0       0       0       0       0       0       0       0
       0       0       0       0       0       0       0       0       0       0
       0       0       0       0       0       0       0       0       0       0
       0       0       0       0       0       0       0       0       0       0
       0       0       0       0       0       0       0       0       0       0
       0       0       0       0       0       0       0       0       0       0
       0       0       0       0       0       0       0       0       0       0
       0       0       0       0       0       0       0       0       0       0
       0       0       0       0       0       0       0       0       0       0
       0       0       0       0       0       0       0       0       0       0
       0       0       0       0       0       0       0       0       0       0
       0       0       0       0       0       0       0       0       0       0
       0       0       0       0       0       0       0       0       0       0
       0       0       0       0       0       0       0       0       0       0
       0       0       0       0       0       0       0       0       0       0
       0       0       0       0       0       0       0       0       0       0
       0       0       0       0       0       0       0       0       0       0
       0       0       0       0       0       0       0       0       0       0
       0       0       0       0       0       0       0       0       0       0
       0       0       0       0       0       0       0       0       0       0
       0       0       0       0       0       0       0       0       0       0
       0       0       0       0       0       0       0       0       0       0
       0       0       0       0       0       0       0       0       0       0
       0       0       0       0       0       0       0       0       0       0
       0       0       0       0       0       0       0       0       0       0
       0       0       0       0       0       0       0       0       0       0
       0       0       0       0       0       0       0       0       0       0
       0       0       0       0       0       0       0       0       0       0
       0       0       0       0       0       0       0       0       0       0
       0       0       0       0       0       0       0       0       0       0
       0       0       0       0       0       0       0       0       0       0
       0       0       0       0       0       0       0       0       0       0
       0       0       0       0       0       0       0       0       0       0
       0       0       0       0       0       0       0       0       0       0
       0       0       0       0       0       0       0       0       0       0
       0       0       0       0       0       0       0       0       0       0
       0       0       0       0       0       0       0       0       0       0
       0       0       0       0       0       0       0       0       0       0
       0       0       0       0       0       0       0       0       0       0
       0       0       0       0       0       0       0       0       0       0
       0       0       0       0       0       0       0       0       0       0
       0       0       0       0       0       0       0       0       0       0
       0       0       0       0       0       0       0       0       0       0
       0       0       0       0       0       0       0       0       0       0
       0       0       0       0       0       0       0       0       0       0
       0       0       0       0       0       0       0       0       0       0
       0       0       0       0       0       0       0       0       0       0
       0       0       0       0       0       0       0       0       0       0
       0       0       0       0       0       0       0       0       0       0
       0       0       0       0       0       0       0       0       0       0
       0       0       0       0       0       0       0       0       0       0
       0       0       0       0       0       0       0       0       0       0
       0       0       0       0       0       0       0       0       0       0
       0       0       0       0       0       0       0       0       0       0
       0       0       0       0       0       0       0       0       0       0
       0       0       0       0       0       0       0       0       0       0
       0       0       0       0       0       0       0       0       0       0
       0       0       0       0       0       0       0       0       0       0
       0       0       0       0       0       0       0       0       0       0
       0       0       0       0       0       0       0       0       0       0
       0       0       0       0       0       0       0       0       0       0
       0       0       0       0       0       0       0       0       0       0
       0       0       0       0       0       0       0       0       0       0
       0       0       0       0       0       0       0       0       0       0
       0       0       0       0       0       0       0       0       0       0
       0       0       0       0       0       0       0       0       0       0
       0       0       0       0       0       0       0       0       0       0
       0       0       0       0       0       0       0       0       0       0
       0       0       0       0       0       0       0       0       0       0
       0       0       0       0       0       0       0       0       0       0
       0       0       0       0       0       0       0       0       0       0
       0       0       0       0       0       0       0       0       0       0
       0       0       0       0       0       0       0       0       0       0
       0       0       0       0       0       0       0       0       0       0
       0       0       0       0       0       0       0       0       0       0
       0       0       0       0       0       0       0       0       0       0
       0       0       0       0       0       0       0       0       0       0
       0       0       0       0       0       0       0       0       0       0
       0       0       0       0       0       0       0       0       0       0
       0       0       0       0       0       0       0       0       0       0
       0       0       0       0       0       0       0       0       0       0
       0       0       0       0       0       0       0       0       0       0
       0       0       0       0       0       0       0       0       0       0
       0       0       0       0       0       0       0       0       0       0
       0       0       0       0       0       0       0       0       0       0
       0       0       0       0       0       0       0       0       0       0
       0       0       0       0       0       0       0       0       0       0
       0       0       0       0       0       0       0       0       0       0
       0       0       0       0       0       0       0       0       0       0
       0       0       0       0       0       0       0       0       0       0
       0       0       0       0       0       0       0       0       0       0
       0       0       0       0       0       0       0       0       0       0
       0       0       0       0       0       0       0       0       0       0
       0       0       0       0       0       0       0       0       0       0
       0       0       0       0       0       0       0       0       0       0
       0       0       0       0       0       0       0       0       0       0
       0       0       0       0       0       0       0       0       0       0
       0       0       0       0       0       0       0       0       0       0
       0       0       0       0       0       0       0       0       0       0
       0       0       0       0       0       0       0       0       0       0
       0       0       0       0       0       0       0       0       0       0
       0       0       0       0       0       0       0       0       0       0
       0       0       0       0       0       0       0       0       0       0
       0       0       0       0       0       0       0       0       0       0
       0       0       0       0       0       0       0       0       0       0
       0       0       0       0       0       0       0       0       0       0
       0       0       0       0       0       0       0       0       0       0
       0       0       0       0       0       0       0       0       0       0
       0       0       0       0       0       0       0       0       0       0
       0       0       0       0       0       0       0       0       0       0
       0       0       0       0       0       0       0       0       0       0
       0       0       0       0       0       0       0       0       0       0
       0       0       0       0       0       0       0       0       0       0
       0       0       0       0       0       0       0       0       0       0
       0       0       0       0       0       0       0       0       0       0
       0       0       0       0       0       0       0       0       0       0
       0       0       0       0       0       0       0       0       0       0
       0       0       0       0       0       0       0       0       0       0
       0       0       0       0       0       0       0       0       0       0
       0       0       0       0       0       0       0       0       0       0
       0       0       0       0       0       0       0       0       0       0
       0       0       0       0       0       0       0       0       0       0
       0       0       0       0       0       0       0       0       0       0
       0       0       0       0       0       0       0       0       0       0
       0       0       0       0       0       0       0       0       0       0
       0       0       0       0       0       0       0       0       0       0
       0       0       0       0       0       0       0       0       0       0
       0       0       0       0       0       0       0       0       0       0
       0       0       0       0       0       0       0       0       0       0
       0       0       0       0       0       0       0       0       0       0
       0       0       0       0       0       0       0       0       0       0
       0       0       0       0       0       0       0       0       0       0
       0       0       0       0       0       0       0       0       0       0
       0       0       0       0       0       0       0       0       0       0
       0       0       0       0       0       0       0       0       0       0
       0       0       0       0       0       0       0       0       0       0
       0       0       0       0       0       0       0       0       0       0
       0       0       0       0       0       0       0       0       0       0
       0       0       0       0       0       0       0       0       0       0
       0       0       0       0       0       0       0       0       0       0
       0       0       0       0       0       0       0       0       0       0
       0       0       0       0       0       0       0       0       0       0
       0       0       0       0       0       0       0       0       0       0
       0       0       0       0       0       0       0       0       0       0
       0       0       0       0       0       0       0       0       0       0
       0       0       0       0       0       0       0       0       0       0
       0       0       0       0       0       0       0       0       0       0
       0       0       0       0       0       0       0       0       0       0
       0       0       0       0       0       0       0       0       0       0
       0       0       0       0       0       0       0       0       0       0
       0       0       0       0       0       0       0       0       0       0
       0       0       0       0       0       0       0       0       0       0
       0       0       0       0       0       0       0       0       0       0
       0       0       0       0       0       0       0       0       0       0
       0       0       0       0       0       0       0       0       0       0
       0       0       0       0       0       0       0       0       0       0
       0       0       0       0       0       0       0       0       0       0
       0       0       0       0       0       0       0       0       0       0
       0       0       0       0       0       0       0       0       0       0
       0       0       0       0       0       0       0       0       0       0
       0       0       0       0       0       0       0       0       0       0
       0       0       0       0       0       0       0       0       0       0
       0       0       0       0       0       0       0       0       0       0
       0       0       0       0       0       0       0       0       0       0
       0       0       0       0       0       0       0       0       0       0
       0       0       0       0       0       0       0       0       0       0
       0       0       0       0       0       0       0       0       0       0
       0       0       0       0       0       0       0       0       0       0
       0       0       0       0       0       0       0       0       0       0
       0       0       0       0       0       0       0       0       0       0
       0       0       0       0       0       0       0       0       0       0
       0       0       0       0       0       0       0       0       0       0
       0       0       0       0       0       0       0       0       0       0
       0       0       0       0       0       0       0       0       0       0
       0       0       0       0       0       0       0       0       0       0
       0       0       0       0       0       0       0       0       0       0
       0       0       0       0       0       0       0       0       0       0
       0       0       0       0       0       0       0       0       0       0
       0       0       0       0       0       0       0       0       0       0
       0       0       0       0       0       0       0       0       0       0
       0       0       0       0       0       0       0       0       0       0
       0       0       0       0       0       0       0       0       0       0
       0       0       0       0       0       0       0       0       0       0
       0       0       0       0       0       0       0       0       0       0
       0       0       0       0       0       0       0       0       0       0
       0       0       0       0       0       0       0       0       0       0
       0       0       0       0       0       0       0       0       0       0
       0       0       0       0       0       0       0       0       0       0
       0       0       0       0       0       0       0       0       0       0
       0       0       0       0       0       0       0       0       0       0
       0       0       0       0       0       0       0       0       0       0
       0       0       0       0       0       0       0       0       0       0
       0       0       0       0       0       0       0       0       0       0
       0       0       0       0       0       0       0       0       0       0
       0       0       0       0       0       0       0       0       0       0
       0       0       0       0       0       0       0       0       0       0
       0       0       0       0       0       0       0       0       0       0
       0       0       0       0       0       0       0       0       0       0
       0       0       0       0       0       0       0       0       0       0
       0       0       0       0       0       0       0       0       0       0
       0       0       0       0       0       0       0       0       0       0
       0       0       0       0       0       0       0       0       0       0
       0       0       0       0       0       0       0       0       0       0
       0       0       0       0       0       0       0       0       0       0
       0       0       0       0       0       0       0       0       0       0
       0       0       0       0       0       0       0       0       0       0
       0       0       0       0       0       0       0       0       0       0
       0       0       0       0       0       0       0       0       0       0
       0       0       0       0       0       0       0       0       0       0
       0       0       0       0       0       0       0       0       0       0
       0       0       0       0       0       0       0       0       0       0
       0       0       0       0       0       0       0       0       0       0
       0       0       0       0       0       0       0       0       0       0
       0       0       0       0       0       0       0       0       0       0
       0       0       0       0       0       0       0       0       0       0
       0       0       0       0       0       0       0       0       0       0
       0       0       0       0       0       0       0       0       0       0
       0       0       0       0       0       0       0       0       0       0
       0       0       0       0       0       0       0       0       0       0
       0       0       0       0       0       0       0       0       0       0
       0       0       0       0       0       0       0       0       0       0
       0       0       0       0       0       0       0       0       0       0
       0       0       0       0       0       0       0       0       0       0
       0       0       0       0       0       0       0       0       0       0
       0       0       0       0       0       0       0       0       0       0
       0       0       0       0       0       0       0       0       0       0
       0       0       0       0       0       0       0       0       0       0
       0       0       0       0       0       0       0       0       0       0
       0       0       0       0       0       0       0       0       0       0
       0       0       0       0       0       0       0       0       0       0
       0       0       0       0       0       0       0       0       0       0
       0       0       0       0       0       0       0       0       0       0
       0       0       0       0       0       0       0       0       0       0
       0       0       0       0       0       0       0       0       0       0
       0       0       0       0       0       0       0       0       0       0
       0       0       0       0       0       0       0       0       0       0
       0       0       0       0       0       0       0       0       0       0
       0       0       0       0       0       0       0       0       0       0
       0       0       0       0       0       0       0       0       0       0
       0       0       0       0       0       0       0       0       0       0
       0       0       0       0       0       0       0       0       0       0
       0       0       0       0       0       0       0       0       0       0
       0       0       0       0       0       0       0       0       0       0
       0       0       0       0       0       0       0       0       0       0
       0       0       0       0       0       0       0       0       0       0
       0       0       0       0       0       0       0       0       0       0
       0       0       0       0       0       0       0       0       0       0
       0       0       0       0       0       0       0       0       0       0
       0       0       0       0       0       0       0       0       0       0
       0       0       0       0       0       0       0       0       0       0
       0       0       0       0       0       0       0       0       0       0
       0       0       0       0       0       0       0       0       0       0
       0       0       0       0       0       0       0       0       0       0
       0       0       0       0       0       0       0       0       0       0
       0       0       0       0       0       0       0       0       0       0
       0       0       0       0       0       0       0       0       0       0
       0       0       0       0       0       0       0       0       0       0
       0       0       0       0       0       0       0       0       0       0
       0       0       0       0       0       0       0       0       0       0
       0       0       0       0       0       0       0       0       0       0
       0       0       0       0       0       0       0       0       0       0
       0       0       0       0       0       0       0       0       0       0
       0       0       0       0       0       0       0       0       0       0
       0       0       0       0       0       0       0       0       0       0
       0       0       0       0       0       0       0       0       0       0
       0       0       0       0       0       0       0       0       0       0
       0       0       0       0       0       0       0       0       0       0
       0       0       0       0       0       0       0       0       0       0
       0       0       0       0       0       0       0       0       0       0
       0       0       0       0       0       0       0       0       0       0
       0       0       0       0       0       0       0       0       0       0
       0       0       0       0       0       0       0       0       0       0
       0       0       0       0       0       0       0       0       0       0
       0       0       0       0       0       0       0       0       0       0
       0       0       0       0       0       0       0       0       0       0
       0       0       0       0       0       0       0       0       0       0
       0       0       0       0       0       0       0       0       0       0
       0       0       0       0       0       0       0       0       0       0
       0       0       0       0       0       0       0       0       0       0
       0       0       0       0       0       0       0       0       0       0
       0       0       0       0       0       0       0       0       0       0
       0       0       0       0       0       0       0       0       0       0
       0       0       0       0       0       0       0       0       0       0
       0       0       0       0       0       0       0       0       0       0
       0       0       0       0       0       0       0       0       0       0
       0       0       0       0       0       0       0       0       0       0
       0       0       0       0       0       0       0       0       0       0
       0       0       0       0       0       0       0       0       0       0
       0       0       0       0       0       0       0       0       0       0
       0       0       0       0       0       0       0       0       0       0
       0       0       0       0       0       0       0       0       0       0
       0       0       0       0       0       0       0       0       0       0
       0       0       0       0       0       0       0       0       0       0
       0       0       0       0       0       0       0       0       0       0
       0       0       0       0       0       0       0       0       0       0
       0       0       0       0       0       0       0       0       0       0
       0       0       0       0       0       0       0       0       0       0
       0       0       0       0       0       0       0       0       0       0
       0       0       0       0       0       0       0       0       0       0
       0       0       0       0       0       0       0       0       0       0
       0       0       0       0       0       0       0       0       0       0
       0       0       0       0       0       0       0       0       0       0
       0       0       0       0       0       0       0       0       0       0
       0       0       0       0       0       0       0       0       0       0
       0       0       0       0       0       0       0       0       0       0
       0       0       0       0       0       0       0       0       0       0
       0       0       0       0       0       0       0       0       0       0
       0       0       0       0       0       0       0       0       0       0
       0       0       0       0       0       0       0       0       0       0
       0       0       0       0       0       0       0       0       0       0
       0       0       0       0       0       0       0       0       0       0
       0       0       0       0       0       0       0       0       0       0
       0       0       0       0       0       0       0       0       0       0
       0       0       0       0       0       0       0       0       0       0
       0       0       0       0       0       0       0       0       0       0
       0       0       0       0       0       0       0       0       0       0
       0       0       0       0       0       0       0       0       0       0
       0       0       0       0       0       0       0       0       0       0
       0       0       0       0       0       0       0       0       0       0
       0       0       0       0       0       0       0       0       0       0
       0       0       0       0       0       0       0       0       0       0
       0       0       0       0       0       0       0       0       0       0
       0       0       0       0       0       0       0       0       0       0
       0       0       0       0       0       0       0       0       0       0
       0       0       0       0       0       0       0       0       0       0
       0       0       0       0       0       0       0       0       0       0
       0       0       0       0       0       0       0       0       0       0
       0       0       0       0       0       0       0       0       0       0
       0       0       0       0       0       0       0       0       0       0
       0       0       0       0       0       0       0       0       0       0
       0       0       0       0       0       0       0       0       0       0
       0       0       0       0       0       0       0       0       0       0
       0       0       0       0       0       0       0       0       0       0
       0       0       0       0       0       0       0       0       0       0
       0       0       0       0       0       0       0       0       0       0
       0       0       0       0       0       0       0       0       0       0
       0       0       0       0       0       0       0       0       0       0
       0       0       0       0       0       0       0       0       0       0
       0       0       0       0       0       0       0       0       0       0
       0       0       0       0       0       0       0       0       0       0
       0       0       0       0       0       0       0       0       0       0
       0       0       0       0       0       0       0       0       0       0
       0       0       0       0       0       0       0       0       0       0
       0       0       0       0       0       0       0       0       0       0
       0       0       0       0       0       0       0       0       0       0
       0       0       0       0       0       0       0       0       0       0
       0       0       0       0       0       0       0       0       0       0
       0       0       0       0       0       0       0       0       0       0
       0       0       0       0       0       0       0       0       0       0
       0       0       0       0       0       0       0       0       0       0
       0       0       0       0       0       0       0       0       0       0
       0       0       0       0       0       0       0       0       0       0
       0       0       0       0       0       0       0       0       0       0
       0       0       0       0       0       0       0       0       0       0
       0       0       0       0       0       0       0       0       0       0
       0       0       0       0       0       0       0       0       0       0
       0       0       0       0       0       0       0       0       0       0
       0       0       0       0       0       0       0       0       0       0
       0       0       0       0       0       0       0       0       0       0
       0       0       0       0       0       0       0       0       0       0
       0       0       0       0       0       0       0       0       0       0
       0       0       0       0       0       0       0       0       0       0
       0       0       0       0       0       0       0       0       0       0
       0       0       0       0       0       0       0       0       0       0
       0       0       0       0       0       0       0       0       0       0
       0       0       0       0       0       0       0       0       0       0
       0       0       0       0       0       0       0       0       0       0
       0       0       0       0       0       0       0       0       0       0
       0       0       0       0       0       0       0       0       0       0
       0       0       0       0       0       0       0       0       0       0
       0       0       0       0       0       0       0       0       0       0
       0       0       0       0       0       0       0       0       0       0
       0       0       0       0       0       0       0       0       0       0
       0       0       0       0       0       0       0       0       0       0
       0       0       0       0       0       0       0       0       0       0
       0       0       0       0       0       0       0       0       0       0
       0       0       0       0       0       0       0       0       0       0
       0       0       0       0       0       0       0       0       0       0
       0       0       0       0       0       0       0       0       0       0
       0       0       0       0       0       0       0       0       0       0
       0       0       0       0       0       0       0       0       0       0
       0       0       0       0       0       0       0       0       0       0
       0       0       0       0       0       0       0       0       0       0
       0       0       0       0       0       0       0       0       0       0
       0       0       0       0       0       0       0       0       0       0
       0       0       0       0       0       0       0       0       0       0
       0       0       0       0       0       0       0       0       0       0
       0       0       0       0       0       0       0       0       0       0
       0       0       0       0       0       0       0       0       0       0
       0       0       0       0       0       0       0       0       0       0
       0       0       0       0       0       0       0       0       0       0
       0       0       0       0       0       0       0       0       0       0
       0       0       0       0       0       0       0       0       0       0
       0       0       0       0       0       0       0       0       0       0
       0       0       0       0       0       0       0       0       0       0
       0       0       0       0       0       0       0       0       0       0
       0       0       0       0       0       0       0       0       0       0
       0       0       0       0       0       0       0       0       0       0
       0       0       0       0       0       0       0       0       0       0
       0       0       0       0       0       0       0       0       0       0
       0       0       0       0       0       0       0       0       0       0
       0       0       0       0       0       0       0       0       0       0
       0       0       0       0       0       0       0       0       0       0
       0       0       0       0       0       0       0       0       0       0
       0       0       0       0       0       0       0       0       0       0
       0       0       0       0       0       0       0       0       0       0
       0       0       0       0       0       0       0       0       0       0
       0       0       0       0       0       0       0       0       0       0
       0       0       0       0       0       0       0       0       0       0
       0       0       0       0       0       0       0       0       0       0
       0       0       0       0       0       0       0       0       0       0
       0       0       0       0       0       0       0       0       0       0
       0       0       0       0       0       0       0       0       0       0
       0       0       0       0       0       0       0       0       0       0
       0       0       0       0       0       0       0       0       0       0
       0       0       0       0       0       0       0       0       0       0
       0       0       0       0       0       0       0       0       0       0
       0       0       0       0       0       0       0       0       0       0
       0       0       0       0       0       0       0       0       0       0
       0       0       0       0       0       0       0       0       0       0
       0       0       0       0       0       0       0       0       0       0
       0       0       0       0       0       0       0       0       0       0
       0       0       0       0       0       0       0       0       0       0
       0       0       0       0       0       0       0       0       0       0
       0       0       0       0       0       0       0       0       0       0
       0       0       0       0       0       0       0       0       0       0
       0       0       0       0       0       0       0       0       0       0
       0       0       0       0       0       0       0       0       0       0
       0       0       0       0       0       0       0       0       0       0
       0       0       0       0       0       0       0       0       0       0
       0       0       0       0       0       0       0       0       0       0
       0       0       0       0       0       0       0       0       0       0
       0       0       0       0       0       0       0       0       0       0
       0       0       0       0       0       0       0       0       0       0
       0       0       0       0       0       0       0       0       0       0
       0       0       0       0       0       0       0       0       0       0
       0       0       0       0       0       0       0       0       0       0
       0       0       0       0       0       0       0       0       0       0
       0       0       0       0       0       0       0       0       0       0
       0       0       0       0       0       0       0       0       0       0
       0       0       0       0       0       0       0       0       0       0
       0       0       0       0       0       0       0       0       0       0
       0       0       0       0       0       0       0       0       0       0
       0       0       0       0       0       0       0       0       0       0
       0       0       0       0       0       0       0       0       0       0
       0       0       0       0       0       0       0       0       0       0
       0       0       0       0       0       0       0       0       0       0
       0       0       0       0       0       0       0       0       0       0
       0       0       0       0       0       0       0       0       0       0
       0       0       0       0       0       0       0       0       0       0
       0       0       0       0       0       0       0       0       0       0
       0       0       0       0       0       0       0       0       0       0
       0       0       0       0       0       0       0       0       0       0
       0       0       0       0       0       0       0       0       0       0
       0       0       0       0       0       0       0       0       0       0
       0       0       0       0       0       0       0       0       0       0
       0       0       0       0       0       0       0       0       0       0
       0       0       0       0       0       0       0       0       0       0
       0       0       0       0       0       0       0       0       0       0
       0       0       0       0       0       0       0       0       0       0
       0       0       0       0       0       0       0       0       0       0
       0       0       0       0       0       0       0       0       0       0
       0       0       0       0       0       0       0       0       0       0
       0       0       0       0       0       0       0       0       0       0
       0       0       0       0       0       0       0       0       0       0
       0       0       0       0       0       0       0       0       0       0
       0       0       0       0       0       0       0       0       0       0
       0       0       0       0       0       0       0       0       0       0
       0       0       0       0       0       0       0       0       0       0
       0       0       0       0       0       0       0       0       0       0
       0       0       0       0       0       0       0       0       0       0
       0       0       0       0       0       0       0       0       0       0
       0       0       0       0       0       0       0       0       0       0
       0       0       0       0       0       0       0       0       0       0
       0       0       0       0       0       0       0       0       0       0
       0       0       0       0       0       0       0       0       0       0
       0       0       0       0       0       0       0       0       0       0
       0       0       0       0       0       0       0       0       0       0
       0       0       0       0       0       0       0       0       0       0
       0       0       0       0       0       0       0       0       0       0
       0       0       0       0       0       0       0       0       0       0
       0       0       0       0       0       0       0       0       0       0
       0       0       0       0       0       0       0       0       0       0
       0       0       0       0       0       0       0       0       0       0
       0       0       0       0       0       0       0       0       0       0
       0       0       0       0       0       0       0       0       0       0
       0       0       0       0       0       0       0       0       0       0
       0       0       0       0       0       0       0       0       0       0
       0       0       0       0       0       0       0       0       0       0
       0       0       0       0       0       0       0       0       0       0
       0       0       0       0       0       0       0       0       0       0
       0       0       0       0       0       0       0       0       0       0
       0       0       0       0       0       0       0       0       0       0
       0       0       0       0       0       0       0       0       0       0
       0       0       0       0       0       0       0       0       0       0
       0       0       0       0       0       0       0       0       0       0
       0       0       0       0       0       0       0       0       0       0
       0       0       0       0       0       0       0       0       0       0
       0       0       0       0       0       0       0       0       0       0
       0       0       0       0       0       0       0       0       0       0
       0       0       0       0       0       0       0       0       0       0
       0       0       0       0       0       0       0       0       0       0
       0       0       0       0       0       0       0       0       0       0
       0       0       0       0       0       0       0       0       0       0
       0       0       0       0       0       0       0       0       0       0
       0       0       0       0       0       0       0       0       0       0
       0       0       0       0       0       0       0       0       0       0
       0       0       0       0       0       0       0       0       0       0
       0       0       0       0       0       0       0       0       0       0
       0       0       0       0       0       0       0       0       0       0
       0       0       0       0       0       0       0       0       0       0
       0       0       0       0       0       0       0       0       0       0
       0       0       0       0       0       0       0       0       0       0
       0       0       0       0       0       0       0       0       0       0
       0       0       0       0       0       0       0       0       0       0
       0       0       0       0       0       0       0       0       0       0
       0       0       0       0       0       0       0       0       0       0
       0       0       0       0       0       0       0       0       0       0
       0       0       0       0       0       0       0       0       0       0
       0       0       0       0       0       0       0       0       0       0
       0       0       0       0       0       0       0       0       0       0
       0       0       0       0       0       0       0       0       0       0
       0       0       0       0       0       0       0       0       0       0
       0       0       0       0       0       0       0       0       0       0
       0       0       0       0       0       0       0       0       0       0
       0       0       0       0       0       0       0       0       0       0
       0       0       0       0       0       0       0       0       0       0
       0       0       0       0       0       0       0       0       0       0
       0       0       0       0       0       0       0       0       0       0
       0       0       0       0       0       0       0       0       0       0
       0       0       0       0       0       0       0       0       0       0
       0       0       0       0       0       0       0       0       0       0
       0       0       0       0       0       0       0       0       0       0
       0       0       0       0       0       0       0       0       0       0
       0       0       0       0       0       0       0       0       0       0
       0       0       0       0       0       0       0       0       0       0
       0       0       0       0       0       0       0       0       0       0
       0       0       0       0       0       0       0       0       0       0
       0       0       0       0       0       0       0       0       0       0
       0       0       0       0       0       0       0       0       0       0
       0       0       0       0       0       0       0       0       0       0
       0       0       0       0       0       0       0       0       0       0
       0       0       0       0       0       0       0       0       0       0
       0       0       0       0       0       0       0       0       0       0
       0       0       0       0       0       0       0       0       0       0
       0       0       0       0       0       0       0       0       0       0
       0       0       0       0       0       0       0       0       0       0
       0       0       0       0       0       0       0       0       0       0
       0       0       0       0       0       0       0       0       0       0
       0       0       0       0       0       0       0       0       0       0
       0       0       0       0       0       0       0       0       0       0
       0       0       0       0       0       0       0       0       0       0
       0       0       0       0       0       0       0       0       0       0
       0       0       0       0       0       0       0       0       0       0
       0       0       0       0       0       0       0       0       0       0
       0       0       0       0       0       0       0       0       0       0
       0       0       0       0       0       0       0       0       0       0
       0       0       0       0       0       0       0       0       0       0
       0       0       0       0       0       0       0       0       0       0
       0       0       0       0       0       0       0       0       0       0
       0       0       0       0       0       0       0       0       0       0
       0       0       0       0       0       0       0       0       0       0
       0       0       0       0       0       0       0       0       0       0
       0       0       0       0       0       0       0       0       0       0
       0       0       0       0       0       0       0       0       0       0
       0       0       0       0       0       0       0       0       0       0
       0       0       0       0       0       0       0       0       0       0
       0       0       0       0       0       0       0       0       0       0
       0       0       0       0       0       0       0       0       0       0
       0       0       0       0       0       0       0       0       0       0
       0       0       0       0       0       0       0       0       0       0
       0       0       0       0       0       0       0       0       0       0
       0       0       0       0       0       0       0       0       0       0
       0       0       0       0       0       0       0       0       0       0
       0       0       0       0       0       0       0       0       0       0
       0       0       0       0       0       0       0       0       0       0
       0       0       0       0       0       0       0       0       0       0
       0       0       0       0       0       0       0       0       0       0
       0       0       0       0       0       0       0       0       0       0
       0       0       0       0       0       0       0       0       0       0
       0       0       0       0       0       0       0       0       0       0
       0       0       0       0       0       0       0       0       0       0
       0       0       0       0       0       0       0       0       0       0
       0       0       0       0       0       0       0       0       0       0
       0       0       0       0       0       0       0       0       0       0
       0       0       0       0       0       0       0       0       0       0
       0       0       0       0       0       0       0       0       0       0
       0       0       0       0       0       0       0       0       0       0
       0       0       0       0       0       0       0       0       0       0
       0       0       0       0       0       0       0       0       0       0
       0       0       0       0       0       0       0       0       0       0
       0       0       0       0       0       0       0       0       0       0
       0       0       0       0       0       0       0       0       0       0
       0       0       0       0       0       0       0       0       0       0
       0       0       0       0       0       0       0       0       0       0
       0       0       0       0       0       0       0       0       0       0
       0       0       0       0       0       0       0       0       0       0
       0       0       0       0       0       0       0       0       0       0
       0       0       0       0       0       0       0       0       0       0
       0       0       0       0       0       0       0       0       0       0
       0       0       0       0       0       0       0       0       0       0
       0       0       0       0       0       0       0       0       0       0
       0       0       0       0       0       0       0       0       0       0
       0       0       0       0       0       0       0       0       0       0
       0       0       0       0       0       0       0       0       0       0
       0       0       0       0       0       0       0       0       0       0
       0       0       0       0       0       0       0       0       0       0
       0       0       0       0       0       0       0       0       0       0
       0       0       0       0       0       0       0       0       0       0
       0       0       0       0       0       0       0       0       0       0
       0       0       0       0       0       0       0       0       0       0
       0       0       0       0       0       0       0       0       0       0
       0       0       0       0       0       0       0       0       0       0
       0       0       0       0       0       0       0       0       0       0
       0       0       0       0       0       0       0       0       0       0
       0       0       0       0       0       0       0       0       0       0
       0       0       0       0       0       0       0       0       0       0
       0       0       0       0       0       0       0       0       0       0
       0       0       0       0       0       0       0       0       0       0
       0       0       0       0       0       0       0       0       0       0
       0       0       0       0       0       0       0       0       0       0
       0       0       0       0       0       0       0       0       0       0
       0       0       0       0       0       0       0       0       0       0
       0       0       0       0       0       0       0       0       0       0
       0       0       0       0       0       0       0       0       0       0
       0       0       0       0       0       0       0       0       0       0
       0       0       0       0       0       0       0       0       0       0
       0       0       0       0       0       0       0       0       0       0
       0       0       0       0       0       0       0       0       0       0
       0       0       0       0       0       0       0       0       0       0
       0       0       0       0       0       0       0       0       0       0
       0       0       0       0       0       0       0       0       0       0
       0       0       0       0       0       0       0       0       0       0
       0       0       0       0       0       0       0       0       0       0
       0       0       0       0       0       0       0       0       0       0
       0       0       0       0       0       0       0       0       0       0
       0       0       0       0       0       0       0       0       0       0
       0       0       0       0       0       0       0       0       0       0
       0       0       0       0       0       0       0       0       0       0
       0       0       0       0       0       0       0       0       0       0
       0       0       0       0       0       0       0       0       0       0
       0       0       0       0       0       0       0       0       0       0
       0       0       0       0       0       0       0       0       0       0
       0       0       0       0       0       0       0       0       0       0
       0       0       0       0       0       0       0       0       0       0
       0       0       0       0       0       0       0       0       0       0
       0       0       0       0       0       0       0       0       0       0
       0       0       0       0       0       0       0       0       0       0
       0       0       0       0       0       0       0       0       0       0
       0       0       0       0       0       0       0       0       0       0
       0       0       0       0       0       0       0       0       0       0
       0       0       0       0       0       0       0       0       0       0
       0       0       0       0       0       0       0       0       0       0
       0       0       0       0       0       0       0       0       0       0
       0       0       0       0       0       0       0       0       0       0
       0       0       0       0       0       0       0       0       0       0
       0       0       0       0       0       0       0       0       0       0
       0       0       0       0       0       0       0       0       0       0
       0       0       0       0       0       0       0       0       0       0
       0       0       0       0       0       0       0       0       0       0
       0       0       0       0       0       0       0       0       0       0
       0       0       0       0       0       0       0       0       0       0
       0       0       0       0       0       0       0       0       0       0
       0       0       0       0       0       0       0       0       0       0
       0       0       0       0       0       0       0       0       0       0
       0       0       0       0       0       0       0       0       0       0
       0       0       0       0       0       0       0       0       0       0
       0       0       0       0       0       0       0       0       0       0
       0       0       0       0       0       0       0       0       0       0
       0       0       0       0       0       0       0       0       0       0
       0       0       0       0       0       0       0       0       0       0
       0       0       0       0       0       0       0       0       0       0
       0       0       0       0       0       0       0       0       0       0
       0       0       0       0       0       0       0       0       0       0
       0       0       0       0       0       0       0       0       0       0
       0       0       0       0       0       0       0       0       0       0
       0       0       0       0       0       0       0       0       0       0
       0       0       0       0       0       0       0       0       0       0
       0       0       0       0       0       0       0       0       0       0
       0       0       0       0       0       0       0       0       0       0
       0       0       0       0       0       0       0       0       0       0
       0       0       0       0       0       0       0       0       0       0
       0       0       0       0       0       0       0       0       0       0
       0       0       0       0       0       0       0       0       0       0
       0       0       0       0       0       0       0       0       0       0
       0       0       0       0       0       0       0       0       0       0
       0       0       0       0       0       0       0       0       0       0
       0       0       0       0       0       0       0       0       0       0
       0       0       0       0       0       0       0       0       0       0
       0       0       0       0       0       0       0       0       0       0
       0       0       0       0       0       0       0       0       0       0
       0       0       0       0       0       0       0       0       0       0
       0       0       0       0       0       0       0       0       0       0
       0       0       0       0       0       0       0       0       0       0
       0       0       0       0       0       0       0       0       0       0
       0       0       0       0       0       0       0       0       0       0
       0       0       0       0       0       0       0       0       0       0
       0       0       0       0       0       0       0       0       0       0
       0       0       0       0       0       0       0       0       0       0
       0       0       0       0       0       0       0       0       0       0
       0       0       0       0       0       0       0       0       0       0
       0       0       0       0       0       0       0       0       0       0
       0       0       0       0       0       0       0       0       0       0
       0       0       0       0       0       0       0       0       0       0
       0       0       0       0       0       0       0       0       0       0
       0       0       0       0       0       0       0       0       0       0
       0       0       0       0       0       0       0       0       0       0
       0       0       0       0       0       0       0       0       0       0
       0       0       0       0       0       0       0       0       0       0
       0       0       0       0       0       0       0       0       0       0
       0       0       0       0       0       0       0       0       0       0
       0       0       0       0       0       0       0       0       0       0
       0       0       0       0       0       0       0       0       0       0
       0       0       0       0       0       0       0       0       0       0
       0       0       0       0       0       0       0       0       0       0
       0       0       0       0       0       0       0       0       0       0
       0       0       0       0       0       0       0       0       0       0
       0       0       0       0       0       0       0       0       0       0
       0       0       0       0       0       0       0       0       0       0
       0       0       0       0       0       0       0       0       0       0
       0       0       0       0       0       0       0       0       0       0
       0       0       0       0       0       0       0       0       0       0
       0       0       0       0       0       0       0       0       0       0
       0       0       0       0       0       0       0       0       0       0
       0       0       0       0       0       0       0       0       0       0
       0       0       0       0       0       0       0       0       0       0
       0       0       0       0       0       0       0       0       0       0
       0       0       0       0       0       0       0       0       0       0
       0       0       0       0       0       0       0       0       0       0
       0       0       0       0       0       0       0       0       0       0
       0       0       0       0       0       0       0       0       0       0
       0       0       0       0       0       0       0       0       0       0
       0       0       0       0       0       0       0       0       0       0
       0       0       0       0       0       0       0       0       0       0
       0       0       0       0       0       0       0       0       0       0
       0       0       0       0       0       0       0       0       0       0
       0       0       0       0       0       0       0       0       0       0
       0       0       0       0       0       0       0       0       0       0
       0       0       0       0       0       0       0       0       0       0
       0       0       0       0       0       0       0       0       0       0
       0       0       0       0       0       0       0       0       0       0
       0       0       0       0       0       0       0       0       0       0
       0       0       0       0       0       0       0       0       0       0
       0       0       0       0       0       0       0       0       0       0
       0       0       0       0       0       0       0       0       0       0
       0       0       0       0       0       0       0       0       0       0
       0       0       0       0       0       0       0       0       0       0
       0       0       0       0       0       0       0       0       0       0
       0       0       0       0       0       0       0       0       0       0
       0       0       0       0       0       0       0       0       0       0
       0       0       0       0       0       0       0       0       0       0
       0       0       0       0       0       0       0       0       0       0
       0       0       0       0       0       0       0       0       0       0
       0       0       0       0       0       0       0       0       0       0
       0       0       0       0       0       0       0       0       0       0
       0       0       0       0       0       0       0       0       0       0
       0       0       0       0       0       0       0       0       0       0
       0       0       0       0       0       0       0       0       0       0
       0       0       0       0       0       0       0       0       0       0
       0       0       0       0       0       0       0       0       0       0
       0       0       0       0       0       0       0       0       0       0
       0       0       0       0       0       0       0       0       0       0
       0       0       0       0       0       0       0       0       0       0
       0       0       0       0       0       0       0       0       0       0
       0       0       0       0       0       0       0       0       0       0
       0       0       0       0       0       0       0       0       0       0
       0       0       0       0       0       0       0       0       0       0
       0       0       0       0       0       0       0       0       0       0
       0       0       0       0       0       0       0       0       0       0
       0       0       0       0       0       0       0       0       0       0
       0       0       0       0       0       0       0       0       0       0
       0       0       0       0       0       0       0       0       0       0
       0       0       0       0       0       0       0       0       0       0
       0       0       0       0       0       0       0       0       0       0
       0       0       0       0       0       0       0       0       0       0
       0       0       0       0       0       0       0       0       0       0
       0       0       0       0       0       0       0       0       0       0
       0       0       0       0       0       0       0       0       0       0
       0       0       0       0       0       0       0       0       0       0
       0       0       0       0       0       0       0       0       0       0
       0       0       0       0       0       0       0       0       0       0
       0       0       0       0       0       0       0       0       0       0
       0       0       0       0       0       0       0       0       0       0
       0       0       0       0       0       0       0       0       0       0
       0       0       0       0       0       0       0       0       0       0
       0       0       0       0       0       0       0       0       0       0
       0       0       0       0       0       0       0       0       0       0
       0       0       0       0       0       0       0       0       0       0
       0       0       0       0       0       0       0       0       0       0
       0       0       0       0       0       0       0       0       0       0
       0       0       0       0       0       0       0       0       0       0
       0       0       0       0       0       0       0       0       0       0
       0       0       0       0       0       0       0       0       0       0
       0       0       0       0       0       0       0       0       0       0
       0       0       0       0       0       0       0       0       0       0
       0       0       0       0       0       0       0       0       0       0
       0       0       0       0       0       0       0       0       0       0
       0       0       0       0       0       0       0       0       0       0
       0       0       0       0       0       0       0       0       0       0
       0       0       0       0       0       0       0       0       0       0
       0       0       0       0       0       0       0       0       0       0
       0       0       0       0       0       0       0       0       0       0
       0       0       0       0       0       0       0       0       0       0
       0       0       0       0       0       0       0       0       0       0
       0       0       0       0       0       0       0       0       0       0
       0       0       0       0       0       0       0       0       0       0
       0       0       0       0       0       0       0       0       0       0
       0       0       0       0       0       0       0       0       0       0
       0       0       0       0       0       0       0       0       0       0
       0       0       0       0       0       0       0       0       0       0
       0       0       0       0       0       0       0       0       0       0
       0       0       0       0       0       0       0       0       0       0
       0       0       0       0       0       0       0       0       0       0
       0       0       0       0       0       0       0       0       0       0
       0       0       0       0       0       0       0       0       0       0
       0       0       0       0       0       0       0       0       0       0
       0       0       0       0       0       0       0       0       0       0
       0       0       0       0       0       0       0       0       0       0
       0       0       0       0       0       0       0       0       0       0
       0       0       0       0       0       0       0       0       0       0
       0       0       0       0       0       0       0       0       0       0
       0       0       0       0       0       0       0       0       0       0
       0       0       0       0       0       0       0       0       0       0
       0       0       0       0       0       0       0       0       0       0
       0       0       0       0       0       0       0       0       0       0
       0       0       0       0       0       0       0       0       0       0
       0       0       0       0       0       0       0       0       0       0
       0       0       0       0       0       0       0       0       0       0
       0       0       0       0       0       0       0       0       0       0
       0       0       0       0       0       0       0       0       0       0
       0       0       0       0       0       0       0       0       0       0
       0       0       0       0       0       0       0       0       0       0
       0       0       0       0       0       0       0       0       0       0
       0       0       0       0       0       0       0       0       0       0
       0       0       0       0       0       0       0       0       0       0
       0       0       0       0       0       0       0       0       0       0
       0       0       0       0       0       0       0       0       0       0
       0       0       0       0       0       0       0       0       0       0
       0       0       0       0       0       0       0       0       0       0
       0       0       0       0       0       0       0       0       0       0
       0       0       0       0       0       0       0       0       0       0
       0       0       0       0       0       0       0       0       0       0
       0       0       0       0       0       0       0       0       0       0
       0       0       0       0       0       0       0       0       0       0
       0       0       0       0       0       0       0       0       0       0
       0       0       0       0       0       0       0       0       0       0
       0       0       0       0       0       0       0       0       0       0
       0       0       0       0       0       0       0       0       0       0
       0       0       0       0       0       0       0       0       0       0
       0       0       0       0       0       0       0       0       0       0
       0       0       0       0       0       0       0       0       0       0
       0       0       0       0       0       0       0       0       0       0
       0       0       0       0       0       0       0       0       0       0
       0       0       0       0       0       0       0       0       0       0
       0       0       0       0       0       0       0       0       0       0
       0       0       0       0       0       0       0       0       0       0
       0       0       0       0       0       0       0       0       0       0
       0       0       0       0       0       0       0       0       0       0
       0       0       0       0       0       0       0       0       0       0
       0       0       0       0       0       0       0       0       0       0
       0       0       0       0       0       0       0       0       0       0
       0       0       0       0       0       0       0       0       0       0
       0       0       0       0       0       0       0       0       0       0
       0       0       0       0       0       0       0       0       0       0
       0       0       0       0       0       0       0       0       0       0
       0       0       0       0       0       0       0       0       0       0
       0       0       0       0       0       0       0       0       0       0
       0       0       0       0       0       0       0       0       0       0
       0       0       0       0       0       0       0       0       0       0
       0       0       0       0       0       0       0       0       0       0
       0       0       0       0       0       0       0       0       0       0
       0       0       0       0       0       0       0       0       0       0
       0       0       0       0       0       0       0       0       0       0
       0       0       0       0       0       0       0       0       0       0
       0       0       0       0       0       0       0       0       0       0
       0       0       0       0       0       0       0       0       0       0
       0       0       0       0       0       0       0       0       0       0
       0       0       0       0       0       0       0       0       0       0
       0       0       0       0       0       0       0       0       0       0
       0       0       0       0       0       0       0       0       0       0
       0       0       0       0       0       0       0       0       0       0
       0       0       0       0       0       0       0       0       0       0
       0       0       0       0       0       0       0       0       0       0
       0       0       0       0       0       0       0       0       0       0
       0       0       0       0       0       0       0       0       0       0
       0       0       0       0       0       0       0       0       0       0
       0       0       0       0       0       0       0       0       0       0
       0       0       0       0       0       0       0       0       0       0
       0       0       0       0       0       0       0       0       0       0
       0       0       0       0       0       0       0       0       0       0
       0       0       0       0       0       0       0       0       0       0
       0       0       0       0       0       0       0       0       0       0
       0       0       0       0       0       0       0       0       0       0
       0       0       0       0       0       0       0       0       0       0
       0       0       0       0       0       0       0       0       0       0
       0       0       0       0       0       0       0       0       0       0
       0       0       0       0       0       0       0       0       0       0
       0       0       0       0       0       0       0       0       0       0
       0       0       0       0       0       0       0       0       0       0
       0       0       0       0       0       0       0       0       0       0
       0       0       0       0       0       0       0       0       0       0
       0       0       0       0       0       0       0       0       0       0
       0       0       0       0       0       0       0       0       0       0
       0       0       0       0       0       0       0       0       0       0
       0       0       0       0       0       0       0       0       0       0
       0       0       0       0       0       0       0       0       0       0
       0       0       0       0       0       0       0       0       0       0
       0       0       0       0       0       0       0       0       0       0
       0       0       0       0       0       0       0       0       0       0
       0       0       0       0       0       0       0       0       0       0
       0       0       0       0       0       0       0       0       0       0
       0       0       0       0       0       0       0       0       0       0
       0       0       0       0       0       0       0       0       0       0
       0       0       0       0       0       0       0       0       0       0
       0       0       0       0       0       0       0       0       0       0
       0       0       0       0       0       0       0       0       0       0
       0       0       0       0       0       0       0       0       0       0
       0       0       0       0       0       0       0       0       0       0
       0       0       0       0       0       0       0       0       0       0
       0       0       0       0       0       0       0       0       0       0
       0       0       0       0       0       0       0       0       0       0
       0       0       0       0       0       0       0       0       0       0
       0       0       0       0       0       0       0       0       0       0
       0       0       0       0       0       0       0       0       0       0
       0       0       0       0       0       0       0       0       0       0
       0       0       0       0       0       0       0       0       0       0
       0       0       0       0       0       0       0       0       0       0
       0       0       0       0       0       0       0       0       0       0
       0       0       0       0       0       0       0       0       0       0
       0       0       0       0       0       0       0       0       0       0
       0       0       0       0       0       0       0       0       0       0
       0       0       0       0       0       0       0       0       0       0
       0       0       0       0       0       0       0       0       0       0
       0       0       0       0       0       0       0       0       0       0
       0       0       0       0       0       0       0       0       0       0
       0       0       0       0       0       0       0       0       0       0
       0       0       0       0       0       0       0       0       0       0
       0       0       0       0       0       0       0       0       0       0
       0       0       0       0       0       0       0       0       0       0
       0       0       0       0       0       0       0       0       0       0
       0       0       0       0       0       0       0       0       0       0
       0       0       0       0       0       0       0       0       0       0
       0       0       0       0       0       0       0       0       0       0
       0       0       0       0       0       0       0       0       0       0
       0       0       0       0       0       0       0       0       0       0
       0       0       0       0       0       0       0       0       0       0
       0       0       0       0       0       0       0       0       0       0
       0       0       0       0       0       0       0       0       0       0
       0       0       0       0       0       0       0       0       0       0
       0       0       0       0       0       0       0       0       0       0
       0       0       0       0       0       0       0       0       0       0
       0       0       0       0       0       0       0       0       0       0
       0       0       0       0       0       0       0       0       0       0
       0       0       0       0       0       0       0       0       0       0
       0       0       0       0       0       0       0       0       0       0
       0       0       0       0       0       0       0       0       0       0
       0       0       0       0       0       0       0       0       0       0
       0       0       0       0       0       0       0       0       0       0
       0       0       0       0       0       0       0       0       0       0
       0       0       0       0       0       0       0       0       0       0
       0       0       0       0       0       0       0       0       0       0
       0       0       0       0       0       0       0       0       0       0
       0       0       0       0       0       0       0       0       0       0
       0       0       0       0       0       0       0       0       0       0
       0       0       0       0       0       0       0       0       0       0
       0       0       0       0       0       0       0       0       0       0
       0       0       0       0       0       0       0       0       0       0
       0       0       0       0       0       0       0       0       0       0
       0       0       0       0       0       0       0       0       0       0
       0       0       0       0       0       0       0       0       0       0
       0       0       0       0       0       0       0       0       0       0
       0       0       0       0       0       0       0       0       0       0
       0       0       0       0       0       0       0       0       0       0
       0       0       0       0       0       0       0       0       0       0
       0       0       0       0       0       0       0       0       0       0
       0       0       0       0       0       0       0       0       0       0
       0       0       0       0       0       0       0       0       0       0
       0       0       0       0       0       0       0       0       0       0
       0       0       0       0       0       0       0       0       0       0
       0       0       0       0       0       0       0       0       0       0
       0       0       0       0       0       0       0       0       0       0
       0       0       0       0       0       0       0       0       0       0
       0       0       0       0       0       0       0       0       0       0
       0       0       0       0       0       0       0       0       0       0
       0       0       0       0       0       0       0       0       0       0
       0       0       0       0       0       0       0       0       0       0
       0       0       0       0       0       0       0       0       0       0
       0       0       0       0       0       0       0       0       0       0
       0       0       0       0       0       0       0       0       0       0
       0       0       0       0       0       0       0       0       0       0
       0       0       0       0       0       0       0       0       0       0
       0       0       0       0       0       0       0       0       0       0
       0       0       0       0       0       0       0       0       0       0
       0       0       0       0       0       0       0       0       0       0
       0       0       0       0       0       0       0       0       0       0
       0       0       0       0       0       0       0       0       0       0
       0       0       0       0       0       0       0       0       0       0
       0       0       0       0       0       0       0       0       0       0
       0       0       0       0       0       0       0       0       0       0
       0       0       0       0       0       0       0       0       0       0
       0       0       0       0       0       0       0       0       0       0
       0       0       0       0       0       0       0       0       0       0
       0       0       0       0       0       0       0       0       0       0
       0       0       0       0       0       0       0       0       0       0
       0       0       0       0       0       0       0       0       0       0
       0       0       0       0       0       0       0       0       0       0
       0       0       0       0       0       0       0       0       0       0
       0       0       0       0       0       0       0       0       0       0
       0       0       0       0       0       0       0       0       0       0
       0       0       0       0       0       0       0       0       0       0
       0       0       0       0       0       0       0       0       0       0
       0       0       0       0       0       0       0       0       0       0
       0       0       0       0       0       0       0       0       0       0
       0       0       0       0       0       0       0       0       0       0
       0       0       0       0       0       0       0       0       0       0
       0       0       0       0       0       0       0       0       0       0
       0       0       0       0       0       0       0       0       0       0
       0       0       0       0       0       0       0       0       0       0
       0       0       0       0       0       0       0       0       0       0
       0       0       0       0       0       0       0       0       0       0
       0       0       0       0       0       0       0       0       0       0
       0       0       0       0       0       0       0       0       0       0
       0       0       0       0       0       0       0       0       0       0
       0       0       0       0       0       0       0       0       0       0
       0       0       0       0       0       0       0       0       0       0
       0       0       0       0       0       0       0       0       0       0
       0       0       0       0       0       0       0       0       0       0
       0       0       0       0       0       0       0       0       0       0
       0       0       0       0       0       0       0       0       0       0
       0       0       0       0       0       0       0       0       0       0
       0       0       0       0       0       0       0       0       0       0
       0       0       0       0       0       0       0       0       0       0
       0       0       0       0       0       0       0       0       0       0
       0       0       0       0       0       0       0       0       0       0
       0       0       0       0       0       0       0       0       0       0
       0       0       0       0       0       0       0       0       0       0
       0       0       0       0       0       0       0       0       0       0
       0       0       0       0       0       0       0       0       0       0
       0       0       0       0       0       0       0       0       0       0
       0       0       0       0       0       0       0       0       0       0
       0       0       0       0       0       0       0       0       0       0
       0       0       0       0       0       0       0       0       0       0
       0       0       0       0       0       0       0       0       0       0
       0       0       0       0       0       0       0       0       0       0
       0       0       0       0       0       0       0       0       0       0
       0       0       0       0       0       0       0       0       0       0
       0       0       0       0       0       0       0       0       0       0
       0       0       0       0       0       0       0       0       0       0
       0       0       0       0       0       0       0       0       0       0
       0       0       0       0       0       0       0       0       0       0
       0       0       0       0       0       0       0       0       0       0
       0       0       0       0       0       0       0       0       0       0
       0       0       0       0       0       0       0       0       0       0
       0       0       0       0       0       0       0       0       0       0
       0       0       0       0       0       0       0       0       0       0
       0       0       0       0       0       0       0       0       0       0
       0       0       0       0       0       0       0       0       0       0
       0       0       0       0       0       0       0       0       0       0
       0       0       0       0       0       0       0       0       0       0
       0       0       0       0       0       0       0       0       0       0
       0       0       0       0       0       0       0       0       0       0
       0       0       0       0       0       0       0       0       0       0
       0       0       0       0       0       0       0       0       0       0
       0       0       0       0       0       0       0       0       0       0
       0       0       0       0       0       0       0       0       0       0
       0       0       0       0       0       0       0       0       0       0
       0       0       0       0       0       0       0       0       0       0
       0       0       0       0       0       0       0       0       0       0
       0       0       0       0       0       0       0       0       0       0
       0       0       0       0       0       0       0       0       0       0
       0       0       0       0       0       0       0       0       0       0
       0       0       0       0       0       0       0       0       0       0
       0       0       0       0       0       0       0       0       0       0
       0       0       0       0       0       0       0       0       0       0
       0       0       0       0       0       0       0       0       0       0
       0       0       0       0       0       0       0       0       0       0
       0       0       0       0       0       0       0       0       0       0
       0       0       0       0       0       0       0       0       0       0
       0       0       0       0       0       0       0       0       0       0
       0       0       0       0       0       0       0       0       0       0
       0       0       0       0       0       0       0       0       0       0
       0       0       0       0       0       0       0       0       0       0
       0       0       0       0       0       0       0       0       0       0
       0       0       0       0       0       0       0       0       0       0
       0       0       0       0       0       0       0       0       0       0
       0       0       0       0       0       0       0       0       0       0
       0       0       0       0       0       0       0       0       0       0
       0       0       0       0       0       0       0       0       0       0
       0       0       0       0       0       0       0       0       0       0
       0       0       0       0       0       0       0       0       0       0
       0       0       0       0       0       0       0       0       0       0
       0       0       0       0       0       0       0       0       0       0
       0       0       0       0       0       0       0       0       0       0
       0       0       0       0       0       0       0       0       0       0
       0       0       0       0       0       0       0       0       0       0
       0       0       0       0       0       0       0       0       0       0
       0       0       0       0       0       0       0       0       0       0
       0       0       0       0       0       0       0       0       0       0
       0       0       0       0       0       0       0       0       0       0
       0       0       0       0       0       0       0       0       0       0
       0       0       0       0       0       0       0       0       0       0
       0       0       0       0       0       0       0       0       0       0
       0       0       0       0       0       0       0       0       0       0
       0       0       0       0       0       0       0       0       0       0
       0       0       0       0       0       0       0       0       0       0
       0       0       0       0       0       0       0       0       0       0
       0       0       0       0       0       0       0       0       0       0
       0       0       0       0       0       0       0       0       0       0
       0       0       0       0       0       0       0       0       0       0
       0       0       0       0       0       0       0       0       0       0
       0       0       0       0       0       0       0       0       0       0
       0       0       0       0       0       0       0       0       0       0
       0       0       0       0       0       0       0       0       0       0
       0       0       0       0       0       0       0       0       0       0
       0       0       0       0       0       0       0       0       0       0
       0       0       0       0       0       0       0       0       0       0
       0       0       0       0       0       0       0       0       0       0
       0       0       0       0       0       0       0       0       0       0
       0       0       0       0       0       0       0       0       0       0
       0       0       0       0       0       0       0       0       0       0
       0       0       0       0       0       0       0       0       0       0
       0       0       0       0       0       0       0       0       0       0
       0       0       0       0       0       0       0       0       0       0
       0       0       0       0       0       0       0       0       0       0
       0       0       0       0       0       0       0       0       0       0
       0       0       0       0       0       0       0       0       0       0
       0       0       0       0       0       0       0       0       0       0
       0       0       0       0       0       0       0       0       0       0
       0       0       0       0       0       0       0       0       0       0
       0       0       0       0       0       0       0       0       0       0
       0       0       0       0       0       0       0       0       0       0
       0       0       0       0       0       0       0       0       0       0
       0       0       0       0       0       0       0       0       0       0
       0       0       0       0       0       0       0       0       0       0
       0       0       0       0       0       0       0       0       0       0
       0       0       0       0       0       0       0       0       0       0
       0       0       0       0       0       0       0       0       0       0
       0       0       0       0       0       0       0       0       0       0
       0       0       0       0       0       0       0       0       0       0
       0       0       0       0       0       0       0       0       0       0
       0       0       0       0       0       0       0       0       0       0
       0       0       0       0       0       0       0       0       0       0
       0       0       0       0       0       0       0       0       0       0
       0       0       0       0       0       0       0       0       0       0
       0       0       0       0       0       0       0       0       0       0
       0       0       0       0       0       0       0       0       0       0
       0       0       0       0       0       0       0       0       0       0
       0       0       0       0       0       0       0       0       0       0
       0       0       0       0       0       0       0       0       0       0
       0       0       0       0       0       0       0       0       0       0
       0       0       0       0       0       0       0       0       0       0
       0       0       0       0       0       0       0       0       0       0
       0       0       0       0       0       0       0       0       0       0
       0       0       0       0       0       0       0       0       0       0
       0       0       0       0       0       0       0       0       0       0
       0       0       0       0       0       0       0       0       0       0
       0       0       0       0       0       0       0       0       0       0
       0       0       0       0       0       0       0       0       0       0
       0       0       0       0       0       0       0       0       0       0
       0       0       0       0       0       0       0       0       0       0
       0       0       0       0       0       0       0       0       0       0
       0       0       0       0       0       0       0       0       0       0
       0       0       0       0       0       0       0       0       0       0
       0       0       0       0       0       0       0       0       0       0
       0       0       0       0       0       0       0       0       0       0
       0       0       0       0       0       0       0       0       0       0
       0       0       0       0       0       0       0       0       0       0
       0       0       0       0       0       0       0       0       0       0
       0       0       0       0       0       0       0       0       0       0
       0       0       0       0       0       0       0       0       0       0
       0       0       0       0       0       0       0       0       0       0
       0       0       0       0       0       0       0       0       0       0
       0       0       0       0       0       0       0       0       0       0
       0       0       0       0       0       0       0       0       0       0
       0       0       0       0       0       0       0       0       0       0
       0       0       0       0       0       0       0       0       0       0
       0       0       0       0       0       0       0       0       0       0
       0       0       0       0       0       0       0       0       0       0
       0       0       0       0       0       0       0       0       0       0
       0       0       0       0       0       0       0       0       0       0
       0       0       0       0       0       0       0       0       0       0
       0       0       0       0       0       0       0       0       0       0
       0       0       0       0       0       0       0       0       0       0
       0       0       0       0       0       0       0       0       0       0
       0       0       0       0       0       0       0       0       0       0
       0       0       0       0       0       0       0       0       0       0
       0       0       0       0       0       0       0       0       0       0
       0       0       0       0       0       0       0       0       0       0
       0       0       0       0       0       0       0       0       0       0
       0       0       0       0       0       0       0       0       0       0
       0       0       0       0       0       0       0       0       0       0
       0       0       0       0       0       0       0       0       0       0
       0       0       0       0       0       0       0       0       0       0
       0       0       0       0       0       0       0       0       0       0
       0       0       0       0       0       0       0       0       0       0
       0       0       0       0       0       0       0       0       0       0
       0       0       0       0       0       0       0       0       0       0
       0       0       0       0       0       0       0       0       0       0
       0       0       0       0       0       0       0       0       0       0
       0       0       0       0       0       0       0       0       0       0
       0       0       0       0       0       0       0       0       0       0
       0       0       0       0       0       0       0       0       0       0
       0       0       0       0       0       0       0       0       0       0
       0       0       0       0       0       0       0       0       0       0
       0       0       0       0       0       0       0       0       0       0
       0       0       0       0       0       0       0       0       0       0
       0       0       0       0       0       0       0       0       0       0
       0       0       0       0       0       0       0       0       0       0
       0       0       0       0       0       0       0       0       0       0
       0       0       0       0       0       0       0       0       0       0
       0       0       0       0       0       0       0       0       0       0
       0       0       0       0       0       0       0       0       0       0
       0       0       0       0       0       0       0       0       0       0
       0       0       0       0       0       0       0       0       0       0
       0       0       0       0       0       0       0       0       0       0
       0       0       0       0       0       0       0       0       0       0
       0       0       0       0       0       0       0       0       0       0
       0       0       0       0       0       0       0       0       0       0
       0       0       0       0       0       0       0       0       0       0
       0       0       0       0       0       0       0       0       0       0
       0       0       0       0       0       0       0       0       0       0
       0       0       0       0       0       0       0       0       0       0
       0       0       0       0       0       0       0       0       0       0
       0       0       0       0       0       0       0       0       0       0
       0       0       0       0       0       0       0       0       0       0
       0       0       0       0       0       0       0       0       0       0
       0       0       0       0       0       0       0       0       0       0
       0       0       0       0       0       0       0       0       0       0
       0       0       0       0       0       0       0       0       0       0
       0       0       0       0       0       0       0       0       0       0
       0       0       0       0       0       0       0       0       0       0
       0       0       0       0       0       0       0       0       0       0
       0       0       0       0       0       0       0       0       0       0
       0       0       0       0       0       0       0       0       0       0
       0       0       0       0       0       0       0       0       0       0
       0       0       0       0       0       0       0       0       0       0
       0       0       0       0       0       0       0       0       0       0
       0       0       0       0       0       0       0       0       0       0
       0       0       0       0       0       0       0       0       0       0
       0       0       0       0       0       0       0       0       0       0
       0       0       0       0       0       0       0       0       0       0
       0       0       0       0       0       0       0       0       0       0
       0       0       0       0       0       0       0       0       0       0
       0       0       0       0       0       0       0       0       0       0
       0       0       0       0       0       0       0       0       0       0
       0       0       0       0       0       0       0       0       0       0
       0       0       0       0       0       0       0       0       0       0
       0       0       0       0       0       0       0       0       0       0
       0       0       0       0       0       0       0       0       0       0
       0       0       0       0       0       0       0       0       0       0
       0       0       0       0       0       0       0       0       0       0
       0       0       0       0       0       0       0       0       0       0
       0       0       0       0       0       0       0       0       0       0
       0       0       0       0       0       0       0       0       0       0
       0       0       0       0       0       0       0       0       0       0
       0       0       0       0       0       0       0       0       0       0
       0       0       0       0       0       0       0       0       0       0
       0       0       0       0       0       0       0       0       0       0
       0       0       0       0       0       0       0       0       0       0
       0       0       0       0       0       0       0       0       0       0
       0       0       0       0       0       0       0       0       0       0
       0       0       0       0       0       0       0       0       0       0
       0       0       0       0       0       0       0       0       0       0
       0       0       0       0       0       0       0       0       0       0
       0       0       0       0       0       0       0       0       0       0
       0       0       0       0       0       0       0       0       0       0
       0       0       0       0       0       0       0       0       0       0
       0       0       0       0       0       0       0       0       0       0
       0       0       0       0       0       0       0       0       0       0
       0       0       0       0       0       0       0       0       0       0
       0       0       0       0       0       0       0       0       0       0
       0       0       0       0       0       0       0       0       0       0
       0       0       0       0       0       0       0       0       0       0
       0       0       0       0       0       0       0       0       0       0
       0       0       0       0       0       0       0       0       0       0
       0       0       0       0       0       0       0       0       0       0
       0       0       0       0       0       0       0       0       0       0
       0       0       0       0       0       0       0       0       0       0
       0       0       0       0       0       0       0       0       0       0
       0       0       0       0       0       0       0       0       0       0
       0       0       0       0       0       0       0       0       0       0
       0       0       0       0       0       0       0       0       0       0
       0       0       0       0       0       0       0       0       0       0
       0       0       0       0       0       0       0       0       0       0
       0       0       0       0       0       0       0       0       0       0
       0       0       0       0       0       0       0       0       0       0
       0       0       0       0       0       0       0       0       0       0
       0       0       0       0       0       0       0       0       0       0
       0       0       0       0       0       0       0       0       0       0
       0       0       0       0       0       0       0       0       0       0
       0       0       0       0       0       0       0       0       0       0
       0       0       0       0       0       0       0       0       0       0
       0       0       0       0       0       0       0       0       0       0
       0       0       0       0       0       0       0       0       0       0
       0       0       0       0       0       0       0       0       0       0
       0       0       0       0       0       0       0       0       0       0
       0       0       0       0       0       0       0       0       0       0
       0       0       0       0       0       0       0       0       0       0
       0       0       0       0       0       0       0       0       0       0
       0       0       0       0       0       0       0       0       0       0
       0       0       0       0       0       0       0       0       0       0
       0       0       0       0       0       0       0       0       0       0
       0       0       0       0       0       0       0       0       0       0
       0       0       0       0       0       0       0       0       0       0
       0       0       0       0       0       0       0       0       0       0
       0       0       0       0       0       0       0       0       0       0
       0       0       0       0       0       0       0       0       0       0
       0       0       0       0       0       0       0       0       0       0
       0       0       0       0       0       0       0       0       0       0
       0       0       0       0       0       0       0       0       0       0
       0       0       0       0       0       0       0       0       0       0
       0       0       0       0       0       0       0       0       0       0
       0       0       0       0       0       0       0       0       0       0
       0       0       0       0       0       0       0       0       0       0
       0       0       0       0       0       0       0       0       0       0
       0       0       0       0       0       0       0       0       0       0
       0       0       0       0       0       0       0       0       0       0
       0       0       0       0       0       0       0       0       0       0
       0       0       0       0       0       0       0       0       0       0
       0       0       0       0       0       0       0       0       0       0
       0       0       0       0       0       0       0       0       0       0
       0       0       0       0       0       0       0       0       0       0
       0       0       0       0       0       0       0       0       0       0
       0       0       0       0       0       0       0       0       0       0
       0       0       0       0       0       0       0       0       0       0
       0       0       0       0       0       0       0       0       0       0
       0       0       0       0       0       0       0       0       0       0
       0       0       0       0       0       0       0       0       0       0
       0       0       0       0       0       0       0       0       0       0
       0       0       0       0       0       0       0       0       0       0
       0       0       0       0       0       0       0       0       0       0
       0       0       0       0       0       0       0       0       0       0
       0       0       0       0       0       0       0       0       0       0
       0       0       0       0       0       0       0       0       0       0
       0       0       0       0       0       0       0       0       0       0
       0       0       0       0       0       0       0       0       0       0
       0       0       0       0       0       0       0       0       0       0
       0       0       0       0       0       0       0       0       0       0
       0       0       0       0       0       0       0       0       0       0
       0       0       0       0       0       0       0       0       0       0
       0       0       0       0       0       0       0       0       0       0
       0       0       0       0       0       0       0       0       0       0
       0       0       0       0       0       0       0       0       0       0
       0       0       0       0       0       0       0       0       0       0
       0       0       0       0       0       0       0       0       0       0
       0       0       0       0       0       0       0       0       0       0
       0       0       0       0       0       0       0       0       0       0
       0       0       0       0       0       0       0       0       0       0
       0       0       0       0       0       0       0       0       0       0
       0       0       0       0       0       0       0       0       0       0
       0       0       0       0       0       0       0       0       0       0
       0       0       0       0       0       0       0       0       0       0
       0       0       0       0       0       0       0       0       0       0
       0       0       0       0       0       0       0       0       0       0
       0       0       0       0       0       0       0       0       0       0
       0       0       0       0       0       0       0       0       0       0
       0       0       0       0       0       0       0       0       0       0
       0       0       0       0       0       0       0       0       0       0
       0       0       0       0       0       0       0       0       0       0
       0       0       0       0       0       0       0       0       0       0
       0       0       0       0       0       0       0       0       0       0
       0       0       0       0       0       0       0       0       0       0
       0       0       0       0       0       0       0       0       0       0
       0       0       0       0       0       0       0       0       0       0
       0       0       0       0       0       0       0       0       0       0
       0       0       0       0       0       0       0       0       0       0
       0       0       0       0       0       0       0       0       0       0
       0       0       0       0       0       0       0       0       0       0
       0       0       0       0       0       0       0       0       0       0
       0       0       0       0       0       0       0       0       0       0
       0       0       0       0       0       0       0       0       0       0
       0       0       0       0       0       0       0       0       0       0
       0       0       0       0       0       0       0       0       0       0
       0       0       0       0       0       0       0       0       0       0
       0       0       0       0       0       0       0       0       0       0
       0       0       0       0       0       0       0       0       0       0
       0       0       0       0       0       0       0       0       0       0
       0       0       0       0       0       0       0       0       0       0
       0       0       0       0       0       0       0       0       0       0
       0       0       0       0       0       0       0       0       0       0
       0       0       0       0       0       0       0       0       0       0
       0       0       0       0       0       0       0       0       0       0
       0       0       0       0       0       0       0       0       0       0
       0       0       0       0       0       0       0       0       0       0
       0       0       0       0       0       0       0       0       0       0
       0       0       0       0       0       0       0       0       0       0
       0       0       0       0       0       0       0       0       0       0
       0       0       0       0       0       0       0       0       0       0
       0       0       0       0       0       0       0       0       0       0
       0       0       0       0       0       0       0       0       0       0
       0       0       0       0       0       0       0       0       0       0
       0       0       0       0       0       0       0       0       0       0
       0       0       0       0       0       0       0       0       0       0
       0       0       0       0       0       0       0       0       0       0
       0       0       0       0       0       0       0       0       0       0
       0       0       0       0       0       0       0       0       0       0
       0       0       0       0       0       0       0       0       0       0
       0       0       0       0       0       0       0       0       0       0
       0       0       0       0       0       0       0       0       0       0
       0       0       0       0       0       0       0       0       0       0
       0       0       0       0       0       0       0       0       0       0
       0       0       0       0       0       0       0       0       0       0
       0       0       0       0       0       0       0       0       0       0
       0       0       0       0       0       0       0       0       0       0
       0       0       0       0       0       0       0       0       0       0
       0       0       0       0       0       0       0       0       0       0
       0       0       0       0       0       0       0       0       0       0
       0       0       0       0       0       0       0       0       0       0
       0       0       0       0       0       0       0       0       0       0
       0       0       0       0       0       0       0       0       0       0
       0       0       0       0       0       0       0       0       0       0
       0       0       0       0       0       0       0       0       0       0
       0       0       0       0       0       0       0       0       0       0
       0       0       0       0       0       0       0       0       0       0
       0       0       0       0       0       0       0       0       0       0
       0       0       0       0       0       0       0       0       0       0
       0       0       0       0       0       0       0       0       0       0
       0       0       0       0       0       0       0       0       0       0
       0       0       0       0       0       0       0       0       0       0
       0       0       0       0       0       0       0       0       0       0
       0       0       0       0       0       0       0       0       0       0
       0       0       0       0       0       0       0       0       0       0
       0       0       0       0       0       0       0       0       0       0
       0       0       0       0       0       0       0       0       0       0
       0       0       0       0       0       0       0       0       0       0
       0       0       0       0       0       0       0       0       0       0
       0       0       0       0       0       0       0       0       0       0
       0       0       0       0       0       0       0       0       0       0
       0       0       0       0       0       0       0       0       0       0
       0       0       0       0       0       0       0       0       0       0
       0       0       0       0       0       0       0       0       0       0
       0       0       0       0       0       0       0       0       0       0
       0       0       0       0       0       0       0       0       0       0
       0       0       0       0       0       0       0       0       0       0
       0       0       0       0       0       0       0       0       0       0
       0       0       0       0       0       0       0       0       0       0
       0       0       0       0       0       0       0       0       0       0
       0       0       0       0       0       0       0       0       0       0
       0       0       0       0       0       0       0       0       0       0
       0       0       0       0       0       0       0       0       0       0
       0       0       0       0       0       0       0       0       0       0
       0       0       0       0       0       0       0       0       0       0
       0       0       0       0       0       0       0       0       0       0
       0       0       0       0       0       0       0       0       0       0
       0       0       0       0       0       0       0       0       0       0
       0       0       0       0       0       0       0       0       0       0
       0       0       0       0       0       0       0       0       0       0
       0       0       0       0       0       0       0       0       0       0
       0       0       0       0       0       0       0       0       0       0
       0       0       0       0       0       0       0       0       0       0
       0       0       0       0       0       0       0       0       0       0
       0       0       0       0       0       0       0       0       0       0
       0       0       0       0       0       0       0       0       0       0
       0       0       0       0       0       0       0       0       0       0
       0       0       0       0       0       0       0       0       0       0
       0       0       0       0       0       0       0       0       0       0
       0       0       0       0       0       0       0       0       0       0
       0       0       0       0       0       0       0       0       0       0
       0       0       0       0       0       0       0       0       0       0
       0       0       0       0       0       0       0       0       0       0
       0       0       0       0       0       0       0       0       0       0
       0       0       0       0       0       0       0       0       0       0
       0       0       0       0       0       0       0       0       0       0
       0       0       0       0       0       0       0       0       0       0
       0       0       0       0       0       0       0       0       0       0
       0       0       0       0       0       0       0       0       0       0
       0       0       0       0       0       0       0       0       0       0
       0       0       0       0       0       0       0       0       0       0
       0       0       0       0       0       0       0       0       0       0
       0       0       0       0       0       0       0       0       0       0
       0       0       0       0       0       0       0       0       0       0
       0       0       0       0       0       0       0       0       0       0
       0       0       0       0       0       0       0       0       0       0
       0       0       0       0       0       0       0       0       0       0
       0       0       0       0       0       0       0       0       0       0
       0       0       0       0       0       0       0       0       0       0
       0       0       0       0       0       0       0       0       0       0
       0       0       0       0       0       0       0       0       0       0
       0       0       0       0       0       0       0       0       0       0
       0       0       0       0       0       0       0       0       0       0
       0       0       0       0       0       0       0       0       0       0
       0       0       0       0       0       0       0       0       0       0
       0       0       0       0       0       0       0       0       0       0
       0       0       0       0       0       0       0       0       0       0
       0       0       0       0       0       0       0       0       0       0
       0       0       0       0       0       0       0       0       0       0
       0       0       0       0       0       0       0       0       0       0
       0       0       0       0       0       0       0       0       0       0
       0       0       0       0       0       0       0       0       0       0
       0       0       0       0       0       0       0       0       0       0
       0       0       0       0       0       0       0       0       0       0
       0       0       0       0       0       0       0       0       0       0
       0       0       0       0       0       0       0       0       0       0
       0       0       0       0       0       0       0       0       0       0
       0       0       0       0       0       0       0       0       0       0
       0       0       0       0       0       0       0       0       0       0
       0       0       0       0       0       0       0       0       0       0
       0       0       0       0       0       0       0       0       0       0
       0       0       0       0       0       0       0       0       0       0
       0       0       0       0       0       0       0       0       0       0
       0       0       0       0       0       0       0       0       0       0
       0       0       0       0       0       0       0       0       0       0
       0       0       0       0       0       0       0       0       0       0
       0       0       0       0       0       0       0       0       0       0
       0       0       0       0       0       0       0       0       0       0
       0       0       0       0       0       0       0       0       0       0
       0       0       0       0       0       0       0       0       0       0
       0       0       0       0       0       0       0       0       0       0
       0       0       0       0       0       0       0       0       0       0
       0       0       0       0       0       0       0       0       0       0
       0       0       0       0       0       0       0       0       0       0
       0       0       0       0       0       0       0       0       0       0
       0       0       0       0       0       0       0       0       0       0
       0       0       0       0       0       0       0       0       0       0
       0       0       0       0       0       0       0       0       0       0
       0       0       0       0       0       0       0       0       0       0
       0       0       0       0       0       0       0       0       0       0
       0       0       0       0       0       0       0       0       0       0
       0       0       0       0       0       0       0       0       0       0
       0       0       0       0       0       0       0       0       0       0
       0       0       0       0       0       0       0       0       0       0
       0       0       0       0       0       0       0       0       0       0
       0       0       0       0       0       0       0       0       0       0
       0       0       0       0       0       0       0       0       0       0
       0       0       0       0       0       0       0       0       0       0
       0       0       0       0       0       0       0       0       0       0
       0       0       0       0       0       0       0       0       0       0
       0       0       0       0       0       0       0       0       0       0
       0       0       0       0       0       0       0       0       0       0
       0       0       0       0       0       0       0       0       0       0
       0       0       0       0       0       0       0       0       0       0
       0       0       0       0       0       0       0       0       0       0
       0       0       0       0       0       0       0       0       0       0
       0       0       0       0       0       0       0       0       0       0
       0       0       0       0       0       0       0       0       0       0
       0       0       0       0       0       0       0       0       0       0
       0       0       0       0       0       0       0       0       0       0
       0       0       0       0       0       0       0       0       0       0
       0       0       0       0       0       0       0       0       0       0
       0       0       0       0       0       0       0       0       0       0
       0       0       0       0       0       0       0       0       0       0
       0       0       0       0       0       0       0       0       0       0
       0       0       0       0       0       0       0       0       0       0
       0       0       0       0       0       0       0       0       0       0
       0       0       0       0       0       0       0       0       0       0
       0       0       0       0       0       0       0       0       0       0
       0       0       0       0       0       0       0       0       0       0
       0       0       0       0       0       0       0       0       0       0
       0       0       0       0       0       0       0       0       0       0
       0       0       0       0       0       0       0       0       0       0
       0       0       0       0       0       0       0       0       0       0
       0       0       0       0       0       0       0       0       0       0
       0       0       0       0       0       0       0       0       0       0
       0       0       0       0       0       0       0       0       0       0
       0       0       0       0       0       0       0       0       0       0
       0       0       0       0       0       0       0       0       0       0
       0       0       0       0       0       0       0       0       0       0
       0       0       0       0       0       0       0       0       0       0
       0       0       0       0       0       0       0       0       0       0
       0       0       0       0       0       0       0       0       0       0
       0       0       0       0       0       0       0       0       0       0
       0       0       0       0       0       0       0       0       0       0
       0       0       0       0       0       0       0       0       0       0
       0       0       0       0       0       0       0       0       0       0
       0       0       0       0       0       0       0       0       0       0
       0       0       0       0       0       0       0       0       0       0
       0       0       0       0       0       0       0       0       0       0
       0       0       0       0       0       0       0       0       0       0
       0       0       0       0       0       0       0       0       0       0
       0       0       0       0       0       0       0       0       0       0
       0       0       0       0       0       0       0       0       0       0
       0       0       0       0       0       0       0       0       0       0
       0       0       0       0       0       0       0       0       0       0
       0       0       0       0       0       0       0       0       0       0
       0       0       0       0       0       0       0       0       0       0
       0       0       0       0       0       0       0       0       0       0
       0       0       0       0       0       0       0       0       0       0
       0       0       0       0       0       0       0       0       0       0
       0       0       0       0       0       0       0       0       0       0
       0       0       0       0       0       0       0       0       0       0
       0       0       0       0       0       0       0       0       0       0
       0       0       0       0       0       0       0       0       0       0
       0       0       0       0       0       0       0       0       0       0
       0       0       0       0       0       0       0       0       0       0
       0       0       0       0       0       0       0       0       0       0
       0       0       0       0       0       0       0       0       0       0
       0       0       0       0       0       0       0       0       0       0
       0       0       0       0       0       0       0       0       0       0
       0       0       0       0       0       0       0       0       0       0
       0       0       0       0       0       0       0       0       0       0
       0       0       0       0       0       0       0       0       0       0
       0       0       0       0       0       0       0       0       0       0
       0       0       0       0       0       0       0       0       0       0
       0       0       0       0       0       0       0       0       0       0
       0       0       0       0       0       0       0       0       0       0
       0       0       0       0       0       0       0       0       0       0
       0       0       0       0       0       0       0       0       0       0
       0       0       0       0       0       0       0       0       0       0
       0       0       0       0       0       0       0       0       0       0
       0       0       0       0       0       0       0       0       0       0
       0       0       0       0       0       0       0       0       0       0
       0       0       0       0       0       0       0       0       0       0
       0       0       0       0       0       0       0       0       0       0
       0       0       0       0       0       0       0       0       0       0
       0       0       0       0       0       0       0       0       0       0
       0       0       0       0       0       0       0       0       0       0
       0       0       0       0       0       0       0       0       0       0
       0       0       0       0       0       0       0       0       0       0
       0       0       0       0       0       0       0       0       0       0
       0       0       0       0       0       0       0       0       0       0
       0       0       0       0       0       0       0       0       0       0
       0       0       0       0       0       0       0       0       0       0
       0       0       0       0       0       0       0       0       0       0
       0       0       0       0       0       0       0       0       0       0
       0       0       0       0       0       0       0       0       0       0
       0       0       0       0       0       0       0       0       0       0
       0       0       0       0       0       0       0       0       0       0
       0       0       0       0       0       0       0       0       0       0
       0       0       0       0       0       0       0       0       0       0
       0       0       0       0       0       0       0       0       0       0
       0       0       0       0       0       0       0       0       0       0
       0       0       0       0       0       0       0       0       0       0
       0       0       0       0       0       0       0       0       0       0
       0       0       0       0       0       0       0       0       0       0
       0       0       0       0       0       0       0       0       0       0
       0       0       0       0       0       0       0       0       0       0
       0       0       0       0       0       0       0       0       0       0
       0       0       0       0       0       0       0       0       0       0
       0       0       0       0       0       0       0       0       0       0
       0       0       0       0       0       0       0       0       0       0
       0       0       0       0       0       0       0       0       0       0
       0       0       0       0       0       0       0       0       0       0
       0       0       0       0       0       0       0       0       0       0
       0       0       0       0       0       0       0       0       0       0
       0       0       0       0       0       0       0       0       0       0
       0       0       0       0       0       0       0       0       0       0
       0       0       0       0       0       0       0       0       0       0
       0       0       0       0       0       0       0       0       0       0
       0       0       0       0       0       0       0       0       0       0
       0       0       0       0       0       0       0       0       0       0
       0       0       0       0       0       0       0       0       0       0
       0       0       0       0       0       0       0       0       0       0
       0       0       0       0       0       0       0       0       0       0
       0       0       0       0       0       0       0       0       0       0
       0       0       0       0       0       0       0       0       0       0
       0       0       0       0       0       0       0       0       0       0
       0       0       0       0       0       0       0       0       0       0
       0       0       0       0       0       0       0       0       0       0
       0       0       0       0       0       0       0       0       0       0
       0       0       0       0       0       0       0       0       0       0
       0       0       0       0       0       0       0       0       0       0
       0       0       0       0       0       0       0       0       0       0
       0       0       0       0       0       0       0       0       0       0
       0       0       0       0       0       0       0       0       0       0
       0       0       0       0       0       0       0       0       0       0
       0       0       0       0       0       0       0       0       0       0
       0       0       0       0       0       0       0       0       0       0
       0       0       0       0       0       0       0       0       0       0
       0       0       0       0       0       0       0       0       0       0
       0       0       0       0       0       0       0       0       0       0
       0       0       0       0       0       0       0       0       0       0
       0       0       0       0       0       0       0       0       0       0
       0       0       0       0       0       0       0       0       0       0
       0       0       0       0       0       0       0       0       0       0
       0       0       0       0       0       0       0       0       0       0
       0       0       0       0       0       0       0       0       0       0
       0       0       0       0       0       0       0       0       0       0
       0       0       0       0       0       0       0       0       0       0
       0       0       0       0       0       0       0       0       0       0
       0       0       0       0       0       0       0       0       0       0
       0       0       0       0       0       0       0       0       0       0
       0       0       0       0       0       0       0       0       0       0
       0       0       0       0       0       0       0       0       0       0
       0       0       0       0       0       0       0       0       0       0
       0       0       0       0       0       0       0       0       0       0
       0       0       0       0       0       0       0       0       0       0
       0       0       0       0       0       0       0       0       0       0
       0       0       0       0       0       0       0       0       0       0
       0       0       0       0       0       0       0       0       0       0
       0       0       0       0       0       0       0       0       0       0
       0       0       0       0       0       0       0       0       0       0
       0       0       0       0       0       0       0       0       0       0
       0       0       0       0       0       0       0       0       0       0
       0       0       0       0       0       0       0       0       0       0
       0       0       0       0       0       0       0       0       0       0
       0       0       0       0       0       0       0       0       0       0
       0       0       0       0       0       0       0       0       0       0
       0       0       0       0       0       0       0       0       0       0
       0       0       0       0       0       0       0       0       0       0
       0       0       0       0       0       0       0       0       0       0
       0       0       0       0       0       0       0       0       0       0
       0       0       0       0       0       0       0       0       0       0
       0       0       0       0       0       0       0       0       0       0
       0       0       0       0       0       0       0       0       0       0
       0       0       0       0       0       0       0       0       0       0
       0       0       0       0       0       0       0       0       0       0
       0       0       0       0       0       0       0       0       0       0
       0       0       0       0       0       0       0       0       0       0
       0       0       0       0       0       0       0       0       0       0
       0       0       0       0       0       0       0       0       0       0
       0       0       0       0       0       0       0       0       0       0
       0       0       0       0       0       0       0       0       0       0
       0       0       0       0       0       0       0       0       0       0
       0       0       0       0       0       0       0       0       0       0
       0       0       0       0       0       0       0       0       0       0
       0       0       0       0       0       0       0       0       0       0
       0       0       0       0       0       0       0       0       0       0
       0       0       0       0       0       0       0       0       0       0
       0       0       0       0       0       0       0       0       0       0
       0       0       0       0       0       0       0       0       0       0
       0       0       0       0       0       0       0       0       0       0
       0       0       0       0       0       0       0       0       0       0
       0       0       0       0       0       0       0       0       0       0
       0       0       0       0       0       0       0       0       0       0
       0       0       0       0       0       0       0       0       0       0
       0       0       0       0       0       0       0       0       0       0
       0       0       0       0       0       0       0       0       0       0
       0       0       0       0       0       0       0       0       0       0
       0       0       0       0       0       0       0       0       0       0
       0       0       0       0       0       0       0       0       0       0
       0       0       0       0       0       0       0       0       0       0
       0       0       0       0       0       0       0       0       0       0
       0       0       0       0       0       0       0       0       0       0
       0       0       0       0       0       0       0       0       0       0
       0       0       0       0       0       0       0       0       0       0
       0       0       0       0       0       0       0       0       0       0
       0       0       0       0       0       0       0       0       0       0
       0       0       0       0       0       0       0       0       0       0
       0       0       0       0       0       0       0       0       0       0
       0       0       0       0       0       0       0       0       0       0
       0       0       0       0       0       0       0       0       0       0
       0       0       0       0       0       0       0       0       0       0
       0       0       0       0       0       0       0       0       0       0
       0       0       0       0       0       0       0       0       0       0
       0       0       0       0       0       0       0       0       0       0
       0       0       0       0       0       0       0       0       0       0
       0       0       0       0       0       0       0       0       0       0
       0       0       0       0       0       0       0       0       0       0
       0       0       0       0       0       0       0       0       0       0
       0       0       0       0       0       0       0       0       0       0
       0       0       0       0       0       0       0       0       0       0
       0       0       0       0       0       0       0       0       0       0
       0       0       0       0       0       0       0       0       0       0
       0       0       0       0       0       0       0       0       0       0
       0       0       0       0       0       0       0       0       0       0
       0       0       0       0       0       0       0       0       0       0
       0       0       0       0       0       0       0       0       0       0
       0       0       0       0       0       0       0       0       0       0
       0       0       0       0       0       0       0       0       0       0
       0       0       0       0       0       0       0       0       0       0
       0       0       0       0       0       0       0       0       0       0
       0       0       0       0       0       0       0       0       0       0
       0       0       0       0       0       0       0       0       0       0
       0       0       0       0       0       0       0       0       0       0
       0       0       0       0       0       0       0       0       0       0
       0       0       0       0       0       0       0       0       0       0
       0       0       0       0       0       0       0       0       0       0
       0       0       0       0       0       0       0       0       0       0
       0       0       0       0       0       0       0       0       0       0
       0       0       0       0       0       0       0       0       0       0
       0       0       0       0       0       0       0       0       0       0
       0       0       0       0       0       0       0       0       0       0
       0       0       0       0       0       0       0       0       0       0
       0       0       0       0       0       0       0       0       0       0
       0       0       0       0       0       0       0       0       0       0
       0       0       0       0       0       0       0       0       0       0
       0       0       0       0       0       0       0       0       0       0
       0       0       0       0       0       0       0       0       0       0
       0       0       0       0       0       0       0       0       0       0
       0       0       0       0       0       0       0       0       0       0
       0       0       0       0       0       0       0       0       0       0
       0       0       0       0       0       0       0       0       0       0
       0       0       0       0       0       0       0       0       0       0
       0       0       0       0       0       0       0       0       0       0
       0       0       0       0       0       0       0       0       0       0
       0       0       0       0       0       0       0       0       0       0
       0       0       0       0       0       0       0       0       0       0
       0       0       0       0       0       0       0       0       0       0
       0       0       0       0       0       0       0       0       0       0
       0       0       0       0       0       0       0       0       0       0
       0       0       0       0       0       0       0       0       0       0
       0       0       0       0       0       0       0       0       0       0
       0       0       0       0       0       0       0       0       0       0
       0       0       0       0       0       0       0       0       0       0
       0       0       0       0       0       0       0       0       0       0
       0       0       0       0       0       0       0       0       0       0
       0       0       0       0       0       0       0       0       0       0
       0       0       0       0       0       0       0       0       0       0
       0       0       0       0       0       0       0       0       0       0
       0       0       0       0       0       0       0       0       0       0
       0       0       0       0       0       0       0       0       0       0
       0       0       0       0       0       0       0       0       0       0
       0       0       0       0       0       0       0       0       0       0
       0       0       0       0       0       0       0       0       0       0
       0       0       0       0       0       0       0       0       0       0
       0       0       0       0       0       0       0       0       0       0
       0       0       0       0       0       0       0       0       0       0
       0       0       0       0       0       0       0       0       0       0
       0       0       0       0       0       0       0       0       0       0
       0       0       0       0       0       0       0       0       0       0
       0       0       0       0       0       0       0       0       0       0
       0       0       0       0       0       0       0       0       0       0
       0       0       0       0       0       0       0       0       0       0
       0       0       0       0       0       0       0       0       0       0
       0       0       0       0       0       0       0       0       0       0
       0       0       0       0       0       0       0       0       0       0
       0       0       0       0       0       0       0       0       0       0
       0       0       0       0       0       0       0       0       0       0
       0       0       0       0       0       0       0       0       0       0
       0       0       0       0       0       0       0       0       0       0
       0       0       0       0       0       0       0       0       0       0
       0       0       0       0       0       0       0       0       0       0
       0       0       0       0       0       0       0       0       0       0
       0       0       0       0       0       0       0       0       0       0
       0       0       0       0       0       0       0       0       0       0
       0       0       0       0       0       0       0       0       0       0
       0       0       0       0       0       0       0       0       0       0
       0       0       0       0       0       0       0       0       0       0
       0       0       0       0       0       0       0       0       0       0
       0       0       0       0       0       0       0       0       0       0
       0       0       0       0       0       0       0       0       0       0
       0       0       0       0       0       0       0       0       0       0
       0       0       0       0       0       0       0       0       0       0
       0       0       0       0       0       0       0       0       0       0
       0       0       0       0       0       0       0       0       0       0
       0       0       0       0       0       0       0       0       0       0
       0       0       0       0       0       0       0       0       0       0
       0       0       0       0       0       0       0       0       0       0
       0       0       0       0       0       0       0       0       0       0
       0       0       0       0       0       0       0       0       0       0
       0       0       0       0       0       0       0       0       0       0
       0       0       0       0       0       0       0       0       0       0
       0       0       0       0       0       0       0       0       0       0
       0       0       0       0       0       0       0       0       0       0
       0       0       0       0       0       0       0       0       0       0
       0       0       0       0       0       0       0       0       0       0
       0       0       0       0       0       0       0       0       0       0
       0       0       0       0       0       0       0       0       0       0
       0       0       0       0       0       0       0       0       0       0
       0       0       0       0       0       0       0       0       0       0
       0       0       0       0       0       0       0       0       0       0
       0       0       0       0       0       0       0       0       0       0
       0       0       0       0       0       0       0       0       0       0
       0       0       0       0       0       0       0       0       0       0
       0       0       0       0       0       0       0       0       0       0
       0       0       0       0       0       0       0       0       0       0
       0       0       0       0       0       0       0       0       0       0
       0       0       0       0       0       0       0       0       0       0
       0       0       0       0       0       0       0       0       0       0
       0       0       0       0       0       0       0       0       0       0
       0       0       0       0       0       0       0       0       0       0
       0       0       0       0       0       0       0       0       0       0
       0       0       0       0       0       0       0       0       0       0
       0       0       0       0       0       0       0       0       0       0
       0       0       0       0       0       0       0       0       0       0
       0       0       0       0       0       0       0       0       0       0
       0       0       0       0       0       0       0       0       0       0
       0       0       0       0       0       0       0       0       0       0
       0       0       0       0       0       0       0       0       0       0
       0       0       0       0       0       0       0       0       0       0
       0       0       0       0       0       0       0       0       0       0
       0       0       0       0       0       0       0       0       0       0
       0       0       0       0       0       0       0       0       0       0
       0       0       0       0       0       0       0       0       0       0
       0       0       0       0       0       0       0       0       0       0
       0       0       0       0       0       0       0       0       0       0
       0       0       0       0       0       0       0       0       0       0
       0       0       0       0       0       0       0       0       0       0
       0       0       0       0       0       0       0       0       0       0
       0       0       0       0       0       0       0       0       0       0
       0       0       0       0       0       0       0       0       0       0
       0       0       0       0       0       0       0       0       0       0
       0       0       0       0       0       0       0       0       0       0
       0       0       0       0       0       0       0       0       0       0
       0       0       0       0       0       0       0       0       0       0
       0       0       0       0       0       0       0       0       0       0
       0       0       0       0       0       0       0       0       0       0
       0       0       0       0       0       0       0       0       0       0
       0       0       0       0       0       0       0       0       0       0
       0       0       0       0       0       0       0       0       0       0
       0       0       0       0       0       0       0       0       0       0
       0       0       0       0       0       0       0       0       0       0
       0       0       0       0       0       0       0       0       0       0
       0       0       0       0       0       0       0       0       0       0
       0       0       0       0       0       0       0       0       0       0
       0       0       0       0       0       0       0       0       0       0
       0       0       0       0       0       0       0       0       0       0
       0       0       0       0       0       0       0       0       0       0
       0       0       0       0       0       0       0       0       0       0
       0       0       0       0       0       0       0       0       0       0
       0       0       0       0       0       0       0       0       0       0
       0       0       0       0       0       0       0       0       0       0
       0       0       0       0       0       0       0       0       0       0
       0       0       0       0       0       0       0       0       0       0
       0       0       0       0       0       0       0       0       0       0
       0       0       0       0       0       0       0       0       0       0
       0       0       0       0       0       0       0       0       0       0
       0       0       0       0       0       0       0       0       0       0
       0       0       0       0       0       0       0       0       0       0
       0       0       0       0       0       0       0       0       0       0
       0       0       0       0       0       0       0       0       0       0
       0       0       0       0       0       0       0       0       0       0
       0       0       0       0       0       0       0       0       0       0
       0       0       0       0       0       0       0       0       0       0
       0       0       0       0       0       0       0       0       0       0
       0       0       0       0       0       0       0       0       0       0
       0       0       0       0       0       0       0       0       0       0
       0       0       0       0       0       0       0       0       0       0
       0       0       0       0       0       0       0       0       0       0
       0       0       0       0       0       0       0       0       0       0
       0       0       0       0       0       0       0       0       0       0
       0       0       0       0       0       0       0       0       0       0
       0       0       0       0       0       0       0       0       0       0
       0       0       0       0       0       0       0       0       0       0
       0       0       0       0       0       0       0       0       0       0
       0       0       0       0       0       0       0       0       0       0
       0       0       0       0       0       0       0       0       0       0
       0       0       0       0       0       0       0       0       0       0
       0       0       0       0       0       0       0       0       0       0
       0       0       0       0       0       0       0       0       0       0
       0       0       0       0       0       0       0       0       0       0
       0       0       0       0       0       0       0       0       0       0
       0       0       0       0       0       0       0       0       0       0
       0       0       0       0       0       0       0       0       0       0
       0       0       0       0       0       0       0       0       0       0
       0       0       0       0       0       0       0       0       0       0
       0       0       0       0       0       0       0       0       0       0
       0       0       0       0       0       0       0       0       0       0
       0       0       0       0       0       0       0       0       0       0
       0       0       0       0       0       0       0       0       0       0
       0       0       0       0       0       0       0       0       0       0
       0       0       0       0       0       0       0       0       0       0
       0       0       0       0       0       0       0       0       0       0
       0       0       0       0       0       0       0       0       0       0
       0       0       0       0       0       0       0       0       0       0
       0       0       0       0       0       0       0       0       0       0
       0       0       0       0       0       0       0       0       0       0
       0       0       0       0       0       0       0       0       0       0
       0       0       0       0       0       0       0       0       0       0
       0       0       0       0       0       0       0       0       0       0
       0       0       0       0       0       0       0       0       0       0
       0       0       0       0       0       0       0       0       0       0
       0       0       0       0       0       0       0       0       0       0
       0       0       0       0       0       0       0       0       0       0
       0       0       0       0       0       0       0       0       0       0
       0       0       0       0       0       0       0       0       0       0
       0       0       0       0       0       0       0       0       0       0
       0       0       0       0       0       0       0       0       0       0
       0       0       0       0       0       0       0       0       0       0
       0       0       0       0       0       0       0       0       0       0
       0       0       0       0       0       0       0       0       0       0
       0       0       0       0       0       0       0       0       0       0
       0       0       0       0       0       0       0       0       0       0
       0       0       0       0       0       0       0       0       0       0
       0       0       0       0       0       0       0       0       0       0
       0       0       0       0       0       0       0       0       0       0
       0       0       0       0       0       0       0       0       0       0
       0       0       0       0       0       0       0       0       0       0
       0       0       0       0       0       0       0       0       0       0
       0       0       0       0       0       0       0       0       0       0
       0       0       0       0       0       0       0       0       0       0
       0       0       0       0       0       0       0       0       0       0
       0       0       0       0       0       0       0       0       0       0
       0       0       0       0       0       0       0       0       0       0
       0       0       0       0       0       0       0       0       0       0
       0       0       0       0       0       0       0       0       0       0
       0       0       0       0       0       0       0       0       0       0
       0       0       0       0       0       0       0       0       0       0
       0       0       0       0       0       0       0       0       0       0
       0       0       0       0       0       0       0       0       0       0
       0       0       0       0       0       0       0       0       0       0
       0       0       0       0       0       0       0       0       0       0
       0       0       0       0       0       0       0       0       0       0
       0       0       0       0       0       0       0       0       0       0
       0       0       0       0       0       0       0       0       0       0
       0       0       0       0       0       0       0       0       0       0
       0       0       0       0       0       0       0       0       0       0
       0       0       0       0       0       0       0       0       0       0
       0       0       0       0       0       0       0       0       0       0
       0       0       0       0       0       0       0       0       0       0
       0       0       0       0       0       0       0       0       0       0
       0       0       0       0       0       0       0       0       0       0
       0       0       0       0       0       0       0       0       0       0
       0       0       0       0       0       0       0       0       0       0
       0       0       0       0       0       0       0       0       0       0
       0       0       0       0       0       0       0       0       0       0
       0       0       0       0       0       0       0       0       0       0
       0       0       0       0       0       0       0       0       0       0
       0       0       0       0       0       0       0       0       0       0
       0       0       0       0       0       0       0       0       0       0
       0       0       0       0       0       0       0       0       0       0
       0       0       0       0       0       0       0       0       0       0
       0       0       0       0       0       0       0       0       0       0
       0       0       0       0       0       0       0       0       0       0
       0       0       0       0       0       0       0       0       0       0
       0       0       0       0       0       0       0       0       0       0
       0       0       0       0       0       0       0       0       0       0
       0       0       0       0       0       0       0       0       0       0
       0       0       0       0       0       0       0       0       0       0
       0       0       0       0       0       0       0       0       0       0
       0       0       0       0       0       0       0       0       0       0
       0       0       0       0       0       0       0       0       0       0
       0       0       0       0       0       0       0       0       0       0
       0       0       0       0       0       0       0       0       0       0
       0       0       0       0       0       0       0       0       0       0
       0       0       0       0       0       0       0       0       0       0
       0       0       0       0       0       0       0       0       0       0
       0       0       0       0       0       0       0       0       0       0
       0       0       0       0       0       0       0       0       0       0
       0       0       0       0       0       0       0       0       0       0
       0       0       0       0       0       0       0       0       0       0
       0       0       0       0       0       0       0       0       0       0
       0       0       0       0       0       0       0       0       0       0
       0       0       0       0       0       0       0       0       0       0
       0       0       0       0       0       0       0       0       0       0
       0       0       0       0       0       0       0       0       0       0
       0       0       0       0       0       0       0       0       0       0
       0       0       0       0       0       0       0       0       0       0
       0       0       0       0       0       0       0       0       0       0
       0       0       0       0       0       0       0       0       0       0
       0       0       0       0       0       0       0       0       0       0
       0       0       0       0       0       0       0       0       0       0
       0       0       0       0       0       0       0       0       0       0
       0       0       0       0       0       0       0       0       0       0
       0       0       0       0       0       0       0       0       0       0
       0       0       0       0       0       0       0       0       0       0
       0       0       0       0       0       0       0       0       0       0
       0       0       0       0       0       0       0       0       0       0
       0       0       0       0       0       0       0       0       0       0
       0       0       0       0       0       0       0       0       0       0
       0       0       0       0       0       0       0       0       0       0
       0       0       0       0       0       0       0       0       0       0
       0       0       0       0       0       0       0       0       0       0
       0       0       0       0       0       0       0       0       0       0
       0       0       0       0       0       0       0       0       0       0
       0       0       0       0       0       0       0       0       0       0
       0       0       0       0       0       0       0       0       0       0
       0       0       0       0       0       0       0       0       0       0
       0       0       0       0       0       0       0       0       0       0
       0       0       0       0       0       0       0       0       0       0
       0       0       0       0       0       0       0       0       0       0
       0       0       0       0       0       0       0       0       0       0
       0       0       0       0       0       0       0       0       0       0
       0       0       0       0       0       0       0       0       0       0
       0       0       0       0       0       0       0       0       0       0
       0       0       0       0       0       0       0       0       0       0
       0       0       0       0       0       0       0       0       0       0
       0       0       0       0       0       0       0       0       0       0
       0       0       0       0       0       0       0       0       0       0
       0       0       0       0       0       0       0       0       0       0
       0       0       0       0       0       0       0       0       0       0
       0       0       0       0       0       0       0       0       0       0
       0       0       0       0       0       0       0       0       0       0
       0       0       0       0       0       0       0       0       0       0
       0       0       0       0       0       0       0       0       0       0
       0       0       0       0       0       0       0       0       0       0
       0       0       0       0       0       0       0       0       0       0
       0       0       0       0       0       0       0       0       0       0
       0       0       0       0       0       0       0       0       0       0
       0       0       0       0       0       0       0       0       0       0
       0       0       0       0       0       0       0       0       0       0
       0       0       0       0       0       0       0       0       0       0
       0       0       0       0       0       0       0       0       0       0
       0       0       0       0       0       0       0       0       0       0
       0       0       0       0       0       0       0       0       0       0
       0       0       0       0       0       0       0       0       0       0
       0       0       0       0       0       0       0       0       0       0
       0       0       0       0       0       0       0       0       0       0
       0       0       0       0       0       0       0       0       0       0
       0       0       0       0       0       0       0       0       0       0
       0       0       0       0       0       0       0       0       0       0
       0       0       0       0       0       0       0       0       0       0
       0       0       0       0       0       0       0       0       0       0
       0       0       0       0       0       0       0       0       0       0
       0       0       0       0       0       0       0       0       0       0
       0       0       0       0       0       0       0       0       0       0
       0       0       0       0       0       0       0       0       0       0
       0       0       0       0       0       0       0       0       0       0
       0       0       0       0       0       0       0       0       0       0
       0       0       0       0       0       0       0       0       0       0
       0       0       0       0       0       0       0       0       0       0
       0       0       0       0       0       0       0       0       0       0
       0       0       0       0       0       0       0       0       0       0
       0       0       0       0       0       0       0       0       0       0
       0       0       0       0       0       0       0       0       0       0
       0       0       0       0       0       0       0       0       0       0
       0       0       0       0       0       0       0       0       0       0
       0       0       0       0       0       0       0       0       0       0
       0       0       0       0       0       0       0       0       0       0
       0       0       0       0       0       0       0       0       0       0
       0       0       0       0       0       0       0       0       0       0
       0       0       0       0       0       0       0       0       0       0
       0       0       0       0       0       0       0       0       0       0
       0       0       0       0       0       0       0       0       0       0
       0       0       0       0       0       0       0       0       0       0
       0       0       0       0       0       0       0       0       0       0
       0       0       0       0       0       0       0       0       0       0
       0       0       0       0       0       0       0       0       0       0
       0       0       0       0       0       0       0       0       0       0
       0       0       0       0       0       0       0       0       0       0
       0       0       0       0       0       0       0       0       0       0
       0       0       0       0       0       0       0       0       0       0
       0       0       0       0       0       0       0       0       0       0
       0       0       0       0       0       0       0       0       0       0
       0       0       0       0       0       0       0       0       0       0
       0       0       0       0       0       0       0       0       0       0
       0       0       0       0       0       0       0       0       0       0
       0       0       0       0       0       0       0       0       0       0
       0       0       0       0       0       0       0       0       0       0
       0       0       0       0       0       0       0       0       0       0
       0       0       0       0       0       0       0       0       0       0
       0       0       0       0       0       0       0       0       0       0
       0       0       0       0       0       0       0       0       0       0
       0       0       0       0       0       0       0       0       0       0
       0       0       0       0       0       0       0       0       0       0
       0       0       0       0       0       0       0       0       0       0
       0       0       0       0       0       0       0       0       0       0
       0       0       0       0       0       0       0       0       0       0
       0       0       0       0       0       0       0       0       0       0
       0       0       0       0       0       0       0       0       0       0
       0       0       0       0       0       0       0       0       0       0
       0       0       0       0       0       0       0       0       0       0
       0       0       0       0       0       0       0       0       0       0
       0       0       0       0       0       0       0       0       0       0
       0       0       0       0       0       0       0       0       0       0
       0       0       0       0       0       0       0       0       0       0
       0       0       0       0       0       0       0       0       0       0
       0       0       0       0       0       0       0       0       0       0
       0       0       0       0       0       0       0       0       0       0
       0       0       0       0       0       0       0       0       0       0
       0       0       0       0       0       0       0       0       0       0
       0       0       0       0       0       0       0       0       0       0
       0       0       0       0       0       0       0       0       0       0
       0       0       0       0       0       0       0       0       0       0
       0       0       0       0       0       0       0       0       0       0
       0       0       0       0       0       0       0       0       0       0
       0       0       0       0       0       0       0       0       0       0
       0       0       0       0       0       0       0       0       0       0
       0       0       0       0       0       0       0       0       0       0
       0       0       0       0       0       0       0       0       0       0
       0       0       0       0       0       0       0       0       0       0
       0       0       0       0       0       0       0       0       0       0
       0       0       0       0       0       0       0       0       0       0
       0       0       0       0       0       0       0       0       0       0
       0       0       0       0       0       0       0       0       0       0
       0       0       0       0       0       0       0       0       0       0
       0       0       0       0       0       0       0       0       0       0
       0       0       0       0       0       0       0       0       0       0
       0       0       0       0       0       0       0       0       0       0
       0       0       0       0       0       0       0       0       0       0
       0       0       0       0       0       0       0       0       0       0
       0       0       0       0       0       0       0       0       0       0
       0       0       0       0       0       0       0       0       0       0
       0       0       0       0       0       0       0       0       0       0
       0       0       0       0       0       0       0       0       0       0
       0       0       0       0       0       0       0       0       0       0
       0       0       0       0       0       0       0       0       0       0
       0       0       0       0       0       0       0       0       0       0
       0       0       0       0       0       0       0       0       0       0
       0       0       0       0       0       0       0       0       0       0
       0       0       0       0       0       0       0       0       0       0
       0       0       0       0       0       0       0       0       0       0
       0       0       0       0       0       0       0       0       0       0
       0       0       0       0       0       0       0       0       0       0
       0       0       0       0       0       0       0       0       0       0
       0       0       0       0       0       0       0       0       0       0
       0       0       0       0       0       0       0       0       0       0
       0       0       0       0       0       0       0       0       0       0
       0       0       0       0       0       0       0       0       0       0
       0       0       0       0       0       0       0       0       0       0
       0       0       0       0       0       0       0       0       0       0
       0       0       0       0       0       0       0       0       0       0
       0       0       0       0       0       0       0       0       0       0
       0       0       0       0       0       0       0       0       0       0
       0       0       0       0       0       0       0       0       0       0
       0       0       0       0       0       0       0       0       0       0
       0       0       0       0       0       0       0       0       0       0
       0       0       0       0       0       0       0       0       0       0
       0       0       0       0       0       0       0       0       0       0
       0       0       0       0       0       0       0       0       0       0
       0       0       0       0       0       0       0       0       0       0
       0       0       0       0       0       0       0       0       0       0
       0       0       0       0       0       0       0       0       0       0
       0       0       0       0       0       0       0       0       0       0
       0       0       0       0       0       0       0       0       0       0
       0       0       0       0       0       0       0       0       0       0
       0       0       0       0       0       0       0       0       0       0
       0       0       0       0       0       0       0       0       0       0
       0       0       0       0       0       0       0       0       0       0
       0       0       0       0       0       0       0       0       0       0
       0       0       0       0       0       0       0       0       0       0
       0       0       0       0       0       0       0       0       0       0
       0       0       0       0       0       0       0       0       0       0
       0       0       0       0       0       0       0       0       0       0
       0       0       0       0       0       0       0       0       0       0
       0       0       0       0       0       0       0       0       0       0
       0       0       0       0       0       0       0       0       0       0
       0       0       0       0       0       0       0       0       0       0
       0       0       0       0       0       0       0       0       0       0
       0       0       0       0       0       0       0       0       0       0
       0       0       0       0       0       0       0       0       0       0
       0       0       0       0       0       0       0       0       0       0
       0       0       0       0       0       0       0       0       0       0
       0       0       0       0       0       0       0       0       0       0
       0       0       0       0       0       0       0       0       0       0
       0       0       0       0       0       0       0       0       0       0
       0       0       0       0       0       0       0       0       0       0
       0       0       0       0       0       0       0       0       0       0
       0       0       0       0       0       0       0       0       0       0
       0       0       0       0       0       0       0       0       0       0
       0       0       0       0       0       0       0       0       0       0
       0       0       0       0       0       0       0       0       0       0
       0       0       0       0       0       0       0       0       0       0
       0       0       0       0       0       0       0       0       0       0
       0       0       0       0       0       0       0       0       0       0
       0       0       0       0       0       0       0       0       0       0
       0       0       0       0       0       0       0       0       0       0
       0       0       0       0       0       0       0       0       0       0
       0       0       0       0       0       0       0       0       0       0
       0       0       0       0       0       0       0       0       0       0
       0       0       0       0       0       0       0       0       0       0
       0       0       0       0       0       0       0       0       0       0
       0       0       0       0       0       0       0       0       0       0
       0       0       0       0       0       0       0       0       0       0
       0       0       0       0       0       0       0       0       0       0
       0       0       0       0       0       0       0       0       0       0
       0       0       0       0       0       0       0       0       0       0
       0       0       0       0       0       0       0       0       0       0
       0       0       0       0       0       0       0       0       0       0
       0       0       0       0       0       0       0       0       0       0
       0       0       0       0       0       0       0       0       0       0
       0       0       0       0       0       0       0       0       0       0
       0       0       0       0       0       0       0       0       0       0
       0       0       0       0       0       0       0       0       0       0
       0       0       0       0       0       0       0       0       0       0
       0       0       0       0       0       0       0       0       0       0
       0       0       0       0       0       0       0       0       0       0
       0       0       0       0       0       0       0       0       0       0
       0       0       0       0       0       0       0       0       0       0
       0       0       0       0       0       0       0       0       0       0
       0       0       0       0       0       0       0       0       0       0
       0       0       0       0       0       0       0       0       0       0
       0       0       0       0       0       0       0       0       0       0
       0       0       0       0       0       0       0       0       0       0
       0       0       0       0       0       0       0       0       0       0
       0       0       0       0       0       0       0       0       0       0
       0       0       0       0       0       0       0       0       0       0
       0       0       0       0       0       0       0       0       0       0
       0       0       0       0       0       0       0       0       0       0
       0       0       0       0       0       0       0       0       0       0
       0       0       0       0       0       0       0       0       0       0
       0       0       0       0       0       0       0       0       0       0
       0       0       0       0       0       0       0       0       0       0
       0       0       0       0       0       0       0       0       0       0
       0       0       0       0       0       0       0       0       0       0
       0       0       0       0       0       0       0       0       0       0
       0       0       0       0       0       0       0       0       0       0
       0       0       0       0       0       0       0       0       0       0
       0       0       0       0       0       0       0       0       0       0
       0       0       0       0       0       0       0       0       0       0
       0       0       0       0       0       0       0       0       0       0
       0       0       0       0       0       0       0       0       0       0
       0       0       0       0       0       0       0       0       0       0
       0       0       0       0       0       0       0       0       0       0
       0       0       0       0       0       0       0       0       0       0
       0       0       0       0       0       0       0       0       0       0
       0       0       0       0       0       0       0       0       0       0
       0       0       0       0       0       0       0       0       0       0
       0       0       0       0       0       0       0       0       0       0
       0       0       0       0       0       0       0       0       0       0
       0       0       0       0       0       0       0       0       0       0
       0       0       0       0       0       0       0       0       0       0
       0       0       0       0       0       0       0       0       0       0
       0       0       0       0       0       0       0       0       0       0
       0       0       0       0       0       0       0       0       0       0
       0       0       0       0       0       0       0       0       0       0
       0       0       0       0       0       0       0       0       0       0
       0       0       0       0       0       0       0       0       0       0
       0       0       0       0       0       0       0       0       0       0
       0       0       0       0       0       0       0       0       0       0
       0       0       0       0       0       0       0       0       0       0
       0       0       0       0       0       0       0       0       0       0
       0       0       0       0       0       0       0       0       0       0
       0       0       0       0       0       0       0       0       0       0
       0       0       0       0       0       0       0       0       0       0
       0       0       0       0       0       0       0       0       0       0
       0       0       0       0       0       0       0       0       0       0
       0       0       0       0       0       0       0       0       0       0
       0       0       0       0       0       0       0       0       0       0
       0       0       0       0       0       0       0       0       0       0
       0       0       0       0       0       0       0       0       0       0
       0       0       0       0       0       0       0       0       0       0
       0       0       0       0       0       0       0       0       0       0
       0       0       0       0       0       0       0       0       0       0
       0       0       0       0       0       0       0       0       0       0
       0       0       0       0       0       0       0       0       0       0
       0       0       0       0       0       0       0       0       0       0
       0       0       0       0       0       0       0       0       0       0
       0       0       0       0       0       0       0       0       0       0
       0       0       0       0       0       0       0       0       0       0
       0       0       0       0       0       0       0       0       0       0
       0       0       0       0       0       0       0       0       0       0
       0       0       0       0       0       0       0       0       0       0
       0       0       0       0       0       0       0       0       0       0
       0       0       0       0       0       0       0       0       0       0
       0       0       0       0       0       0       0       0       0       0
       0       0       0       0       0       0       0       0       0       0
       0       0       0       0       0       0       0       0       0       0
       0       0       0       0       0       0       0       0       0       0
       0       0       0       0       0       0       0       0       0       0
       0       0       0       0       0       0       0       0       0       0
       0       0       0       0       0       0       0       0       0       0
       0       0       0       0       0       0       0       0       0       0
       0       0       0       0       0       0       0       0       0       0
       0       0       0       0       0       0       0       0       0       0
       0       0       0       0       0       0       0       0       0       0
       0       0       0       0       0       0       0       0       0       0
       0       0       0       0       0       0       0       0       0       0
       0       0       0       0       0       0       0       0       0       0
       0       0       0       0       0       0       0       0       0       0
       0       0       0       0       0       0       0       0       0       0
       0       0       0       0       0       0       0       0       0       0
       0       0       0       0       0       0       0       0       0       0
       0       0       0       0       0       0       0       0       0       0
       0       0       0       0       0       0       0       0       0       0
       0       0       0       0       0       0       0       0       0       0
       0       0       0       0       0       0       0       0       0       0
       0       0       0       0       0       0       0       0       0       0
       0       0       0       0       0       0       0       0       0       0
       0       0       0       0       0       0       0       0       0       0
       0       0       0       0       0       0       0       0       0       0
       0       0       0       0       0       0       0       0       0       0
       0       0       0       0       0       0       0       0       0       0
       0       0       0       0       0       0       0       0       0       0
       0       0       0       0       0       0       0       0       0       0
       0       0       0       0       0       0       0       0       0       0
       0       0       0       0       0       0       0       0       0       0
       0       0       0       0       0       0       0       0       0       0
       0       0       0       0       0       0       0       0       0       0
       0       0       0       0       0       0       0       0       0       0
       0       0       0       0       0       0       0       0       0       0
       0       0       0       0       0       0       0       0       0       0
       0       0       0       0       0       0       0       0       0       0
       0       0       0       0       0       0       0       0       0       0
       0       0       0       0       0       0       0       0       0       0
       0       0       0       0       0       0       0       0       0       0
       0       0       0       0       0       0       0       0       0       0
       0       0       0       0       0       0       0       0       0       0
       0       0       0       0       0       0       0       0       0       0
       0       0       0       0       0       0       0       0       0       0
       0       0       0       0       0       0       0       0       0       0
       0       0       0       0       0       0       0       0       0       0
       0       0       0       0       0       0       0       0       0       0
       0       0       0       0       0       0       0       0       0       0
       0       0       0       0       0       0       0       0       0       0
       0       0       0       0       0       0       0       0       0       0
       0       0       0       0       0       0       0       0       0       0
       0       0       0       0       0       0       0       0       0       0
       0       0       0       0       0       0       0       0       0       0
       0       0       0       0       0       0       0       0       0       0
       0       0       0       0       0       0       0       0       0       0
       0       0       0       0       0       0       0       0       0       0
       0       0       0       0       0       0       0       0       0       0
       0       0       0       0       0       0       0       0       0       0
       0       0       0       0       0       0       0       0       0       0
       0       0       0       0       0       0       0       0       0       0
       0       0       0       0       0       0       0       0       0       0
       0       0       0       0       0       0       0       0       0       0
       0       0       0       0       0       0       0       0       0       0
       0       0       0       0       0       0       0       0       0       0
       0       0       0       0       0       0       0       0       0       0
       0       0       0       0       0       0       0       0       0       0
       0       0       0       0       0       0       0       0       0       0
       0       0       0       0       0       0       0       0       0       0
       0       0       0       0       0       0       0       0       0       0
       0       0       0       0       0       0       0       0       0       0
       0       0       0       0       0       0       0       0       0       0
       0       0       0       0       0       0       0       0       0       0
       0       0       0       0       0       0       0       0       0       0
       0       0       0       0       0       0       0       0       0       0
       0       0       0       0       0       0       0       0       0       0
       0       0       0       0       0       0       0       0       0       0
       0       0       0       0       0       0       0       0       0       0
       0       0       0       0       0       0       0       0       0       0
       0       0       0       0       0       0       0       0       0       0
       0       0       0       0       0       0       0       0       0       0
       0       0       0       0       0       0       0       0       0       0
       0       0       0       0       0       0       0       0       0       0
       0       0       0       0       0       0       0       0       0       0
       0       0       0       0       0       0       0       0       0       0
       0       0       0       0       0       0       0       0       0       0
       0       0       0       0       0       0       0       0       0       0
       0       0       0       0       0       0       0       0       0       0
       0       0       0       0       0       0       0       0       0       0
       0       0       0       0       0       0       0       0       0       0
       0       0       0       0       0       0       0       0       0       0
       0       0       0       0       0       0       0       0       0       0
       0       0       0       0       0       0       0       0       0       0
       0       0       0       0       0       0       0       0       0       0
       0       0       0       0       0       0       0       0       0       0
       0       0       0       0       0       0       0       0       0       0
       0       0       0       0       0       0       0       0       0       0
       0       0       0       0       0       0       0       0       0       0
       0       0       0       0       0       0       0       0       0       0
       0       0       0       0       0       0       0       0       0       0
       0       0       0       0       0       0       0       0       0       0
       0       0       0       0       0       0       0       0       0       0
       0       0       0       0       0       0       0       0       0       0
       0       0       0       0       0       0       0       0       0       0
       0       0       0       0       0       0       0       0       0       0
       0       0       0       0       0       0       0       0       0       0
       0       0       0       0       0       0       0       0       0       0
       0       0       0       0       0       0       0       0       0       0
       0       0       0       0       0       0       0       0       0       0
       0       0       0       0       0       0       0       0       0       0
       0       0       0       0       0       0       0       0       0       0
       0       0       0       0       0       0       0       0       0       0
       0       0       0       0       0       0       0       0       0       0
       0       0       0       0       0       0       0       0       0       0
       0       0       0       0       0       0       0       0       0       0
       0       0       0       0       0       0       0       0       0       0
       0       0       0       0       0       0       0       0       0       0
       0       0       0       0       0       0       0       0       0       0
       0       0       0       0       0       0       0       0       0       0
       0       0       0       0       0       0       0       0       0       0
       0       0       0       0       0       0       0       0       0       0
       0       0       0       0       0       0       0       0       0       0
       0       0       0       0       0       0       0       0       0       0
       0       0       0       0       0       0       0       0       0       0
       0       0       0       0       0       0       0       0       0       0
       0       0       0       0       0       0       0       0       0       0
       0       0       0       0       0       0       0       0       0       0
       0       0       0       0       0       0       0       0       0       0
       0       0       0       0       0       0       0       0       0       0
       0       0       0       0       0       0       0       0       0       0
       0       0       0       0       0       0       0       0       0       0
       0       0       0       0       0       0       0       0       0       0
       0       0       0       0       0       0       0       0       0       0
       0       0       0       0       0       0       0       0       0       0
       0       0       0       0       0       0       0       0       0       0
       0       0       0       0       0       0       0       0       0       0
       0       0       0       0       0       0       0       0       0       0
       0       0       0       0       0       0       0       0       0       0
       0       0       0       0       0       0       0       0       0       0
       0       0       0       0       0       0       0       0       0       0
       0       0       0       0       0       0       0       0       0       0
       0       0       0       0       0       0       0       0       0       0
       0       0       0       0       0       0       0       0       0       0
       0       0       0       0       0       0       0       0       0       0
       0       0       0       0       0       0       0       0       0       0
       0       0       0       0       0       0       0       0       0       0
       0       0       0       0       0       0       0       0       0       0
       0       0       0       0       0       0       0       0       0       0
       0       0       0       0       0       0       0       0       0       0
       0       0       0       0       0       0       0       0       0       0
       0       0       0       0       0       0       0       0       0       0
       0       0       0       0       0       0       0       0       0       0
       0       0       0       0       0       0       0       0       0       0
       0       0       0       0       0       0       0       0       0       0
       0       0       0       0       0       0       0       0       0       0
       0       0       0       0       0       0       0       0       0       0
       0       0       0       0       0       0       0       0       0       0
       0       0       0       0       0       0       0       0       0       0
%FLAG IROTAT                                                                    
%FORMAT(10I8)                                                                   
       0       0       0       0       0       0       0       0       0       0
       0       0       0       0       0       0       0       0       0       0
       0       0       0       0       0       0       0       0       0       0
       0       0       0       0       0       0       0       0       0       0
       0       0       0       0       0       0       0       0       0       0
       0       0       0       0       0       0       0       0       0       0
       0       0       0       0       0       0       0       0       0       0
       0       0       0       0       0       0       0       0       0       0
       0       0       0       0       0       0       0       0       0       0
       0       0       0       0       0       0       0       0       0       0
       0       0       0       0       0       0       0       0       0       0
       0       0       0       0       0       0       0       0       0       0
       0       0       0       0       0       0       0       0       0       0
       0       0       0       0       0       0       0       0       0       0
       0       0       0       0       0       0       0       0       0       0
       0       0       0       0       0       0       0       0       0       0
       0       0       0       0       0       0       0       0       0       0
       0       0       0       0       0       0       0       0       0       0
       0       0       0       0       0       0       0       0       0       0
       0       0       0       0       0       0       0       0       0       0
       0       0       0       0       0       0       0       0       0       0
       0       0       0       0       0       0       0       0       0       0
       0       0       0       0       0       0       0       0       0       0
       0       0       0       0       0       0       0       0       0       0
       0       0       0       0       0       0       0       0       0       0
       0       0       0       0       0       0       0       0       0       0
       0       0       0       0       0       0       0       0       0       0
       0       0       0       0       0       0       0       0       0       0
       0       0       0       0       0       0       0       0       0       0
       0       0       0       0       0       0       0       0       0       0
       0       0       0       0       0       0       0       0       0       0
       0       0       0       0       0       0       0       0       0       0
       0       0       0       0       0       0       0       0       0       0
       0       0       0       0       0       0       0       0       0       0
       0       0       0       0       0       0       0       0       0       0
       0       0       0       0       0       0       0       0       0       0
       0       0       0       0       0       0       0       0       0       0
       0       0       0       0       0       0       0       0       0       0
       0       0       0       0       0       0       0       0       0       0
       0       0       0       0       0       0       0       0       0       0
       0       0       0       0       0       0       0       0       0       0
       0       0       0       0       0       0       0       0       0       0
       0       0       0       0       0       0       0       0       0       0
       0       0       0       0       0       0       0       0       0       0
       0       0       0       0       0       0       0       0       0       0
       0       0       0       0       0       0       0       0       0       0
       0       0       0       0       0       0       0       0       0       0
       0       0       0       0       0       0       0       0       0       0
       0       0       0       0       0       0       0       0       0       0
       0       0       0       0       0       0       0       0       0       0
       0       0       0       0       0       0       0       0       0       0
       0       0       0       0       0       0       0       0       0       0
       0       0       0       0       0       0       0       0       0       0
       0       0       0       0       0       0       0       0       0       0
       0       0       0       0       0       0       0       0       0       0
       0       0       0       0       0       0       0       0       0       0
       0       0       0       0       0       0       0       0       0       0
       0       0       0       0       0       0       0       0       0       0
       0       0       0       0       0       0       0       0       0       0
       0       0       0       0       0       0       0       0       0       0
       0       0       0       0       0       0       0       0       0       0
       0       0       0       0       0       0       0       0       0       0
       0       0       0       0       0       0       0       0       0       0
       0       0       0       0       0       0       0       0       0       0
       0       0       0       0       0       0       0       0       0       0
       0       0       0       0       0       0       0       0       0       0
       0       0       0       0       0       0       0       0       0       0
       0       0       0       0       0       0       0       0       0       0
       0       0       0       0       0       0       0       0       0       0
       0       0       0       0       0       0       0       0       0       0
       0       0       0       0       0       0       0       0       0       0
       0       0       0       0       0       0       0       0       0       0
       0       0       0       0       0       0       0       0       0       0
       0       0       0       0       0       0       0       0       0       0
       0       0       0       0       0       0       0       0       0       0
       0       0       0       0       0       0       0       0       0       0
       0       0       0       0       0       0       0       0       0       0
       0       0       0       0       0       0       0       0       0       0
       0       0       0       0       0       0       0       0       0       0
       0       0       0       0       0       0       0       0       0       0
       0       0       0       0       0       0       0       0       0       0
       0       0       0       0       0       0       0       0       0       0
       0       0       0       0       0       0       0       0       0       0
       0       0       0       0       0       0       0       0       0       0
       0       0       0       0       0       0       0       0       0       0
       0       0       0       0       0       0       0       0       0       0
       0       0       0       0       0       0       0       0       0       0
       0       0       0       0       0       0       0       0       0       0
       0       0       0       0       0       0       0       0       0       0
       0       0       0       0       0       0       0       0       0       0
       0       0       0       0       0       0       0       0       0       0
       0       0       0       0       0       0       0       0       0       0
       0       0       0       0       0       0       0       0       0       0
       0       0       0       0       0       0       0       0       0       0
       0       0       0       0       0       0       0       0       0       0
       0       0       0       0       0       0       0       0       0       0
       0       0       0       0       0       0       0       0       0       0
       0       0       0       0       0       0       0       0       0       0
       0       0       0       0       0       0       0       0       0       0
       0       0       0       0       0       0       0       0       0       0
       0       0       0       0       0       0       0       0       0       0
       0       0       0       0       0       0       0       0       0       0
       0       0       0       0       0       0       0       0       0       0
       0       0       0       0       0       0       0       0       0       0
       0       0       0       0       0       0       0       0       0       0
       0       0       0       0       0       0       0       0       0       0
       0       0       0       0       0       0       0       0       0       0
       0       0       0       0       0       0       0       0       0       0
       0       0       0       0       0       0       0       0       0       0
       0       0       0       0       0       0       0       0       0       0
       0       0       0       0       0       0       0       0       0       0
       0       0       0       0       0       0       0       0       0       0
       0       0       0       0       0       0       0       0       0       0
       0       0       0       0       0       0       0       0       0       0
       0       0       0       0       0       0       0       0       0       0
       0       0       0       0       0       0       0       0       0       0
       0       0       0       0       0       0       0       0       0       0
       0       0       0       0       0       0       0       0       0       0
       0       0       0       0       0       0       0       0       0       0
       0       0       0       0       0       0       0       0       0       0
       0       0       0       0       0       0       0       0       0       0
       0       0       0       0       0       0       0       0       0       0
       0       0       0       0       0       0       0       0       0       0
       0       0       0       0       0       0       0       0       0       0
       0       0       0       0       0       0       0       0       0       0
       0       0       0       0       0       0       0       0       0       0
       0       0       0       0       0       0       0       0       0       0
       0       0       0       0       0       0       0       0       0       0
       0       0       0       0       0       0       0       0       0       0
       0       0       0       0       0       0       0       0       0       0
       0       0       0       0       0       0       0       0       0       0
       0       0       0       0       0       0       0       0       0       0
       0       0       0       0       0       0       0       0       0       0
       0       0       0       0       0       0       0       0       0       0
       0       0       0       0       0       0       0       0       0       0
       0       0       0       0       0       0       0       0       0       0
       0       0       0       0       0       0       0       0       0       0
       0       0       0       0       0       0       0       0       0       0
       0       0       0       0       0       0       0       0       0       0
       0       0       0       0       0       0       0       0       0       0
       0       0       0       0       0       0       0       0       0       0
       0       0       0       0       0       0       0       0       0       0
       0       0       0       0       0       0       0       0       0       0
       0       0       0       0       0       0       0       0       0       0
       0       0       0       0       0       0       0       0       0       0
       0       0       0       0       0       0       0       0       0       0
       0       0       0       0       0       0       0       0       0       0
       0       0       0       0       0       0       0       0       0       0
       0       0       0       0       0       0       0       0       0       0
       0       0       0       0       0       0       0       0       0       0
       0       0       0       0       0       0       0       0       0       0
       0       0       0       0       0       0       0       0       0       0
       0       0       0       0       0       0       0       0       0       0
       0       0       0       0       0       0       0       0       0       0
       0       0       0       0       0       0       0       0       0       0
       0       0       0       0       0       0       0       0       0       0
       0       0       0       0       0       0       0       0       0       0
       0       0       0       0       0       0       0       0       0       0
       0       0       0       0       0       0       0       0       0       0
       0       0       0       0       0       0       0       0       0       0
       0       0       0       0       0       0       0       0       0       0
       0       0       0       0       0       0       0       0       0       0
       0       0       0       0       0       0       0       0       0       0
       0       0       0       0       0       0       0       0       0       0
       0       0       0       0       0       0       0       0       0       0
       0       0       0       0       0       0       0       0       0       0
       0       0       0       0       0       0       0       0       0       0
       0       0       0       0       0       0       0       0       0       0
       0       0       0       0       0       0       0       0       0       0
       0       0       0       0       0       0       0       0       0       0
       0       0       0       0       0       0       0       0       0       0
       0       0       0       0       0       0       0       0       0       0
       0       0       0       0       0       0       0       0       0       0
       0       0       0       0       0       0       0       0       0       0
       0       0       0       0       0       0       0       0       0       0
       0       0       0       0       0       0       0       0       0       0
       0       0       0       0       0       0       0       0       0       0
       0       0       0       0       0       0       0       0       0       0
       0       0       0       0       0       0       0       0       0       0
       0       0       0       0       0       0       0       0       0       0
       0       0       0       0       0       0       0       0       0       0
       0       0       0       0       0       0       0       0       0       0
       0       0       0       0       0       0       0       0       0       0
       0       0       0       0       0       0       0       0       0       0
       0       0       0       0       0       0       0       0       0       0
       0       0       0       0       0       0       0       0       0       0
       0       0       0       0       0       0       0       0       0       0
       0       0       0       0       0       0       0       0       0       0
       0       0       0       0       0       0       0       0       0       0
       0       0       0       0       0       0       0       0       0       0
       0       0       0       0       0       0       0       0       0       0
       0       0       0       0       0       0       0       0       0       0
       0       0       0       0       0       0       0       0       0       0
       0       0       0       0       0       0       0       0       0       0
       0       0       0       0       0       0       0       0       0       0
       0       0       0       0       0       0       0       0       0       0
       0       0       0       0       0       0       0       0       0       0
       0       0       0       0       0       0       0       0       0       0
       0       0       0       0       0       0       0       0       0       0
       0       0       0       0       0       0       0       0       0       0
       0       0       0       0       0       0       0       0       0       0
       0       0       0       0       0       0       0       0       0       0
       0       0       0       0       0       0       0       0       0       0
       0       0       0       0       0       0       0       0       0       0
       0       0       0       0       0       0       0       0       0       0
       0       0       0       0       0       0       0       0       0       0
       0       0       0       0       0       0       0       0       0       0
       0       0       0       0       0       0       0       0       0       0
       0       0       0       0       0       0       0       0       0       0
       0       0       0       0       0       0       0       0       0       0
       0       0       0       0       0       0       0       0       0       0
       0       0       0       0       0       0       0       0       0       0
       0       0       0       0       0       0       0       0       0       0
       0       0       0       0       0       0       0       0       0       0
       0       0       0       0       0       0       0       0       0       0
       0       0       0       0       0       0       0       0       0       0
       0       0       0       0       0       0       0       0       0       0
       0       0       0       0       0       0       0       0       0       0
       0       0       0       0       0       0       0       0       0       0
       0       0       0       0       0       0       0       0       0       0
       0       0       0       0       0       0       0       0       0       0
       0       0       0       0       0       0       0       0       0       0
       0       0       0       0       0       0       0       0       0       0
       0       0       0       0       0       0       0       0       0       0
       0       0       0       0       0       0       0       0       0       0
       0       0       0       0       0       0       0       0       0       0
       0       0       0       0       0       0       0       0       0       0
       0       0       0       0       0       0       0       0       0       0
       0       0       0       0       0       0       0       0       0       0
       0       0       0       0       0       0       0       0       0       0
       0       0       0       0       0       0       0       0       0       0
       0       0       0       0       0       0       0       0       0       0
       0       0       0       0       0       0       0       0       0       0
       0       0       0       0       0       0       0       0       0       0
       0       0       0       0       0       0       0       0       0       0
       0       0       0       0       0       0       0       0       0       0
       0       0       0       0       0       0       0       0       0       0
       0       0       0       0       0       0       0       0       0       0
       0       0       0       0       0       0       0       0       0       0
       0       0       0       0       0       0       0       0       0       0
       0       0       0       0       0       0       0       0       0       0
       0       0       0       0       0       0       0       0       0       0
       0       0       0       0       0       0       0       0       0       0
       0       0       0       0       0       0       0       0       0       0
       0       0       0       0       0       0       0       0       0       0
       0       0       0       0       0       0       0       0       0       0
       0       0       0       0       0       0       0       0       0       0
       0       0       0       0       0       0       0       0       0       0
       0       0       0       0       0       0       0       0       0       0
       0       0       0       0       0       0       0       0       0       0
       0       0       0       0       0       0       0       0       0       0
       0       0       0       0       0       0       0       0       0       0
       0       0       0       0       0       0       0       0       0       0
       0       0       0       0       0       0       0       0       0       0
       0       0       0       0       0       0       0       0       0       0
       0       0       0       0       0       0       0       0       0       0
       0       0       0       0       0       0       0       0       0       0
       0       0       0       0       0       0       0       0       0       0
       0       0       0       0       0       0       0       0       0       0
       0       0       0       0       0       0       0       0       0       0
       0       0       0       0       0       0       0       0       0       0
       0       0       0       0       0       0       0       0       0       0
       0       0       0       0       0       0       0       0       0       0
       0       0       0       0       0       0       0       0       0       0
       0       0       0       0       0       0       0       0       0       0
       0       0       0       0       0       0       0       0       0       0
       0       0       0       0       0       0       0       0       0       0
       0       0       0       0       0       0       0       0       0       0
       0       0       0       0       0       0       0       0       0       0
       0       0       0       0       0       0       0       0       0       0
       0       0       0       0       0       0       0       0       0       0
       0       0       0       0       0       0       0       0       0       0
       0       0       0       0       0       0       0       0       0       0
       0       0       0       0       0       0       0       0       0       0
       0       0       0       0       0       0       0       0       0       0
       0       0       0       0       0       0       0       0       0       0
       0       0       0       0       0       0       0       0       0       0
       0       0       0       0       0       0       0       0       0       0
       0       0       0       0       0       0       0       0       0       0
       0       0       0       0       0       0       0       0       0       0
       0       0       0       0       0       0       0       0       0       0
       0       0       0       0       0       0       0       0       0       0
       0       0       0       0       0       0       0       0       0       0
       0       0       0       0       0       0       0       0       0       0
       0       0       0       0       0       0       0       0       0       0
       0       0       0       0       0       0       0       0       0       0
       0       0       0       0       0       0       0       0       0       0
       0       0       0       0       0       0       0       0       0       0
       0       0       0       0       0       0       0       0       0       0
       0       0       0       0       0       0       0       0       0       0
       0       0       0       0       0       0       0       0       0       0
       0       0       0       0       0       0       0       0       0       0
       0       0       0       0       0       0       0       0       0       0
       0       0       0       0       0       0       0       0       0       0
       0       0       0       0       0       0       0       0       0       0
       0       0       0       0       0       0       0       0       0       0
       0       0       0       0       0       0       0       0       0       0
       0       0       0       0       0       0       0       0       0       0
       0       0       0       0       0       0       0       0       0       0
       0       0       0       0       0       0       0       0       0       0
       0       0       0       0       0       0       0       0       0       0
       0       0       0       0       0       0       0       0       0       0
       0       0       0       0       0       0       0       0       0       0
       0       0       0       0       0       0       0       0       0       0
       0       0       0       0       0       0       0       0       0       0
       0       0       0       0       0       0       0       0       0       0
       0       0       0       0       0       0       0       0       0       0
       0       0       0       0       0       0       0       0       0       0
       0       0       0       0       0       0       0       0       0       0
       0       0       0       0       0       0       0       0       0       0
       0       0       0       0       0       0       0       0       0       0
       0       0       0       0       0       0       0       0       0       0
       0       0       0       0       0       0       0       0       0       0
       0       0       0       0       0       0       0       0       0       0
       0       0       0       0       0       0       0       0       0       0
       0       0       0       0       0       0       0       0       0       0
       0       0       0       0       0       0       0       0       0       0
       0       0       0       0       0       0       0       0       0       0
       0       0       0       0       0       0       0       0       0       0
       0       0       0       0       0       0       0       0       0       0
       0       0       0       0       0       0       0       0       0       0
       0       0       0       0       0       0       0       0       0       0
       0       0       0       0       0       0       0       0       0       0
       0       0       0       0       0       0       0       0       0       0
       0       0       0       0       0       0       0       0       0       0
       0       0       0       0       0       0       0       0       0       0
       0       0       0       0       0       0       0       0       0       0
       0       0       0       0       0       0       0       0       0       0
       0       0       0       0       0       0       0       0       0       0
       0       0       0       0       0       0       0       0       0       0
       0       0       0       0       0       0       0       0       0       0
       0       0       0       0       0       0       0       0       0       0
       0       0       0       0       0       0       0       0       0       0
       0       0       0       0       0       0       0       0       0       0
       0       0       0       0       0       0       0       0       0       0
       0       0       0       0       0       0       0       0       0       0
       0       0       0       0       0       0       0       0       0       0
       0       0       0       0       0       0       0       0       0       0
       0       0       0       0       0       0       0       0       0       0
       0       0       0       0       0       0       0       0       0       0
       0       0       0       0       0       0       0       0       0       0
       0       0       0       0       0       0       0       0       0       0
       0       0       0       0       0       0       0       0       0       0
       0       0       0       0       0       0       0       0       0       0
       0       0       0       0       0       0       0       0       0       0
       0       0       0       0       0       0       0       0       0       0
       0       0       0       0       0       0       0       0       0       0
       0       0       0       0       0       0       0       0       0       0
       0       0       0       0       0       0       0       0       0       0
       0       0       0       0       0       0       0       0       0       0
       0       0       0       0       0       0       0       0       0       0
       0       0       0       0       0       0       0       0       0       0
       0       0       0       0       0       0       0       0       0       0
       0       0       0       0       0       0       0       0       0       0
       0       0       0       0       0       0       0       0       0       0
       0       0       0       0       0       0       0       0       0       0
       0       0       0       0       0       0       0       0       0       0
       0       0       0       0       0       0       0       0       0       0
       0       0       0       0       0       0       0       0       0       0
       0       0       0       0       0       0       0       0       0       0
       0       0       0       0       0       0       0       0       0       0
       0       0       0       0       0       0       0       0       0       0
       0       0       0       0       0       0       0       0       0       0
       0       0       0       0       0       0       0       0       0       0
       0       0       0       0       0       0       0       0       0       0
       0       0       0       0       0       0       0       0       0       0
       0       0       0       0       0       0       0       0       0       0
       0       0       0       0       0       0       0       0       0       0
       0       0       0       0       0       0       0       0       0       0
       0       0       0       0       0       0       0       0       0       0
       0       0       0       0       0       0       0       0       0       0
       0       0       0       0       0       0       0       0       0       0
       0       0       0       0       0       0       0       0       0       0
       0       0       0       0       0       0       0       0       0       0
       0       0       0       0       0       0       0       0       0       0
       0       0       0       0       0       0       0       0       0       0
       0       0       0       0       0       0       0       0       0       0
       0       0       0       0       0       0       0       0       0       0
       0       0       0       0       0       0       0       0       0       0
       0       0       0       0       0       0       0       0       0       0
       0       0       0       0       0       0       0       0       0       0
       0       0       0       0       0       0       0       0       0       0
       0       0       0       0       0       0       0       0       0       0
       0       0       0       0       0       0       0       0       0       0
       0       0       0       0       0       0       0       0       0       0
       0       0       0       0       0       0       0       0       0       0
       0       0       0       0       0       0       0       0       0       0
       0       0       0       0       0       0       0       0       0       0
       0       0       0       0       0       0       0       0       0       0
       0       0       0       0       0       0       0       0       0       0
       0       0       0       0       0       0       0       0       0       0
       0       0       0       0       0       0       0       0       0       0
       0       0       0       0       0       0       0       0       0       0
       0       0       0       0       0       0       0       0       0       0
       0       0       0       0       0       0       0       0       0       0
       0       0       0       0       0       0       0       0       0       0
       0       0       0       0       0       0       0       0       0       0
       0       0       0       0       0       0       0       0       0       0
       0       0       0       0       0       0       0       0       0       0
       0       0       0       0       0       0       0       0       0       0
       0       0       0       0       0       0       0       0       0       0
       0       0       0       0       0       0       0       0       0       0
       0       0       0       0       0       0       0       0       0       0
       0       0       0       0       0       0       0       0       0       0
       0       0       0       0       0       0       0       0       0       0
       0       0       0       0       0       0       0       0       0       0
       0       0       0       0       0       0       0       0       0       0
       0       0       0       0       0       0       0       0       0       0
       0       0       0       0       0       0       0       0       0       0
       0       0       0       0       0       0       0       0       0       0
       0       0       0       0       0       0       0       0       0       0
       0       0       0       0       0       0       0       0       0       0
       0       0       0       0       0       0       0       0       0       0
       0       0       0       0       0       0       0       0       0       0
       0       0       0       0       0       0       0       0       0       0
       0       0       0       0       0       0       0       0       0       0
       0       0       0       0       0       0       0       0       0       0
       0       0       0       0       0       0       0       0       0       0
       0       0       0       0       0       0       0       0       0       0
       0       0       0       0       0       0       0       0       0       0
       0       0       0       0       0       0       0       0       0       0
       0       0       0       0       0       0       0       0       0       0
       0       0       0       0       0       0       0       0       0       0
       0       0       0       0       0       0       0       0       0       0
       0       0       0       0       0       0       0       0       0       0
       0       0       0       0       0       0       0       0       0       0
       0       0       0       0       0       0       0       0       0       0
       0       0       0       0       0       0       0       0       0       0
       0       0       0       0       0       0       0       0       0       0
       0       0       0       0       0       0       0       0       0       0
       0       0       0       0       0       0       0       0       0       0
       0       0       0       0       0       0       0       0       0       0
       0       0       0       0       0       0       0       0       0       0
       0       0       0       0       0       0       0       0       0       0
       0       0       0       0       0       0       0       0       0       0
       0       0       0       0       0       0       0       0       0       0
       0       0       0       0       0       0       0       0       0       0
       0       0       0       0       0       0       0       0       0       0
       0       0       0       0       0       0       0       0       0       0
       0       0       0       0       0       0       0       0       0       0
       0       0       0       0       0       0       0       0       0       0
       0       0       0       0       0       0       0       0       0       0
       0       0       0       0       0       0       0       0       0       0
       0       0       0       0       0       0       0       0       0       0
       0       0       0       0       0       0       0       0       0       0
       0       0       0       0       0       0       0       0       0       0
       0       0       0       0       0       0       0       0       0       0
       0       0       0       0       0       0       0       0       0       0
       0       0       0       0       0       0       0       0       0       0
       0       0       0       0       0       0       0       0       0       0
       0       0       0       0       0       0       0       0       0       0
       0       0       0       0       0       0       0       0       0       0
       0       0       0       0       0       0       0       0       0       0
       0       0       0       0       0       0       0       0       0       0
       0       0       0       0       0       0       0       0       0       0
       0       0       0       0       0       0       0       0       0       0
       0       0       0       0       0       0       0       0       0       0
       0       0       0       0       0       0       0       0       0       0
       0       0       0       0       0       0       0       0       0       0
       0       0       0       0       0       0       0       0       0       0
       0       0       0       0       0       0       0       0       0       0
       0       0       0       0       0       0       0       0       0       0
       0       0       0       0       0       0       0       0       0       0
       0       0       0       0       0       0       0       0       0       0
       0       0       0       0       0       0       0       0       0       0
       0       0       0       0       0       0       0       0       0       0
       0       0       0       0       0       0       0       0       0       0
       0       0       0       0       0       0       0       0       0       0
       0       0       0       0       0       0       0       0       0       0
       0       0       0       0       0       0       0       0       0       0
       0       0       0       0       0       0       0       0       0       0
       0       0       0       0       0       0       0       0       0       0
       0       0       0       0       0       0       0       0       0       0
       0       0       0       0       0       0       0       0       0       0
       0       0       0       0       0       0       0       0       0       0
       0       0       0       0       0       0       0       0       0       0
       0       0       0       0       0       0       0       0       0       0
       0       0       0       0       0       0       0       0       0       0
       0       0       0       0       0       0       0       0       0       0
       0       0       0       0       0       0       0       0       0       0
       0       0       0       0       0       0       0       0       0       0
       0       0       0       0       0       0       0       0       0       0
       0       0       0       0       0       0       0       0       0       0
       0       0       0       0       0       0       0       0       0       0
       0       0       0       0       0       0       0       0       0       0
       0       0       0       0       0       0       0       0       0       0
       0       0       0       0       0       0       0       0       0       0
       0       0       0       0       0       0       0       0       0       0
       0       0       0       0       0       0       0       0       0       0
       0       0       0       0       0       0       0       0       0       0
       0       0       0       0       0       0       0       0       0       0
       0       0       0       0       0       0       0       0       0       0
       0       0       0       0       0       0       0       0       0       0
       0       0       0       0       0       0       0       0       0       0
       0       0       0       0       0       0       0       0       0       0
       0       0       0       0       0       0       0       0       0       0
       0       0       0       0       0       0       0       0       0       0
       0       0       0       0       0       0       0       0       0       0
       0       0       0       0       0       0       0       0       0       0
       0       0       0       0       0       0       0       0       0       0
       0       0       0       0       0       0       0       0       0       0
       0       0       0       0       0       0       0       0       0       0
       0       0       0       0       0       0       0       0       0       0
       0       0       0       0       0       0       0       0       0       0
       0       0       0       0       0       0       0       0       0       0
       0       0       0       0       0       0       0       0       0       0
       0       0       0       0       0       0       0       0       0       0
       0       0       0       0       0       0       0       0       0       0
       0       0       0       0       0       0       0       0       0       0
       0       0       0       0       0       0       0       0       0       0
       0       0       0       0       0       0       0       0       0       0
       0       0       0       0       0       0       0       0       0       0
       0       0       0       0       0       0       0       0       0       0
       0       0       0       0       0       0       0       0       0       0
       0       0       0       0       0       0       0       0       0       0
       0       0       0       0       0       0       0       0       0       0
       0       0       0       0       0       0       0       0       0       0
       0       0       0       0       0       0       0       0       0       0
       0       0       0       0       0       0       0       0       0       0
       0       0       0       0       0       0       0       0       0       0
       0       0       0       0       0       0       0       0       0       0
       0       0       0       0       0       0       0       0       0       0
       0       0       0       0       0       0       0       0       0       0
       0       0       0       0       0       0       0       0       0       0
       0       0       0       0       0       0       0       0       0       0
       0       0       0       0       0       0       0       0       0       0
       0       0       0       0       0       0       0       0       0       0
       0       0       0       0       0       0       0       0       0       0
       0       0       0       0       0       0       0       0       0       0
       0       0       0       0       0       0       0       0       0       0
       0       0       0       0       0       0       0       0       0       0
       0       0       0       0       0       0       0       0       0       0
       0       0       0       0       0       0       0       0       0       0
       0       0       0       0       0       0       0       0       0       0
       0       0       0       0       0       0       0       0       0       0
       0       0       0       0       0       0       0       0       0       0
       0       0       0       0       0       0       0       0       0       0
       0       0       0       0       0       0       0       0       0       0
       0       0       0       0       0       0       0       0       0       0
       0       0       0       0       0       0       0       0       0       0
       0       0       0       0       0       0       0       0       0       0
       0       0       0       0       0       0       0       0       0       0
       0       0       0       0       0       0       0       0       0       0
       0       0       0       0       0       0       0       0       0       0
       0       0       0       0       0       0       0       0       0       0
       0       0       0       0       0       0       0       0       0       0
       0       0       0       0       0       0       0       0       0       0
       0       0       0       0       0       0       0       0       0       0
       0       0       0       0       0       0       0       0       0       0
       0       0       0       0       0       0       0       0       0       0
       0       0       0       0       0       0       0       0       0       0
       0       0       0       0       0       0       0       0       0       0
       0       0       0       0       0       0       0       0       0       0
       0       0       0       0       0       0       0       0       0       0
       0       0       0       0       0       0       0       0       0       0
       0       0       0       0       0       0       0       0       0       0
       0       0       0       0       0       0       0       0       0       0
       0       0       0       0       0       0       0       0       0       0
       0       0       0       0       0       0       0       0       0       0
       0       0       0       0       0       0       0       0       0       0
       0       0       0       0       0       0       0       0       0       0
       0       0       0       0       0       0       0       0       0       0
       0       0       0       0       0       0       0       0       0       0
       0       0       0       0       0       0       0       0       0       0
       0       0       0       0       0       0       0       0       0       0
       0       0       0       0       0       0       0       0       0       0
       0       0       0       0       0       0       0       0       0       0
       0       0       0       0       0       0       0       0       0       0
       0       0       0       0       0       0       0       0       0       0
       0       0       0       0       0       0       0       0       0       0
       0       0       0       0       0       0       0       0       0       0
       0       0       0       0       0       0       0       0       0       0
       0       0       0       0       0       0       0       0       0       0
       0       0       0       0       0       0       0       0       0       0
       0       0       0       0       0       0       0       0       0       0
       0       0       0       0       0       0       0       0       0       0
       0       0       0       0       0       0       0       0       0       0
       0       0       0       0       0       0       0       0       0       0
       0       0       0       0       0       0       0       0       0       0
       0       0       0       0       0       0       0       0       0       0
       0       0       0       0       0       0       0       0       0       0
       0       0       0       0       0       0       0       0       0       0
       0       0       0       0       0       0       0       0       0       0
       0       0       0       0       0       0       0       0       0       0
       0       0       0       0       0       0       0       0       0       0
       0       0       0       0       0       0       0       0       0       0
       0       0       0       0       0       0       0       0       0       0
       0       0       0       0       0       0       0       0       0       0
       0       0       0       0       0       0       0       0       0       0
       0       0       0       0       0       0       0       0       0       0
       0       0       0       0       0       0       0       0       0       0
       0       0       0       0       0       0       0       0       0       0
       0       0       0       0       0       0       0       0       0       0
       0       0       0       0       0       0       0       0       0       0
       0       0       0       0       0       0       0       0       0       0
       0       0       0       0       0       0       0       0       0       0
       0       0       0       0       0       0       0       0       0       0
       0       0       0       0       0       0       0       0       0       0
       0       0       0       0       0       0       0       0       0       0
       0       0       0       0       0       0       0       0       0       0
       0       0       0       0       0       0       0       0       0       0
       0       0       0       0       0       0       0       0       0       0
       0       0       0       0       0       0       0       0       0       0
       0       0       0       0       0       0       0       0       0       0
       0       0       0       0       0       0       0       0       0       0
       0       0       0       0       0       0       0       0       0       0
       0       0       0       0       0       0       0       0       0       0
       0       0       0       0       0       0       0       0       0       0
       0       0       0       0       0       0       0       0       0       0
       0       0       0       0       0       0       0       0       0       0
       0       0       0       0       0       0       0       0       0       0
       0       0       0       0       0       0       0       0       0       0
       0       0       0       0       0       0       0       0       0       0
       0       0       0       0       0       0       0       0       0       0
       0       0       0       0       0       0       0       0       0       0
       0       0       0       0       0       0       0       0       0       0
       0       0       0       0       0       0       0       0       0       0
       0       0       0       0       0       0       0       0       0       0
       0       0       0       0       0       0       0       0       0       0
       0       0       0       0       0       0       0       0       0       0
       0       0       0       0       0       0       0       0       0       0
       0       0       0       0       0       0       0       0       0       0
       0       0       0       0       0       0       0       0       0       0
       0       0       0       0       0       0       0       0       0       0
       0       0       0       0       0       0       0       0       0       0
       0       0       0       0       0       0       0       0       0       0
       0       0       0       0       0       0       0       0       0       0
       0       0       0       0       0       0       0       0       0       0
       0       0       0       0       0       0       0       0       0       0
       0       0       0       0       0       0       0       0       0       0
       0       0       0       0       0       0       0       0       0       0
       0       0       0       0       0       0       0       0       0       0
       0       0       0       0       0       0       0       0       0       0
       0       0       0       0       0       0       0       0       0       0
       0       0       0       0       0       0       0       0       0       0
       0       0       0       0       0       0       0       0       0       0
       0       0       0       0       0       0       0       0       0       0
       0       0       0       0       0       0       0       0       0       0
       0       0       0       0       0       0       0       0       0       0
       0       0       0       0       0       0       0       0       0       0
       0       0       0       0       0       0       0       0       0       0
       0       0       0       0       0       0       0       0       0       0
       0       0       0       0       0       0       0       0       0       0
       0       0       0       0       0       0       0       0       0       0
       0       0       0       0       0       0       0       0       0       0
       0       0       0       0       0       0       0       0       0       0
       0       0       0       0       0       0       0       0       0       0
       0       0       0       0       0       0       0       0       0       0
       0       0       0       0       0       0       0       0       0       0
       0       0       0       0       0       0       0       0       0       0
       0       0       0       0       0       0       0       0       0       0
       0       0       0       0       0       0       0       0       0       0
       0       0       0       0       0       0       0       0       0       0
       0       0       0       0       0       0       0       0       0       0
       0       0       0       0       0       0       0       0       0       0
       0       0       0       0       0       0       0       0       0       0
       0       0       0       0       0       0       0       0       0       0
       0       0       0       0       0       0       0       0       0       0
       0       0       0       0       0       0       0       0       0       0
       0       0       0       0       0       0       0       0       0       0
       0       0       0       0       0       0       0       0       0       0
       0       0       0       0       0       0       0       0       0       0
       0       0       0       0       0       0       0       0       0       0
       0       0       0       0       0       0       0       0       0       0
       0       0       0       0       0       0       0       0       0       0
       0       0       0       0       0       0       0       0       0       0
       0       0       0       0       0       0       0       0       0       0
       0       0       0       0       0       0       0       0       0       0
       0       0       0       0       0       0       0       0       0       0
       0       0       0       0       0       0       0       0       0       0
       0       0       0       0       0       0       0       0       0       0
       0       0       0       0       0       0       0       0       0       0
       0       0       0       0       0       0       0       0       0       0
       0       0       0       0       0       0       0       0       0       0
       0       0       0       0       0       0       0       0       0       0
       0       0       0       0       0       0       0       0       0       0
       0       0       0       0       0       0       0       0       0       0
       0       0       0       0       0       0       0       0       0       0
       0       0       0       0       0       0       0       0       0       0
       0       0       0       0       0       0       0       0       0       0
       0       0       0       0       0       0       0       0       0       0
       0       0       0       0       0       0       0       0       0       0
       0       0       0       0       0       0       0       0       0       0
       0       0       0       0       0       0       0       0       0       0
       0       0       0       0       0       0       0       0       0       0
       0       0       0       0       0       0       0       0       0       0
       0       0       0       0       0       0       0       0       0       0
       0       0       0       0       0       0       0       0       0       0
       0       0       0       0       0       0       0       0       0       0
       0       0       0       0       0       0       0       0       0       0
       0       0       0       0       0       0       0       0       0       0
       0       0       0       0       0       0       0       0       0       0
       0       0       0       0       0       0       0       0       0       0
       0       0       0       0       0       0       0       0       0       0
       0       0       0       0       0       0       0       0       0       0
       0       0       0       0       0       0       0       0       0       0
       0       0       0       0       0       0       0       0       0       0
       0       0       0       0       0       0       0       0       0       0
       0       0       0       0       0       0       0       0       0       0
       0       0       0       0       0       0       0       0       0       0
       0       0       0       0       0       0       0       0       0       0
       0       0       0       0       0       0       0       0       0       0
       0       0       0       0       0       0       0       0       0       0
       0       0       0       0       0       0       0       0       0       0
       0       0       0       0       0       0       0       0       0       0
       0       0       0       0       0       0       0       0       0       0
       0       0       0       0       0       0       0       0       0       0
       0       0       0       0       0       0       0       0       0       0
       0       0       0       0       0       0       0       0       0       0
       0       0       0       0       0       0       0       0       0       0
       0       0       0       0       0       0       0       0       0       0
       0       0       0       0       0       0       0       0       0       0
       0       0       0       0       0       0       0       0       0       0
       0       0       0       0       0       0       0       0       0       0
       0       0       0       0       0       0       0       0       0       0
       0       0       0       0       0       0       0       0       0       0
       0       0       0       0       0       0       0       0       0       0
       0       0       0       0       0       0       0       0       0       0
       0       0       0       0       0       0       0       0       0       0
       0       0       0       0       0       0       0       0       0       0
       0       0       0       0       0       0       0       0       0       0
       0       0       0       0       0       0       0       0       0       0
       0       0       0       0       0       0       0       0       0       0
       0       0       0       0       0       0       0       0       0       0
       0       0       0       0       0       0       0       0       0       0
       0       0       0       0       0       0       0       0       0       0
       0       0       0       0       0       0       0       0       0       0
       0       0       0       0       0       0       0       0       0       0
       0       0       0       0       0       0       0       0       0       0
       0       0       0       0       0       0       0       0       0       0
       0       0       0       0       0       0       0       0       0       0
       0       0       0       0       0       0       0       0       0       0
       0       0       0       0       0       0       0       0       0       0
       0       0       0       0       0       0       0       0       0       0
       0       0       0       0       0       0       0       0       0       0
       0       0       0       0       0       0       0       0       0       0
       0       0       0       0       0       0       0       0       0       0
       0       0       0       0       0       0       0       0       0       0
       0       0       0       0       0       0       0       0       0       0
       0       0       0       0       0       0       0       0       0       0
       0       0       0       0       0       0       0       0       0       0
       0       0       0       0       0       0       0       0       0       0
       0       0       0       0       0       0       0       0       0       0
       0       0       0       0       0       0       0       0       0       0
       0       0       0       0       0       0       0       0       0       0
       0       0       0       0       0       0       0       0       0       0
       0       0       0       0       0       0       0       0       0       0
       0       0       0       0       0       0       0       0       0       0
       0       0       0       0       0       0       0       0       0       0
       0       0       0       0       0       0       0       0       0       0
       0       0       0       0       0       0       0       0       0       0
       0       0       0       0       0       0       0       0       0       0
       0       0       0       0       0       0       0       0       0       0
       0       0       0       0       0       0       0       0       0       0
       0       0       0       0       0       0       0       0       0       0
       0       0       0       0       0       0       0       0       0       0
       0       0       0       0       0       0       0       0       0       0
       0       0       0       0       0       0       0       0       0       0
       0       0       0       0       0       0       0       0       0       0
       0       0       0       0       0       0       0       0       0       0
       0       0       0       0       0       0       0       0       0       0
       0       0       0       0       0       0       0       0       0       0
       0       0       0       0       0       0       0       0       0       0
       0       0       0       0       0       0       0       0       0       0
       0       0       0       0       0       0       0       0       0       0
       0       0       0       0       0       0       0       0       0       0
       0       0       0       0       0       0       0       0       0       0
       0       0       0       0       0       0       0       0       0       0
       0       0       0       0       0       0       0       0       0       0
       0       0       0       0       0       0       0       0       0       0
       0       0       0       0       0       0       0       0       0       0
       0       0       0       0       0       0       0       0       0       0
       0       0       0       0       0       0       0       0       0       0
       0       0       0       0       0       0       0       0       0       0
       0       0       0       0       0       0       0       0       0       0
       0       0       0       0       0       0       0       0       0       0
       0       0       0       0       0       0       0       0       0       0
       0       0       0       0       0       0       0       0       0       0
       0       0       0       0       0       0       0       0       0       0
       0       0       0       0       0       0       0       0       0       0
       0       0       0       0       0       0       0       0       0       0
       0       0       0       0       0       0       0       0       0       0
       0       0       0       0       0       0       0       0       0       0
       0       0       0       0       0       0       0       0       0       0
       0       0       0       0       0       0       0       0       0       0
       0       0       0       0       0       0       0       0       0       0
       0       0       0       0       0       0       0       0       0       0
       0       0       0       0       0       0       0       0       0       0
       0       0       0       0       0       0       0       0       0       0
       0       0       0       0       0       0       0       0       0       0
       0       0       0       0       0       0       0       0       0       0
       0       0       0       0       0       0       0       0       0       0
       0       0       0       0       0       0       0       0       0       0
       0       0       0       0       0       0       0       0       0       0
       0       0       0       0       0       0       0       0       0       0
       0       0       0       0       0       0       0       0       0       0
       0       0       0       0       0       0       0       0       0       0
       0       0       0       0       0       0       0       0       0       0
       0       0       0       0       0       0       0       0       0       0
       0       0       0       0       0       0       0       0       0       0
       0       0       0       0       0       0       0       0       0       0
       0       0       0       0       0       0       0       0       0       0
       0       0       0       0       0       0       0       0       0       0
       0       0       0       0       0       0       0       0       0       0
       0       0       0       0       0       0       0       0       0       0
       0       0       0       0       0       0       0       0       0       0
       0       0       0       0       0       0       0       0       0       0
       0       0       0       0       0       0       0       0       0       0
       0       0       0       0       0       0       0       0       0       0
       0       0       0       0       0       0       0       0       0       0
       0       0       0       0       0       0       0       0       0       0
       0       0       0       0       0       0       0       0       0       0
       0       0       0       0       0       0       0       0       0       0
       0       0       0       0       0       0       0       0       0       0
       0       0       0       0       0       0       0       0       0       0
       0       0       0       0       0       0       0       0       0       0
       0       0       0       0       0       0       0       0       0       0
       0       0       0       0       0       0       0       0       0       0
       0       0       0       0       0       0       0       0       0       0
       0       0       0       0       0       0       0       0       0       0
       0       0       0       0       0       0       0       0       0       0
       0       0       0       0       0       0       0       0       0       0
       0       0       0       0       0       0       0       0       0       0
       0       0       0       0       0       0       0       0       0       0
       0       0       0       0       0       0       0       0       0       0
       0       0       0       0       0       0       0       0       0       0
       0       0       0       0       0       0       0       0       0       0
       0       0       0       0       0       0       0       0       0       0
       0       0       0       0       0       0       0       0       0       0
       0       0       0       0       0       0       0       0       0       0
       0       0       0       0       0       0       0       0       0       0
       0       0       0       0       0       0       0       0       0       0
       0       0       0       0       0       0       0       0       0       0
       0       0       0       0       0       0       0       0       0       0
       0       0       0       0       0       0       0       0       0       0
       0       0       0       0       0       0       0       0       0       0
       0       0       0       0       0       0       0       0       0       0
       0       0       0       0       0       0       0       0       0       0
       0       0       0       0       0       0       0       0       0       0
       0       0       0       0       0       0       0       0       0       0
       0       0       0       0       0       0       0       0       0       0
       0       0       0       0       0       0       0       0       0       0
       0       0       0       0       0       0       0       0       0       0
       0       0       0       0       0       0       0       0       0       0
       0       0       0       0       0       0       0       0       0       0
       0       0       0       0       0       0       0       0       0       0
       0       0       0       0       0       0       0       0       0       0
       0       0       0       0       0       0       0       0       0       0
       0       0       0       0       0       0       0       0       0       0
       0       0       0       0       0       0       0       0       0       0
       0       0       0       0       0       0       0       0       0       0
       0       0       0       0       0       0       0       0       0       0
       0       0       0       0       0       0       0       0       0       0
       0       0       0       0       0       0       0       0       0       0
       0       0       0       0       0       0       0       0       0       0
       0       0       0       0       0       0       0       0       0       0
       0       0       0       0       0       0       0       0       0       0
       0       0       0       0       0       0       0       0       0       0
       0       0       0       0       0       0       0       0       0       0
       0       0       0       0       0       0       0       0       0       0
       0       0       0       0       0       0       0       0       0       0
       0       0       0       0       0       0       0       0       0       0
       0       0       0       0       0       0       0       0       0       0
       0       0       0       0       0       0       0       0       0       0
       0       0       0       0       0       0       0       0       0       0
       0       0       0       0       0       0       0       0       0       0
       0       0       0       0       0       0       0       0       0       0
       0       0       0       0       0       0       0       0       0       0
       0       0       0       0       0       0       0       0       0       0
       0       0       0       0       0       0       0       0       0       0
       0       0       0       0       0       0       0       0       0       0
       0       0       0       0       0       0       0       0       0       0
       0       0       0       0       0       0       0       0       0       0
       0       0       0       0       0       0       0       0       0       0
       0       0       0       0       0       0       0       0       0       0
       0       0       0       0       0       0       0       0       0       0
       0       0       0       0       0       0       0       0       0       0
       0       0       0       0       0       0       0       0       0       0
       0       0       0       0       0       0       0       0       0       0
       0       0       0       0       0       0       0       0       0       0
       0       0       0       0       0       0       0       0       0       0
       0       0       0       0       0       0       0       0       0       0
       0       0       0       0       0       0       0       0       0       0
       0       0       0       0       0       0       0       0       0       0
       0       0       0       0       0       0       0       0       0       0
       0       0       0       0       0       0       0       0       0       0
       0       0       0       0       0       0       0       0       0       0
       0       0       0       0       0       0       0       0       0       0
       0       0       0       0       0       0       0       0       0       0
       0       0       0       0       0       0       0       0       0       0
       0       0       0       0       0       0       0       0       0       0
       0       0       0       0       0       0       0       0       0       0
       0       0       0       0       0       0       0       0       0       0
       0       0       0       0       0       0       0       0       0       0
       0       0       0       0       0       0       0       0       0       0
       0       0       0       0       0       0       0       0       0       0
       0       0       0       0       0       0       0       0       0       0
       0       0       0       0       0       0       0       0       0       0
       0       0       0       0       0       0       0       0       0       0
       0       0       0       0       0       0       0       0       0       0
       0       0       0       0       0       0       0       0       0       0
       0       0       0       0       0       0       0       0       0       0
       0       0       0       0       0       0       0       0       0       0
       0       0       0       0       0       0       0       0       0       0
       0       0       0       0       0       0       0       0       0       0
       0       0       0       0       0       0       0       0       0       0
       0       0       0       0       0       0       0       0       0       0
       0       0       0       0       0       0       0       0       0       0
       0       0       0       0       0       0       0       0       0       0
       0       0       0       0       0       0       0       0       0       0
       0       0       0       0       0       0       0       0       0       0
       0       0       0       0       0       0       0       0       0       0
       0       0       0       0       0       0       0       0       0       0
       0       0       0       0       0       0       0       0       0       0
       0       0       0       0       0       0       0       0       0       0
       0       0       0       0       0       0       0       0       0       0
       0       0       0       0       0       0       0       0       0       0
       0       0       0       0       0       0       0       0       0       0
       0       0       0       0       0       0       0       0       0       0
       0       0       0       0       0       0       0       0       0       0
       0       0       0       0       0       0       0       0       0       0
       0       0       0       0       0       0       0       0       0       0
       0       0       0       0       0       0       0       0       0       0
       0       0       0       0       0       0       0       0       0       0
       0       0       0       0       0       0       0       0       0       0
       0       0       0       0       0       0       0       0       0       0
       0       0       0       0       0       0       0       0       0       0
       0       0       0       0       0       0       0       0       0       0
       0       0       0       0       0       0       0       0       0       0
       0       0       0       0       0       0       0       0       0       0
       0       0       0       0       0       0       0       0       0       0
       0       0       0       0       0       0       0       0       0       0
       0       0       0       0       0       0       0       0       0       0
       0       0       0       0       0       0       0       0       0       0
       0       0       0       0       0       0       0       0       0       0
       0       0       0       0       0       0       0       0       0       0
       0       0       0       0       0       0       0       0       0       0
       0       0       0       0       0       0       0       0       0       0
       0       0       0       0       0       0       0       0       0       0
       0       0       0       0       0       0       0       0       0       0
       0       0       0       0       0       0       0       0       0       0
       0       0       0       0       0       0       0       0       0       0
       0       0       0       0       0       0       0       0       0       0
       0       0       0       0       0       0       0       0       0       0
       0       0       0       0       0       0       0       0       0       0
       0       0       0       0       0       0       0       0       0       0
       0       0       0       0       0       0       0       0       0       0
       0       0       0       0       0       0       0       0       0       0
       0       0       0       0       0       0       0       0       0       0
       0       0       0       0       0       0       0       0       0       0
       0       0       0       0       0       0       0       0       0       0
       0       0       0       0       0       0       0       0       0       0
       0       0       0       0       0       0       0       0       0       0
       0       0       0       0       0       0       0       0       0       0
       0       0       0       0       0       0       0       0       0       0
       0       0       0       0       0       0       0       0       0       0
       0       0       0       0       0       0       0       0       0       0
       0       0       0       0       0       0       0       0       0       0
       0       0       0       0       0       0       0       0       0       0
       0       0       0       0       0       0       0       0       0       0
       0       0       0       0       0       0       0       0       0       0
       0       0       0       0       0       0       0       0       0       0
       0       0       0       0       0       0       0       0       0       0
       0       0       0       0       0       0       0       0       0       0
       0       0       0       0       0       0       0       0       0       0
       0       0       0       0       0       0       0       0       0       0
       0       0       0       0       0       0       0       0       0       0
       0       0       0       0       0       0       0       0       0       0
       0       0       0       0       0       0       0       0       0       0
       0       0       0       0       0       0       0       0       0       0
       0       0       0       0       0       0       0       0       0       0
       0       0       0       0       0       0       0       0       0       0
       0       0       0       0       0       0       0       0       0       0
       0       0       0       0       0       0       0       0       0       0
       0       0       0       0       0       0       0       0       0       0
       0       0       0       0       0       0       0       0       0       0
       0       0       0       0       0       0       0       0       0       0
       0       0       0       0       0       0       0       0       0       0
       0       0       0       0       0       0       0       0       0       0
       0       0       0       0       0       0       0       0       0       0
       0       0       0       0       0       0       0       0       0       0
       0       0       0       0       0       0       0       0       0       0
       0       0       0       0       0       0       0       0       0       0
       0       0       0       0       0       0       0       0       0       0
       0       0       0       0       0       0       0       0       0       0
       0       0       0       0       0       0       0       0       0       0
       0       0       0       0       0       0       0       0       0       0
       0       0       0       0       0       0       0       0       0       0
       0       0       0       0       0       0       0       0       0       0
       0       0       0       0       0       0       0       0       0       0
       0       0       0       0       0       0       0       0       0       0
       0       0       0       0       0       0       0       0       0       0
       0       0       0       0       0       0       0       0       0       0
       0       0       0       0       0       0       0       0       0       0
       0       0       0       0       0       0       0       0       0       0
       0       0       0       0       0       0       0       0       0       0
       0       0       0       0       0       0       0       0       0       0
       0       0       0       0       0       0       0       0       0       0
       0       0       0       0       0       0       0       0       0       0
       0       0       0       0       0       0       0       0       0       0
       0       0       0       0       0       0       0       0       0       0
       0       0       0       0       0       0       0       0       0       0
       0       0       0       0       0       0       0       0       0       0
       0       0       0       0       0       0       0       0       0       0
       0       0       0       0       0       0       0       0       0       0
       0       0       0       0       0       0       0       0       0       0
       0       0       0       0       0       0       0       0       0       0
       0       0       0       0       0       0       0       0       0       0
       0       0       0       0       0       0       0       0       0       0
       0       0       0       0       0       0       0       0       0       0
       0       0       0       0       0       0       0       0       0       0
       0       0       0       0       0       0       0       0       0       0
       0       0       0       0       0       0       0       0       0       0
       0       0       0       0       0       0       0       0       0       0
       0       0       0       0       0       0       0       0       0       0
       0       0       0       0       0       0       0       0       0       0
       0       0       0       0       0       0       0       0       0       0
       0       0       0       0       0       0       0       0       0       0
       0       0       0       0       0       0       0       0       0       0
       0       0       0       0       0       0       0       0       0       0
       0       0       0       0       0       0       0       0       0       0
       0       0       0       0       0       0       0       0       0       0
       0       0       0       0       0       0       0       0       0       0
       0       0       0       0       0       0       0       0       0       0
       0       0       0       0       0       0       0       0       0       0
       0       0       0       0       0       0       0       0       0       0
       0       0       0       0       0       0       0       0       0       0
       0       0       0       0       0       0       0       0       0       0
       0       0       0       0       0       0       0       0       0       0
       0       0       0       0       0       0       0       0       0       0
       0       0       0       0       0       0       0       0       0       0
       0       0       0       0       0       0       0       0       0       0
       0       0       0       0       0       0       0       0       0       0
       0       0       0       0       0       0       0       0       0       0
       0       0       0       0       0       0       0       0       0       0
       0       0       0       0       0       0       0       0       0       0
       0       0       0       0       0       0       0       0       0       0
       0       0       0       0       0       0       0       0       0       0
       0       0       0       0       0       0       0       0       0       0
       0       0       0       0       0       0       0       0       0       0
       0       0       0       0       0       0       0       0       0       0
       0       0       0       0       0       0       0       0       0       0
       0       0       0       0       0       0       0       0       0       0
       0       0       0       0       0       0       0       0       0       0
       0       0       0       0       0       0       0       0       0       0
       0       0       0       0       0       0       0       0       0       0
       0       0       0       0       0       0       0       0       0       0
       0       0       0       0       0       0       0       0       0       0
       0       0       0       0       0       0       0       0       0       0
       0       0       0       0       0       0       0       0       0       0
       0       0       0       0       0       0       0       0       0       0
       0       0       0       0       0       0       0       0       0       0
       0       0       0       0       0       0       0       0       0       0
       0       0       0       0       0       0       0       0       0       0
       0       0       0       0       0       0       0       0       0       0
       0       0       0       0       0       0       0       0       0       0
       0       0       0       0       0       0       0       0       0       0
       0       0       0       0       0       0       0       0       0       0
       0       0       0       0       0       0       0       0       0       0
       0       0       0       0       0       0       0       0       0       0
       0       0       0       0       0       0       0       0       0       0
       0       0       0       0       0       0       0       0       0       0
       0       0       0       0       0       0       0       0       0       0
       0       0       0       0       0       0       0       0       0       0
       0       0       0       0       0       0       0       0       0       0
       0       0       0       0       0       0       0       0       0       0
       0       0       0       0       0       0       0       0       0       0
       0       0       0       0       0       0       0       0       0       0
       0       0       0       0       0       0       0       0       0       0
       0       0       0       0       0       0       0       0       0       0
       0       0       0       0       0       0       0       0       0       0
       0       0       0       0       0       0       0       0       0       0
       0       0       0       0       0       0       0       0       0       0
       0       0       0       0       0       0       0       0       0       0
       0       0       0       0       0       0       0       0       0       0
       0       0       0       0       0       0       0       0       0       0
       0       0       0       0       0       0       0       0       0       0
       0       0       0       0       0       0       0       0       0       0
       0       0       0       0       0       0       0       0       0       0
       0       0       0       0       0       0       0       0       0       0
       0       0       0       0       0       0       0       0       0       0
       0       0       0       0       0       0       0       0       0       0
       0       0       0       0       0       0       0       0       0       0
       0       0       0       0       0       0       0       0       0       0
       0       0       0       0       0       0       0       0       0       0
       0       0       0       0       0       0       0       0       0       0
       0       0       0       0       0       0       0       0       0       0
       0       0       0       0       0       0       0       0       0       0
       0       0       0       0       0       0       0       0       0       0
       0       0       0       0       0       0       0       0       0       0
       0       0       0       0       0       0       0       0       0       0
       0       0       0       0       0       0       0       0       0       0
       0       0       0       0       0       0       0       0       0       0
       0       0       0       0       0       0       0       0       0       0
       0       0       0       0       0       0       0       0       0       0
       0       0       0       0       0       0       0       0       0       0
       0       0       0       0       0       0       0       0       0       0
       0       0       0       0       0       0       0       0       0       0
       0       0       0       0       0       0       0       0       0       0
       0       0       0       0       0       0       0       0       0       0
       0       0       0       0       0       0       0       0       0       0
       0       0       0       0       0       0       0       0       0       0
       0       0       0       0       0       0       0       0       0       0
       0       0       0       0       0       0       0       0       0       0
       0       0       0       0       0       0       0       0       0       0
       0       0       0       0       0       0       0       0       0       0
       0       0       0       0       0       0       0       0       0       0
       0       0       0       0       0       0       0       0       0       0
       0       0       0       0       0       0       0       0       0       0
       0       0       0       0       0       0       0       0       0       0
       0       0       0       0       0       0       0       0       0       0
       0       0       0       0       0       0       0       0       0       0
       0       0       0       0       0       0       0       0       0       0
       0       0       0       0       0       0       0       0       0       0
       0       0       0       0       0       0       0       0       0       0
       0       0       0       0       0       0       0       0       0       0
       0       0       0       0       0       0       0       0       0       0
       0       0       0       0       0       0       0       0       0       0
       0       0       0       0       0       0       0       0       0       0
       0       0       0       0       0       0       0       0       0       0
       0       0       0       0       0       0       0       0       0       0
       0       0       0       0       0       0       0       0       0       0
       0       0       0       0       0       0       0       0       0       0
       0       0       0       0       0       0       0       0       0       0
       0       0       0       0       0       0       0       0       0       0
       0       0       0       0       0       0       0       0       0       0
       0       0       0       0       0       0       0       0       0       0
       0       0       0       0       0       0       0       0       0       0
       0       0       0       0       0       0       0       0       0       0
       0       0       0       0       0       0       0       0       0       0
       0       0       0       0       0       0       0       0       0       0
       0       0       0       0       0       0       0       0       0       0
       0       0       0       0       0       0       0       0       0       0
       0       0       0       0       0       0       0       0       0       0
       0       0       0       0       0       0       0       0       0       0
       0       0       0       0       0       0       0       0       0       0
       0       0       0       0       0       0       0       0       0       0
       0       0       0       0       0       0       0       0       0       0
       0       0       0       0       0       0       0       0       0       0
       0       0       0       0       0       0       0       0       0       0
       0       0       0       0       0       0       0       0       0       0
       0       0       0       0       0       0       0       0       0       0
       0       0       0       0       0       0       0       0       0       0
       0       0       0       0       0       0       0       0       0       0
       0       0       0       0       0       0       0       0       0       0
       0       0       0       0       0       0       0       0       0       0
       0       0       0       0       0       0       0       0       0       0
       0       0       0       0       0       0       0       0       0       0
       0       0       0       0       0       0       0       0       0       0
       0       0       0       0       0       0       0       0       0       0
       0       0       0       0       0       0       0       0       0       0
       0       0       0       0       0       0       0       0       0       0
       0       0       0       0       0       0       0       0       0       0
       0       0       0       0       0       0       0       0       0       0
       0       0       0       0       0       0       0       0       0       0
       0       0       0       0       0       0       0       0       0       0
       0       0       0       0       0       0       0       0       0       0
       0       0       0       0       0       0       0       0       0       0
       0       0       0       0       0       0       0       0       0       0
       0       0       0       0       0       0       0       0       0       0
       0       0       0       0       0       0       0       0       0       0
       0       0       0       0       0       0       0       0       0       0
       0       0       0       0       0       0       0       0       0       0
       0       0       0       0       0       0       0       0       0       0
       0       0       0       0       0       0       0       0       0       0
       0       0       0       0       0       0       0       0       0       0
       0       0       0       0       0       0       0       0       0       0
       0       0       0       0       0       0       0       0       0       0
       0       0       0       0       0       0       0       0       0       0
       0       0       0       0       0       0       0       0       0       0
       0       0       0       0       0       0       0       0       0       0
       0       0       0       0       0       0       0       0       0       0
       0       0       0       0       0       0       0       0       0       0
       0       0       0       0       0       0       0       0       0       0
       0       0       0       0       0       0       0       0       0       0
       0       0       0       0       0       0       0       0       0       0
       0       0       0       0       0       0       0       0       0       0
       0       0       0       0       0       0       0       0       0       0
       0       0       0       0       0       0       0       0       0       0
       0       0       0       0       0       0       0       0       0       0
       0       0       0       0       0       0       0       0       0       0
       0       0       0       0       0       0       0       0       0       0
       0       0       0       0       0       0       0       0       0       0
       0       0       0       0       0       0       0       0       0       0
       0       0       0       0       0       0       0       0       0       0
       0       0       0       0       0       0       0       0       0       0
       0       0       0       0       0       0       0       0       0       0
       0       0       0       0       0       0       0       0       0       0
       0       0       0       0       0       0       0       0       0       0
       0       0       0       0       0       0       0       0       0       0
       0       0       0       0       0       0       0       0       0       0
       0       0       0       0       0       0       0       0       0       0
       0       0       0       0       0       0       0       0       0       0
       0       0       0       0       0       0       0       0       0       0
       0       0       0       0       0       0       0       0       0       0
       0       0       0       0       0       0       0       0       0       0
       0       0       0       0       0       0       0       0       0       0
       0       0       0       0       0       0       0       0       0       0
       0       0       0       0       0       0       0       0       0       0
       0       0       0       0       0       0       0       0       0       0
       0       0       0       0       0       0       0       0       0       0
       0       0       0       0       0       0       0       0       0       0
       0       0       0       0       0       0       0       0       0       0
       0       0       0       0       0       0       0       0       0       0
       0       0       0       0       0       0       0       0       0       0
       0       0       0       0       0       0       0       0       0       0
       0       0       0       0       0       0       0       0       0       0
       0       0       0       0       0       0       0       0       0       0
       0       0       0       0       0       0       0       0       0       0
       0       0       0       0       0       0       0       0       0       0
       0       0       0       0       0       0       0       0       0       0
       0       0       0       0       0       0       0       0       0       0
       0       0       0       0       0       0       0       0       0       0
       0       0       0       0       0       0       0       0       0       0
       0       0       0       0       0       0       0       0       0       0
       0       0       0       0       0       0       0       0       0       0
       0       0       0       0       0       0       0       0       0       0
       0       0       0       0       0       0       0       0       0       0
       0       0       0       0       0       0       0       0       0       0
       0       0       0       0       0       0       0       0       0       0
       0       0       0       0       0       0       0       0       0       0
       0       0       0       0       0       0       0       0       0       0
       0       0       0       0       0       0       0       0       0       0
       0       0       0       0       0       0       0       0       0       0
       0       0       0       0       0       0       0       0       0       0
       0       0       0       0       0       0       0       0       0       0
       0       0       0       0       0       0       0       0       0       0
       0       0       0       0       0       0       0       0       0       0
       0       0       0       0       0       0       0       0       0       0
       0       0       0       0       0       0       0       0       0       0
       0       0       0       0       0       0       0       0       0       0
       0       0       0       0       0       0       0       0       0       0
       0       0       0       0       0       0       0       0       0       0
       0       0       0       0       0       0       0       0       0       0
       0       0       0       0       0       0       0       0       0       0
       0       0       0       0       0       0       0       0       0       0
       0       0       0       0       0       0       0       0       0       0
       0       0       0       0       0       0       0       0       0       0
       0       0       0       0       0       0       0       0       0       0
       0       0       0       0       0       0       0       0       0       0
       0       0       0       0       0       0       0       0       0       0
       0       0       0       0       0       0       0       0       0       0
       0       0       0       0       0       0       0       0       0       0
       0       0       0       0       0       0       0       0       0       0
       0       0       0       0       0       0       0       0       0       0
       0       0       0       0       0       0       0       0       0       0
       0       0       0       0       0       0       0       0       0       0
       0       0       0       0       0       0       0       0       0       0
       0       0       0       0       0       0       0       0       0       0
       0       0       0       0       0       0       0       0       0       0
       0       0       0       0       0       0       0       0       0       0
       0       0       0       0       0       0       0       0       0       0
       0       0       0       0       0       0       0       0       0       0
       0       0       0       0       0       0       0       0       0       0
       0       0       0       0       0       0       0       0       0       0
       0       0       0       0       0       0       0       0       0       0
       0       0       0       0       0       0       0       0       0       0
       0       0       0       0       0       0       0       0       0       0
       0       0       0       0       0       0       0       0       0       0
       0       0       0       0       0       0       0       0       0       0
       0       0       0       0       0       0       0       0       0       0
       0       0       0       0       0       0       0       0       0       0
       0       0       0       0       0       0       0       0       0       0
       0       0       0       0       0       0       0       0       0       0
       0       0       0       0       0       0       0       0       0       0
       0       0       0       0       0       0       0       0       0       0
       0       0       0       0       0       0       0       0       0       0
       0       0       0       0       0       0       0       0       0       0
       0       0       0       0       0       0       0       0       0       0
       0       0       0       0       0       0       0       0       0       0
       0       0       0       0       0       0       0       0       0       0
       0       0       0       0       0       0       0       0       0       0
       0       0       0       0       0       0       0       0       0       0
       0       0       0       0       0       0       0       0       0       0
       0       0       0       0       0       0       0       0       0       0
       0       0       0       0       0       0       0       0       0       0
       0       0       0       0       0       0       0       0       0       0
       0       0       0       0       0       0       0       0       0       0
       0       0       0       0       0       0       0       0       0       0
       0       0       0       0       0       0       0       0       0       0
       0       0       0       0       0       0       0       0       0       0
       0       0       0       0       0       0       0       0       0       0
       0       0       0       0       0       0       0       0       0       0
       0       0       0       0       0       0       0       0       0       0
       0       0       0       0       0       0       0       0       0       0
       0       0       0       0       0       0       0       0       0       0
       0       0       0       0       0       0       0       0       0       0
       0       0       0       0       0       0       0       0       0       0
       0       0       0       0       0       0       0       0       0       0
       0       0       0       0       0       0       0       0       0       0
       0       0       0       0       0       0       0       0       0       0
       0       0       0       0       0       0       0       0       0       0
       0       0       0       0       0       0       0       0       0       0
       0       0       0       0       0       0       0       0       0       0
       0       0       0       0       0       0       0       0       0       0
       0       0       0       0       0       0       0       0       0       0
       0       0       0       0       0       0       0       0       0       0
       0       0       0       0       0       0       0       0       0       0
       0       0       0       0       0       0       0       0       0       0
       0       0       0       0       0       0       0       0       0       0
       0       0       0       0       0       0       0       0       0       0
       0       0       0       0       0       0       0       0       0       0
       0       0       0       0       0       0       0       0       0       0
       0       0       0       0       0       0       0       0       0       0
       0       0       0       0       0       0       0       0       0       0
       0       0       0       0       0       0       0       0       0       0
       0       0       0       0       0       0       0       0       0       0
       0       0       0       0       0       0       0       0       0       0
       0       0       0       0       0       0       0       0       0       0
       0       0       0       0       0       0       0       0       0       0
       0       0       0       0       0       0       0       0       0       0
       0       0       0       0       0       0       0       0       0       0
       0       0       0       0       0       0       0       0       0       0
       0       0       0       0       0       0       0       0       0       0
       0       0       0       0       0       0       0       0       0       0
       0       0       0       0       0       0       0       0       0       0
       0       0       0       0       0       0       0       0       0       0
       0       0       0       0       0       0       0       0       0       0
       0       0       0       0       0       0       0       0       0       0
       0       0       0       0       0       0       0       0       0       0
       0       0       0       0       0       0       0       0       0       0
       0       0       0       0       0       0       0       0       0       0
       0       0       0       0       0       0       0       0       0       0
       0       0       0       0       0       0       0       0       0       0
       0       0       0       0       0       0       0       0       0       0
       0       0       0       0       0       0       0       0       0       0
       0       0       0       0       0       0       0       0       0       0
       0       0       0       0       0       0       0       0       0       0
       0       0       0       0       0       0       0       0       0       0
       0       0       0       0       0       0       0       0       0       0
       0       0       0       0       0       0       0       0       0       0
       0       0       0       0       0       0       0       0       0       0
       0       0       0       0       0       0       0       0       0       0
       0       0       0       0       0       0       0       0       0       0
       0       0       0       0       0       0       0       0       0       0
       0       0       0       0       0       0       0       0       0       0
       0       0       0       0       0       0       0       0       0       0
       0       0       0       0       0       0       0       0       0       0
       0       0       0       0       0       0       0       0       0       0
       0       0       0       0       0       0       0       0       0       0
       0       0       0       0       0       0       0       0       0       0
       0       0       0       0       0       0       0       0       0       0
       0       0       0       0       0       0       0       0       0       0
       0       0       0       0       0       0       0       0       0       0
       0       0       0       0       0       0       0       0       0       0
       0       0       0       0       0       0       0       0       0       0
       0       0       0       0       0       0       0       0       0       0
       0       0       0       0       0       0       0       0       0       0
       0       0       0       0       0       0       0       0       0       0
       0       0       0       0       0       0       0       0       0       0
       0       0       0       0       0       0       0       0       0       0
       0       0       0       0       0       0       0       0       0       0
       0       0       0       0       0       0       0       0       0       0
       0       0       0       0       0       0       0       0       0       0
       0       0       0       0       0       0       0       0       0       0
       0       0       0       0       0       0       0       0       0       0
       0       0       0       0       0       0       0       0       0       0
       0       0       0       0       0       0       0       0       0       0
       0       0       0       0       0       0       0       0       0       0
       0       0       0       0       0       0       0       0       0       0
       0       0       0       0       0       0       0       0       0       0
       0       0       0       0       0       0       0       0       0       0
       0       0       0       0       0       0       0       0       0       0
       0       0       0       0       0       0       0       0       0       0
       0       0       0       0       0       0       0       0       0       0
       0       0       0       0       0       0       0       0       0       0
       0       0       0       0       0       0       0       0       0       0
       0       0       0       0       0       0       0       0       0       0
       0       0       0       0       0       0       0       0       0       0
       0       0       0       0       0       0       0       0       0       0
       0       0       0       0       0       0       0       0       0       0
       0       0       0       0       0       0       0       0       0       0
       0       0       0       0       0       0       0       0       0       0
       0       0       0       0       0       0       0       0       0       0
       0       0       0       0       0       0       0       0       0       0
       0       0       0       0       0       0       0       0       0       0
       0       0       0       0       0       0       0       0       0       0
       0       0       0       0       0       0       0       0       0       0
       0       0       0       0       0       0       0       0       0       0
       0       0       0       0       0       0       0       0       0       0
       0       0       0       0       0       0       0       0       0       0
       0       0       0       0       0       0       0       0       0       0
       0       0       0       0       0       0       0       0       0       0
       0       0       0       0       0       0       0       0       0       0
       0       0       0       0       0       0       0       0       0       0
       0       0       0       0       0       0       0       0       0       0
       0       0       0       0       0       0       0       0       0       0
       0       0       0       0       0       0       0       0       0       0
       0       0       0       0       0       0       0       0       0       0
       0       0       0       0       0       0       0       0       0       0
       0       0       0       0       0       0       0       0       0       0
       0       0       0       0       0       0       0       0       0       0
       0       0       0       0       0       0       0       0       0       0
       0       0       0       0       0       0       0       0       0       0
       0       0       0       0       0       0       0       0       0       0
       0       0       0       0       0       0       0       0       0       0
       0       0       0       0       0       0       0       0       0       0
       0       0       0       0       0       0       0       0       0       0
       0       0       0       0       0       0       0       0       0       0
       0       0       0       0       0       0       0       0       0       0
       0       0       0       0       0       0       0       0       0       0
       0       0       0       0       0       0       0       0       0       0
       0       0       0       0       0       0       0       0       0       0
       0       0       0       0       0       0       0       0       0       0
       0       0       0       0       0       0       0       0       0       0
       0       0       0       0       0       0       0       0       0       0
       0       0       0       0       0       0       0       0       0       0
       0       0       0       0       0       0       0       0       0       0
       0       0       0       0       0       0       0       0       0       0
       0       0       0       0       0       0       0       0       0       0
       0       0       0       0       0       0       0       0       0       0
       0       0       0       0       0       0       0       0       0       0
       0       0       0       0       0       0       0       0       0       0
       0       0       0       0       0       0       0       0       0       0
       0       0       0       0       0       0       0       0       0       0
       0       0       0       0       0       0       0       0       0       0
       0       0       0       0       0       0       0       0       0       0
       0       0       0       0       0       0       0       0       0       0
       0       0       0       0       0       0       0       0       0       0
       0       0       0       0       0       0       0       0       0       0
       0       0       0       0       0       0       0       0       0       0
       0       0       0       0       0       0       0       0       0       0
       0       0       0       0       0       0       0       0       0       0
       0       0       0       0       0       0       0       0       0       0
       0       0       0       0       0       0       0       0       0       0
       0       0       0       0       0       0       0       0       0       0
       0       0       0       0       0       0       0       0       0       0
       0       0       0       0       0       0       0       0       0       0
       0       0       0       0       0       0       0       0       0       0
       0       0       0       0       0       0       0       0       0       0
       0       0       0       0       0       0       0       0       0       0
       0       0       0       0       0       0       0       0       0       0
       0       0       0       0       0       0       0       0       0       0
       0       0       0       0       0       0       0       0       0       0
       0       0       0       0       0       0       0       0       0       0
       0       0       0       0       0       0       0       0       0       0
       0       0       0       0       0       0       0       0       0       0
       0       0       0       0       0       0       0       0       0       0
       0       0       0       0       0       0       0       0       0       0
       0       0       0       0       0       0       0       0       0       0
       0       0       0       0       0       0       0       0       0       0
       0       0       0       0       0       0       0       0       0       0
       0       0       0       0       0       0       0       0       0       0
       0       0       0       0       0       0       0       0       0       0
       0       0       0       0       0       0       0       0       0       0
       0       0       0       0       0       0       0       0       0       0
       0       0       0       0       0       0       0       0       0       0
       0       0       0       0       0       0       0       0       0       0
       0       0       0       0       0       0       0       0       0       0
       0       0       0       0       0       0       0       0       0       0
       0       0       0       0       0       0       0       0       0       0
       0       0       0       0       0       0       0       0       0       0
       0       0       0       0       0       0       0       0       0       0
       0       0       0       0       0       0       0       0       0       0
       0       0       0       0       0       0       0       0       0       0
       0       0       0       0       0       0       0       0       0       0
       0       0       0       0       0       0       0       0       0       0
       0       0       0       0       0       0       0       0       0       0
       0       0       0       0       0       0       0       0       0       0
       0       0       0       0       0       0       0       0       0       0
       0       0       0       0       0       0       0       0       0       0
       0       0       0       0       0       0       0       0       0       0
       0       0       0       0       0       0       0       0       0       0
       0       0       0       0       0       0       0       0       0       0
       0       0       0       0       0       0       0       0       0       0
       0       0       0       0       0       0       0       0       0       0
       0       0       0       0       0       0       0       0       0       0
       0       0       0       0       0       0       0       0       0       0
       0       0       0       0       0       0       0       0       0       0
       0       0       0       0       0       0       0       0       0       0
       0       0       0       0       0       0       0       0       0       0
       0       0       0       0       0       0       0       0       0       0
       0       0       0       0       0       0       0       0       0       0
       0       0       0       0       0       0       0       0       0       0
       0       0       0       0       0       0       0       0       0       0
       0       0       0       0       0       0       0       0       0       0
       0       0       0       0       0       0       0       0       0       0
       0       0       0       0       0       0       0       0       0       0
       0       0       0       0       0       0       0       0       0       0
       0       0       0       0       0       0       0       0       0       0
       0       0       0       0       0       0       0       0       0       0
       0       0       0       0       0       0       0       0       0       0
       0       0       0       0       0       0       0       0       0       0
       0       0       0       0       0       0       0       0       0       0
       0       0       0       0       0       0       0       0       0       0
       0       0       0       0       0       0       0       0       0       0
       0       0       0       0       0       0       0       0       0       0
       0       0       0       0       0       0       0       0       0       0
       0       0       0       0       0       0       0       0       0       0
       0       0       0       0       0       0       0       0       0       0
       0       0       0       0       0       0       0       0       0       0
       0       0       0       0       0       0       0       0       0       0
       0       0       0       0       0       0       0       0       0       0
       0       0       0       0       0       0       0       0       0       0
       0       0       0       0       0       0       0       0       0       0
       0       0       0       0       0       0       0       0       0       0
       0       0       0       0       0       0       0       0       0       0
       0       0       0       0       0       0       0       0       0       0
       0       0       0       0       0       0       0       0       0       0
       0       0       0       0       0       0       0       0       0       0
       0       0       0       0       0       0       0       0       0       0
       0       0       0       0       0       0       0       0       0       0
       0       0       0       0       0       0       0       0       0       0
       0       0       0       0       0       0       0       0       0       0
       0       0       0       0       0       0       0       0       0       0
       0       0       0       0       0       0       0       0       0       0
       0       0       0       0       0       0       0       0       0       0
       0       0       0       0       0       0       0       0       0       0
       0       0       0       0       0       0       0       0       0       0
       0       0       0       0       0       0       0       0       0       0
       0       0       0       0       0       0       0       0       0       0
       0       0       0       0       0       0       0       0       0       0
       0       0       0       0       0       0       0       0       0       0
       0       0       0       0       0       0       0       0       0       0
       0       0       0       0       0       0       0       0       0       0
       0       0       0       0       0       0       0       0       0       0
       0       0       0       0       0       0       0       0       0       0
       0       0       0       0       0       0       0       0       0       0
       0       0       0       0       0       0       0       0       0       0
       0       0       0       0       0       0       0       0       0       0
       0       0       0       0       0       0       0       0       0       0
       0       0       0       0       0       0       0       0       0       0
       0       0       0       0       0       0       0       0       0       0
       0       0       0       0       0       0       0       0       0       0
       0       0       0       0       0       0       0       0       0       0
       0       0       0       0       0       0       0       0       0       0
       0       0       0       0       0       0       0       0       0       0
       0       0       0       0       0       0       0       0       0       0
       0       0       0       0       0       0       0       0       0       0
       0       0       0       0       0       0       0       0       0       0
       0       0       0       0       0       0       0       0       0       0
       0       0       0       0       0       0       0       0       0       0
       0       0       0       0       0       0       0       0       0       0
       0       0       0       0       0       0       0       0       0       0
       0       0       0       0       0       0       0       0       0       0
       0       0       0       0       0       0       0       0       0       0
       0       0       0       0       0       0       0       0       0       0
       0       0       0       0       0       0       0       0       0       0
       0       0       0       0       0       0       0       0       0       0
       0       0       0       0       0       0       0       0       0       0
       0       0       0       0       0       0       0       0       0       0
       0       0       0       0       0       0       0       0       0       0
       0       0       0       0       0       0       0       0       0       0
       0       0       0       0       0       0       0       0       0       0
       0       0       0       0       0       0       0       0       0       0
       0       0       0       0       0       0       0       0       0       0
       0       0       0       0       0       0       0       0       0       0
       0       0       0       0       0       0       0       0       0       0
       0       0       0       0       0       0       0       0       0       0
       0       0       0       0       0       0       0       0       0       0
       0       0       0       0       0       0       0       0       0       0
       0       0       0       0       0       0       0       0       0       0
       0       0       0       0       0       0       0       0       0       0
       0       0       0       0       0       0       0       0       0       0
       0       0       0       0       0       0       0       0       0       0
       0       0       0       0       0       0       0       0       0       0
       0       0       0       0       0       0       0       0       0       0
       0       0       0       0       0       0       0       0       0       0
       0       0       0       0       0       0       0       0       0       0
       0       0       0       0       0       0       0       0       0       0
       0       0       0       0       0       0       0       0       0       0
       0       0       0       0       0       0       0       0       0       0
       0       0       0       0       0       0       0       0       0       0
       0       0       0       0       0       0       0       0       0       0
       0       0       0       0       0       0       0       0       0       0
       0       0       0       0       0       0       0       0       0       0
       0       0       0       0       0       0       0       0       0       0
       0       0       0       0       0       0       0       0       0       0
       0       0       0       0       0       0       0       0       0       0
       0       0       0       0       0       0       0       0       0       0
       0       0       0       0       0       0       0       0       0       0
       0       0       0       0       0       0       0       0       0       0
       0       0       0       0       0       0       0       0       0       0
       0       0       0       0       0       0       0       0       0       0
       0       0       0       0       0       0       0       0       0       0
       0       0       0       0       0       0       0       0       0       0
       0       0       0       0       0       0       0       0       0       0
       0       0       0       0       0       0       0       0       0       0
       0       0       0       0       0       0       0       0       0       0
       0       0       0       0       0       0       0       0       0       0
       0       0       0       0       0       0       0       0       0       0
       0       0       0       0       0       0       0       0       0       0
       0       0       0       0       0       0       0       0       0       0
       0       0       0       0       0       0       0       0       0       0
       0       0       0       0       0       0       0       0       0       0
       0       0       0       0       0       0       0       0       0       0
       0       0       0       0       0       0       0       0       0       0
       0       0       0       0       0       0       0       0       0       0
       0       0       0       0       0       0       0       0       0       0
       0       0       0       0       0       0       0       0       0       0
       0       0       0       0       0       0       0       0       0       0
       0       0       0       0       0       0       0       0       0       0
       0       0       0       0       0       0       0       0       0       0
       0       0       0       0       0       0       0       0       0       0
       0       0       0       0       0       0       0       0       0       0
       0       0       0       0       0       0       0       0       0       0
       0       0       0       0       0       0       0       0       0       0
       0       0       0       0       0       0       0       0       0       0
       0       0       0       0       0       0       0       0       0       0
       0       0       0       0       0       0       0       0       0       0
       0       0       0       0       0       0       0       0       0       0
       0       0       0       0       0       0       0       0       0       0
       0       0       0       0       0       0       0       0       0       0
       0       0       0       0       0       0       0       0       0       0
       0       0       0       0       0       0       0       0       0       0
       0       0       0       0       0       0       0       0       0       0
       0       0       0       0       0       0       0       0       0       0
       0       0       0       0       0       0       0       0       0       0
       0       0       0       0       0       0       0       0       0       0
       0       0       0       0       0       0       0       0       0       0
       0       0       0       0       0       0       0       0       0       0
       0       0       0       0       0       0       0       0       0       0
       0       0       0       0       0       0       0       0       0       0
       0       0       0       0       0       0       0       0       0       0
       0       0       0       0       0       0       0       0       0       0
       0       0       0       0       0       0       0       0       0       0
       0       0       0       0       0       0       0       0       0       0
       0       0       0       0       0       0       0       0       0       0
       0       0       0       0       0       0       0       0       0       0
       0       0       0       0       0       0       0       0       0       0
       0       0       0       0       0       0       0       0       0       0
       0       0       0       0       0       0       0       0       0       0
       0       0       0       0       0       0       0       0       0       0
       0       0       0       0       0       0       0       0       0       0
       0       0       0       0       0       0       0       0       0       0
       0       0       0       0       0       0       0       0       0       0
       0       0       0       0       0       0       0       0       0       0
       0       0       0       0       0       0       0       0       0       0
       0       0       0       0       0       0       0       0       0       0
       0       0       0       0       0       0       0       0       0       0
       0       0       0       0       0       0       0       0       0       0
       0       0       0       0       0       0       0       0       0       0
       0       0       0       0       0       0       0       0       0       0
       0       0       0       0       0       0       0       0       0       0
       0       0       0       0       0       0       0       0       0       0
       0       0       0       0       0       0       0       0       0       0
       0       0       0       0       0       0       0       0       0       0
       0       0       0       0       0       0       0       0       0       0
       0       0       0       0       0       0       0       0       0       0
       0       0       0       0       0       0       0       0       0       0
       0       0       0       0       0       0       0       0       0       0
       0       0       0       0       0       0       0       0       0       0
       0       0       0       0       0       0       0       0       0       0
       0       0       0       0       0       0       0       0       0       0
       0       0       0       0       0       0       0       0       0       0
       0       0       0       0       0       0       0       0       0       0
       0       0       0       0       0       0       0       0       0       0
       0       0       0       0       0       0       0       0       0       0
       0       0       0       0       0       0       0       0       0       0
       0       0       0       0       0       0       0       0       0       0
       0       0       0       0       0       0       0       0       0       0
       0       0       0       0       0       0       0       0       0       0
       0       0       0       0       0       0       0       0       0       0
       0       0       0       0       0       0       0       0       0       0
       0       0       0       0       0       0       0       0       0       0
       0       0       0       0       0       0       0       0       0       0
       0       0       0       0       0       0       0       0       0       0
       0       0       0       0       0       0       0       0       0       0
       0       0       0       0       0       0       0       0       0       0
       0       0       0       0       0       0       0       0       0       0
       0       0       0       0       0       0       0       0       0       0
       0       0       0       0       0       0       0       0       0       0
       0       0       0       0       0       0       0       0       0       0
       0       0       0       0       0       0       0       0       0       0
       0       0       0       0       0       0       0       0       0       0
       0       0       0       0       0       0       0       0       0       0
       0       0       0       0       0       0       0       0       0       0
       0       0       0       0       0       0       0       0       0       0
       0       0       0       0       0       0       0       0       0       0
       0       0       0       0       0       0       0       0       0       0
       0       0       0       0       0       0       0       0       0       0
       0       0       0       0       0       0       0       0       0       0
       0       0       0       0       0       0       0       0       0       0
       0       0       0       0       0       0       0       0       0       0
       0       0       0       0       0       0       0       0       0       0
       0       0       0       0       0       0       0       0       0       0
       0       0       0       0       0       0       0       0       0       0
       0       0       0       0       0       0       0       0       0       0
       0       0       0       0       0       0       0       0       0       0
       0       0       0       0       0       0       0       0       0       0
       0       0       0       0       0       0       0       0       0       0
       0       0       0       0       0       0       0       0       0       0
       0       0       0       0       0       0       0       0       0       0
       0       0       0       0       0       0       0       0       0       0
       0       0       0       0       0       0       0       0       0       0
       0       0       0       0       0       0       0       0       0       0
       0       0       0       0       0       0       0       0       0       0
       0       0       0       0       0       0       0       0       0       0
       0       0       0       0       0       0       0       0       0       0
       0       0       0       0       0       0       0       0       0       0
       0       0       0       0       0       0       0       0       0       0
       0       0       0       0       0       0       0       0       0       0
       0       0       0       0       0       0       0       0       0       0
       0       0       0       0       0       0       0       0       0       0
       0       0       0       0       0       0       0       0       0       0
       0       0       0       0       0       0       0       0       0       0
       0       0       0       0       0       0       0       0       0       0
       0       0       0       0       0       0       0       0       0       0
       0       0       0       0       0       0       0       0       0       0
       0       0       0       0       0       0       0       0       0       0
       0       0       0       0       0       0       0       0       0       0
       0       0       0       0       0       0       0       0       0       0
       0       0       0       0       0       0       0       0       0       0
       0       0       0       0       0       0       0       0       0       0
       0       0       0       0       0       0       0       0       0       0
       0       0       0       0       0       0       0       0       0       0
       0       0       0       0       0       0       0       0       0       0
       0       0       0       0       0       0       0       0       0       0
       0       0       0       0       0       0       0       0       0       0
       0       0       0       0       0       0       0       0       0       0
       0       0       0       0       0       0       0       0       0       0
       0       0       0       0       0       0       0       0       0       0
       0       0       0       0       0       0       0       0       0       0
       0       0       0       0       0       0       0       0       0       0
       0       0       0       0       0       0       0       0       0       0
       0       0       0       0       0       0       0       0       0       0
       0       0       0       0       0       0       0       0       0       0
       0       0       0       0       0       0       0       0       0       0
       0       0       0       0       0       0       0       0       0       0
       0       0       0       0       0       0       0       0       0       0
       0       0       0       0       0       0       0       0       0       0
       0       0       0       0       0       0       0       0       0       0
       0       0       0       0       0       0       0       0       0       0
       0       0       0       0       0       0       0       0       0       0
       0       0       0       0       0       0       0       0       0       0
       0       0       0       0       0       0       0       0       0       0
       0       0       0       0       0       0       0       0       0       0
       0       0       0       0       0       0       0       0       0       0
       0       0       0       0       0       0       0       0       0       0
       0       0       0       0       0       0       0       0       0       0
       0       0       0       0       0       0       0       0       0       0
       0       0       0       0       0       0       0       0       0       0
       0       0       0       0       0       0       0       0       0       0
       0       0       0       0       0       0       0       0       0       0
       0       0       0       0       0       0       0       0       0       0
       0       0       0       0       0       0       0       0       0       0
       0       0       0       0       0       0       0       0       0       0
       0       0       0       0       0       0       0       0       0       0
       0       0       0       0       0       0       0       0       0       0
       0       0       0       0       0       0       0       0       0       0
       0       0       0       0       0       0       0       0       0       0
       0       0       0       0       0       0       0       0       0       0
       0       0       0       0       0       0       0       0       0       0
       0       0       0       0       0       0       0       0       0       0
       0       0       0       0       0       0       0       0       0       0
       0       0       0       0       0       0       0       0       0       0
       0       0       0       0       0       0       0       0       0       0
       0       0       0       0       0       0       0       0       0       0
       0       0       0       0       0       0       0       0       0       0
       0       0       0       0       0       0       0       0       0       0
       0       0       0       0       0       0       0       0       0       0
       0       0       0       0       0       0       0       0       0       0
       0       0       0       0       0       0       0       0       0       0
       0       0       0       0       0       0       0       0       0       0
       0       0       0       0       0       0       0       0       0       0
       0       0       0       0       0       0       0       0       0       0
       0       0       0       0       0       0       0       0       0       0
       0       0       0       0       0       0       0       0       0       0
       0       0       0       0       0       0       0       0       0       0
       0       0       0       0       0       0       0       0       0       0
       0       0       0       0       0       0       0       0       0       0
       0       0       0       0       0       0       0       0       0       0
       0       0       0       0       0       0       0       0       0       0
       0       0       0       0       0       0       0       0       0       0
       0       0       0       0       0       0       0       0       0       0
       0       0       0       0       0       0       0       0       0       0
       0       0       0       0       0       0       0       0       0       0
       0       0       0       0       0       0       0       0       0       0
       0       0       0       0       0       0       0       0       0       0
       0       0       0       0       0       0       0       0       0       0
       0       0       0       0       0       0       0       0       0       0
       0       0       0       0       0       0       0       0       0       0
       0       0       0       0       0       0       0       0       0       0
       0       0       0       0       0       0       0       0       0       0
       0       0       0       0       0       0       0       0       0       0
       0       0       0       0       0       0       0       0       0       0
       0       0       0       0       0       0       0       0       0       0
       0       0       0       0       0       0       0       0       0       0
       0       0       0       0       0       0       0       0       0       0
       0       0       0       0       0       0       0       0       0       0
       0       0       0       0       0       0       0       0       0       0
       0       0       0       0       0       0       0       0       0       0
       0       0       0       0       0       0       0       0       0       0
       0       0       0       0       0       0       0       0       0       0
       0       0       0       0       0       0       0       0       0       0
       0       0       0       0       0       0       0       0       0       0
       0       0       0       0       0       0       0       0       0       0
       0       0       0       0       0       0       0       0       0       0
       0       0       0       0       0       0       0       0       0       0
       0       0       0       0       0       0       0       0       0       0
       0       0       0       0       0       0       0       0       0       0
       0       0       0       0       0       0       0       0       0       0
       0       0       0       0       0       0       0       0       0       0
       0       0       0       0       0       0       0       0       0       0
       0       0       0       0       0       0       0       0       0       0
       0       0       0       0       0       0       0       0       0       0
       0       0       0       0       0       0       0       0       0       0
       0       0       0       0       0       0       0       0       0       0
       0       0       0       0       0       0       0       0       0       0
       0       0       0       0       0       0       0       0       0       0
       0       0       0       0       0       0       0       0       0       0
       0       0       0       0       0       0       0       0       0       0
       0       0       0       0       0       0       0       0       0       0
       0       0       0       0       0       0       0       0       0       0
       0       0       0       0       0       0       0       0       0       0
       0       0       0       0       0       0       0       0       0       0
       0       0       0       0       0       0       0       0       0       0
       0       0       0       0       0       0       0       0       0       0
       0       0       0       0       0       0       0       0       0       0
       0       0       0       0       0       0       0       0       0       0
       0       0       0       0       0       0       0       0       0       0
       0       0       0       0       0       0       0       0       0       0
       0       0       0       0       0       0       0       0       0       0
       0       0       0       0       0       0       0       0       0       0
       0       0       0       0       0       0       0       0       0       0
       0       0       0       0       0       0       0       0       0       0
       0       0       0       0       0       0       0       0       0       0
       0       0       0       0       0       0       0       0       0       0
       0       0       0       0       0       0       0       0       0       0
       0       0       0       0       0       0       0       0       0       0
       0       0       0       0       0       0       0       0       0       0
       0       0       0       0       0       0       0       0       0       0
       0       0       0       0       0       0       0       0       0       0
       0       0       0       0       0       0       0       0       0       0
       0       0       0       0       0       0       0       0       0       0
       0       0       0       0       0       0       0       0       0       0
       0       0       0       0       0       0       0       0       0       0
       0       0       0       0       0       0       0       0       0       0
       0       0       0       0       0       0       0       0       0       0
       0       0       0       0       0       0       0       0       0       0
       0       0       0       0       0       0       0       0       0       0
       0       0       0       0       0       0       0       0       0       0
       0       0       0       0       0       0       0       0       0       0
       0       0       0       0       0       0       0       0       0       0
       0       0       0       0       0       0       0       0       0       0
       0       0       0       0       0       0       0       0       0       0
       0       0       0       0       0       0       0       0       0       0
       0       0       0       0       0       0       0       0       0       0
       0       0       0       0       0       0       0       0       0       0
       0       0       0       0       0       0       0       0       0       0
       0       0       0       0       0       0       0       0       0       0
       0       0       0       0       0       0       0       0       0       0
       0       0       0       0       0       0       0       0       0       0
       0       0       0       0       0       0       0       0       0       0
       0       0       0       0       0       0       0       0       0       0
       0       0       0       0       0       0       0       0       0       0
       0       0       0       0       0       0       0       0       0       0
       0       0       0       0       0       0       0       0       0       0
       0       0       0       0       0       0       0       0       0       0
       0       0       0       0       0       0       0       0       0       0
       0       0       0       0       0       0       0       0       0       0
       0       0       0       0       0       0       0       0       0       0
       0       0       0       0       0       0       0       0       0       0
       0       0       0       0       0       0       0       0       0       0
       0       0       0       0       0       0       0       0       0       0
       0       0       0       0       0       0       0       0       0       0
       0       0       0       0       0       0       0       0       0       0
       0       0       0       0       0       0       0       0       0       0
       0       0       0       0       0       0       0       0       0       0
       0       0       0       0       0       0       0       0       0       0
       0       0       0       0       0       0       0       0       0       0
       0       0       0       0       0       0       0       0       0       0
       0       0       0       0       0       0       0       0       0       0
       0       0       0       0       0       0       0       0       0       0
       0       0       0       0       0       0       0       0       0       0
       0       0       0       0       0       0       0       0       0       0
       0       0       0       0       0       0       0       0       0       0
       0       0       0       0       0       0       0       0       0       0
       0       0       0       0       0       0       0       0       0       0
       0       0       0       0       0       0       0       0       0       0
       0       0       0       0       0       0       0       0       0       0
       0       0       0       0       0       0       0       0       0       0
       0       0       0       0       0       0       0       0       0       0
       0       0       0       0       0       0       0       0       0       0
       0       0       0       0       0       0       0       0       0       0
       0       0       0       0       0       0       0       0       0       0
       0       0       0       0       0       0       0       0       0       0
       0       0       0       0       0       0       0       0       0       0
       0       0       0       0       0       0       0       0       0       0
       0       0       0       0       0       0       0       0       0       0
       0       0       0       0       0       0       0       0       0       0
       0       0       0       0       0       0       0       0       0       0
       0       0       0       0       0       0       0       0       0       0
       0       0       0       0       0       0       0       0       0       0
       0       0       0       0       0       0       0       0       0       0
       0       0       0       0       0       0       0       0       0       0
       0       0       0       0       0       0       0       0       0       0
       0       0       0       0       0       0       0       0       0       0
       0       0       0       0       0       0       0       0       0       0
       0       0       0       0       0       0       0       0       0       0
       0       0       0       0       0       0       0       0       0       0
       0       0       0       0       0       0       0       0       0       0
       0       0       0       0       0       0       0       0       0       0
       0       0       0       0       0       0       0       0       0       0
       0       0       0       0       0       0       0       0       0       0
       0       0       0       0       0       0       0       0       0       0
       0       0       0       0       0       0       0       0       0       0
       0       0       0       0       0       0       0       0       0       0
       0       0       0       0       0       0       0       0       0       0
       0       0       0       0       0       0       0       0       0       0
       0       0       0       0       0       0       0       0       0       0
       0       0       0       0       0       0       0       0       0       0
       0       0       0       0       0       0       0       0       0       0
       0       0       0       0       0       0       0       0       0       0
       0       0       0       0       0       0       0       0       0       0
       0       0       0       0       0       0       0       0       0       0
       0       0       0       0       0       0       0       0       0       0
       0       0       0       0       0       0       0       0       0       0
       0       0       0       0       0       0       0       0       0       0
       0       0       0       0       0       0       0       0       0       0
       0       0       0       0       0       0       0       0       0       0
       0       0       0       0       0       0       0       0       0       0
       0       0       0       0       0       0       0       0       0       0
       0       0       0       0       0       0       0       0       0       0
       0       0       0       0       0       0       0       0       0       0
       0       0       0       0       0       0       0       0       0       0
       0       0       0       0       0       0       0       0       0       0
       0       0       0       0       0       0       0       0       0       0
       0       0       0       0       0       0       0       0       0       0
       0       0       0       0       0       0       0       0       0       0
       0       0       0       0       0       0       0       0       0       0
       0       0       0       0       0       0       0       0       0       0
       0       0       0       0       0       0       0       0       0       0
       0       0       0       0       0       0       0       0       0       0
       0       0       0       0       0       0       0       0       0       0
       0       0       0       0       0       0       0       0       0       0
       0       0       0       0       0       0       0       0       0       0
       0       0       0       0       0       0       0       0       0       0
       0       0       0       0       0       0       0       0       0       0
       0       0       0       0       0       0       0       0       0       0
       0       0       0       0       0       0       0       0       0       0
       0       0       0       0       0       0       0       0       0       0
       0       0       0       0       0       0       0       0       0       0
       0       0       0       0       0       0       0       0       0       0
       0       0       0       0       0       0       0       0       0       0
       0       0       0       0       0       0       0       0       0       0
       0       0       0       0       0       0       0       0       0       0
       0       0       0       0       0       0       0       0       0       0
       0       0       0       0       0       0       0       0       0       0
       0       0       0       0       0       0       0       0       0       0
       0       0       0       0       0       0       0       0       0       0
       0       0       0       0       0       0       0       0       0       0
       0       0       0       0       0       0       0       0       0       0
       0       0       0       0       0       0       0       0       0       0
       0       0       0       0       0       0       0       0       0       0
       0       0       0       0       0       0       0       0       0       0
       0       0       0       0       0       0       0       0       0       0
       0       0       0       0       0       0       0       0       0       0
       0       0       0       0       0       0       0       0       0       0
       0       0       0       0       0       0       0       0       0       0
       0       0       0       0       0       0       0       0       0       0
       0       0       0       0       0       0       0       0       0       0
       0       0       0       0       0       0       0       0       0       0
       0       0       0       0       0       0       0       0       0       0
       0       0       0       0       0       0       0       0       0       0
       0       0       0       0       0       0       0       0       0       0
       0       0       0       0       0       0       0       0       0       0
       0       0       0       0       0       0       0       0       0       0
       0       0       0       0       0       0       0       0       0       0
       0       0       0       0       0       0       0       0       0       0
       0       0       0       0       0       0       0       0       0       0
       0       0       0       0       0       0       0       0       0       0
       0       0       0       0       0       0       0       0       0       0
       0       0       0       0       0       0       0       0       0       0
       0       0       0       0       0       0       0       0       0       0
       0       0       0       0       0       0       0       0       0       0
       0       0       0       0       0       0       0       0       0       0
       0       0       0       0       0       0       0       0       0       0
       0       0       0       0       0       0       0       0       0       0
       0       0       0       0       0       0       0       0       0       0
       0       0       0       0       0       0       0       0       0       0
       0       0       0       0       0       0       0       0       0       0
       0       0       0       0       0       0       0       0       0       0
       0       0       0       0       0       0       0       0       0       0
       0       0       0       0       0       0       0       0       0       0
       0       0       0       0       0       0       0       0       0       0
       0       0       0       0       0       0       0       0       0       0
       0       0       0       0       0       0       0       0       0       0
       0       0       0       0       0       0       0       0       0       0
       0       0       0       0       0       0       0       0       0       0
       0       0       0       0       0       0       0       0       0       0
       0       0       0       0       0       0       0       0       0       0
       0       0       0       0       0       0       0       0       0       0
       0       0       0       0       0       0       0       0       0       0
       0       0       0       0       0       0       0       0       0       0
       0       0       0       0       0       0       0       0       0       0
       0       0       0       0       0       0       0       0       0       0
       0       0       0       0       0       0       0       0       0       0
       0       0       0       0       0       0       0       0       0       0
       0       0       0       0       0       0       0       0       0       0
       0       0       0       0       0       0       0       0       0       0
       0       0       0       0       0       0       0       0       0       0
       0       0       0       0       0       0       0       0       0       0
       0       0       0       0       0       0       0       0       0       0
       0       0       0       0       0       0       0       0       0       0
       0       0       0       0       0       0       0       0       0       0
       0       0       0       0       0       0       0       0       0       0
       0       0       0       0       0       0       0       0       0       0
       0       0       0       0       0       0       0       0       0       0
       0       0       0       0       0       0       0       0       0       0
       0       0       0       0       0       0       0       0       0       0
       0       0       0       0       0       0       0       0       0       0
       0       0       0       0       0       0       0       0       0       0
       0       0       0       0       0       0       0       0       0       0
       0       0       0       0       0       0       0       0       0       0
       0       0       0       0       0       0       0       0       0       0
       0       0       0       0       0       0       0       0       0       0
       0       0       0       0       0       0       0       0       0       0
       0       0       0       0       0       0       0       0       0       0
       0       0       0       0       0       0       0       0       0       0
       0       0       0       0       0       0       0       0       0       0
       0       0       0       0       0       0       0       0       0       0
       0       0       0       0       0       0       0       0       0       0
       0       0       0       0       0       0       0       0       0       0
       0       0       0       0       0       0       0       0       0       0
       0       0       0       0       0       0       0       0       0       0
       0       0       0       0       0       0       0       0       0       0
       0       0       0       0       0       0       0       0       0       0
       0       0       0       0       0       0       0       0       0       0
       0       0       0       0       0       0       0       0       0       0
       0       0       0       0       0       0       0       0       0       0
       0       0       0       0       0       0       0       0       0       0
       0       0       0       0       0       0       0       0       0       0
       0       0       0       0       0       0       0       0       0       0
       0       0       0       0       0       0       0       0       0       0
       0       0       0       0       0       0       0       0       0       0
       0       0       0       0       0       0       0       0       0       0
       0       0       0       0       0       0       0       0       0       0
       0       0       0       0       0       0       0       0       0       0
       0       0       0       0       0       0       0       0       0       0
       0       0       0       0       0       0       0       0       0       0
       0       0       0       0       0       0       0       0       0       0
       0       0       0       0       0       0       0       0       0       0
       0       0       0       0       0       0       0       0       0       0
       0       0       0       0       0       0       0       0       0       0
       0       0       0       0       0       0       0       0       0       0
       0       0       0       0       0       0       0       0       0       0
       0       0       0       0       0       0       0       0       0       0
       0       0       0       0       0       0       0       0       0       0
       0       0       0       0       0       0       0       0       0       0
       0       0       0       0       0       0       0       0       0       0
       0       0       0       0       0       0       0       0       0       0
       0       0       0       0       0       0       0       0       0       0
       0       0       0       0       0       0       0       0       0       0
       0       0       0       0       0       0       0       0       0       0
       0       0       0       0       0       0       0       0       0       0
       0       0       0       0       0       0       0       0       0       0
       0       0       0       0       0       0       0       0       0       0
       0       0       0       0       0       0       0       0       0       0
       0       0       0       0       0       0       0       0       0       0
       0       0       0       0       0       0       0       0       0       0
       0       0       0       0       0       0       0       0       0       0
       0       0       0       0       0       0       0       0       0       0
       0       0       0       0       0       0       0       0       0       0
       0       0       0       0       0       0       0       0       0       0
       0       0       0       0       0       0       0       0       0       0
       0       0       0       0       0       0       0       0       0       0
       0       0       0       0       0       0       0       0       0       0
       0       0       0       0       0       0       0       0       0       0
       0       0       0       0       0       0       0       0       0       0
       0       0       0       0       0       0       0       0       0       0
       0       0       0       0       0       0       0       0       0       0
       0       0       0       0       0       0       0       0       0       0
       0       0       0       0       0       0       0       0       0       0
       0       0       0       0       0       0       0       0       0       0
       0       0       0       0       0       0       0       0       0       0
       0       0       0       0       0       0       0       0       0       0
       0       0       0       0       0       0       0       0       0       0
       0       0       0       0       0       0       0       0       0       0
       0       0       0       0       0       0       0       0       0       0
       0       0       0       0       0       0       0       0       0       0
       0       0       0       0       0       0       0       0       0       0
       0       0       0       0       0       0       0       0       0       0
       0       0       0       0       0       0       0       0       0       0
       0       0       0       0       0       0       0       0       0       0
       0       0       0       0       0       0       0       0       0       0
       0       0       0       0       0       0       0       0       0       0
       0       0       0       0       0       0       0       0       0       0
       0       0       0       0       0       0       0       0       0       0
       0       0       0       0       0       0       0       0       0       0
       0       0       0       0       0       0       0       0       0       0
       0       0       0       0       0       0       0       0       0       0
       0       0       0       0       0       0       0       0       0       0
       0       0       0       0       0       0       0       0       0       0
       0       0       0       0       0       0       0       0       0       0
       0       0       0       0       0       0       0       0       0       0
       0       0       0       0       0       0       0       0       0       0
       0       0       0       0       0       0       0       0       0       0
       0       0       0       0       0       0       0       0       0       0
       0       0       0       0       0       0       0       0       0       0
       0       0       0       0       0       0       0       0       0       0
       0       0       0       0       0       0       0       0       0       0
       0       0       0       0       0       0       0       0       0       0
       0       0       0       0       0       0       0       0       0       0
       0       0       0       0       0       0       0       0       0       0
       0       0       0       0       0       0       0       0       0       0
       0       0       0       0       0       0       0       0       0       0
       0       0       0       0       0       0       0       0       0       0
       0       0       0       0       0       0       0       0       0       0
       0       0       0       0       0       0       0       0       0       0
       0       0       0       0       0       0       0       0       0       0
       0       0       0       0       0       0       0       0       0       0
       0       0       0       0       0       0       0       0       0       0
       0       0       0       0       0       0       0       0       0       0
       0       0       0       0       0       0       0       0       0       0
       0       0       0       0       0       0       0       0       0       0
       0       0       0       0       0       0       0       0       0       0
       0       0       0       0       0       0       0       0       0       0
       0       0       0       0       0       0       0       0       0       0
       0       0       0       0       0       0       0       0       0       0
       0       0       0       0       0       0       0       0       0       0
       0       0       0       0       0       0       0       0       0       0
       0       0       0       0       0       0       0       0       0       0
       0       0       0       0       0       0       0       0       0       0
       0       0       0       0       0       0       0       0       0       0
       0       0       0       0       0       0       0       0       0       0
       0       0       0       0       0       0       0       0       0       0
       0       0       0       0       0       0       0       0       0       0
       0       0       0       0       0       0       0       0       0       0
       0       0       0       0       0       0       0       0       0       0
       0       0       0       0       0       0       0       0       0       0
       0       0       0       0       0       0       0       0       0       0
       0       0       0       0       0       0       0       0       0       0
       0       0       0       0       0       0       0       0       0       0
       0       0       0       0       0       0       0       0       0       0
       0       0       0       0       0       0       0       0       0       0
       0       0       0       0       0       0       0       0       0       0
       0       0       0       0       0       0       0       0       0       0
       0       0       0       0       0       0       0       0       0       0
       0       0       0       0       0       0       0       0       0       0
       0       0       0       0       0       0       0       0       0       0
       0       0       0       0       0       0       0       0       0       0
       0       0       0       0       0       0       0       0       0       0
       0       0       0       0       0       0       0       0       0       0
       0       0       0       0       0       0       0       0       0       0
       0       0       0       0       0       0       0       0       0       0
       0       0       0       0       0       0       0       0       0       0
       0       0       0       0       0       0       0       0       0       0
       0       0       0       0       0       0       0       0       0       0
       0       0       0       0       0       0       0       0       0       0
       0       0       0       0       0       0       0       0       0       0
       0       0       0       0       0       0       0       0       0       0
       0       0       0       0       0       0       0       0       0       0
       0       0       0       0       0       0       0       0       0       0
       0       0       0       0       0       0       0       0       0       0
       0       0       0       0       0       0       0       0       0       0
       0       0       0       0       0       0       0       0       0       0
       0       0       0       0       0       0       0       0       0       0
       0       0       0       0       0       0       0       0       0       0
       0       0       0       0       0       0       0       0       0       0
       0       0       0       0       0       0       0       0       0       0
       0       0       0       0       0       0       0       0       0       0
       0       0       0       0       0       0       0       0       0       0
       0       0       0       0       0       0       0       0       0       0
       0       0       0       0       0       0       0       0       0       0
       0       0       0       0       0       0       0       0       0       0
       0       0       0       0       0       0       0       0       0       0
       0       0       0       0       0       0       0       0       0       0
       0       0       0       0       0       0       0       0       0       0
       0       0       0       0       0       0       0       0       0       0
       0       0       0       0       0       0       0       0       0       0
       0       0       0       0       0       0       0       0       0       0
       0       0       0       0       0       0       0       0       0       0
       0       0       0       0       0       0       0       0       0       0
       0       0       0       0       0       0       0       0       0       0
       0       0       0       0       0       0       0       0       0       0
       0       0       0       0       0       0       0       0       0       0
       0       0       0       0       0       0       0       0       0       0
       0       0       0       0       0       0       0       0       0       0
       0       0       0       0       0       0       0       0       0       0
       0       0       0       0       0       0       0       0       0       0
       0       0       0       0       0       0       0       0       0       0
       0       0       0       0       0       0       0       0       0       0
       0       0       0       0       0       0       0       0       0       0
       0       0       0       0       0       0       0       0       0       0
       0       0       0       0       0       0       0       0       0       0
       0       0       0       0       0       0       0       0       0       0
       0       0       0       0       0       0       0       0       0       0
       0       0       0       0       0       0       0       0       0       0
       0       0       0       0       0       0       0       0       0       0
       0       0       0       0       0       0       0       0       0       0
       0       0       0       0       0       0       0       0       0       0
       0       0       0       0       0       0       0       0       0       0
       0       0       0       0       0       0       0       0       0       0
       0       0       0       0       0       0       0       0       0       0
       0       0       0       0       0       0       0       0       0       0
       0       0       0       0       0       0       0       0       0       0
       0       0       0       0       0       0       0       0       0       0
       0       0       0       0       0       0       0       0       0       0
       0       0       0       0       0       0       0       0       0       0
       0       0       0       0       0       0       0       0       0       0
       0       0       0       0       0       0       0       0       0       0
       0       0       0       0       0       0       0       0       0       0
       0       0       0       0       0       0       0       0       0       0
       0       0       0       0       0       0       0       0       0       0
       0       0       0       0       0       0       0       0       0       0
       0       0       0       0       0       0       0       0       0       0
       0       0       0       0       0       0       0       0       0       0
       0       0       0       0       0       0       0       0       0       0
       0       0       0       0       0       0       0       0       0       0
       0       0       0       0       0       0       0       0       0       0
       0       0       0       0       0       0       0       0       0       0
       0       0       0       0       0       0       0       0       0       0
       0       0       0       0       0       0       0       0       0       0
       0       0       0       0       0       0       0       0       0       0
       0       0       0       0       0       0       0       0       0       0
       0       0       0       0       0       0       0       0       0       0
       0       0       0       0       0       0       0       0       0       0
       0       0       0       0       0       0       0       0       0       0
       0       0       0       0       0       0       0       0       0       0
       0       0       0       0       0       0       0       0       0       0
       0       0       0       0       0       0       0       0       0       0
       0       0       0       0       0       0       0       0       0       0
       0       0       0       0       0       0       0       0       0       0
       0       0       0       0       0       0       0       0       0       0
       0       0       0       0       0       0       0       0       0       0
       0       0       0       0       0       0       0       0       0       0
       0       0       0       0       0       0       0       0       0       0
       0       0       0       0       0       0       0       0       0       0
       0       0       0       0       0       0       0       0       0       0
       0       0       0       0       0       0       0       0       0       0
       0       0       0       0       0       0       0       0       0       0
       0       0       0       0       0       0       0       0       0       0
       0       0       0       0       0       0       0       0       0       0
       0       0       0       0       0       0       0       0       0       0
       0       0       0       0       0       0       0       0       0       0
       0       0       0       0       0       0       0       0       0       0
       0       0       0       0       0       0       0       0       0       0
       0       0       0       0       0       0       0       0       0       0
       0       0       0       0       0       0       0       0       0       0
       0       0       0       0       0       0       0       0       0       0
       0       0       0       0       0       0       0       0       0       0
       0       0       0       0       0       0       0       0       0       0
       0       0       0       0       0       0       0       0       0       0
       0       0       0       0       0       0       0       0       0       0
       0       0       0       0       0       0       0       0       0       0
       0       0       0       0       0       0       0       0       0       0
       0       0       0       0       0       0       0       0       0       0
       0       0       0       0       0       0       0       0       0       0
       0       0       0       0       0       0       0       0       0       0
       0       0       0       0       0       0       0       0       0       0
       0       0       0       0       0       0       0       0       0       0
       0       0       0       0       0       0       0       0       0       0
       0       0       0       0       0       0       0       0       0       0
       0       0       0       0       0       0       0       0       0       0
       0       0       0       0       0       0       0       0       0       0
       0       0       0       0       0       0       0       0       0       0
       0       0       0       0       0       0       0       0       0       0
       0       0       0       0       0       0       0       0       0       0
       0       0       0       0       0       0       0       0       0       0
       0       0       0       0       0       0       0       0       0       0
       0       0       0       0       0       0       0       0       0       0
       0       0       0       0       0       0       0       0       0       0
       0       0       0       0       0       0       0       0       0       0
       0       0       0       0       0       0       0       0       0       0
       0       0       0       0       0       0       0       0       0       0
       0       0       0       0       0       0       0       0       0       0
       0       0       0       0       0       0       0       0       0       0
       0       0       0       0       0       0       0       0       0       0
       0       0       0       0       0       0       0       0       0       0
       0       0       0       0       0       0       0       0       0       0
       0       0       0       0       0       0       0       0       0       0
       0       0       0       0       0       0       0       0       0       0
       0       0       0       0       0       0       0       0       0       0
       0       0       0       0       0       0       0       0       0       0
       0       0       0       0       0       0       0       0       0       0
       0       0       0       0       0       0       0       0       0       0
       0       0       0       0       0       0       0       0       0       0
       0       0       0       0       0       0       0       0       0       0
       0       0       0       0       0       0       0       0       0       0
       0       0       0       0       0       0       0       0       0       0
       0       0       0       0       0       0       0       0       0       0
       0       0       0       0       0       0       0       0       0       0
       0       0       0       0       0       0       0       0       0       0
       0       0       0       0       0       0       0       0       0       0
       0       0       0       0       0       0       0       0       0       0
       0       0       0       0       0       0       0       0       0       0
       0       0       0       0       0       0       0       0       0       0
       0       0       0       0       0       0       0       0       0       0
       0       0       0       0       0       0       0       0       0       0
       0       0       0       0       0       0       0       0       0       0
       0       0       0       0       0       0       0       0       0       0
       0       0       0       0       0       0       0       0       0       0
       0       0       0       0       0       0       0       0       0       0
       0       0       0       0       0       0       0       0       0       0
       0       0       0       0       0       0       0       0       0       0
       0       0       0       0       0       0       0       0       0       0
       0       0       0       0       0       0       0       0       0       0
       0       0       0       0       0       0       0       0       0       0
       0       0       0       0       0       0       0       0       0       0
       0       0       0       0       0       0       0       0       0       0
       0       0       0       0       0       0       0       0       0       0
       0       0       0       0       0       0       0       0       0       0
       0       0       0       0       0       0       0       0       0       0
       0       0       0       0       0       0       0       0       0       0
       0       0       0       0       0       0       0       0       0       0
       0       0       0       0       0       0       0       0       0       0
       0       0       0       0       0       0       0       0       0       0
       0       0       0       0       0       0       0       0       0       0
       0       0       0       0       0       0       0       0       0       0
       0       0       0       0       0       0       0       0       0       0
       0       0       0       0       0       0       0       0       0       0
       0       0       0       0       0       0       0       0       0       0
       0       0       0       0       0       0       0       0       0       0
       0       0       0       0       0       0       0       0       0       0
       0       0       0       0       0       0       0       0       0       0
       0       0       0       0       0       0       0       0       0       0
       0       0       0       0       0       0       0       0       0       0
       0       0       0       0       0       0       0       0       0       0
       0       0       0       0       0       0       0       0       0       0
       0       0       0       0       0       0       0       0       0       0
       0       0       0       0       0       0       0       0       0       0
       0       0       0       0       0       0       0       0       0       0
       0       0       0       0       0       0       0       0       0       0
       0       0       0       0       0       0       0       0       0       0
       0       0       0       0       0       0       0       0       0       0
       0       0       0       0       0       0       0       0       0       0
       0       0       0       0       0       0       0       0       0       0
       0       0       0       0       0       0       0       0       0       0
       0       0       0       0       0       0       0       0       0       0
       0       0       0       0       0       0       0       0       0       0
       0       0       0       0       0       0       0       0       0       0
       0       0       0       0       0       0       0       0       0       0
       0       0       0       0       0       0       0       0       0       0
       0       0       0       0       0       0       0       0       0       0
       0       0       0       0       0       0       0       0       0       0
       0       0       0       0       0       0       0       0       0       0
       0       0       0       0       0       0       0       0       0       0
       0       0       0       0       0       0       0       0       0       0
       0       0       0       0       0       0       0       0       0       0
       0       0       0       0       0       0       0       0       0       0
       0       0       0       0       0       0       0       0       0       0
       0       0       0       0       0       0       0       0       0       0
       0       0       0       0       0       0       0       0       0       0
       0       0       0       0       0       0       0       0       0       0
       0       0       0       0       0       0       0       0       0       0
       0       0       0       0       0       0       0       0       0       0
       0       0       0       0       0       0       0       0       0       0
       0       0       0       0       0       0       0       0       0       0
       0       0       0       0       0       0       0       0       0       0
       0       0       0       0       0       0       0       0       0       0
       0       0       0       0       0       0       0       0       0       0
       0       0       0       0       0       0       0       0       0       0
       0       0       0       0       0       0       0       0       0       0
       0       0       0       0       0       0       0       0       0       0
       0       0       0       0       0       0       0       0       0       0
       0       0       0       0       0       0       0       0       0       0
       0       0       0       0       0       0       0       0       0       0
       0       0       0       0       0       0       0       0       0       0
       0       0       0       0       0       0       0       0       0       0
       0       0       0       0       0       0       0       0       0       0
       0       0       0       0       0       0       0       0       0       0
       0       0       0       0       0       0       0       0       0       0
       0       0       0       0       0       0       0       0       0       0
       0       0       0       0       0       0       0       0       0       0
       0       0       0       0       0       0       0       0       0       0
       0       0       0       0       0       0       0       0       0       0
       0       0       0       0       0       0       0       0       0       0
       0       0       0       0       0       0       0       0       0       0
       0       0       0       0       0       0       0       0       0       0
       0       0       0       0       0       0       0       0       0       0
       0       0       0       0       0       0       0       0       0       0
       0       0       0       0       0       0       0       0       0       0
       0       0       0       0       0       0       0       0       0       0
       0       0       0       0       0       0       0       0       0       0
       0       0       0       0       0       0       0       0       0       0
       0       0       0       0       0       0       0       0       0       0
       0       0       0       0       0       0       0       0       0       0
       0       0       0       0       0       0       0       0       0       0
       0       0       0       0       0       0       0       0       0       0
       0       0       0       0       0       0       0       0       0       0
       0       0       0       0       0       0       0       0       0       0
       0       0       0       0       0       0       0       0       0       0
       0       0       0       0       0       0       0       0       0       0
       0       0       0       0       0       0       0       0       0       0
       0       0       0       0       0       0       0       0       0       0
       0       0       0       0       0       0       0       0       0       0
       0       0       0       0       0       0       0       0       0       0
       0       0       0       0       0       0       0       0       0       0
       0       0       0       0       0       0       0       0       0       0
       0       0       0       0       0       0       0       0       0       0
       0       0       0       0       0       0       0       0       0       0
       0       0       0       0       0       0       0       0       0       0
       0       0       0       0       0       0       0       0       0       0
       0       0       0       0       0       0       0       0       0       0
       0       0       0       0       0       0       0       0       0       0
       0       0       0       0       0       0       0       0       0       0
       0       0       0       0       0       0       0       0       0       0
       0       0       0       0       0       0       0       0       0       0
       0       0       0       0       0       0       0       0       0       0
       0       0       0       0       0       0       0       0       0       0
       0       0       0       0       0       0       0       0       0       0
       0       0       0       0       0       0       0       0       0       0
       0       0       0       0       0       0       0       0       0       0
       0       0       0       0       0       0       0       0       0       0
       0       0       0       0       0       0       0       0       0       0
       0       0       0       0       0       0       0       0       0       0
       0       0       0       0       0       0       0       0       0       0
       0       0       0       0       0       0       0       0       0       0
       0       0       0       0       0       0       0       0       0       0
       0       0       0       0       0       0       0       0       0       0
       0       0       0       0       0       0       0       0       0       0
       0       0       0       0       0       0       0       0       0       0
       0       0       0       0       0       0       0       0       0       0
       0       0       0       0       0       0       0       0       0       0
       0       0       0       0       0       0       0       0       0       0
       0       0       0       0       0       0       0       0       0       0
       0       0       0       0       0       0       0       0       0       0
       0       0       0       0       0       0       0       0       0       0
       0       0       0       0       0       0       0       0       0       0
       0       0       0       0       0       0       0       0       0       0
       0       0       0       0       0       0       0       0       0       0
       0       0       0       0       0       0       0       0       0       0
       0       0       0       0       0       0       0       0       0       0
       0       0       0       0       0       0       0       0       0       0
       0       0       0       0       0       0       0       0       0       0
       0       0       0       0       0       0       0       0       0       0
       0       0       0       0       0       0       0       0       0       0
       0       0       0       0       0       0       0       0       0       0
       0       0       0       0       0       0       0       0       0       0
       0       0       0       0       0       0       0       0       0       0
       0       0       0       0       0       0       0       0       0       0
       0       0       0       0       0       0       0       0       0       0
       0       0       0       0       0       0       0       0       0       0
       0       0       0       0       0       0       0       0       0       0
       0       0       0       0       0       0       0       0       0       0
       0       0       0       0       0       0       0       0       0       0
       0       0       0       0       0       0       0       0       0       0
       0       0       0       0       0       0       0       0       0       0
       0       0       0       0       0       0       0       0       0       0
       0       0       0       0       0       0       0       0       0       0
       0       0       0       0       0       0       0       0       0       0
       0       0       0       0       0       0       0       0       0       0
       0       0       0       0       0       0       0       0       0       0
       0       0       0       0       0       0       0       0       0       0
       0       0       0       0       0       0       0       0       0       0
       0       0       0       0       0       0       0       0       0       0
       0       0       0       0       0       0       0       0       0       0
       0       0       0       0       0       0       0       0       0       0
       0       0       0       0       0       0       0       0       0       0
       0       0       0       0       0       0       0       0       0       0
       0       0       0       0       0       0       0       0       0       0
       0       0       0       0       0       0       0       0       0       0
       0       0       0       0       0       0       0       0       0       0
       0       0       0       0       0       0       0       0       0       0
       0       0       0       0       0       0       0       0       0       0
       0       0       0       0       0       0       0       0       0       0
       0       0       0       0       0       0       0       0       0       0
       0       0       0       0       0       0       0       0       0       0
       0       0       0       0       0       0       0       0       0       0
       0       0       0       0       0       0       0       0       0       0
       0       0       0       0       0       0       0       0       0       0
       0       0       0       0       0       0       0       0       0       0
       0       0       0       0       0       0       0       0       0       0
       0       0       0       0       0       0       0       0       0       0
       0       0       0       0       0       0       0       0       0       0
       0       0       0       0       0       0       0       0       0       0
       0       0       0       0       0       0       0       0       0       0
       0       0       0       0       0       0       0       0       0       0
       0       0       0       0       0       0       0       0       0       0
       0       0       0       0       0       0       0       0       0       0
       0       0       0       0       0       0       0       0       0       0
       0       0       0       0       0       0       0       0       0       0
       0       0       0       0       0       0       0       0       0       0
       0       0       0       0       0       0       0       0       0       0
       0       0       0       0       0       0       0       0       0       0
       0       0       0       0       0       0       0       0       0       0
       0       0       0       0       0       0       0       0       0       0
       0       0       0       0       0       0       0       0       0       0
       0       0       0       0       0       0       0       0       0       0
       0       0       0       0       0       0       0       0       0       0
       0       0       0       0       0       0       0       0       0       0
       0       0       0       0       0       0       0       0       0       0
       0       0       0       0       0       0       0       0       0       0
       0       0       0       0       0       0       0       0       0       0
       0       0       0       0       0       0       0       0       0       0
       0       0       0       0       0       0       0       0       0       0
       0       0       0       0       0       0       0       0       0       0
       0       0       0       0       0       0       0       0       0       0
       0       0       0       0       0       0       0       0       0       0
       0       0       0       0       0       0       0       0       0       0
       0       0       0       0       0       0       0       0       0       0
       0       0       0       0       0       0       0       0       0       0
       0       0       0       0       0       0       0       0       0       0
       0       0       0       0       0       0       0       0       0       0
       0       0       0       0       0       0       0       0       0       0
       0       0       0       0       0       0       0       0       0       0
       0       0       0       0       0       0       0       0       0       0
       0       0       0       0       0       0       0       0       0       0
       0       0       0       0       0       0       0       0       0       0
       0       0       0       0       0       0       0       0       0       0
       0       0       0       0       0       0       0       0       0       0
       0       0       0       0       0       0       0       0       0       0
       0       0       0       0       0       0       0       0       0       0
       0       0       0       0       0       0       0       0       0       0
       0       0       0       0       0       0       0       0       0       0
       0       0       0       0       0       0       0       0       0       0
       0       0       0       0       0       0       0       0       0       0
       0       0       0       0       0       0       0       0       0       0
       0       0       0       0       0       0       0       0       0       0
       0       0       0       0       0       0       0       0       0       0
       0       0       0       0       0       0       0       0       0       0
       0       0       0       0       0       0       0       0       0       0
       0       0       0       0       0       0       0       0       0       0
       0       0       0       0       0       0       0       0       0       0
       0       0       0       0       0       0       0       0       0       0
       0       0       0       0       0       0       0       0       0       0
       0       0       0       0       0       0       0       0       0       0
       0       0       0       0       0       0       0       0       0       0
       0       0       0       0       0       0       0       0       0       0
       0       0       0       0       0       0       0       0       0       0
       0       0       0       0       0       0       0       0       0       0
       0       0       0       0       0       0       0       0       0       0
       0       0       0       0       0       0       0       0       0       0
       0       0       0       0       0       0       0       0       0       0
       0       0       0       0       0       0       0       0       0       0
       0       0       0       0       0       0       0       0       0       0
       0       0       0       0       0       0       0       0       0       0
       0       0       0       0       0       0       0       0       0       0
       0       0       0       0       0       0       0       0       0       0
       0       0       0       0       0       0       0       0       0       0
       0       0       0       0       0       0       0       0       0       0
       0       0       0       0       0       0       0       0       0       0
       0       0       0       0       0       0       0       0       0       0
       0       0       0       0       0       0       0       0       0       0
       0       0       0       0       0       0       0       0       0       0
       0       0       0       0       0       0       0       0       0       0
       0       0       0       0       0       0       0       0       0       0
       0       0       0       0       0       0       0       0       0       0
       0       0       0       0       0       0       0       0       0       0
       0       0       0       0       0       0       0       0       0       0
       0       0       0       0       0       0       0       0       0       0
       0       0       0       0       0       0       0       0       0       0
       0       0       0       0       0       0       0       0       0       0
       0       0       0       0       0       0       0       0       0       0
       0       0       0       0       0       0       0       0       0       0
       0       0       0       0       0       0       0       0       0       0
       0       0       0       0       0       0       0       0       0       0
       0       0       0       0       0       0       0       0       0       0
       0       0       0       0       0       0       0       0       0       0
       0       0       0       0       0       0       0       0       0       0
       0       0       0       0       0       0       0       0       0       0
       0       0       0       0       0       0       0       0       0       0
       0       0       0       0       0       0       0       0       0       0
       0       0       0       0       0       0       0       0       0       0
       0       0       0       0       0       0       0       0       0       0
       0       0       0       0       0       0       0       0       0       0
       0       0       0       0       0       0       0       0       0       0
       0       0       0       0       0       0       0       0       0       0
       0       0       0       0       0       0       0       0       0       0
       0       0       0       0       0       0       0       0       0       0
       0       0       0       0       0       0       0       0       0       0
       0       0       0       0       0       0       0       0       0       0
       0       0       0       0       0       0       0       0       0       0
       0       0       0       0       0       0       0       0       0       0
       0       0       0       0       0       0       0       0       0       0
       0       0       0       0       0       0       0       0       0       0
       0       0       0       0       0       0       0       0       0       0
       0       0       0       0       0       0       0       0       0       0
       0       0       0       0       0       0       0       0       0       0
       0       0       0       0       0       0       0       0       0       0
       0       0       0       0       0       0       0       0       0       0
       0       0       0       0       0       0       0       0       0       0
       0       0       0       0       0       0       0       0       0       0
       0       0       0       0       0       0       0       0       0       0
       0       0       0       0       0       0       0       0       0       0
       0       0       0       0       0       0       0       0       0       0
       0       0       0       0       0       0       0       0       0       0
       0       0       0       0       0       0       0       0       0       0
       0       0       0       0       0       0       0       0       0       0
       0       0       0       0       0       0       0       0       0       0
       0       0       0       0       0       0       0       0       0       0
       0       0       0       0       0       0       0       0       0       0
       0       0       0       0       0       0       0       0       0       0
       0       0       0       0       0       0       0       0       0       0
       0       0       0       0       0       0       0       0       0       0
       0       0       0       0       0       0       0       0       0       0
       0       0       0       0       0       0       0       0       0       0
       0       0       0       0       0       0       0       0       0       0
       0       0       0       0       0       0       0       0       0       0
       0       0       0       0       0       0       0       0       0       0
       0       0       0       0       0       0       0       0       0       0
       0       0       0       0       0       0       0       0       0       0
       0       0       0       0       0       0       0       0       0       0
       0       0       0       0       0       0       0       0       0       0
       0       0       0       0       0       0       0       0       0       0
       0       0       0       0       0       0       0       0       0       0
       0       0       0       0       0       0       0       0       0       0
       0       0       0       0       0       0       0       0       0       0
       0       0       0       0       0       0       0       0       0       0
       0       0       0       0       0       0       0       0       0       0
       0       0       0       0       0       0       0       0       0       0
       0       0       0       0       0       0       0       0       0       0
       0       0       0       0       0       0       0       0       0       0
       0       0       0       0       0       0       0       0       0       0
       0       0       0       0       0       0       0       0       0       0
       0       0       0       0       0       0       0       0       0       0
       0       0       0       0       0       0       0       0       0       0
       0       0       0       0       0       0       0       0       0       0
       0       0       0       0       0       0       0       0       0       0
       0       0       0       0       0       0       0       0       0       0
       0       0       0       0       0       0       0       0       0       0
       0       0       0       0       0       0       0       0       0       0
       0       0       0       0       0       0       0       0       0       0
       0       0       0       0       0       0       0       0       0       0
       0       0       0       0       0       0       0       0       0       0
       0       0       0       0       0       0       0       0       0       0
       0       0       0       0       0       0       0       0       0       0
       0       0       0       0       0       0       0       0       0       0
       0       0       0       0       0       0       0       0       0       0
       0       0       0       0       0       0       0       0       0       0
       0       0       0       0       0       0       0       0       0       0
       0       0       0       0       0       0       0       0       0       0
       0       0       0       0       0       0       0       0       0       0
       0       0       0       0       0       0       0       0       0       0
       0       0       0       0       0       0       0       0       0       0
       0       0       0       0       0       0       0       0       0       0
       0       0       0       0       0       0       0       0       0       0
       0       0       0       0       0       0       0       0       0       0
       0       0       0       0       0       0       0       0       0       0
       0       0       0       0       0       0       0       0       0       0
       0       0       0       0       0       0       0       0       0       0
       0       0       0       0       0       0       0       0       0       0
       0       0       0       0       0       0       0       0       0       0
       0       0       0       0       0       0       0       0       0       0
       0       0       0       0       0       0       0       0       0       0
       0       0       0       0       0       0       0       0       0       0
       0       0       0       0       0       0       0       0       0       0
       0       0       0       0       0       0       0       0       0       0
       0       0       0       0       0       0       0       0       0       0
       0       0       0       0       0       0       0       0       0       0
       0       0       0       0       0       0       0       0       0       0
       0       0       0       0       0       0       0       0       0       0
       0       0       0       0       0       0       0       0       0       0
       0       0       0       0       0       0       0       0       0       0
       0       0       0       0       0       0       0       0       0       0
       0       0       0       0       0       0       0       0       0       0
       0       0       0       0       0       0       0       0       0       0
       0       0       0       0       0       0       0       0       0       0
       0       0       0       0       0       0       0       0       0       0
       0       0       0       0       0       0       0       0       0       0
       0       0       0       0       0       0       0       0       0       0
       0       0       0       0       0       0       0       0       0       0
       0       0       0       0       0       0       0       0       0       0
       0       0       0       0       0       0       0       0       0       0
       0       0       0       0       0       0       0       0       0       0
       0       0       0       0       0       0       0       0       0       0
       0       0       0       0       0       0       0       0       0       0
       0       0       0       0       0       0       0       0       0       0
       0       0       0       0       0       0       0       0       0       0
       0       0       0       0       0       0       0       0       0       0
       0       0       0       0       0       0       0       0       0       0
       0       0       0       0       0       0       0       0       0       0
       0       0       0       0       0       0       0       0       0       0
       0       0       0       0       0       0       0       0       0       0
       0       0       0       0       0       0       0       0       0       0
       0       0       0       0       0       0       0       0       0       0
       0       0       0       0       0       0       0       0       0       0
       0       0       0       0       0       0       0       0       0       0
       0       0       0       0       0       0       0       0       0       0
       0       0       0       0       0       0       0       0       0       0
       0       0       0       0       0       0       0       0       0       0
       0       0       0       0       0       0       0       0       0       0
       0       0       0       0       0       0       0       0       0       0
       0       0       0       0       0       0       0       0       0       0
       0       0       0       0       0       0       0       0       0       0
       0       0       0       0       0       0       0       0       0       0
       0       0       0       0       0       0       0       0       0       0
       0       0       0       0       0       0       0       0       0       0
       0       0       0       0       0       0       0       0       0       0
       0       0       0       0       0       0       0       0       0       0
       0       0       0       0       0       0       0       0       0       0
       0       0       0       0       0       0       0       0       0       0
       0       0       0       0       0       0       0       0       0       0
       0       0       0       0       0       0       0       0       0       0
       0       0       0       0       0       0       0       0       0       0
       0       0       0       0       0       0       0       0       0       0
       0       0       0       0       0       0       0       0       0       0
       0       0       0       0       0       0       0       0       0       0
       0       0       0       0       0       0       0       0       0       0
       0       0       0       0       0       0       0       0       0       0
       0       0       0       0       0       0       0       0       0       0
       0       0       0       0       0       0       0       0       0       0
       0       0       0       0       0       0       0       0       0       0
       0       0       0       0       0       0       0       0       0       0
       0       0       0       0       0       0       0       0       0       0
       0       0       0       0       0       0       0       0       0       0
       0       0       0       0       0       0       0       0       0       0
       0       0       0       0       0       0       0       0       0       0
       0       0       0       0       0       0       0       0       0       0
       0       0       0       0       0       0       0       0       0       0
       0       0       0       0       0       0       0       0       0       0
       0       0       0       0       0       0       0       0       0       0
       0       0       0       0       0       0       0       0       0       0
       0       0       0       0       0       0       0       0       0       0
       0       0       0       0       0       0       0       0       0       0
       0       0       0       0       0       0       0       0       0       0
       0       0       0       0       0       0       0       0       0       0
       0       0       0       0       0       0       0       0       0       0
       0       0       0       0       0       0       0       0       0       0
       0       0       0       0       0       0       0       0       0       0
       0       0       0       0       0       0       0       0       0       0
       0       0       0       0       0       0       0       0       0       0
       0       0       0       0       0       0       0       0       0       0
       0       0       0       0       0       0       0       0       0       0
       0       0       0       0       0       0       0       0       0       0
       0       0       0       0       0       0       0       0       0       0
       0       0       0       0       0       0       0       0       0       0
       0       0       0       0       0       0       0       0       0       0
       0       0       0       0       0       0       0       0       0       0
       0       0       0       0       0       0       0       0       0       0
       0       0       0       0       0       0       0       0       0       0
       0       0       0       0       0       0       0       0       0       0
       0       0       0       0       0       0       0       0       0       0
       0       0       0       0       0       0       0       0       0       0
       0       0       0       0       0       0       0       0       0       0
       0       0       0       0       0       0       0       0       0       0
       0       0       0       0       0       0       0       0       0       0
       0       0       0       0       0       0       0       0       0       0
       0       0       0       0       0       0       0       0       0       0
       0       0       0       0       0       0       0       0       0       0
       0       0       0       0       0       0       0       0       0       0
       0       0       0       0       0       0       0       0       0       0
       0       0       0       0       0       0       0       0       0       0
       0       0       0       0       0       0       0       0       0       0
       0       0       0       0       0       0       0       0       0       0
       0       0       0       0       0       0       0       0       0       0
       0       0       0       0       0       0       0       0       0       0
       0       0       0       0       0       0       0       0       0       0
       0       0       0       0       0       0       0       0       0       0
       0       0       0       0       0       0       0       0       0       0
       0       0       0       0       0       0       0       0       0       0
       0       0       0       0       0       0       0       0       0       0
       0       0       0       0       0       0       0       0       0       0
       0       0       0       0       0       0       0       0       0       0
       0       0       0       0       0       0       0       0       0       0
       0       0       0       0       0       0       0       0       0       0
       0       0       0       0       0       0       0       0       0       0
       0       0       0       0       0       0       0       0       0       0
       0       0       0       0       0       0       0       0       0       0
       0       0       0       0       0       0       0       0       0       0
       0       0       0       0       0       0       0       0       0       0
       0       0       0       0       0       0       0       0       0       0
       0       0       0       0       0       0       0       0       0       0
       0       0       0       0       0       0       0       0       0       0
       0       0       0       0       0       0       0       0       0       0
       0       0       0       0       0       0       0       0       0       0
       0       0       0       0       0       0       0       0       0       0
       0       0       0       0       0       0       0       0       0       0
       0       0       0       0       0       0       0       0       0       0
       0       0       0       0       0       0       0       0       0       0
       0       0       0       0       0       0       0       0       0       0
       0       0       0       0       0       0       0       0       0       0
       0       0       0       0       0       0       0       0       0       0
       0       0       0       0       0       0       0       0       0       0
       0       0       0       0       0       0       0       0       0       0
       0       0       0       0       0       0       0       0       0       0
       0       0       0       0       0       0       0       0       0       0
       0       0       0       0       0       0       0       0       0       0
       0       0       0       0       0       0       0       0       0       0
       0       0       0       0       0       0       0       0       0       0
       0       0       0       0       0       0       0       0       0       0
       0       0       0       0       0       0       0       0       0       0
       0       0       0       0       0       0       0       0       0       0
       0       0       0       0       0       0       0       0       0       0
       0       0       0       0       0       0       0       0       0       0
       0       0       0       0       0       0       0       0       0       0
       0       0       0       0       0       0       0       0       0       0
       0       0       0       0       0       0       0       0       0       0
       0       0       0       0       0       0       0       0       0       0
       0       0       0       0       0       0       0       0       0       0
       0       0       0       0       0       0       0       0       0       0
       0       0       0       0       0       0       0       0       0       0
       0       0       0       0       0       0       0       0       0       0
       0       0       0       0       0       0       0       0       0       0
       0       0       0       0       0       0       0       0       0       0
       0       0       0       0       0       0       0       0       0       0
       0       0       0       0       0       0       0       0       0       0
       0       0       0       0       0       0       0       0       0       0
       0       0       0       0       0       0       0       0       0       0
       0       0       0       0       0       0       0       0       0       0
       0       0       0       0       0       0       0       0       0       0
       0       0       0       0       0       0       0       0       0       0
       0       0       0       0       0       0       0       0       0       0
       0       0       0       0       0       0       0       0       0       0
       0       0       0       0       0       0       0       0       0       0
       0       0       0       0       0       0       0       0       0       0
       0       0       0       0       0       0       0       0       0       0
       0       0       0       0       0       0       0       0       0       0
       0       0       0       0       0       0       0       0       0       0
       0       0       0       0       0       0       0       0       0       0
       0       0       0       0       0       0       0       0       0       0
       0       0       0       0       0       0       0       0       0       0
       0       0       0       0       0       0       0       0       0       0
       0       0       0       0       0       0       0       0       0       0
       0       0       0       0       0       0       0       0       0       0
       0       0       0       0       0       0       0       0       0       0
       0       0       0       0       0       0       0       0       0       0
       0       0       0       0       0       0       0       0       0       0
       0       0       0       0       0       0       0       0       0       0
       0       0       0       0       0       0       0       0       0       0
       0       0       0       0       0       0       0       0       0       0
       0       0       0       0       0       0       0       0       0       0
       0       0       0       0       0       0       0       0       0       0
       0       0       0       0       0       0       0       0       0       0
       0       0       0       0       0       0       0       0       0       0
       0       0       0       0       0       0       0       0       0       0
       0       0       0       0       0       0       0       0       0       0
       0       0       0       0       0       0       0       0       0       0
       0       0       0       0       0       0       0       0       0       0
       0       0       0       0       0       0       0       0       0       0
       0       0       0       0       0       0       0       0       0       0
       0       0       0       0       0       0       0       0       0       0
       0       0       0       0       0       0       0       0       0       0
       0       0       0       0       0       0       0       0       0       0
       0       0       0       0       0       0       0       0       0       0
       0       0       0       0       0       0       0       0       0       0
       0       0       0       0       0       0       0       0       0       0
       0       0       0       0       0       0       0       0       0       0
       0       0       0       0       0       0       0       0       0       0
       0       0       0       0       0       0       0       0       0       0
       0       0       0       0       0       0       0       0       0       0
       0       0       0       0       0       0       0       0       0       0
       0       0       0       0       0       0       0       0       0       0
       0       0       0       0       0       0       0       0       0       0
       0       0       0       0       0       0       0       0       0       0
       0       0       0       0       0       0       0       0       0       0
       0       0       0       0       0       0       0       0       0       0
       0       0       0       0       0       0       0       0       0       0
       0       0       0       0       0       0       0       0       0       0
       0       0       0       0       0       0       0       0       0       0
       0       0       0       0       0       0       0       0       0       0
       0       0       0       0       0       0       0       0       0       0
       0       0       0       0       0       0       0       0       0       0
       0       0       0       0       0       0       0       0       0       0
       0       0       0       0       0       0       0       0       0       0
       0       0       0       0       0       0       0       0       0       0
       0       0       0       0       0       0       0       0       0       0
       0       0       0       0       0       0       0       0       0       0
       0       0       0       0       0       0       0       0       0       0
       0       0       0       0       0       0       0       0       0       0
       0       0       0       0       0       0       0       0       0       0
       0       0       0       0       0       0       0       0       0       0
       0       0       0       0       0       0       0       0       0       0
       0       0       0       0       0       0       0       0       0       0
       0       0       0       0       0       0       0       0       0       0
       0       0       0       0       0       0       0       0       0       0
       0       0       0       0       0       0       0       0       0       0
       0       0       0       0       0       0       0       0       0       0
       0       0       0       0       0       0       0       0       0       0
       0       0       0       0       0       0       0       0       0       0
       0       0       0       0       0       0       0       0       0       0
       0       0       0       0       0       0       0       0       0       0
       0       0       0       0       0       0       0       0       0       0
       0       0       0       0       0       0       0       0       0       0
       0       0       0       0       0       0       0       0       0       0
       0       0       0       0       0       0       0       0       0       0
       0       0       0       0       0       0       0       0       0       0
       0       0       0       0       0       0       0       0       0       0
       0       0       0       0       0       0       0       0       0       0
       0       0       0       0       0       0       0       0       0       0
       0       0       0       0       0       0       0       0       0       0
       0       0       0       0       0       0       0       0       0       0
       0       0       0       0       0       0       0       0       0       0
       0       0       0       0       0       0       0       0       0       0
       0       0       0       0       0       0       0       0       0       0
       0       0       0       0       0       0       0       0       0       0
       0       0       0       0       0       0       0       0       0       0
       0       0       0       0       0       0       0       0       0       0
       0       0       0       0       0       0       0       0       0       0
       0       0       0       0       0       0       0       0       0       0
       0       0       0       0       0       0       0       0       0       0
       0       0       0       0       0       0       0       0       0       0
       0       0       0       0       0       0       0       0       0       0
       0       0       0       0       0       0       0       0       0       0
       0       0       0       0       0       0       0       0       0       0
       0       0       0       0       0       0       0       0       0       0
       0       0       0       0       0       0       0       0       0       0
       0       0       0       0       0       0       0       0       0       0
       0       0       0       0       0       0       0       0       0       0
       0       0       0       0       0       0       0       0       0       0
       0       0       0       0       0       0       0       0       0       0
       0       0       0       0       0       0       0       0       0       0
       0       0       0       0       0       0       0       0       0       0
       0       0       0       0       0       0       0       0       0       0
       0       0       0       0       0       0       0       0       0       0
       0       0       0       0       0       0       0       0       0       0
       0       0       0       0       0       0       0       0       0       0
       0       0       0       0       0       0       0       0       0       0
       0       0       0       0       0       0       0       0       0       0
       0       0       0       0       0       0       0       0       0       0
       0       0       0       0       0       0       0       0       0       0
       0       0       0       0       0       0       0       0       0       0
       0       0       0       0       0       0       0       0       0       0
       0       0       0       0       0       0       0       0       0       0
       0       0       0       0       0       0       0       0       0       0
       0       0       0       0       0       0       0       0       0       0
       0       0       0       0       0       0       0       0       0       0
       0       0       0       0       0       0       0       0       0       0
       0       0       0       0       0       0       0       0       0       0
       0       0       0       0       0       0       0       0       0       0
       0       0       0       0       0       0       0       0       0       0
       0       0       0       0       0       0       0       0       0       0
       0       0       0       0       0       0       0       0       0       0
       0       0       0       0       0       0       0       0       0       0
       0       0       0       0       0       0       0       0       0       0
       0       0       0       0       0       0       0       0       0       0
       0       0       0       0       0       0       0       0       0       0
       0       0       0       0       0       0       0       0       0       0
       0       0       0       0       0       0       0       0       0       0
       0       0       0       0       0       0       0       0       0       0
       0       0       0       0       0       0       0       0       0       0
       0       0       0       0       0       0       0       0       0       0
       0       0       0       0       0       0       0       0       0       0
       0       0       0       0       0       0       0       0       0       0
       0       0       0       0       0       0       0       0       0       0
       0       0       0       0       0       0       0       0       0       0
       0       0       0       0       0       0       0       0       0       0
       0       0       0       0       0       0       0       0       0       0
       0       0       0       0       0       0       0       0       0       0
       0       0       0       0       0       0       0       0       0       0
       0       0       0       0       0       0       0       0       0       0
       0       0       0       0       0       0       0       0       0       0
       0       0       0       0       0       0       0       0       0       0
       0       0       0       0       0       0       0       0       0       0
       0       0       0       0       0       0       0       0       0       0
       0       0       0       0       0       0       0       0       0       0
       0       0       0       0       0       0       0       0       0       0
       0       0       0       0       0       0       0       0       0       0
       0       0       0       0       0       0       0       0       0       0
       0       0       0       0       0       0       0       0       0       0
       0       0       0       0       0       0       0       0       0       0
       0       0       0       0       0       0       0       0       0       0
       0       0       0       0       0       0       0       0       0       0
       0       0       0       0       0       0       0       0       0       0
       0       0       0       0       0       0       0       0       0       0
       0       0       0       0       0       0       0       0       0       0
       0       0       0       0       0       0       0       0       0       0
       0       0       0       0       0       0       0       0       0       0
       0       0       0       0       0       0       0       0       0       0
       0       0       0       0       0       0       0       0       0       0
       0       0       0       0       0       0       0       0       0       0
       0       0       0       0       0       0       0       0       0       0
       0       0       0       0       0       0       0       0       0       0
       0       0       0       0       0       0       0       0       0       0
       0       0       0       0       0       0       0       0       0       0
       0       0       0       0       0       0       0       0       0       0
       0       0       0       0       0       0       0       0       0       0
       0       0       0       0       0       0       0       0       0       0
       0       0       0       0       0       0       0       0       0       0
       0       0       0       0       0       0       0       0       0       0
       0       0       0       0       0       0       0       0       0       0
       0       0       0       0       0       0       0       0       0       0
       0       0       0       0       0       0       0       0       0       0
       0       0       0       0       0       0       0       0       0       0
       0       0       0       0       0       0       0       0       0       0
       0       0       0       0       0       0       0       0       0       0
       0       0       0       0       0       0       0       0       0       0
       0       0       0       0       0       0       0       0       0       0
       0       0       0       0       0       0       0       0       0       0
       0       0       0       0       0       0       0       0       0       0
       0       0       0       0       0       0       0       0       0       0
       0       0       0       0       0       0       0       0       0       0
       0       0       0       0       0       0       0       0       0       0
       0       0       0       0       0       0       0       0       0       0
       0       0       0       0       0       0       0       0       0       0
       0       0       0       0       0       0       0       0       0       0
       0       0       0       0       0       0       0       0       0       0
       0       0       0       0       0       0       0       0       0       0
       0       0       0       0       0       0       0       0       0       0
       0       0       0       0       0       0       0       0       0       0
       0       0       0       0       0       0       0       0       0       0
       0       0       0       0       0       0       0       0       0       0
       0       0       0       0       0       0       0       0       0       0
       0       0       0       0       0       0       0       0       0       0
       0       0       0       0       0       0       0       0       0       0
       0       0       0       0       0       0       0       0       0       0
       0       0       0       0       0       0       0       0       0       0
       0       0       0       0       0       0       0       0       0       0
       0       0       0       0       0       0       0       0       0       0
       0       0       0       0       0       0       0       0       0       0
       0       0       0       0       0       0       0       0       0       0
       0       0       0       0       0       0       0       0       0       0
       0       0       0       0       0       0       0       0       0       0
       0       0       0       0       0       0       0       0       0       0
       0       0       0       0       0       0       0       0       0       0
       0       0       0       0       0       0       0       0       0       0
       0       0       0       0       0       0       0       0       0       0
       0       0       0       0       0       0       0       0       0       0
       0       0       0       0       0       0       0       0       0       0
       0       0       0       0       0       0       0       0       0       0
       0       0       0       0       0       0       0       0       0       0
       0       0       0       0       0       0       0       0       0       0
       0       0       0       0       0       0       0       0       0       0
       0       0       0       0       0       0       0       0       0       0
       0       0       0       0       0       0       0       0       0       0
       0       0       0       0       0       0       0       0       0       0
       0       0       0       0       0       0       0       0       0       0
       0       0       0       0       0       0       0       0       0       0
       0       0       0       0       0       0       0       0       0       0
       0       0       0       0       0       0       0       0       0       0
       0       0       0       0       0       0       0       0       0       0
       0       0       0       0       0       0       0       0       0       0
       0       0       0       0       0       0       0       0       0       0
       0       0       0       0       0       0       0       0       0       0
       0       0       0       0       0       0       0       0       0       0
       0       0       0       0       0       0       0       0       0       0
       0       0       0       0       0       0       0       0       0       0
       0       0       0       0       0       0       0       0       0       0
       0       0       0       0       0       0       0       0       0       0
       0       0       0       0       0       0       0       0       0       0
       0       0       0       0       0       0       0       0       0       0
       0       0       0       0       0       0       0       0       0       0
       0       0       0       0       0       0       0       0       0       0
       0       0       0       0       0       0       0       0       0       0
       0       0       0       0       0       0       0       0       0       0
       0       0       0       0       0       0       0       0       0       0
       0       0       0       0       0       0       0       0       0       0
       0       0       0       0       0       0       0       0       0       0
       0       0       0       0       0       0       0       0       0       0
       0       0       0       0       0       0       0       0       0       0
       0       0       0       0       0       0       0       0       0       0
       0       0       0       0       0       0       0       0       0       0
       0       0       0       0       0       0       0       0       0       0
       0       0       0       0       0       0       0       0       0       0
       0       0       0       0       0       0       0       0       0       0
       0       0       0       0       0       0       0       0       0       0
       0       0       0       0       0       0       0       0       0       0
       0       0       0       0       0       0       0       0       0       0
       0       0       0       0       0       0       0       0       0       0
       0       0       0       0       0       0       0       0       0       0
       0       0       0       0       0       0       0       0       0       0
       0       0       0       0       0       0       0       0       0       0
       0       0       0       0       0       0       0       0       0       0
       0       0       0       0       0       0       0       0       0       0
       0       0       0       0       0       0       0       0       0       0
       0       0       0       0       0       0       0       0       0       0
       0       0       0       0       0       0       0       0       0       0
       0       0       0       0       0       0       0       0       0       0
       0       0       0       0       0       0       0       0       0       0
       0       0       0       0       0       0       0       0       0       0
       0       0       0       0       0       0       0       0       0       0
       0       0       0       0       0       0       0       0       0       0
       0       0       0       0       0       0       0       0       0       0
       0       0       0       0       0       0       0       0       0       0
       0       0       0       0       0       0       0       0       0       0
       0       0       0       0       0       0       0       0       0       0
       0       0       0       0       0       0       0       0       0       0
       0       0       0       0       0       0       0       0       0       0
       0       0       0       0       0       0       0       0       0       0
       0       0       0       0       0       0       0       0       0       0
       0       0       0       0       0       0       0       0       0       0
       0       0       0       0       0       0       0       0       0       0
       0       0       0       0       0       0       0       0       0       0
       0       0       0       0       0       0       0       0       0       0
       0       0       0       0       0       0       0       0       0       0
       0       0       0       0       0       0       0       0       0       0
       0       0       0       0       0       0       0       0       0       0
       0       0       0       0       0       0       0       0       0       0
       0       0       0       0       0       0       0       0       0       0
       0       0       0       0       0       0       0       0       0       0
       0       0       0       0       0       0       0       0       0       0
       0       0       0       0       0       0       0       0       0       0
       0       0       0       0       0       0       0       0       0       0
       0       0       0       0       0       0       0       0       0       0
       0       0       0       0       0       0       0       0       0       0
       0       0       0       0       0       0       0       0       0       0
       0       0       0       0       0       0       0       0       0       0
       0       0       0       0       0       0       0       0       0       0
       0       0       0       0       0       0       0       0       0       0
       0       0       0       0       0       0       0       0       0       0
       0       0       0       0       0       0       0       0       0       0
       0       0       0       0       0       0       0       0       0       0
       0       0       0       0       0       0       0       0       0       0
       0       0       0       0       0       0       0       0       0       0
       0       0       0       0       0       0       0       0       0       0
       0       0       0       0       0       0       0       0       0       0
       0       0       0       0       0       0       0       0       0       0
       0       0       0       0       0       0       0       0       0       0
       0       0       0       0       0       0       0       0       0       0
       0       0       0       0       0       0       0       0       0       0
       0       0       0       0       0       0       0       0       0       0
       0       0       0       0       0       0       0       0       0       0
       0       0       0       0       0       0       0       0       0       0
       0       0       0       0       0       0       0       0       0       0
       0       0       0       0       0       0       0       0       0       0
       0       0       0       0       0       0       0       0       0       0
       0       0       0       0       0       0       0       0       0       0
       0       0       0       0       0       0       0       0       0       0
       0       0       0       0       0       0       0       0       0       0
       0       0       0       0       0       0       0       0       0       0
       0       0       0       0       0       0       0       0       0       0
       0       0       0       0       0       0       0       0       0       0
       0       0       0       0       0       0       0       0       0       0
       0       0       0       0       0       0       0       0       0       0
       0       0       0       0       0       0       0       0       0       0
       0       0       0       0       0       0       0       0       0       0
       0       0       0       0       0       0       0       0       0       0
       0       0       0       0       0       0       0       0       0       0
       0       0       0       0       0       0       0       0       0       0
       0       0       0       0       0       0       0       0       0       0
       0       0       0       0       0       0       0       0       0       0
       0       0       0       0       0       0       0       0       0       0
       0       0       0       0       0       0       0       0       0       0
       0       0       0       0       0       0       0       0       0       0
       0       0       0       0       0       0       0       0       0       0
       0       0       0       0       0       0       0       0       0       0
       0       0       0       0       0       0       0       0       0       0
       0       0       0       0       0       0       0       0       0       0
       0       0       0       0       0       0       0       0       0       0
       0       0       0       0       0       0       0       0       0       0
       0       0       0       0       0       0       0       0       0       0
       0       0       0       0       0       0       0       0       0       0
       0       0       0       0       0       0       0       0       0       0
       0       0       0       0       0       0       0       0       0       0
       0       0       0       0       0       0       0       0       0       0
       0       0       0       0       0       0       0       0       0       0
       0       0       0       0       0       0       0       0       0       0
       0       0       0       0       0       0       0       0       0       0
       0       0       0       0       0       0       0       0       0       0
       0       0       0       0       0       0       0       0       0       0
       0       0       0       0       0       0       0       0       0       0
       0       0       0       0       0       0       0       0       0       0
       0       0       0       0       0       0       0       0       0       0
       0       0       0       0       0       0       0       0       0       0
       0       0       0       0       0       0       0       0       0       0
       0       0       0       0       0       0       0       0       0       0
       0       0       0       0       0       0       0       0       0       0
       0       0       0       0       0       0       0       0       0       0
       0       0       0       0       0       0       0       0       0       0
       0       0       0       0       0       0       0       0       0       0
       0       0       0       0       0       0       0       0       0       0
       0       0       0       0       0       0       0       0       0       0
       0       0       0       0       0       0       0       0       0       0
       0       0       0       0       0       0       0       0       0       0
       0       0       0       0       0       0       0       0       0       0
       0       0       0       0       0       0       0       0       0       0
       0       0       0       0       0       0       0       0       0       0
       0       0       0       0       0       0       0       0       0       0
       0       0       0       0       0       0       0       0       0       0
       0       0       0       0       0       0       0       0       0       0
       0       0       0       0       0       0       0       0       0       0
       0       0       0       0       0       0       0       0       0       0
       0       0       0       0       0       0       0       0       0       0
       0       0       0       0       0       0       0       0       0       0
       0       0       0       0       0       0       0       0       0       0
       0       0       0       0       0       0       0       0       0       0
       0       0       0       0       0       0       0       0       0       0
       0       0       0       0       0       0       0       0       0       0
       0       0       0       0       0       0       0       0       0       0
       0       0       0       0       0       0       0       0       0       0
       0       0       0       0       0       0       0       0       0       0
       0       0       0       0       0       0       0       0       0       0
       0       0       0       0       0       0       0       0       0       0
       0       0       0       0       0       0       0       0       0       0
       0       0       0       0       0       0       0       0       0       0
       0       0       0       0       0       0       0       0       0       0
       0       0       0       0       0       0       0       0       0       0
       0       0       0       0       0       0       0       0       0       0
       0       0       0       0       0       0       0       0       0       0
       0       0       0       0       0       0       0       0       0       0
       0       0       0       0       0       0       0       0       0       0
       0       0       0       0       0       0       0       0       0       0
       0       0       0       0       0       0       0       0       0       0
       0       0       0       0       0       0       0       0       0       0
       0       0       0       0       0       0       0       0       0       0
       0       0       0       0       0       0       0       0       0       0
       0       0       0       0       0       0       0       0       0       0
       0       0       0       0       0       0       0       0       0       0
       0       0       0       0       0       0       0       0       0       0
       0       0       0       0       0       0       0       0       0       0
       0       0       0       0       0       0       0       0       0       0
       0       0       0       0       0       0       0       0       0       0
       0       0       0       0       0       0       0       0       0       0
       0       0       0       0       0       0       0       0       0       0
       0       0       0       0       0       0       0       0       0       0
       0       0       0       0       0       0       0       0       0       0
       0       0       0       0       0       0       0       0       0       0
       0       0       0       0       0       0       0       0       0       0
       0       0       0       0       0       0       0       0       0       0
       0       0       0       0       0       0       0       0       0       0
       0       0       0       0       0       0       0       0       0       0
       0       0       0       0       0       0       0       0       0       0
       0       0       0       0       0       0       0       0       0       0
       0       0       0       0       0       0       0       0       0       0
       0       0       0       0       0       0       0       0       0       0
       0       0       0       0       0       0       0       0       0       0
       0       0       0       0       0       0       0       0       0       0
       0       0       0       0       0       0       0       0       0       0
       0       0       0       0       0       0       0       0       0       0
       0       0       0       0       0       0       0       0       0       0
       0       0       0       0       0       0       0       0       0       0
       0       0       0       0       0       0       0       0       0       0
       0       0       0       0       0       0       0       0       0       0
       0       0       0       0       0       0       0       0       0       0
       0       0       0       0       0       0       0       0       0       0
       0       0       0       0       0       0       0       0       0       0
       0       0       0       0       0       0       0       0       0       0
       0       0       0       0       0       0       0       0       0       0
       0       0       0       0       0       0       0       0       0       0
       0       0       0       0       0       0       0       0       0       0
       0       0       0       0       0       0       0       0       0       0
       0       0       0       0       0       0       0       0       0       0
       0       0       0       0       0       0       0       0       0       0
       0       0       0       0       0       0       0       0       0       0
       0       0       0       0       0       0       0       0       0       0
       0       0       0       0       0       0       0       0       0       0
       0       0       0       0       0       0       0       0       0       0
       0       0       0       0       0       0       0       0       0       0
       0       0       0       0       0       0       0       0       0       0
       0       0       0       0       0       0       0       0       0       0
       0       0       0       0       0       0       0       0       0       0
       0       0       0       0       0       0       0       0       0       0
       0       0       0       0       0       0       0       0       0       0
       0       0       0       0       0       0       0       0       0       0
       0       0       0       0       0       0       0       0       0       0
       0       0       0       0       0       0       0       0       0       0
       0       0       0       0       0       0       0       0       0       0
       0       0       0       0       0       0       0       0       0       0
       0       0       0       0       0       0       0       0       0       0
       0       0       0       0       0       0       0       0       0       0
       0       0       0       0       0       0       0       0       0       0
       0       0       0       0       0       0       0       0       0       0
       0       0       0       0       0       0       0       0       0       0
       0       0       0       0       0       0       0       0       0       0
       0       0       0       0       0       0       0       0       0       0
       0       0       0       0       0       0       0       0       0       0
       0       0       0       0       0       0       0       0       0       0
       0       0       0       0       0       0       0       0       0       0
       0       0       0       0       0       0       0       0       0       0
       0       0       0       0       0       0       0       0       0       0
       0       0       0       0       0       0       0       0       0       0
       0       0       0       0       0       0       0       0       0       0
       0       0       0       0       0       0       0       0       0       0
       0       0       0       0       0       0       0       0       0       0
       0       0       0       0       0       0       0       0       0       0
       0       0       0       0       0       0       0       0       0       0
       0       0       0       0       0       0       0       0       0       0
       0       0       0       0       0       0       0       0       0       0
       0       0       0       0       0       0       0       0       0       0
       0       0       0       0       0       0       0       0       0       0
       0       0       0       0       0       0       0       0       0       0
       0       0       0       0       0       0       0       0       0       0
       0       0       0       0       0       0       0       0       0       0
       0       0       0       0       0       0       0       0       0       0
       0       0       0       0       0       0       0       0       0       0
       0       0       0       0       0       0       0       0       0       0
       0       0       0       0       0       0       0       0       0       0
       0       0       0       0       0       0       0       0       0       0
       0       0       0       0       0       0       0       0       0       0
       0       0       0       0       0       0       0       0       0       0
       0       0       0       0       0       0       0       0       0       0
       0       0       0       0       0       0       0       0       0       0
       0       0       0       0       0       0       0       0       0       0
       0       0       0       0       0       0       0       0       0       0
       0       0       0       0       0       0       0       0       0       0
       0       0       0       0       0       0       0       0       0       0
       0       0       0       0       0       0       0       0       0       0
       0       0       0       0       0       0       0       0       0       0
       0       0       0       0       0       0       0       0       0       0
       0       0       0       0       0       0       0       0       0       0
       0       0       0       0       0       0       0       0       0       0
       0       0       0       0       0       0       0       0       0       0
       0       0       0       0       0       0       0       0       0       0
       0       0       0       0       0       0       0       0       0       0
       0       0       0       0       0       0       0       0       0       0
       0       0       0       0       0       0       0       0       0       0
       0       0       0       0       0       0       0       0       0       0
       0       0       0       0       0       0       0       0       0       0
       0       0       0       0       0       0       0       0       0       0
       0       0       0       0       0       0       0       0       0       0
       0       0       0       0       0       0       0       0       0       0
       0       0       0       0       0       0       0       0       0       0
       0       0       0       0       0       0       0       0       0       0
       0       0       0       0       0       0       0       0       0       0
       0       0       0       0       0       0       0       0       0       0
       0       0       0       0       0       0       0       0       0       0
       0       0       0       0       0       0       0       0       0       0
       0       0       0       0       0       0       0       0       0       0
       0       0       0       0       0       0       0       0       0       0
       0       0       0       0       0       0       0       0       0       0
       0       0       0       0       0       0       0       0       0       0
       0       0       0       0       0       0       0       0       0       0
       0       0       0       0       0       0       0       0       0       0
       0       0       0       0       0       0       0       0       0       0
       0       0       0       0       0       0       0       0       0       0
       0       0       0       0       0       0       0       0       0       0
       0       0       0       0       0       0       0       0       0       0
       0       0       0       0       0       0       0       0       0       0
       0       0       0       0       0       0       0       0       0       0
       0       0       0       0       0       0       0       0       0       0
       0       0       0       0       0       0       0       0       0       0
       0       0       0       0       0       0       0       0       0       0
       0       0       0       0       0       0       0       0       0       0
       0       0       0       0       0       0       0       0       0       0
       0       0       0       0       0       0       0       0       0       0
       0       0       0       0       0       0       0       0       0       0
       0       0       0       0       0       0       0       0       0       0
       0       0       0       0       0       0       0       0       0       0
       0       0       0       0       0       0       0       0       0       0
       0       0       0       0       0       0       0       0       0       0
       0       0       0       0       0       0       0       0       0       0
       0       0       0       0       0       0       0       0       0       0
       0       0       0       0       0       0       0       0       0       0
       0       0       0       0       0       0       0       0       0       0
       0       0       0       0       0       0       0       0       0       0
       0       0       0       0       0       0       0       0       0       0
       0       0       0       0       0       0       0       0       0       0
       0       0       0       0       0       0       0       0       0       0
       0       0       0       0       0       0       0       0       0       0
       0       0       0       0       0       0       0       0       0       0
       0       0       0       0       0       0       0       0       0       0
       0       0       0       0       0       0       0       0       0       0
       0       0       0       0       0       0       0       0       0       0
       0       0       0       0       0       0       0       0       0       0
       0       0       0       0       0       0       0       0       0       0
       0       0       0       0       0       0       0       0       0       0
       0       0       0       0       0       0       0       0       0       0
       0       0       0       0       0       0       0       0       0       0
       0       0       0       0       0       0       0       0       0       0
       0       0       0       0       0       0       0       0       0       0
       0       0       0       0       0       0       0       0       0       0
       0       0       0       0       0       0       0       0       0       0
       0       0       0       0       0       0       0       0       0       0
       0       0       0       0       0       0       0       0       0       0
       0       0       0       0       0       0       0       0       0       0
       0       0       0       0       0       0       0       0       0       0
       0       0       0       0       0       0       0       0       0       0
       0       0       0       0       0       0       0       0       0       0
       0       0       0       0       0       0       0       0       0       0
       0       0       0       0       0       0       0       0       0       0
       0       0       0       0       0       0       0       0       0       0
       0       0       0       0       0       0       0       0       0       0
       0       0       0       0       0       0       0       0       0       0
       0       0       0       0       0       0       0       0       0       0
       0       0       0       0       0       0       0       0       0       0
       0       0       0       0       0       0       0       0       0       0
       0       0       0       0       0       0       0       0       0       0
       0       0       0       0       0       0       0       0       0       0
       0       0       0       0       0       0       0       0       0       0
       0       0       0       0       0       0       0       0       0       0
       0       0       0       0       0       0       0       0       0       0
       0       0       0       0       0       0       0       0       0       0
       0       0       0       0       0       0       0       0       0       0
       0       0       0       0       0       0       0       0       0       0
       0       0       0       0       0       0       0       0       0       0
       0       0       0       0       0       0       0       0       0       0
       0       0       0       0       0       0       0       0       0       0
       0       0       0       0       0       0       0       0       0       0
       0       0       0       0       0       0       0       0       0       0
       0       0       0       0       0       0       0       0       0       0
       0       0       0       0       0       0       0       0       0       0
       0       0       0       0       0       0       0       0       0       0
       0       0       0       0       0       0       0       0       0       0
       0       0       0       0       0       0       0       0       0       0
       0       0       0       0       0       0       0       0       0       0
       0       0       0       0       0       0       0       0       0       0
       0       0       0       0       0       0       0       0       0       0
       0       0       0       0       0       0       0       0       0       0
       0       0       0       0       0       0       0       0       0       0
       0       0       0       0       0       0       0       0       0       0
       0       0       0       0       0       0       0       0       0       0
       0       0       0       0       0       0       0       0       0       0
       0       0       0       0       0       0       0       0       0       0
       0       0       0       0       0       0       0       0       0       0
       0       0       0       0       0       0       0       0       0       0
       0       0       0       0       0       0       0       0       0       0
       0       0       0       0       0       0       0       0       0       0
       0       0       0       0       0       0       0       0       0       0
       0       0       0       0       0       0       0       0       0       0
       0       0       0       0       0       0       0       0       0       0
       0       0       0       0       0       0       0       0       0       0
       0       0       0       0       0       0       0       0       0       0
       0       0       0       0       0       0       0       0       0       0
       0       0       0       0       0       0       0       0       0       0
       0       0       0       0       0       0       0       0       0       0
       0       0       0       0       0       0       0       0       0       0
       0       0       0       0       0       0       0       0       0       0
       0       0       0       0       0       0       0       0       0       0
       0       0       0       0       0       0       0       0       0       0
       0       0       0       0       0       0       0       0       0       0
       0       0       0       0       0       0       0       0       0       0
       0       0       0       0       0       0       0       0       0       0
       0       0       0       0       0       0       0       0       0       0
       0       0       0       0       0       0       0       0       0       0
       0       0       0       0       0       0       0       0       0       0
       0       0       0       0       0       0       0       0       0       0
       0       0       0       0       0       0       0       0       0       0
       0       0       0       0       0       0       0       0       0       0
       0       0       0       0       0       0       0       0       0       0
       0       0       0       0       0       0       0       0       0       0
       0       0       0       0       0       0       0       0       0       0
       0       0       0       0       0       0       0       0       0       0
       0       0       0       0       0       0       0       0       0       0
       0       0       0       0       0       0       0       0       0       0
       0       0       0       0       0       0       0       0       0       0
       0       0       0       0       0       0       0       0       0       0
       0       0       0       0       0       0       0       0       0       0
       0       0       0       0       0       0       0       0       0       0
       0       0       0       0       0       0       0       0       0       0
       0       0       0       0       0       0       0       0       0       0
       0       0       0       0       0       0       0       0       0       0
       0       0       0       0       0       0       0       0       0       0
       0       0       0       0       0       0       0       0       0       0
       0       0       0       0       0       0       0       0       0       0
       0       0       0       0       0       0       0       0       0       0
       0       0       0       0       0       0       0       0       0       0
       0       0       0       0       0       0       0       0       0       0
       0       0       0       0       0       0       0       0       0       0
       0       0       0       0       0       0       0       0       0       0
       0       0       0       0       0       0       0       0       0       0
       0       0       0       0       0       0       0       0       0       0
       0       0       0       0       0       0       0       0       0       0
       0       0       0       0       0       0       0       0       0       0
       0       0       0       0       0       0       0       0       0       0
       0       0       0       0       0       0       0       0       0       0
       0       0       0       0       0       0       0       0       0       0
       0       0       0       0       0       0       0       0       0       0
       0       0       0       0       0       0       0       0       0       0
       0       0       0       0       0       0       0       0       0       0
       0       0       0       0       0       0       0       0       0       0
       0       0       0       0       0       0       0       0       0       0
       0       0       0       0       0       0       0       0       0       0
       0       0       0       0       0       0       0       0       0       0
       0       0       0       0       0       0       0       0       0       0
       0       0       0       0       0       0       0       0       0       0
       0       0       0       0       0       0       0       0       0       0
       0       0       0       0       0       0       0       0       0       0
       0       0       0       0       0       0       0       0       0       0
       0       0       0       0       0       0       0       0       0       0
       0       0       0       0       0       0       0       0       0       0
       0       0       0       0       0       0       0       0       0       0
       0       0       0       0       0       0       0       0       0       0
       0       0       0       0       0       0       0       0       0       0
       0       0       0       0       0       0       0       0       0       0
       0       0       0       0       0       0       0       0       0       0
       0       0       0       0       0       0       0       0       0       0
       0       0       0       0       0       0       0       0       0       0
       0       0       0       0       0       0       0       0       0       0
       0       0       0       0       0       0       0       0       0       0
       0       0       0       0       0       0       0       0       0       0
       0       0       0       0       0       0       0       0       0       0
       0       0       0       0       0       0       0       0       0       0
       0       0       0       0       0       0       0       0       0       0
       0       0       0       0       0       0       0       0       0       0
       0       0       0       0       0       0       0       0       0       0
       0       0       0       0       0       0       0       0       0       0
       0       0       0       0       0       0       0       0       0       0
       0       0       0       0       0       0       0       0       0       0
       0       0       0       0       0       0       0       0       0       0
       0       0       0       0       0       0       0       0       0       0
       0       0       0       0       0       0       0       0       0       0
       0       0       0       0       0       0       0       0       0       0
       0       0       0       0       0       0       0       0       0       0
       0       0       0       0       0       0       0       0       0       0
       0       0       0       0       0       0       0       0       0       0
       0       0       0       0       0       0       0       0       0       0
       0       0       0       0       0       0       0       0       0       0
       0       0       0       0       0       0       0       0       0       0
       0       0       0       0       0       0       0       0       0       0
       0       0       0       0       0       0       0       0       0       0
       0       0       0       0       0       0       0       0       0       0
       0       0       0       0       0       0       0       0       0       0
       0       0       0       0       0       0       0       0       0       0
       0       0       0       0       0       0       0       0       0       0
       0       0       0       0       0       0       0       0       0       0
       0       0       0       0       0       0       0       0       0       0
       0       0       0       0       0       0       0       0       0       0
       0       0       0       0       0       0       0       0       0       0
       0       0       0       0       0       0       0       0       0       0
       0       0       0       0       0       0       0       0       0       0
       0       0       0       0       0       0       0       0       0       0
       0       0       0       0       0       0       0       0       0       0
       0       0       0       0       0       0       0       0       0       0
       0       0       0       0       0       0       0       0       0       0
       0       0       0       0       0       0       0       0       0       0
       0       0       0       0       0       0       0       0       0       0
       0       0       0       0       0       0       0       0       0       0
       0       0       0       0       0       0       0       0       0       0
       0       0       0       0       0       0       0       0       0       0
       0       0       0       0       0       0       0       0       0       0
       0       0       0       0       0       0       0       0       0       0
       0       0       0       0       0       0       0       0       0       0
       0       0       0       0       0       0       0       0       0       0
       0       0       0       0       0       0       0       0       0       0
       0       0       0       0       0       0       0       0       0       0
       0       0       0       0       0       0       0       0       0       0
       0       0       0       0       0       0       0       0       0       0
       0       0       0       0       0       0       0       0       0       0
       0       0       0       0       0       0       0       0       0       0
       0       0       0       0       0       0       0       0       0       0
       0       0       0       0       0       0       0       0       0       0
       0       0       0       0       0       0       0       0       0       0
       0       0       0       0       0       0       0       0       0       0
       0       0       0       0       0       0       0       0       0       0
       0       0       0       0       0       0       0       0       0       0
       0       0       0       0       0       0       0       0       0       0
       0       0       0       0       0       0       0       0       0       0
       0       0       0       0       0       0       0       0       0       0
       0       0       0       0       0       0       0       0       0       0
       0       0       0       0       0       0       0       0       0       0
       0       0       0       0       0       0       0       0       0       0
       0       0       0       0       0       0       0       0       0       0
       0       0       0       0       0       0       0       0       0       0
       0       0       0       0       0       0       0       0       0       0
       0       0       0       0       0       0       0       0       0       0
       0       0       0       0       0       0       0       0       0       0
       0       0       0       0       0       0       0       0       0       0
       0       0       0       0       0       0       0       0       0       0
       0       0       0       0       0       0       0       0       0       0
       0       0       0       0       0       0       0       0       0       0
       0       0       0       0       0       0       0       0       0       0
       0       0       0       0       0       0       0       0       0       0
       0       0       0       0       0       0       0       0       0       0
       0       0       0       0       0       0       0       0       0       0
       0       0       0       0       0       0       0       0       0       0
       0       0       0       0       0       0       0       0       0       0
       0       0       0       0       0       0       0       0       0       0
       0       0       0       0       0       0       0       0       0       0
       0       0       0       0       0       0       0       0       0       0
       0       0       0       0       0       0       0       0       0       0
       0       0       0       0       0       0       0       0       0       0
       0       0       0       0       0       0       0       0       0       0
       0       0       0       0       0       0       0       0       0       0
       0       0       0       0       0       0       0       0       0       0
       0       0       0       0       0       0       0       0       0       0
       0       0       0       0       0       0       0       0       0       0
       0       0       0       0       0       0       0       0       0       0
       0       0       0       0       0       0       0       0       0       0
       0       0       0       0       0       0       0       0       0       0
       0       0       0       0       0       0       0       0       0       0
       0       0       0       0       0       0       0       0       0       0
       0       0       0       0       0       0       0       0       0       0
       0       0       0       0       0       0       0       0       0       0
       0       0       0       0       0       0       0       0       0       0
       0       0       0       0       0       0       0       0       0       0
       0       0       0       0       0       0       0       0       0       0
       0       0       0       0       0       0       0       0       0       0
       0       0       0       0       0       0       0       0       0       0
       0       0       0       0       0       0       0       0       0       0
       0       0       0       0       0       0       0       0       0       0
       0       0       0       0       0       0       0       0       0       0
       0       0       0       0       0       0       0       0       0       0
       0       0       0       0       0       0       0       0       0       0
       0       0       0       0       0       0       0       0       0       0
       0       0       0       0       0       0       0       0       0       0
       0       0       0       0       0       0       0       0       0       0
       0       0       0       0       0       0       0       0       0       0
       0       0       0       0       0       0       0       0       0       0
       0       0       0       0       0       0       0       0       0       0
       0       0       0       0       0       0       0       0       0       0
       0       0       0       0       0       0       0       0       0       0
       0       0       0       0       0       0       0       0       0       0
       0       0       0       0       0       0       0       0       0       0
       0       0       0       0       0       0       0       0       0       0
       0       0       0       0       0       0       0       0       0       0
       0       0       0       0       0       0       0       0       0       0
       0       0       0       0       0       0       0       0       0       0
       0       0       0       0       0       0       0       0       0       0
       0       0       0       0       0       0       0       0       0       0
       0       0       0       0       0       0       0       0       0       0
       0       0       0       0       0       0       0       0       0       0
       0       0       0       0       0       0       0       0       0       0
       0       0       0       0       0       0       0       0       0       0
       0       0       0       0       0       0       0       0       0       0
       0       0       0       0       0       0       0       0       0       0
       0       0       0       0       0       0       0       0       0       0
       0       0       0       0       0       0       0       0       0       0
       0       0       0       0       0       0       0       0       0       0
       0       0       0       0       0       0       0       0       0       0
       0       0       0       0       0       0       0       0       0       0
       0       0       0       0       0       0       0       0       0       0
       0       0       0       0       0       0       0       0       0       0
       0       0       0       0       0       0       0       0       0       0
       0       0       0       0       0       0       0       0       0       0
       0       0       0       0       0       0       0       0       0       0
       0       0       0       0       0       0       0       0       0       0
       0       0       0       0       0       0       0       0       0       0
       0       0       0       0       0       0       0       0       0       0
       0       0       0       0       0       0       0       0       0       0
       0       0       0       0       0       0       0       0       0       0
       0       0       0       0       0       0       0       0       0       0
       0       0       0       0       0       0       0       0       0       0
       0       0       0       0       0       0       0       0       0       0
       0       0       0       0       0       0       0       0       0       0
       0       0       0       0       0       0       0       0       0       0
       0       0       0       0       0       0       0       0       0       0
       0       0       0       0       0       0       0       0       0       0
       0       0       0       0       0       0       0       0       0       0
       0       0       0       0       0       0       0       0       0       0
       0       0       0       0       0       0       0       0       0       0
       0       0       0       0       0       0       0       0       0       0
       0       0       0       0       0       0       0       0       0       0
       0       0       0       0       0       0       0       0       0       0
       0       0       0       0       0       0       0       0       0       0
       0       0       0       0       0       0       0       0       0       0
       0       0       0       0       0       0       0       0       0       0
       0       0       0       0       0       0       0       0       0       0
       0       0       0       0       0       0       0       0       0       0
       0       0       0       0       0       0       0       0       0       0
       0       0       0       0       0       0       0       0       0       0
       0       0       0       0       0       0       0       0       0       0
       0       0       0       0       0       0       0       0       0       0
       0       0       0       0       0       0       0       0       0       0
       0       0       0       0       0       0       0       0       0       0
       0       0       0       0       0       0       0       0       0       0
       0       0       0       0       0       0       0       0       0       0
       0       0       0       0       0       0       0       0       0       0
       0       0       0       0       0       0       0       0       0       0
       0       0       0       0       0       0       0       0       0       0
       0       0       0       0       0       0       0       0       0       0
       0       0       0       0       0       0       0       0       0       0
       0       0       0       0       0       0       0       0       0       0
       0       0       0       0       0       0       0       0       0       0
       0       0       0       0       0       0       0       0       0       0
       0       0       0       0       0       0       0       0       0       0
       0       0       0       0       0       0       0       0       0       0
       0       0       0       0       0       0       0       0       0       0
       0       0       0       0       0       0       0       0       0       0
       0       0       0       0       0       0       0       0       0       0
       0       0       0       0       0       0       0       0       0       0
       0       0       0       0       0       0       0       0       0       0
       0       0       0       0       0       0       0       0       0       0
       0       0       0       0       0       0       0       0       0       0
       0       0       0       0       0       0       0       0       0       0
       0       0       0       0       0       0       0       0       0       0
       0       0       0       0       0       0       0       0       0       0
       0       0       0       0       0       0       0       0       0       0
       0       0       0       0       0       0       0       0       0       0
       0       0       0       0       0       0       0       0       0       0
       0       0       0       0       0       0       0       0       0       0
       0       0       0       0       0       0       0       0       0       0
       0       0       0       0       0       0       0       0       0       0
       0       0       0       0       0       0       0       0       0       0
       0       0       0       0       0       0       0       0       0       0
       0       0       0       0       0       0       0       0       0       0
       0       0       0       0       0       0       0       0       0       0
       0       0       0       0       0       0       0       0       0       0
       0       0       0       0       0       0       0       0       0       0
       0       0       0       0       0       0       0       0       0       0
       0       0       0       0       0       0       0       0       0       0
       0       0       0       0       0       0       0       0       0       0
       0       0       0       0       0       0       0       0       0       0
       0       0       0       0       0       0       0       0       0       0
       0       0       0       0       0       0       0       0       0       0
       0       0       0       0       0       0       0       0       0       0
       0       0       0       0       0       0       0       0       0       0
       0       0       0       0       0       0       0       0       0       0
       0       0       0       0       0       0       0       0       0       0
       0       0       0       0       0       0       0       0       0       0
       0       0       0       0       0       0       0       0       0       0
       0       0       0       0       0       0       0       0       0       0
       0       0       0       0       0       0       0       0       0       0
       0       0       0       0       0       0       0       0       0       0
       0       0       0       0       0       0       0       0       0       0
       0       0       0       0       0       0       0       0       0       0
       0       0       0       0       0       0       0       0       0       0
       0       0       0       0       0       0       0       0       0       0
       0       0       0       0       0       0       0       0       0       0
       0       0       0       0       0       0       0       0       0       0
       0       0       0       0       0       0       0       0       0       0
       0       0       0       0       0       0       0       0       0       0
       0       0       0       0       0       0       0       0       0       0
       0       0       0       0       0       0       0       0       0       0
       0       0       0       0       0       0       0       0       0       0
       0       0       0       0       0       0       0       0       0       0
       0       0       0       0       0       0       0       0       0       0
       0       0       0       0       0       0       0       0       0       0
       0       0       0       0       0       0       0       0       0       0
       0       0       0       0       0       0       0       0       0       0
       0       0       0       0       0       0       0       0       0       0
       0       0       0       0       0       0       0       0       0       0
       0       0       0       0       0       0       0       0       0       0
       0       0       0       0       0       0       0       0       0       0
       0       0       0       0       0       0       0       0       0       0
       0       0       0       0       0       0       0       0       0       0
       0       0       0       0       0       0       0       0       0       0
       0       0       0       0       0       0       0       0       0       0
       0       0       0       0       0       0       0       0       0       0
       0       0       0       0       0       0       0       0       0       0
       0       0       0       0       0       0       0       0       0       0
       0       0       0       0       0       0       0       0       0       0
       0       0       0       0       0       0       0       0       0       0
       0       0       0       0       0       0       0       0       0       0
       0       0       0       0       0       0       0       0       0       0
       0       0       0       0       0       0       0       0       0       0
       0       0       0       0       0       0       0       0       0       0
       0       0       0       0       0       0       0       0       0       0
       0       0       0       0       0       0       0       0       0       0
       0       0       0       0       0       0       0       0       0       0
       0       0       0       0       0       0       0       0       0       0
       0       0       0       0       0       0       0       0       0       0
       0       0       0       0       0       0       0       0       0       0
       0       0       0       0       0       0       0       0       0       0
       0       0       0       0       0       0       0       0       0       0
       0       0       0       0       0       0       0       0       0       0
       0       0       0       0       0       0       0       0       0       0
       0       0       0       0       0       0       0       0       0       0
       0       0       0       0       0       0       0       0       0       0
       0       0       0       0       0       0       0       0       0       0
       0       0       0       0       0       0       0       0       0       0
       0       0       0       0       0       0       0       0       0       0
       0       0       0       0       0       0       0       0       0       0
       0       0       0       0       0       0       0       0       0       0
       0       0       0       0       0       0       0       0       0       0
       0       0       0       0       0       0       0       0       0       0
       0       0       0       0       0       0       0       0       0       0
       0       0       0       0       0       0       0       0       0       0
       0       0       0       0       0       0       0       0       0       0
       0       0       0       0       0       0       0       0       0       0
       0       0       0       0       0       0       0       0       0       0
       0       0       0       0       0       0       0       0       0       0
       0       0       0       0       0       0       0       0       0       0
       0       0       0       0       0       0       0       0       0       0
       0       0       0       0       0       0       0       0       0       0
       0       0       0       0       0       0       0       0       0       0
       0       0       0       0       0       0       0       0       0       0
       0       0       0       0       0       0       0       0       0       0
       0       0       0       0       0       0       0       0       0       0
       0       0       0       0       0       0       0       0       0       0
       0       0       0       0       0       0       0       0       0       0
       0       0       0       0       0       0       0       0       0       0
       0       0       0       0       0       0       0       0       0       0
       0       0       0       0       0       0       0       0       0       0
       0       0       0       0       0       0       0       0       0       0
       0       0       0       0       0       0       0       0       0       0
       0       0       0       0       0       0       0       0       0       0
       0       0       0       0       0       0       0       0       0       0
       0       0       0       0       0       0       0       0       0       0
       0       0       0       0       0       0       0       0       0       0
       0       0       0       0       0       0       0       0       0       0
       0       0       0       0       0       0       0       0       0       0
       0       0       0       0       0       0       0       0       0       0
       0       0       0       0       0       0       0       0       0       0
       0       0       0       0       0       0       0       0       0       0
       0       0       0       0       0       0       0       0       0       0
       0       0       0       0       0       0       0       0       0       0
       0       0       0       0       0       0       0       0       0       0
       0       0       0       0       0       0       0       0       0       0
       0       0       0       0       0       0       0       0       0       0
       0       0       0       0       0       0       0       0       0       0
       0       0       0       0       0       0       0       0       0       0
       0       0       0       0       0       0       0       0       0       0
       0       0       0       0       0       0       0       0       0       0
       0       0       0       0       0       0       0       0       0       0
       0       0       0       0       0       0       0       0       0       0
       0       0       0       0       0       0       0       0       0       0
       0       0       0       0       0       0       0       0       0       0
       0       0       0       0       0       0       0       0       0       0
       0       0       0       0       0       0       0       0       0       0
       0       0       0       0       0       0       0       0       0       0
       0       0       0       0       0       0       0       0       0       0
       0       0       0       0       0       0       0       0       0       0
       0       0       0       0       0       0       0       0       0       0
       0       0       0       0       0       0       0       0       0       0
       0       0       0       0       0       0       0       0       0       0
       0       0       0       0       0       0       0       0       0       0
       0       0       0       0       0       0       0       0       0       0
       0       0       0       0       0       0       0       0       0       0
       0       0       0       0       0       0       0       0       0       0
       0       0       0       0       0       0       0       0       0       0
       0       0       0       0       0       0       0       0       0       0
       0       0       0       0       0       0       0       0       0       0
       0       0       0       0       0       0       0       0       0       0
       0       0       0       0       0       0       0       0       0       0
       0       0       0       0       0       0       0       0       0       0
       0       0       0       0       0       0       0       0       0       0
       0       0       0       0       0       0       0       0       0       0
       0       0       0       0       0       0       0       0       0       0
       0       0       0       0       0       0       0       0       0       0
       0       0       0       0       0       0       0       0       0       0
       0       0       0       0       0       0       0       0       0       0
       0       0       0       0       0       0       0       0       0       0
       0       0       0       0       0       0       0       0       0       0
       0       0       0       0       0       0       0       0       0       0
       0       0       0       0       0       0       0       0       0       0
       0       0       0       0       0       0       0       0       0       0
       0       0       0       0       0       0       0       0       0       0
       0       0       0       0       0       0       0       0       0       0
       0       0       0       0       0       0       0       0       0       0
       0       0       0       0       0       0       0       0       0       0
       0       0       0       0       0       0       0       0       0       0
       0       0       0       0       0       0       0       0       0       0
       0       0       0       0       0       0       0       0       0       0
       0       0       0       0       0       0       0       0       0       0
       0       0       0       0       0       0       0       0       0       0
       0       0       0       0       0       0       0       0       0       0
       0       0       0       0       0       0       0       0       0       0
       0       0       0       0       0       0       0       0       0       0
       0       0       0       0       0       0       0       0       0       0
       0       0       0       0       0       0       0       0       0       0
       0       0       0       0       0       0       0       0       0       0
       0       0       0       0       0       0       0       0       0       0
       0       0       0       0       0       0       0       0       0       0
       0       0       0       0       0       0       0       0       0       0
       0       0       0       0       0       0       0       0       0       0
       0       0       0       0       0       0       0       0       0       0
       0       0       0       0       0       0       0       0       0       0
       0       0       0       0       0       0       0       0       0       0
       0       0       0       0       0       0       0       0       0       0
       0       0       0       0       0       0       0       0       0       0
       0       0       0       0       0       0       0       0       0       0
       0       0       0       0       0       0       0       0       0       0
       0       0       0       0       0       0       0       0       0       0
       0       0       0       0       0       0       0       0       0       0
       0       0       0       0       0       0       0       0       0       0
       0       0       0       0       0       0       0       0       0       0
       0       0       0       0       0       0       0       0       0       0
       0       0       0       0       0       0       0       0       0       0
       0       0       0       0       0       0       0       0       0       0
       0       0       0       0       0       0       0       0       0       0
       0       0       0       0       0       0       0       0       0       0
       0       0       0       0       0       0       0       0       0       0
       0       0       0       0       0       0       0       0       0       0
       0       0       0       0       0       0       0       0       0       0
       0       0       0       0       0       0       0       0       0       0
       0       0       0       0       0       0       0       0       0       0
       0       0       0       0       0       0       0       0       0       0
       0       0       0       0       0       0       0       0       0       0
       0       0       0       0       0       0       0       0       0       0
       0       0       0       0       0       0       0       0       0       0
       0       0       0       0       0       0       0       0       0       0
       0       0       0       0       0       0       0       0       0       0
       0       0       0       0       0       0       0       0       0       0
       0       0       0       0       0       0       0       0       0       0
       0       0       0       0       0       0       0       0       0       0
       0       0       0       0       0       0       0       0       0       0
       0       0       0       0       0       0       0       0       0       0
       0       0       0       0       0       0       0       0       0       0
       0       0       0       0       0       0       0       0       0       0
       0       0       0       0       0       0       0       0       0       0
       0       0       0       0       0       0       0       0       0       0
       0       0       0       0       0       0       0       0       0       0
       0       0       0       0       0       0       0       0       0       0
       0       0       0       0       0       0       0       0       0       0
       0       0       0       0       0       0       0       0       0       0
       0       0       0       0       0       0       0       0       0       0
       0       0       0       0       0       0       0       0       0       0
       0       0       0       0       0       0       0       0       0       0
       0       0       0       0       0       0       0       0       0       0
       0       0       0       0       0       0       0       0       0       0
       0       0       0       0       0       0       0       0       0       0
       0       0       0       0       0       0       0       0       0       0
       0       0       0       0       0       0       0       0       0       0
       0       0       0       0       0       0       0       0       0       0
       0       0       0       0       0       0       0       0       0       0
       0       0       0       0       0       0       0       0       0       0
       0       0       0       0       0       0       0       0       0       0
       0       0       0       0       0       0       0       0       0       0
       0       0       0       0       0       0       0       0       0       0
       0       0       0       0       0       0       0       0       0       0
       0       0       0       0       0       0       0       0       0       0
       0       0       0       0       0       0       0       0       0       0
       0       0       0       0       0       0       0       0       0       0
       0       0       0       0       0       0       0       0       0       0
       0       0       0       0       0       0       0       0       0       0
       0       0       0       0       0       0       0       0       0       0
       0       0       0       0       0       0       0       0       0       0
       0       0       0       0       0       0       0       0       0       0
       0       0       0       0       0       0       0       0       0       0
       0       0       0       0       0       0       0       0       0       0
       0       0       0       0       0       0       0       0       0       0
       0       0       0       0       0       0       0       0       0       0
       0       0       0       0       0       0       0       0       0       0
       0       0       0       0       0       0       0       0       0       0
       0       0       0       0       0       0       0       0       0       0
       0       0       0       0       0       0       0       0       0       0
       0       0       0       0       0       0       0       0       0       0
       0       0       0       0       0       0       0       0       0       0
       0       0       0       0       0       0       0       0       0       0
       0       0       0       0       0       0       0       0       0       0
       0       0       0       0       0       0       0       0       0       0
       0       0       0       0       0       0       0       0       0       0
       0       0       0       0       0       0       0       0       0       0
       0       0       0       0       0       0       0       0       0       0
       0       0       0       0       0       0       0       0       0       0
       0       0       0       0       0       0       0       0       0       0
       0       0       0       0       0       0       0       0       0       0
       0       0       0       0       0       0       0       0       0       0
       0       0       0       0       0       0       0       0       0       0
       0       0       0       0       0       0       0       0       0       0
       0       0       0       0       0       0       0       0       0       0
       0       0       0       0       0       0       0       0       0       0
       0       0       0       0       0       0       0       0       0       0
       0       0       0       0       0       0       0       0       0       0
       0       0       0       0       0       0       0       0       0       0
       0       0       0       0       0       0       0       0       0       0
       0       0       0       0       0       0       0       0       0       0
       0       0       0       0       0       0       0       0       0       0
       0       0       0       0       0       0       0       0       0       0
       0       0       0       0       0       0       0       0       0       0
       0       0       0       0       0       0       0       0       0       0
       0       0       0       0       0       0       0       0       0       0
       0       0       0       0       0       0       0       0       0       0
       0       0       0       0       0       0       0       0       0       0
       0       0       0       0       0       0       0       0       0       0
       0       0       0       0       0       0       0       0       0       0
       0       0       0       0       0       0       0       0       0       0
       0       0       0       0       0       0       0       0       0       0
       0       0       0       0       0       0       0       0       0       0
       0       0       0       0       0       0       0       0       0       0
       0       0       0       0       0       0       0       0       0       0
       0       0       0       0       0       0       0       0       0       0
       0       0       0       0       0       0       0       0       0       0
       0       0       0       0       0       0       0       0       0       0
       0       0       0       0       0       0       0       0       0       0
       0       0       0       0       0       0       0       0       0       0
       0       0       0       0       0       0       0       0       0       0
       0       0       0       0       0       0       0       0       0       0
       0       0       0       0       0       0       0       0       0       0
       0       0       0       0       0       0       0       0       0       0
       0       0       0       0       0       0       0       0       0       0
       0       0       0       0       0       0       0       0       0       0
       0       0       0       0       0       0       0       0       0       0
       0       0       0       0       0       0       0       0       0       0
       0       0       0       0       0       0       0       0       0       0
       0       0       0       0       0       0       0       0       0       0
       0       0       0       0       0       0       0       0       0       0
       0       0       0       0       0       0       0       0       0       0
       0       0       0       0       0       0       0       0       0       0
       0       0       0       0       0       0       0       0       0       0
       0       0       0       0       0       0       0       0       0       0
       0       0       0       0       0       0       0       0       0       0
       0       0       0       0       0       0       0       0       0       0
       0       0       0       0       0       0       0       0       0       0
       0       0       0       0       0       0       0       0       0       0
       0       0       0       0       0       0       0       0       0       0
       0       0       0       0       0       0       0       0       0       0
       0       0       0       0       0       0       0       0       0       0
       0       0       0       0       0       0       0       0       0       0
       0       0       0       0       0       0       0       0       0       0
       0       0       0       0       0       0       0       0       0       0
       0       0       0       0       0       0       0       0       0       0
       0       0       0       0       0       0       0       0       0       0
       0       0       0       0       0       0       0       0       0       0
       0       0       0       0       0       0       0       0       0       0
       0       0       0       0       0       0       0       0       0       0
       0       0       0       0       0       0       0       0       0       0
       0       0       0       0       0       0       0       0       0       0
       0       0       0       0       0       0       0       0       0       0
       0       0       0       0       0       0       0       0       0       0
       0       0       0       0       0       0       0       0       0       0
       0       0       0       0       0       0       0       0       0       0
       0       0       0       0       0       0       0       0       0       0
       0       0       0       0       0       0       0       0       0       0
       0       0       0       0       0       0       0       0       0       0
       0       0       0       0       0       0       0       0       0       0
       0       0       0       0       0       0       0       0       0       0
       0       0       0       0       0       0       0       0       0       0
       0       0       0       0       0       0       0       0       0       0
       0       0       0       0       0       0       0       0       0       0
       0       0       0       0       0       0       0       0       0       0
       0       0       0       0       0       0       0       0       0       0
       0       0       0       0       0       0       0       0       0       0
       0       0       0       0       0       0       0       0       0       0
       0       0       0       0       0       0       0       0       0       0
       0       0       0       0       0       0       0       0       0       0
       0       0       0       0       0       0       0       0       0       0
       0       0       0       0       0       0       0       0       0       0
       0       0       0       0       0       0       0       0       0       0
       0       0       0       0       0       0       0       0       0       0
       0       0       0       0       0       0       0       0       0       0
       0       0       0       0       0       0       0       0       0       0
       0       0       0       0       0       0       0       0       0       0
       0       0       0       0       0       0       0       0       0       0
       0       0       0       0       0       0       0       0       0       0
       0       0       0       0       0       0       0       0       0       0
       0       0       0       0       0       0       0       0       0       0
       0       0       0       0       0       0       0       0       0       0
       0       0       0       0       0       0       0       0       0       0
       0       0       0       0       0       0       0       0       0       0
       0       0       0       0       0       0       0       0       0       0
       0       0       0       0       0       0       0       0       0       0
       0       0       0       0       0       0       0       0       0       0
       0       0       0       0       0       0       0       0       0       0
       0       0       0       0       0       0       0       0       0       0
       0       0       0       0       0       0       0       0       0       0
       0       0       0       0       0       0       0       0       0       0
       0       0       0       0       0       0       0       0       0       0
       0       0       0       0       0       0       0       0       0       0
       0       0       0       0       0       0       0       0       0       0
       0       0       0       0       0       0       0       0       0       0
       0       0       0       0       0       0       0       0       0       0
       0       0       0       0       0       0       0       0       0       0
       0       0       0       0       0       0       0       0       0       0
       0       0       0       0       0       0       0       0       0       0
       0       0       0       0       0       0       0       0       0       0
       0       0       0       0       0       0       0       0       0       0
       0       0       0       0       0       0       0       0       0       0
       0       0       0       0       0       0       0       0       0       0
       0       0       0       0       0       0       0       0       0       0
       0       0       0       0       0       0       0       0       0       0
       0       0       0       0       0       0       0       0       0       0
       0       0       0       0       0       0       0       0       0       0
       0       0       0       0       0       0       0       0       0       0
       0       0       0       0       0       0       0       0       0       0
       0       0       0       0       0       0       0       0       0       0
       0       0       0       0       0       0       0       0       0       0
       0       0       0       0       0       0       0       0       0       0
       0       0       0       0       0       0       0       0       0       0
       0       0       0       0       0       0       0       0       0       0
       0       0       0       0       0       0       0       0       0       0
       0       0       0       0       0       0       0       0       0       0
       0       0       0       0       0       0       0       0       0       0
       0       0       0       0       0       0       0       0       0       0
       0       0       0       0       0       0       0       0       0       0
       0       0       0       0       0       0       0       0       0       0
       0       0       0       0       0       0       0       0       0       0
       0       0       0       0       0       0       0       0       0       0
       0       0       0       0       0       0       0       0       0       0
       0       0       0       0       0       0       0       0       0       0
       0       0       0       0       0       0       0       0       0       0
       0       0       0       0       0       0       0       0       0       0
       0       0       0       0       0       0       0       0       0       0
       0       0       0       0       0       0       0       0       0       0
       0       0       0       0       0       0       0       0       0       0
       0       0       0       0       0       0       0       0       0       0
       0       0       0       0       0       0       0       0       0       0
       0       0       0       0       0       0       0       0       0       0
       0       0       0       0       0       0       0       0       0       0
       0       0       0       0       0       0       0       0       0       0
       0       0       0       0       0       0       0       0       0       0
       0       0       0       0       0       0       0       0       0       0
       0       0       0       0       0       0       0       0       0       0
       0       0       0       0       0       0       0       0       0       0
       0       0       0       0       0       0       0       0       0       0
       0       0       0       0       0       0       0       0       0       0
       0       0       0       0       0       0       0       0       0       0
       0       0       0       0       0       0       0       0       0       0
       0       0       0       0       0       0       0       0       0       0
       0       0       0       0       0       0       0       0       0       0
       0       0       0       0       0       0       0       0       0       0
       0       0       0       0       0       0       0       0       0       0
       0       0       0       0       0       0       0       0       0       0
       0       0       0       0       0       0       0       0       0       0
       0       0       0       0       0       0       0       0       0       0
       0       0       0       0       0       0       0       0       0       0
       0       0       0       0       0       0       0       0       0       0
       0       0       0       0       0       0       0       0       0       0
       0       0       0       0       0       0       0       0       0       0
       0       0       0       0       0       0       0       0       0       0
       0       0       0       0       0       0       0       0       0       0
       0       0       0       0       0       0       0       0       0       0
       0       0       0       0       0       0       0       0       0       0
       0       0       0       0       0       0       0       0       0       0
       0       0       0       0       0       0       0       0       0       0
       0       0       0       0       0       0       0       0       0       0
       0       0       0       0       0       0       0       0       0       0
       0       0       0       0       0       0       0       0       0       0
       0       0       0       0       0       0       0       0       0       0
       0       0       0       0       0       0       0       0       0       0
       0       0       0       0       0       0       0       0       0       0
       0       0       0       0       0       0       0       0       0       0
       0       0       0       0       0       0       0       0       0       0
       0       0       0       0       0       0       0       0       0       0
       0       0       0       0       0       0       0       0       0       0
       0       0       0       0       0       0       0       0       0       0
       0       0       0       0       0       0       0       0       0       0
       0       0       0       0       0       0       0       0       0       0
       0       0       0       0       0       0       0       0       0       0
       0       0       0       0       0       0       0       0       0       0
       0       0       0       0       0       0       0       0       0       0
       0       0       0       0       0       0       0       0       0       0
       0       0       0       0       0       0       0       0       0       0
       0       0       0       0       0       0       0       0       0       0
       0       0       0       0       0       0       0       0       0       0
       0       0       0       0       0       0       0       0       0       0
       0       0       0       0       0       0       0       0       0       0
       0       0       0       0       0       0       0       0       0       0
       0       0       0       0       0       0       0       0       0       0
       0       0       0       0       0       0       0       0       0       0
       0       0       0       0       0       0       0       0       0       0
       0       0       0       0       0       0       0       0       0       0
       0       0       0       0       0       0       0       0       0       0
       0       0       0       0       0       0       0       0       0       0
       0       0       0       0       0       0       0       0       0       0
       0       0       0       0       0       0       0       0       0       0
       0       0       0       0       0       0       0       0       0       0
       0       0       0       0       0       0       0       0       0       0
       0       0       0       0       0       0       0       0       0       0
       0       0       0       0       0       0       0       0       0       0
       0       0       0       0       0       0       0       0       0       0
       0       0       0       0       0       0       0       0       0       0
       0       0       0       0       0       0       0       0       0       0
       0       0       0       0       0       0       0       0       0       0
       0       0       0       0       0       0       0       0       0       0
       0       0       0       0       0       0       0       0       0       0
       0       0       0       0       0       0       0       0       0       0
       0       0       0       0       0       0       0       0       0       0
       0       0       0       0       0       0       0       0       0       0
       0       0       0       0       0       0       0       0       0       0
       0       0       0       0       0       0       0       0       0       0
       0       0       0       0       0       0       0       0       0       0
       0       0       0       0       0       0       0       0       0       0
       0       0       0       0       0       0       0       0       0       0
       0       0       0       0       0       0       0       0       0       0
       0       0       0       0       0       0       0       0       0       0
       0       0       0       0       0       0       0       0       0       0
       0       0       0       0       0       0       0       0       0       0
       0       0       0       0       0       0       0       0       0       0
       0       0       0       0       0       0       0       0       0       0
       0       0       0       0       0       0       0       0       0       0
       0       0       0       0       0       0       0       0       0       0
       0       0       0       0       0       0       0       0       0       0
       0       0       0       0       0       0       0       0       0       0
       0       0       0       0       0       0       0       0       0       0
       0       0       0       0       0       0       0       0       0       0
       0       0       0       0       0       0       0       0       0       0
       0       0       0       0       0       0       0       0       0       0
       0       0       0       0       0       0       0       0       0       0
       0       0       0       0       0       0       0       0       0       0
       0       0       0       0       0       0       0       0       0       0
       0       0       0       0       0       0       0       0       0       0
       0       0       0       0       0       0       0       0       0       0
       0       0       0       0       0       0       0       0       0       0
       0       0       0       0       0       0       0       0       0       0
       0       0       0       0       0       0       0       0       0       0
       0       0       0       0       0       0       0       0       0       0
       0       0       0       0       0       0       0       0       0       0
       0       0       0       0       0       0       0       0       0       0
       0       0       0       0       0       0       0       0       0       0
       0       0       0       0       0       0       0       0       0       0
       0       0       0       0       0       0       0       0       0       0
       0       0       0       0       0       0       0       0       0       0
       0       0       0       0       0       0       0       0       0       0
       0       0       0       0       0       0       0       0       0       0
       0       0       0       0       0       0       0       0       0       0
       0       0       0       0       0       0       0       0       0       0
       0       0       0       0       0       0       0       0       0       0
       0       0       0       0       0       0       0       0       0       0
       0       0       0       0       0       0       0       0       0       0
       0       0       0       0       0       0       0       0       0       0
       0       0       0       0       0       0       0       0       0       0
       0       0       0       0       0       0       0       0       0       0
       0       0       0       0       0       0       0       0       0       0
       0       0       0       0       0       0       0       0       0       0
       0       0       0       0       0       0       0       0       0       0
       0       0       0       0       0       0       0       0       0       0
       0       0       0       0       0       0       0       0       0       0
       0       0       0       0       0       0       0       0       0       0
       0       0       0       0       0       0       0       0       0       0
       0       0       0       0       0       0       0       0       0       0
       0       0       0       0       0       0       0       0       0       0
       0       0       0       0       0       0       0       0       0       0
       0       0       0       0       0       0       0       0       0       0
       0       0       0       0       0       0       0       0       0       0
       0       0       0       0       0       0       0       0       0       0
       0       0       0       0       0       0       0       0       0       0
       0       0       0       0       0       0       0       0       0       0
       0       0       0       0       0       0       0       0       0       0
       0       0       0       0       0       0       0       0       0       0
       0       0       0       0       0       0       0       0       0       0
       0       0       0       0       0       0       0       0       0       0
       0       0       0       0       0       0       0       0       0       0
       0       0       0       0       0       0       0       0       0       0
       0       0       0       0       0       0       0       0       0       0
       0       0       0       0       0       0       0       0       0       0
       0       0       0       0       0       0       0       0       0       0
       0       0       0       0       0       0       0       0       0       0
       0       0       0       0       0       0       0       0       0       0
       0       0       0       0       0       0       0       0       0       0
       0       0       0       0       0       0       0       0       0       0
       0       0       0       0       0       0       0       0       0       0
       0       0       0       0       0       0       0       0       0       0
       0       0       0       0       0       0       0       0       0       0
       0       0       0       0       0       0       0       0       0       0
       0       0       0       0       0       0       0       0       0       0
       0       0       0       0       0       0       0       0       0       0
       0       0       0       0       0       0       0       0       0       0
       0       0       0       0       0       0       0       0       0       0
       0       0       0       0       0       0       0       0       0       0
       0       0       0       0       0       0       0       0       0       0
       0       0       0       0       0       0       0       0       0       0
       0       0       0       0       0       0       0       0       0       0
       0       0       0       0       0       0       0       0       0       0
       0       0       0       0       0       0       0       0       0       0
       0       0       0       0       0       0       0       0       0       0
       0       0       0       0       0       0       0       0       0       0
       0       0       0       0       0       0       0       0       0       0
       0       0       0       0       0       0       0       0       0       0
       0       0       0       0       0       0       0       0       0       0
       0       0       0       0       0       0       0       0       0       0
       0       0       0       0       0       0       0       0       0       0
       0       0       0       0       0       0       0       0       0       0
       0       0       0       0       0       0       0       0       0       0
       0       0       0       0       0       0       0       0       0       0
       0       0       0       0       0       0       0       0       0       0
       0       0       0       0       0       0       0       0       0       0
       0       0       0       0       0       0       0       0       0       0
       0       0       0       0       0       0       0       0       0       0
       0       0       0       0       0       0       0       0       0       0
       0       0       0       0       0       0       0       0       0       0
       0       0       0       0       0       0       0       0       0       0
       0       0       0       0       0       0       0       0       0       0
       0       0       0       0       0       0       0       0       0       0
       0       0       0       0       0       0       0       0       0       0
       0       0       0       0       0       0       0       0       0       0
       0       0       0       0       0       0       0       0       0       0
       0       0       0       0       0       0       0       0       0       0
       0       0       0       0       0       0       0       0       0       0
       0       0       0       0       0       0       0       0       0       0
       0       0       0       0       0       0       0       0       0       0
       0       0       0       0       0       0       0       0       0       0
       0       0       0       0       0       0       0       0       0       0
       0       0       0       0       0       0       0       0       0       0
       0       0       0       0       0       0       0       0       0       0
       0       0       0       0       0       0       0       0       0       0
       0       0       0       0       0       0       0       0       0       0
       0       0       0       0       0       0       0       0       0       0
       0       0       0       0       0       0       0       0       0       0
       0       0       0       0       0       0       0       0       0       0
       0       0       0       0       0       0       0       0       0       0
       0       0       0       0       0       0       0       0       0       0
       0       0       0       0       0       0       0       0       0       0
       0       0       0       0       0       0       0       0       0       0
       0       0       0       0       0       0       0       0       0       0
       0       0       0       0       0       0       0       0       0       0
       0       0       0       0       0       0       0       0       0       0
       0       0       0       0       0       0       0       0       0       0
       0       0       0       0       0       0       0       0       0       0
       0       0       0       0       0       0       0       0       0       0
       0       0       0       0       0       0       0       0       0       0
       0       0       0       0       0       0       0       0       0       0
       0       0       0       0       0       0       0       0       0       0
       0       0       0       0       0       0       0       0       0       0
       0       0       0       0       0       0       0       0       0       0
       0       0       0       0       0       0       0       0       0       0
       0       0       0       0       0       0       0       0       0       0
       0       0       0       0       0       0       0       0       0       0
       0       0       0       0       0       0       0       0       0       0
       0       0       0       0       0       0       0       0       0       0
       0       0       0       0       0       0       0       0       0       0
       0       0       0       0       0       0       0       0       0       0
       0       0       0       0       0       0       0       0       0       0
       0       0       0       0       0       0       0       0       0       0
       0       0       0       0       0       0       0       0       0       0
       0       0       0       0       0       0       0       0       0       0
       0       0       0       0       0       0       0       0       0       0
       0       0       0       0       0       0       0       0       0       0
       0       0       0       0       0       0       0       0       0       0
       0       0       0       0       0       0       0       0       0       0
       0       0       0       0       0       0       0       0       0       0
       0       0       0       0       0       0       0       0       0       0
       0       0       0       0       0       0       0       0       0       0
       0       0       0       0       0       0       0       0       0       0
       0       0       0       0       0       0       0       0       0       0
       0       0       0       0       0       0       0       0       0       0
       0       0       0       0       0       0       0       0       0       0
       0       0       0       0       0       0       0       0       0       0
       0       0       0       0       0       0       0       0       0       0
       0       0       0       0       0       0       0       0       0       0
       0       0       0       0       0       0       0       0       0       0
       0       0       0       0       0       0       0       0       0       0
       0       0       0       0       0       0       0       0       0       0
       0       0       0       0       0       0       0       0       0       0
       0       0       0       0       0       0       0       0       0       0
       0       0       0       0       0       0       0       0       0       0
       0       0       0       0       0       0       0       0       0       0
       0       0       0       0       0       0       0       0       0       0
       0       0       0       0       0       0       0       0       0       0
       0       0       0       0       0       0       0       0       0       0
       0       0       0       0       0       0       0       0       0       0
       0       0       0       0       0       0       0       0       0       0
       0       0       0       0       0       0       0       0       0       0
       0       0       0       0       0       0       0       0       0       0
       0       0       0       0       0       0       0       0       0       0
       0       0       0       0       0       0       0       0       0       0
       0       0       0       0       0       0       0       0       0       0
       0       0       0       0       0       0       0       0       0       0
       0       0       0       0       0       0       0       0       0       0
       0       0       0       0       0       0       0       0       0       0
       0       0       0       0       0       0       0       0       0       0
       0       0       0       0       0       0       0       0       0       0
       0       0       0       0       0       0       0       0       0       0
       0       0       0       0       0       0       0       0       0       0
       0       0       0       0       0       0       0       0       0       0
       0       0       0       0       0       0       0       0       0       0
       0       0       0       0       0       0       0       0       0       0
       0       0       0       0       0       0       0       0       0       0
       0       0       0       0       0       0       0       0       0       0
       0       0       0       0       0       0       0       0       0       0
       0       0       0       0       0       0       0       0       0       0
       0       0       0       0       0       0       0       0       0       0
       0       0       0       0       0       0       0       0       0       0
       0       0       0       0       0       0       0       0       0       0
       0       0       0       0       0       0       0       0       0       0
       0       0       0       0       0       0       0       0       0       0
       0       0       0       0       0       0       0       0       0       0
       0       0       0       0       0       0       0       0       0       0
       0       0       0       0       0       0       0       0       0       0
       0       0       0       0       0       0       0       0       0       0
       0       0       0       0       0       0       0       0       0       0
       0       0       0       0       0       0       0       0       0       0
       0       0       0       0       0       0       0       0       0       0
       0       0       0       0       0       0       0       0       0       0
       0       0       0       0       0       0       0       0       0       0
       0       0       0       0       0       0       0       0       0       0
       0       0       0       0       0       0       0       0       0       0
       0       0       0       0       0       0       0       0       0       0
       0       0       0       0       0       0       0       0       0       0
       0       0       0       0       0       0       0       0       0       0
       0       0       0       0       0       0       0       0       0       0
       0       0       0       0       0       0       0       0       0       0
       0       0       0       0       0       0       0       0       0       0
       0       0       0       0       0       0       0       0       0       0
       0       0       0       0       0       0       0       0       0       0
       0       0       0       0       0       0       0       0       0       0
       0       0       0       0       0       0       0       0       0       0
       0       0       0       0       0       0       0       0       0       0
       0       0       0       0       0       0       0       0       0       0
       0       0       0       0       0       0       0       0       0       0
       0       0       0       0       0       0       0       0       0       0
       0       0       0       0       0       0       0       0       0       0
       0       0       0       0       0       0       0       0       0       0
       0       0       0       0       0       0       0       0       0       0
       0       0       0       0       0       0       0       0       0       0
       0       0       0       0       0       0       0       0       0       0
       0       0       0       0       0       0       0       0       0       0
       0       0       0       0       0       0       0       0       0       0
       0       0       0       0       0       0       0       0       0       0
       0       0       0       0       0       0       0       0       0       0
       0       0       0       0       0       0       0       0       0       0
       0       0       0       0       0       0       0       0       0       0
       0       0       0       0       0       0       0       0       0       0
       0       0       0       0       0       0       0       0       0       0
       0       0       0       0       0       0       0       0       0       0
       0       0       0       0       0       0       0       0       0       0
       0       0       0       0       0       0       0       0       0       0
       0       0       0       0       0       0       0       0       0       0
       0       0       0       0       0       0       0       0       0       0
       0       0       0       0       0       0       0       0       0       0
       0       0       0       0       0       0       0       0       0       0
       0       0       0       0       0       0       0       0       0       0
       0       0       0       0       0       0       0       0       0       0
       0       0       0       0       0       0       0       0       0       0
       0       0       0       0       0       0       0       0       0       0
       0       0       0       0       0       0       0       0       0       0
       0       0       0       0       0       0       0       0       0       0
       0       0       0       0       0       0       0       0       0       0
       0       0       0       0       0       0       0       0       0       0
       0       0       0       0       0       0       0       0       0       0
       0       0       0       0       0       0       0       0       0       0
       0       0       0       0       0       0       0       0       0       0
       0       0       0       0       0       0       0       0       0       0
       0       0       0       0       0       0       0       0       0       0
       0       0       0       0       0       0       0       0       0       0
       0       0       0       0       0       0       0       0       0       0
       0       0       0       0       0       0       0       0       0       0
       0       0       0       0       0       0       0       0       0       0
       0       0       0       0       0       0       0       0       0       0
       0       0       0       0       0       0       0       0       0       0
       0       0       0       0       0       0       0       0       0       0
       0       0       0       0       0       0       0       0       0       0
       0       0       0       0       0       0       0       0       0       0
       0       0       0       0       0       0       0       0       0       0
       0       0       0       0       0       0       0       0       0       0
       0       0       0       0       0       0       0       0       0       0
       0       0       0       0       0       0       0       0       0       0
       0       0       0       0       0       0       0       0       0       0
       0       0       0       0       0       0       0       0       0       0
       0       0       0       0       0       0       0       0       0       0
       0       0       0       0       0       0       0       0       0       0
       0       0       0       0       0       0       0       0       0       0
       0       0       0       0       0       0       0       0       0       0
       0       0       0       0       0       0       0       0       0       0
       0       0       0       0       0       0       0       0       0       0
       0       0       0       0       0       0       0       0       0       0
       0       0       0       0       0       0       0       0       0       0
       0       0       0       0       0       0       0       0       0       0
       0       0       0       0       0       0       0       0       0       0
       0       0       0       0       0       0       0       0       0       0
       0       0       0       0       0       0       0       0       0       0
       0       0       0       0       0       0       0       0       0       0
       0       0       0       0       0       0       0       0       0       0
       0       0       0       0       0       0       0       0       0       0
       0       0       0       0       0       0       0       0       0       0
       0       0       0       0       0       0       0       0       0       0
       0       0       0       0       0       0       0       0       0       0
       0       0       0       0       0       0       0       0       0       0
       0       0       0       0       0       0       0       0       0       0
       0       0       0       0       0       0       0       0       0       0
       0       0       0       0       0       0       0       0       0       0
       0       0       0       0       0       0       0       0       0       0
       0       0       0       0       0       0       0       0       0       0
       0       0       0       0       0       0       0       0       0       0
       0       0       0       0       0       0       0       0       0       0
       0       0       0       0       0       0       0       0       0       0
       0       0       0       0       0       0       0       0       0       0
       0       0       0       0       0       0       0       0       0       0
       0       0       0       0       0       0       0       0       0       0
       0       0       0       0       0       0       0       0       0       0
       0       0       0       0       0       0       0       0       0       0
       0       0       0       0       0       0       0       0       0       0
       0       0       0       0       0       0       0       0       0       0
       0       0       0       0       0       0       0       0       0       0
       0       0       0       0       0       0       0       0       0       0
       0       0       0       0       0       0       0       0       0       0
       0       0       0       0       0       0       0       0       0       0
       0       0       0       0       0       0       0       0       0       0
       0       0       0       0       0       0       0       0       0       0
       0       0       0       0       0       0       0       0       0       0
       0       0       0       0       0       0       0       0       0       0
       0       0       0       0       0       0       0       0       0       0
       0       0       0       0       0       0       0       0       0       0
       0       0       0       0       0       0       0       0       0       0
       0       0       0       0       0       0       0       0       0       0
       0       0       0       0       0       0       0       0       0       0
       0       0       0       0       0       0       0       0       0       0
       0       0       0       0       0       0       0       0       0       0
       0       0       0       0       0       0       0       0       0       0
       0       0       0       0       0       0       0       0       0       0
       0       0       0       0       0       0       0       0       0       0
       0       0       0       0       0       0       0       0       0       0
       0       0       0       0       0       0       0       0       0       0
       0       0       0       0       0       0       0       0       0       0
       0       0       0       0       0       0       0       0       0       0
       0       0       0       0       0       0       0       0       0       0
       0       0       0       0       0       0       0       0       0       0
       0       0       0       0       0       0       0       0       0       0
       0       0       0       0       0       0       0       0       0       0
       0       0       0       0       0       0       0       0       0       0
       0       0       0       0       0       0       0       0       0       0
       0       0       0       0       0       0       0       0       0       0
       0       0       0       0       0       0       0       0       0       0
       0       0       0       0       0       0       0       0       0       0
       0       0       0       0       0       0       0       0       0       0
       0       0       0       0       0       0       0       0       0       0
       0       0       0       0       0       0       0       0       0       0
       0       0       0       0       0       0       0       0       0       0
       0       0       0       0       0       0       0       0       0       0
       0       0       0       0       0       0       0       0       0       0
       0       0       0       0       0       0       0       0       0       0
       0       0       0       0       0       0       0       0       0       0
       0       0       0       0       0       0       0       0       0       0
       0       0       0       0       0       0       0       0       0       0
       0       0       0       0       0       0       0       0       0       0
       0       0       0       0       0       0       0       0       0       0
       0       0       0       0       0       0       0       0       0       0
       0       0       0       0       0       0       0       0       0       0
       0       0       0       0       0       0       0       0       0       0
       0       0       0       0       0       0       0       0       0       0
       0       0       0       0       0       0       0       0       0       0
       0       0       0       0       0       0       0       0       0       0
       0       0       0       0       0       0       0       0       0       0
       0       0       0       0       0       0       0       0       0       0
       0       0       0       0       0       0       0       0       0       0
       0       0       0       0       0       0       0       0       0       0
       0       0       0       0       0       0       0       0       0       0
       0       0       0       0       0       0       0       0       0       0
       0       0       0       0       0       0       0       0       0       0
       0       0       0       0       0       0       0       0       0       0
       0       0       0       0       0       0       0       0       0       0
       0       0       0       0       0       0       0       0       0       0
       0       0       0       0       0       0       0       0       0       0
       0       0       0       0       0       0       0       0       0       0
       0       0       0       0       0       0       0       0       0       0
       0       0       0       0       0       0       0       0       0       0
       0       0       0       0       0       0       0       0       0       0
       0       0       0       0       0       0       0       0       0       0
       0       0       0       0       0       0       0       0       0       0
       0       0       0       0       0       0       0       0       0       0
       0       0       0       0       0       0       0       0       0       0
       0       0       0       0       0       0       0       0       0       0
       0       0       0       0       0       0       0       0       0       0
       0       0       0       0       0       0       0       0       0       0
       0       0       0       0       0       0       0       0       0       0
       0       0       0       0       0       0       0       0       0       0
       0       0       0       0       0       0       0       0       0       0
       0       0       0       0       0       0       0       0       0       0
       0       0       0       0       0       0       0       0       0       0
       0       0       0       0       0       0       0       0       0       0
       0       0       0       0       0       0       0       0       0       0
       0       0       0       0       0       0       0       0       0       0
       0       0       0       0       0       0       0       0       0       0
       0       0       0       0       0       0       0       0       0       0
       0       0       0       0       0       0       0       0       0       0
       0       0       0       0       0       0       0       0       0       0
       0       0       0       0       0       0       0       0       0       0
       0       0       0       0       0       0       0       0       0       0
       0       0       0       0       0       0       0       0       0       0
       0       0       0       0       0       0       0       0       0       0
       0       0       0       0       0       0       0       0       0       0
       0       0       0       0       0       0       0       0       0       0
       0       0       0       0       0       0       0       0       0       0
       0       0       0       0       0       0       0       0       0       0
       0       0       0       0       0       0       0       0       0       0
       0       0       0       0       0       0       0       0       0       0
       0       0       0       0       0       0       0       0       0       0
       0       0       0       0       0       0       0       0       0       0
       0       0       0       0       0       0       0       0       0       0
       0       0       0       0       0       0       0       0       0       0
       0       0       0       0       0       0       0       0       0       0
       0       0       0       0       0       0       0       0       0       0
       0       0       0       0       0       0       0       0       0       0
       0       0       0       0       0       0       0       0       0       0
       0       0       0       0       0       0       0       0       0       0
       0       0       0       0       0       0       0       0       0       0
       0       0       0       0       0       0       0       0       0       0
       0       0       0       0       0       0       0       0       0       0
       0       0       0       0       0       0       0       0       0       0
       0       0       0       0       0       0       0       0       0       0
       0       0       0       0       0       0       0       0       0       0
       0       0       0       0       0       0       0       0       0       0
       0       0       0       0       0       0       0       0       0       0
       0       0       0       0       0       0       0       0       0       0
       0       0       0       0       0       0       0       0       0       0
       0       0       0       0       0       0       0       0       0       0
       0       0       0       0       0       0       0       0       0       0
       0       0       0       0       0       0       0       0       0       0
       0       0       0       0       0       0       0       0       0       0
       0       0       0       0       0       0       0       0       0       0
       0       0       0       0       0       0       0       0       0       0
       0       0       0       0       0       0       0       0       0       0
       0       0       0       0       0       0       0       0       0       0
       0       0       0       0       0       0       0       0       0       0
       0       0       0       0       0       0       0       0       0       0
       0       0       0       0       0       0       0       0       0       0
       0       0       0       0       0       0       0       0       0       0
       0       0       0       0       0       0       0       0       0       0
       0       0       0       0       0       0       0       0       0       0
       0       0       0       0       0       0       0       0       0       0
       0       0       0       0       0       0       0       0       0       0
       0       0       0       0       0       0       0       0       0       0
       0       0       0       0       0       0       0       0       0       0
       0       0       0       0       0       0       0       0       0       0
       0       0       0       0       0       0       0       0       0       0
       0       0       0       0       0       0       0       0       0       0
       0       0       0       0       0       0       0       0       0       0
       0       0       0       0       0       0       0       0       0       0
       0       0       0       0       0       0       0       0       0       0
       0       0       0       0       0       0       0       0       0       0
       0       0       0       0       0       0       0       0       0       0
       0       0       0       0       0       0       0       0       0       0
       0       0       0       0       0       0       0       0       0       0
       0       0       0       0       0       0       0       0       0       0
       0       0       0       0       0       0       0       0       0       0
       0       0       0       0       0       0       0       0       0       0
       0       0       0       0       0       0       0       0       0       0
       0       0       0       0       0       0       0       0       0       0
       0       0       0       0       0       0       0       0       0       0
       0       0       0       0       0       0       0       0       0       0
       0       0       0       0       0       0       0       0       0       0
       0       0       0       0       0       0       0       0       0       0
       0       0       0       0       0       0       0       0       0       0
       0       0       0       0       0       0       0       0       0       0
       0       0       0       0       0       0       0       0       0       0
       0       0       0       0       0       0       0       0       0       0
       0       0       0       0       0       0       0       0       0       0
       0       0       0       0       0       0       0       0       0       0
       0       0       0       0       0       0       0       0       0       0
       0       0       0       0       0       0       0       0       0       0
       0       0       0       0       0       0       0       0       0       0
       0       0       0       0       0       0       0       0       0       0
       0       0       0       0       0       0       0       0       0       0
       0       0       0       0       0       0       0       0       0       0
       0       0       0       0       0       0       0       0       0       0
       0       0       0       0       0       0       0       0       0       0
       0       0       0       0       0       0       0       0       0       0
       0       0       0       0       0       0       0       0       0       0
       0       0       0       0       0       0       0       0       0       0
       0       0       0       0       0       0       0       0       0       0
       0       0       0       0       0       0       0       0       0       0
       0       0       0       0       0       0       0       0       0       0
       0       0       0       0       0       0       0       0       0       0
       0       0       0       0       0       0       0       0       0       0
       0       0       0       0       0       0       0       0       0       0
       0       0       0       0       0       0       0       0       0       0
       0       0       0       0       0       0       0       0       0       0
       0       0       0       0       0       0       0       0       0       0
       0       0       0       0       0       0       0       0       0       0
       0       0       0       0       0       0       0       0       0       0
       0       0       0       0       0       0       0       0       0       0
       0       0       0       0       0       0       0       0       0       0
       0       0       0       0       0       0       0       0       0       0
       0       0       0       0       0       0       0       0       0       0
       0       0       0       0       0       0       0       0       0       0
       0       0       0       0       0       0       0       0       0       0
       0       0       0       0       0       0       0       0       0       0
       0       0       0       0       0       0       0       0       0       0
       0       0       0       0       0       0       0       0       0       0
       0       0       0       0       0       0       0       0       0       0
       0       0       0       0       0       0       0       0       0       0
       0       0       0       0       0       0       0       0       0       0
       0       0       0       0       0       0       0       0       0       0
       0       0       0       0       0       0       0       0       0       0
       0       0       0       0       0       0       0       0       0       0
       0       0       0       0       0       0       0       0       0       0
       0       0       0       0       0       0       0       0       0       0
       0       0       0       0       0       0       0       0       0       0
       0       0       0       0       0       0       0       0       0       0
       0       0       0       0       0       0       0       0       0       0
       0       0       0       0       0       0       0       0       0       0
       0       0       0       0       0       0       0       0       0       0
       0       0       0       0       0       0       0       0       0       0
       0       0       0       0       0       0       0       0       0       0
       0       0       0       0       0       0       0       0       0       0
       0       0       0       0       0       0       0       0       0       0
       0       0       0       0       0       0       0       0       0       0
       0       0       0       0       0       0       0       0       0       0
       0       0       0       0       0       0       0       0       0       0
       0       0       0       0       0       0       0       0       0       0
       0       0       0       0       0       0       0       0       0       0
       0       0       0       0       0       0       0       0       0       0
       0       0       0       0       0       0       0       0       0       0
       0       0       0       0       0       0       0       0       0       0
       0       0       0       0       0       0       0       0       0       0
       0       0       0       0       0       0       0       0       0       0
       0       0       0       0       0       0       0       0       0       0
       0       0       0       0       0       0       0       0       0       0
       0       0       0       0       0       0       0       0       0       0
       0       0       0       0       0       0       0       0       0       0
       0       0       0       0       0       0       0       0       0       0
       0       0       0       0       0       0       0       0       0       0
       0       0       0       0       0       0       0       0       0       0
       0       0       0       0       0       0       0       0       0       0
       0       0       0       0       0       0       0       0       0       0
       0       0       0       0       0       0       0       0       0       0
       0       0       0       0       0       0       0       0       0       0
       0       0       0       0       0       0       0       0       0       0
       0       0       0       0       0       0       0       0       0       0
       0       0       0       0       0       0       0       0       0       0
       0       0       0       0       0       0       0       0       0       0
       0       0       0       0       0       0       0       0       0       0
       0       0       0       0       0       0       0       0       0       0
       0       0       0       0       0       0       0       0       0       0
       0       0       0       0       0       0       0       0       0       0
       0       0       0       0       0       0       0       0       0       0
       0       0       0       0       0       0       0       0       0       0
       0       0       0       0       0       0       0       0       0       0
       0       0       0       0       0       0       0       0       0       0
       0       0       0       0       0       0       0       0       0       0
       0       0       0       0       0       0       0       0       0       0
       0       0       0       0       0       0       0       0       0       0
       0       0       0       0       0       0       0       0       0       0
       0       0       0       0       0       0       0       0       0       0
       0       0       0       0       0       0       0       0       0       0
       0       0       0       0       0       0       0       0       0       0
       0       0       0       0       0       0       0       0       0       0
       0       0       0       0       0       0       0       0       0       0
       0       0       0       0       0       0       0       0       0       0
       0       0       0       0       0       0       0       0       0       0
       0       0       0       0       0       0       0       0       0       0
       0       0       0       0       0       0       0       0       0       0
       0       0       0       0       0       0       0       0       0       0
       0       0       0       0       0       0       0       0       0       0
       0       0       0       0       0       0       0       0       0       0
       0       0       0       0       0       0       0       0       0       0
       0       0       0       0       0       0       0       0       0       0
       0       0       0       0       0       0       0       0       0       0
       0       0       0       0       0       0       0       0       0       0
       0       0       0       0       0       0       0       0       0       0
       0       0       0       0       0       0       0       0       0       0
       0       0       0       0       0       0       0       0       0       0
       0       0       0       0       0       0       0       0       0       0
       0       0       0       0       0       0       0       0       0       0
       0       0       0       0       0       0       0       0       0       0
       0       0       0       0       0       0       0       0       0       0
       0       0       0       0       0       0       0       0       0       0
       0       0       0       0       0       0       0       0       0       0
       0       0       0       0       0       0       0       0       0       0
       0       0       0       0       0       0       0       0       0       0
       0       0       0       0       0       0       0       0       0       0
       0       0       0       0       0       0       0       0       0       0
       0       0       0       0       0       0       0       0       0       0
       0       0       0       0       0       0       0       0       0       0
       0       0       0       0       0       0       0       0       0       0
       0       0       0       0       0       0       0       0       0       0
       0       0       0       0       0       0       0       0       0       0
       0       0       0       0       0       0       0       0       0       0
       0       0       0       0       0       0       0       0       0       0
       0       0       0       0       0       0       0       0       0       0
       0       0       0       0       0       0       0       0       0       0
       0       0       0       0       0       0       0       0       0       0
       0       0       0       0       0       0       0       0       0       0
       0       0       0       0       0       0       0       0       0       0
       0       0       0       0       0       0       0       0       0       0
       0       0       0       0       0       0       0       0       0       0
       0       0       0       0       0       0       0       0       0       0
       0       0       0       0       0       0       0       0       0       0
       0       0       0       0       0       0       0       0       0       0
       0       0       0       0       0       0       0       0       0       0
       0       0       0       0       0       0       0       0       0       0
       0       0       0       0       0       0       0       0       0       0
       0       0       0       0       0       0       0       0       0       0
       0       0       0       0       0       0       0       0       0       0
       0       0       0       0       0       0       0       0       0       0
       0       0       0       0       0       0       0       0       0       0
       0       0       0       0       0       0       0       0       0       0
       0       0       0       0       0       0       0       0       0       0
       0       0       0       0       0       0       0       0       0       0
       0       0       0       0       0       0       0       0       0       0
       0       0       0       0       0       0       0       0       0       0
       0       0       0       0       0       0       0       0       0       0
       0       0       0       0       0       0       0       0       0       0
       0       0       0       0       0       0       0       0       0       0
       0       0       0       0       0       0       0       0       0       0
       0       0       0       0       0       0       0       0       0       0
       0       0       0       0       0       0       0       0       0       0
       0       0       0       0       0       0       0       0       0       0
       0       0       0       0       0       0       0       0       0       0
       0       0       0       0       0       0       0       0       0       0
       0       0       0       0       0       0       0       0       0       0
       0       0       0       0       0       0       0       0       0       0
       0       0       0       0       0       0       0       0       0       0
       0       0       0       0       0       0       0       0       0       0
       0       0       0       0       0       0       0       0       0       0
       0       0       0       0       0       0       0       0       0       0
       0       0       0       0       0       0       0       0       0       0
       0       0       0       0       0       0       0       0       0       0
       0       0       0       0       0       0       0       0       0       0
       0       0       0       0       0       0       0       0       0       0
       0       0       0       0       0       0       0       0       0       0
       0       0       0       0       0       0       0       0       0       0
       0       0       0       0       0       0       0       0       0       0
       0       0       0       0       0       0       0       0       0       0
       0       0       0       0       0       0       0       0       0       0
       0       0       0       0       0       0       0       0       0       0
       0       0       0       0       0       0       0       0       0       0
       0       0       0       0       0       0       0       0       0       0
       0       0       0       0       0       0       0       0       0       0
       0       0       0       0       0       0       0       0       0       0
       0       0       0       0       0       0       0       0       0       0
       0       0       0       0       0       0       0       0       0       0
       0       0       0       0       0       0       0       0       0       0
       0       0       0       0       0       0       0       0       0       0
       0       0       0       0       0       0       0       0       0       0
       0       0       0       0       0       0       0       0       0       0
       0       0       0       0       0       0       0       0       0       0
       0       0       0       0       0       0       0       0       0       0
       0       0       0       0       0       0       0       0       0       0
       0       0       0       0       0       0       0       0       0       0
       0       0       0       0       0       0       0       0       0       0
       0       0       0       0       0       0       0       0       0       0
       0       0       0       0       0       0       0       0       0       0
       0       0       0       0       0       0       0       0       0       0
       0       0       0       0       0       0       0       0       0       0
       0       0       0       0       0       0       0       0       0       0
       0       0       0       0       0       0       0       0       0       0
       0       0       0       0       0       0       0       0       0       0
       0       0       0       0       0       0       0       0       0       0
       0       0       0       0       0       0       0       0       0       0
       0       0       0       0       0       0       0       0       0       0
       0       0       0       0       0       0       0       0       0       0
       0       0       0       0       0       0       0       0       0       0
       0       0       0       0       0       0       0       0       0       0
       0       0       0       0       0       0       0       0       0       0
       0       0       0       0       0       0       0       0       0       0
       0       0       0       0       0       0       0       0       0       0
       0       0       0       0       0       0       0       0       0       0
       0       0       0       0       0       0       0       0       0       0
       0       0       0       0       0       0       0       0       0       0
       0       0       0       0       0       0       0       0       0       0
       0       0       0       0       0       0       0       0       0       0
       0       0       0       0       0       0       0       0       0       0
       0       0       0       0       0       0       0       0       0       0
       0       0       0       0       0       0       0       0       0       0
       0       0       0       0       0       0       0       0       0       0
       0       0       0       0       0       0       0       0       0       0
       0       0       0       0       0       0       0       0       0       0
       0       0       0       0       0       0       0       0       0       0
       0       0       0       0       0       0       0       0       0       0
       0       0       0       0       0       0       0       0       0       0
       0       0       0       0       0       0       0       0       0       0
       0       0       0       0       0       0       0       0       0       0
       0       0       0       0       0       0       0       0       0       0
       0       0       0       0       0       0       0       0       0       0
       0       0       0       0       0       0       0       0       0       0
       0       0       0       0       0       0       0       0       0       0
       0       0       0       0       0       0       0       0       0       0
       0       0       0       0       0       0       0       0       0       0
       0       0       0       0       0       0       0       0       0       0
       0       0       0       0       0       0       0       0       0       0
       0       0       0       0       0       0       0       0       0       0
       0       0       0       0       0       0       0       0       0       0
       0       0       0       0       0       0       0       0       0       0
       0       0       0       0       0       0       0       0       0       0
       0       0       0       0       0       0       0       0       0       0
       0       0       0       0       0       0       0       0       0       0
       0       0       0       0       0       0       0       0       0       0
       0       0       0       0       0       0       0       0       0       0
       0       0       0       0       0       0       0       0       0       0
       0       0       0       0       0       0       0       0       0       0
       0       0       0       0       0       0       0       0       0       0
       0       0       0       0       0       0       0       0       0       0
       0       0       0       0       0       0       0       0       0       0
       0       0       0       0       0       0       0       0       0       0
       0       0       0       0       0       0       0       0       0       0
       0       0       0       0       0       0       0       0       0       0
       0       0       0       0       0       0       0       0       0       0
       0       0       0       0       0       0       0       0       0       0
       0       0       0       0       0       0       0       0       0       0
       0       0       0       0       0       0       0       0       0       0
       0       0       0       0       0       0       0       0       0       0
       0       0       0       0       0       0       0       0       0       0
       0       0       0       0       0       0       0       0       0       0
       0       0       0       0       0       0       0       0       0       0
       0       0       0       0       0       0       0       0       0       0
       0       0       0       0       0       0       0       0       0       0
       0       0       0       0       0       0       0       0       0       0
       0       0       0       0       0       0       0       0       0       0
       0       0       0       0       0       0       0       0       0       0
       0       0       0       0       0       0       0       0       0       0
       0       0       0       0       0       0       0       0       0       0
       0       0       0       0       0       0       0       0       0       0
       0       0       0       0       0       0       0       0       0       0
       0       0       0       0       0       0       0       0       0       0
       0       0       0       0       0       0       0       0       0       0
       0       0       0       0       0       0       0       0       0       0
       0       0       0       0       0       0       0       0       0       0
       0       0       0       0       0       0       0       0       0       0
       0       0       0       0       0       0       0       0       0       0
       0       0       0       0       0       0       0       0       0       0
       0       0       0       0       0       0       0       0       0       0
       0       0       0       0       0       0       0       0       0       0
       0       0       0       0       0       0       0       0       0       0
       0       0       0       0       0       0       0       0       0       0
       0       0       0       0       0       0       0       0       0       0
       0       0       0       0       0       0       0       0       0       0
       0       0       0       0       0       0       0       0       0       0
       0       0       0       0       0       0       0       0       0       0
       0       0       0       0       0       0       0       0       0       0
       0       0       0       0       0       0       0       0       0       0
       0       0       0       0       0       0       0       0       0       0
       0       0       0       0       0       0       0       0       0       0
       0       0       0       0       0       0       0       0       0       0
       0       0       0       0       0       0       0       0       0       0
       0       0       0       0       0       0       0       0       0       0
       0       0       0       0       0       0       0       0       0       0
       0       0       0       0       0       0       0       0       0       0
       0       0       0       0       0       0       0       0       0       0
       0       0       0       0       0       0       0       0       0       0
       0       0       0       0       0       0       0       0       0       0
       0       0       0       0       0       0       0       0       0       0
       0       0       0       0       0       0       0       0       0       0
       0       0       0       0       0       0       0       0       0       0
       0       0       0       0       0       0       0       0       0       0
       0       0       0       0       0       0       0       0       0       0
       0       0       0       0       0       0       0       0       0       0
       0       0       0       0       0       0       0       0       0       0
       0       0       0       0       0       0       0       0       0       0
       0       0       0       0       0       0       0       0       0       0
       0       0       0       0       0       0       0       0       0       0
       0       0       0       0       0       0       0       0       0       0
       0       0       0       0       0       0       0       0       0       0
       0       0       0       0       0       0       0       0       0       0
       0       0       0       0       0       0       0       0       0       0
       0       0       0       0       0       0       0       0       0       0
       0       0       0       0       0       0       0       0       0       0
       0       0       0       0       0       0       0       0       0       0
       0       0       0       0       0       0       0       0       0       0
       0       0       0       0       0       0       0       0       0       0
       0       0       0       0       0       0       0       0       0       0
       0       0       0       0       0       0       0       0       0       0
       0       0       0       0       0       0       0       0       0       0
       0       0       0       0       0       0       0       0       0       0
       0       0       0       0       0       0       0       0       0       0
       0       0       0       0       0       0       0       0       0       0
       0       0       0       0       0       0       0       0       0       0
       0       0       0       0       0       0       0       0       0       0
       0       0       0       0       0       0       0       0       0       0
       0       0       0       0       0       0       0       0       0       0
       0       0       0       0       0       0       0       0       0       0
       0       0       0       0       0       0       0       0       0       0
       0       0       0       0       0       0       0       0       0       0
       0       0       0       0       0       0       0       0       0       0
       0       0       0       0       0       0       0       0       0       0
       0       0       0       0       0       0       0       0       0       0
       0       0       0       0       0       0       0       0       0       0
       0       0       0       0       0       0       0       0       0       0
       0       0       0       0       0       0       0       0       0       0
       0       0       0       0       0       0       0       0       0       0
       0       0       0       0       0       0       0       0       0       0
       0       0       0       0       0       0       0       0       0       0
       0       0       0       0       0       0       0       0       0       0
       0       0       0       0       0       0       0       0       0       0
       0       0       0       0       0       0       0       0       0       0
       0       0       0       0       0       0       0       0       0       0
       0       0       0       0       0       0       0       0       0       0
       0       0       0       0       0       0       0       0       0       0
       0       0       0       0       0       0       0       0       0       0
       0       0       0       0       0       0       0       0       0       0
       0       0       0       0       0       0       0       0       0       0
       0       0       0       0       0       0       0       0       0       0
       0       0       0       0       0       0       0       0       0       0
       0       0       0       0       0       0       0       0       0       0
       0       0       0       0       0       0       0       0       0       0
       0       0       0       0       0       0       0       0       0       0
       0       0       0       0       0       0       0       0       0       0
       0       0       0       0       0       0       0       0       0       0
       0       0       0       0       0       0       0       0       0       0
       0       0       0       0       0       0       0       0       0       0
       0       0       0       0       0       0       0       0       0       0
       0       0       0       0       0       0       0       0       0       0
       0       0       0       0       0       0       0       0       0       0
       0       0       0       0       0       0       0       0       0       0
       0       0       0       0       0       0       0       0       0       0
       0       0       0       0       0       0       0       0       0       0
       0       0       0       0       0       0       0       0       0       0
       0       0       0       0       0       0       0       0       0       0
       0       0       0       0       0       0       0       0       0       0
       0       0       0       0       0       0       0       0       0       0
       0       0       0       0       0       0       0       0       0       0
       0       0       0       0       0       0       0       0       0       0
       0       0       0       0       0       0       0       0       0       0
       0       0       0       0       0       0       0       0       0       0
       0       0       0       0       0       0       0       0       0       0
       0       0       0       0       0       0       0       0       0       0
       0       0       0       0       0       0       0       0       0       0
       0       0       0       0       0       0       0       0       0       0
       0       0       0       0       0       0       0       0       0       0
       0       0       0       0       0       0       0       0       0       0
       0       0       0       0       0       0       0       0       0       0
       0       0       0       0       0       0       0       0       0       0
       0       0       0       0       0       0       0       0       0       0
       0       0       0       0       0       0       0       0       0       0
       0       0       0       0       0       0       0       0       0       0
       0       0       0       0       0       0       0       0       0       0
       0       0       0       0       0       0       0       0       0       0
       0       0       0       0       0       0       0       0       0       0
       0       0       0       0       0       0       0       0       0       0
       0       0       0       0       0       0       0       0       0       0
       0       0       0       0       0       0       0       0       0       0
       0       0       0       0       0       0       0       0       0       0
       0       0       0       0       0       0       0       0       0       0
       0       0       0       0       0       0       0       0       0       0
       0       0       0       0       0       0       0       0       0       0
       0       0       0       0       0       0       0       0       0       0
       0       0       0       0       0       0       0       0       0       0
       0       0       0       0       0       0       0       0       0       0
       0       0       0       0       0       0       0       0       0       0
       0       0       0       0       0       0       0       0       0       0
       0       0       0       0       0       0       0       0       0       0
       0       0       0       0       0       0       0       0       0       0
       0       0       0       0       0       0       0       0       0       0
       0       0       0       0       0       0       0       0       0       0
       0       0       0       0       0       0       0       0       0       0
       0       0       0       0       0       0       0       0       0       0
       0       0       0       0       0       0       0       0       0       0
       0       0       0       0       0       0       0       0       0       0
       0       0       0       0       0       0       0       0       0       0
       0       0       0       0       0       0       0       0       0       0
       0       0       0       0       0       0       0       0       0       0
       0       0       0       0       0       0       0       0       0       0
       0       0       0       0       0       0       0       0       0       0
       0       0       0       0       0       0       0       0       0       0
       0       0       0       0       0       0       0       0       0       0
       0       0       0       0       0       0       0       0       0       0
       0       0       0       0       0       0       0       0       0       0
       0       0       0       0       0       0       0       0       0       0
       0       0       0       0       0       0       0       0       0       0
       0       0       0       0       0       0       0       0       0       0
       0       0       0       0       0       0       0       0       0       0
       0       0       0       0       0       0       0       0       0       0
       0       0       0       0       0       0       0       0       0       0
       0       0       0       0       0       0       0       0       0       0
       0       0       0       0       0       0       0       0       0       0
       0       0       0       0       0       0       0       0       0       0
       0       0       0       0       0       0       0       0       0       0
       0       0       0       0       0       0       0       0       0       0
       0       0       0       0       0       0       0       0       0       0
       0       0       0       0       0       0       0       0       0       0
       0       0       0       0       0       0       0       0       0       0
       0       0       0       0       0       0       0       0       0       0
       0       0       0       0       0       0       0       0       0       0
       0       0       0       0       0       0       0       0       0       0
       0       0       0       0       0       0       0       0       0       0
       0       0       0       0       0       0       0       0       0       0
       0       0       0       0       0       0       0       0       0       0
       0       0       0       0       0       0       0       0       0       0
       0       0       0       0       0       0       0       0       0       0
       0       0       0       0       0       0       0       0       0       0
       0       0       0       0       0       0       0       0       0       0
       0       0       0       0       0       0       0       0       0       0
       0       0       0       0       0       0       0       0       0       0
       0       0       0       0       0       0       0       0       0       0
       0       0       0       0       0       0       0       0       0       0
       0       0       0       0       0       0       0       0       0       0
       0       0       0       0       0       0       0       0       0       0
       0       0       0       0       0       0       0       0       0       0
       0       0       0       0       0       0       0       0       0       0
       0       0       0       0       0       0       0       0       0       0
       0       0       0       0       0       0       0       0       0       0
       0       0       0       0       0       0       0       0       0       0
       0       0       0       0       0       0       0       0       0       0
       0       0       0       0       0       0       0       0       0       0
       0       0       0       0       0       0       0       0       0       0
       0       0       0       0       0       0       0       0       0       0
       0       0       0       0       0       0       0       0       0       0
       0       0       0       0       0       0       0       0       0       0
       0       0       0       0       0       0       0       0       0       0
       0       0       0       0       0       0       0       0       0       0
       0       0       0       0       0       0       0       0       0       0
       0       0       0       0       0       0       0       0       0       0
       0       0       0       0       0       0       0       0       0       0
       0       0       0       0       0       0       0       0       0       0
       0       0       0       0       0       0       0       0       0       0
       0       0       0       0       0       0       0       0       0       0
       0       0       0       0       0       0       0       0       0       0
       0       0       0       0       0       0       0       0       0       0
       0       0       0       0       0       0       0       0       0       0
       0       0       0       0       0       0       0       0       0       0
       0       0       0       0       0       0       0       0       0       0
       0       0       0       0       0       0       0       0       0       0
       0       0       0       0       0       0       0       0       0       0
       0       0       0       0       0       0       0       0       0       0
       0       0       0       0       0       0       0       0       0       0
       0       0       0       0       0       0       0       0       0       0
       0       0       0       0       0       0       0       0       0       0
       0       0       0       0       0       0       0       0       0       0
       0       0       0       0       0       0       0       0       0       0
       0       0       0       0       0       0       0       0       0       0
       0       0       0       0       0       0       0       0       0       0
       0       0       0       0       0       0       0       0       0       0
       0       0       0       0       0       0       0       0       0       0
       0       0       0       0       0       0       0       0       0       0
       0       0       0       0       0       0       0       0       0       0
       0       0       0       0       0       0       0       0       0       0
       0       0       0       0       0       0       0       0       0       0
       0       0       0       0       0       0       0       0       0       0
       0       0       0       0       0       0       0       0       0       0
       0       0       0       0       0       0       0       0       0       0
       0       0       0       0       0       0       0       0       0       0
       0       0       0       0       0       0       0       0       0       0
       0       0       0       0       0       0       0       0       0       0
       0       0       0       0       0       0       0       0       0       0
       0       0       0       0       0       0       0       0       0       0
       0       0       0       0       0       0       0       0       0       0
       0       0       0       0       0       0       0       0       0       0
       0       0       0       0       0       0       0       0       0       0
       0       0       0       0       0       0       0       0       0       0
       0       0       0       0       0       0       0       0       0       0
       0       0       0       0       0       0       0       0       0       0
       0       0       0       0       0       0       0       0       0       0
       0       0       0       0       0       0       0       0       0       0
       0       0       0       0       0       0       0       0       0       0
       0       0       0       0       0       0       0       0       0       0
       0       0       0       0       0       0       0       0       0       0
       0       0       0       0       0       0       0       0       0       0
       0       0       0       0       0       0       0       0       0       0
       0       0       0       0       0       0       0       0       0       0
       0       0       0       0       0       0       0       0       0       0
       0       0       0       0       0       0       0       0       0       0
       0       0       0       0       0       0       0       0       0       0
       0       0       0       0       0       0       0       0       0       0
       0       0       0       0       0       0       0       0       0       0
       0       0       0       0       0       0       0       0       0       0
       0       0       0       0       0       0       0       0       0       0
       0       0       0       0       0       0       0       0       0       0
       0       0       0       0       0       0       0       0       0       0
       0       0       0       0       0       0       0       0       0       0
       0       0       0       0       0       0       0       0       0       0
       0       0       0       0       0       0       0       0       0       0
       0       0       0       0       0       0       0       0       0       0
       0       0       0       0       0       0       0       0       0       0
       0       0       0       0       0       0       0       0       0       0
       0       0       0       0       0       0       0       0       0       0
       0       0       0       0       0       0       0       0       0       0
       0       0       0       0       0       0       0       0       0       0
       0       0       0       0       0       0       0       0       0       0
       0       0       0       0       0       0       0       0       0       0
       0       0       0       0       0       0       0       0       0       0
       0       0       0       0       0       0       0       0       0       0
       0       0       0       0       0       0       0       0       0       0
       0       0       0       0       0       0       0       0       0       0
       0       0       0       0       0       0       0       0       0       0
       0       0       0       0       0       0       0       0       0       0
       0       0       0       0       0       0       0       0       0       0
       0       0       0       0       0       0       0       0       0       0
       0       0       0       0       0       0       0       0       0       0
       0       0       0       0       0       0       0       0       0       0
       0       0       0       0       0       0       0       0       0       0
       0       0       0       0       0       0       0       0       0       0
       0       0       0       0       0       0       0       0       0       0
       0       0       0       0       0       0       0       0       0       0
       0       0       0       0       0       0       0       0       0       0
       0       0       0       0       0       0       0       0       0       0
       0       0       0       0       0       0       0       0       0       0
       0       0       0       0       0       0       0       0       0       0
       0       0       0       0       0       0       0       0       0       0
       0       0       0       0       0       0       0       0       0       0
       0       0       0       0       0       0       0       0       0       0
       0       0       0       0       0       0       0       0       0       0
       0       0       0       0       0       0       0       0       0       0
       0       0       0       0       0       0       0       0       0       0
       0       0       0       0       0       0       0       0       0       0
       0       0       0       0       0       0       0       0       0       0
       0       0       0       0       0       0       0       0       0       0
       0       0       0       0       0       0       0       0       0       0
       0       0       0       0       0       0       0       0       0       0
       0       0       0       0       0       0       0       0       0       0
       0       0       0       0       0       0       0       0       0       0
       0       0       0       0       0       0       0       0       0       0
       0       0       0       0       0       0       0       0       0       0
       0       0       0       0       0       0       0       0       0       0
       0       0       0       0       0       0       0       0       0       0
       0       0       0       0       0       0       0       0       0       0
       0       0       0       0       0       0       0       0       0       0
       0       0       0       0       0       0       0       0       0       0
       0       0       0       0       0       0       0       0       0       0
       0       0       0       0       0       0       0       0       0       0
       0       0       0       0       0       0       0       0       0       0
       0       0       0       0       0       0       0       0       0       0
       0       0       0       0       0       0       0       0       0       0
       0       0       0       0       0       0       0       0       0       0
       0       0       0       0       0       0       0       0       0       0
       0       0       0       0       0       0       0       0       0       0
       0       0       0       0       0       0       0       0       0       0
       0       0       0       0       0       0       0       0       0       0
       0       0       0       0       0       0       0       0       0       0
       0       0       0       0       0       0       0       0       0       0
       0       0       0       0       0       0       0       0       0       0
       0       0       0       0       0       0       0       0       0       0
       0       0       0       0       0       0       0       0       0       0
       0       0       0       0       0       0       0       0       0       0
       0       0       0       0       0       0       0       0       0       0
       0       0       0       0       0       0       0       0       0       0
       0       0       0       0       0       0       0       0       0       0
       0       0       0       0       0       0       0       0       0       0
       0       0       0       0       0       0       0       0       0       0
       0       0       0       0       0       0       0       0       0       0
       0       0       0       0       0       0       0       0       0       0
       0       0       0       0       0       0       0       0       0       0
       0       0       0       0       0       0       0       0       0       0
       0       0       0       0       0       0       0       0       0       0
       0       0       0       0       0       0       0       0       0       0
       0       0       0       0       0       0       0       0       0       0
       0       0       0       0       0       0       0       0       0       0
       0       0       0       0       0       0       0       0       0       0
       0       0       0       0       0       0       0       0       0       0
       0       0       0       0       0       0       0       0       0       0
       0       0       0       0       0       0       0       0       0       0
       0       0       0       0       0       0       0       0       0       0
       0       0       0       0       0       0       0       0       0       0
       0       0       0       0       0       0       0       0       0       0
       0       0       0       0       0       0       0       0       0       0
       0       0       0       0       0       0       0       0       0       0
       0       0       0       0       0       0       0       0       0       0
       0       0       0       0       0       0       0       0       0       0
       0       0       0       0       0       0       0       0       0       0
       0       0       0       0       0       0       0       0       0       0
       0       0       0       0       0       0       0       0       0       0
       0       0       0       0       0       0       0       0       0       0
       0       0       0       0       0       0       0       0       0       0
       0       0       0       0       0       0       0       0       0       0
       0       0       0       0       0       0       0       0       0       0
       0       0       0       0       0       0       0       0       0       0
       0       0       0       0       0       0       0       0       0       0
       0       0       0       0       0       0       0       0       0       0
       0       0       0       0       0       0       0       0       0       0
       0       0       0       0       0       0       0       0       0       0
       0       0       0       0       0       0       0       0       0       0
       0       0       0       0       0       0       0       0       0       0
       0       0       0       0       0       0       0       0       0       0
       0       0       0       0       0       0       0       0       0       0
       0       0       0       0       0       0       0       0       0       0
       0       0       0       0       0       0       0       0       0       0
       0       0       0       0       0       0       0       0       0       0
       0       0       0       0       0       0       0       0       0       0
       0       0       0       0       0       0       0       0       0       0
       0       0       0       0       0       0       0       0       0       0
       0       0       0       0       0       0       0       0       0       0
       0       0       0       0       0       0       0       0       0       0
       0       0       0       0       0       0       0       0       0       0
       0       0       0       0       0       0       0       0       0       0
       0       0       0       0       0       0       0       0       0       0
       0       0       0       0       0       0       0       0       0       0
       0       0       0       0       0       0       0       0       0       0
       0       0       0       0       0       0       0       0       0       0
       0       0       0       0       0       0       0       0       0       0
       0       0       0       0       0       0       0       0       0       0
       0       0       0       0       0       0       0       0       0       0
       0       0       0       0       0       0       0       0       0       0
       0       0       0       0       0       0       0       0       0       0
       0       0       0       0       0       0       0       0       0       0
       0       0       0       0       0       0       0       0       0       0
       0       0       0       0       0       0       0       0       0       0
       0       0       0       0       0       0       0       0       0       0
       0       0       0       0       0       0       0       0       0       0
       0       0       0       0       0       0       0       0       0       0
       0       0       0       0       0       0       0       0       0       0
       0       0       0       0       0       0       0       0       0       0
       0       0       0       0       0       0       0       0       0       0
       0       0       0       0       0       0       0       0       0       0
       0       0       0       0       0       0       0       0       0       0
       0       0       0       0       0       0       0       0       0       0
       0       0       0       0       0       0       0       0       0       0
       0       0       0       0       0       0       0       0       0       0
       0       0       0       0       0       0       0       0       0       0
       0       0       0       0       0       0       0       0       0       0
       0       0       0       0       0       0       0       0       0       0
       0       0       0       0       0       0       0       0       0       0
       0       0       0       0       0       0       0       0       0       0
       0       0       0       0       0       0       0       0       0       0
       0       0       0       0       0       0       0       0       0       0
       0       0       0       0       0       0       0       0       0       0
       0       0       0       0       0       0       0       0       0       0
       0       0       0       0       0       0       0       0       0       0
       0       0       0       0       0       0       0       0       0       0
       0       0       0       0       0       0       0       0       0       0
       0       0       0       0       0       0       0       0       0       0
       0       0       0       0       0       0       0       0       0       0
       0       0       0       0       0       0       0       0       0       0
       0       0       0       0       0       0       0       0       0       0
       0       0       0       0       0       0       0       0       0       0
       0       0       0       0       0       0       0       0       0       0
       0       0       0       0       0       0       0       0       0       0
       0       0       0       0       0       0       0       0       0       0
       0       0       0       0       0       0       0       0       0       0
       0       0       0       0       0       0       0       0       0       0
       0       0       0       0       0       0       0       0       0       0
       0       0       0       0       0       0       0       0       0       0
       0       0       0       0       0       0       0       0       0       0
       0       0       0       0       0       0       0       0       0       0
       0       0       0       0       0       0       0       0       0       0
       0       0       0       0       0       0       0       0       0       0
       0       0       0       0       0       0       0       0       0       0
       0       0       0       0       0       0       0       0       0       0
       0       0       0       0       0       0       0       0       0       0
       0       0       0       0       0       0       0       0       0       0
       0       0       0       0       0       0       0       0       0       0
       0       0       0       0       0       0       0       0       0       0
       0       0       0       0       0       0       0       0       0       0
       0       0       0       0       0       0       0       0       0       0
       0       0       0       0       0       0       0       0       0       0
       0       0       0       0       0       0       0       0       0       0
       0       0       0       0       0       0       0       0       0       0
       0       0       0       0       0       0       0       0       0       0
       0       0       0       0       0       0       0       0       0       0
       0       0       0       0       0       0       0       0       0       0
       0       0       0       0       0       0       0       0       0       0
       0       0       0       0       0       0       0       0       0       0
       0       0       0       0       0       0       0       0       0       0
       0       0       0       0       0       0       0       0       0       0
       0       0       0       0       0       0       0       0       0       0
       0       0       0       0       0       0       0       0       0       0
       0       0       0       0       0       0       0       0       0       0
       0       0       0       0       0       0       0       0       0       0
       0       0       0       0       0       0       0       0       0       0
       0       0       0       0       0       0       0       0       0       0
       0       0       0       0       0       0       0       0       0       0
       0       0       0       0       0       0       0       0       0       0
       0       0       0       0       0       0       0       0       0       0
       0       0       0       0       0       0       0       0       0       0
       0       0       0       0       0       0       0       0       0       0
       0       0       0       0       0       0       0       0       0       0
       0       0       0       0       0       0       0       0       0       0
       0       0       0       0       0       0       0       0       0       0
       0       0       0       0       0       0       0       0       0       0
       0       0       0       0       0       0       0       0       0       0
       0       0       0       0       0       0       0       0       0       0
       0       0       0       0       0       0       0       0       0       0
       0       0       0       0       0       0       0       0       0       0
       0       0       0       0       0       0       0       0       0       0
       0       0       0       0       0       0       0       0       0       0
       0       0       0       0       0       0       0       0       0       0
       0       0       0       0       0       0       0       0       0       0
       0       0       0       0       0       0       0       0       0       0
       0       0       0       0       0       0       0       0       0       0
       0       0       0       0       0       0       0       0       0       0
       0       0       0       0       0       0       0       0       0       0
       0       0       0       0       0       0       0       0       0       0
       0       0       0       0       0       0       0       0       0       0
       0       0       0       0       0       0       0       0       0       0
       0       0       0       0       0       0       0       0       0       0
       0       0       0       0       0       0       0       0       0       0
       0       0       0       0       0       0       0       0       0       0
       0       0       0       0       0       0       0       0       0       0
       0       0       0       0       0       0       0       0       0       0
       0       0       0       0       0       0       0       0       0       0
       0       0       0       0       0       0       0       0       0       0
       0       0       0       0       0       0       0       0       0       0
       0       0       0       0       0       0       0       0       0       0
       0       0       0       0       0       0       0       0       0       0
       0       0       0       0       0       0       0       0       0       0
       0       0       0       0       0       0       0       0       0       0
       0       0       0       0       0       0       0       0       0       0
       0       0       0       0       0       0       0       0       0       0
       0       0       0       0       0       0       0       0       0       0
       0       0       0       0       0       0       0       0       0       0
       0       0       0       0       0       0       0       0       0       0
       0       0       0       0       0       0       0       0       0       0
       0       0       0       0       0       0       0       0       0       0
       0       0       0       0       0       0       0       0       0       0
       0       0       0       0       0       0       0       0       0       0
       0       0       0       0       0       0       0       0       0       0
       0       0       0       0       0       0       0       0       0       0
       0       0       0       0       0       0       0       0       0       0
       0       0       0       0       0       0       0       0       0       0
       0       0       0       0       0       0       0       0       0       0
       0       0       0       0       0       0       0       0       0       0
       0       0       0       0       0       0       0       0       0       0
       0       0       0       0       0       0       0       0       0       0
       0       0       0       0       0       0       0       0       0       0
       0       0       0       0       0       0       0       0       0       0
       0       0       0       0       0       0       0       0       0       0
       0       0       0       0       0       0       0       0       0       0
       0       0       0       0       0       0       0       0       0       0
       0       0       0       0       0       0       0       0       0       0
       0       0       0       0       0       0       0       0       0       0
       0       0       0       0       0       0       0       0       0       0
       0       0       0       0       0       0       0       0       0       0
       0       0       0       0       0       0       0       0       0       0
       0       0       0       0       0       0       0       0       0       0
       0       0       0       0       0       0       0       0       0       0
       0       0       0       0       0       0       0       0       0       0
       0       0       0       0       0       0       0       0       0       0
       0       0       0       0       0       0       0       0       0       0
       0       0       0       0       0       0       0       0       0       0
       0       0       0       0       0       0       0       0       0       0
       0       0       0       0       0       0       0       0       0       0
       0       0       0       0       0       0       0       0       0       0
       0       0       0       0       0       0       0       0       0       0
       0       0       0       0       0       0       0       0       0       0
       0       0       0       0       0       0       0       0       0       0
       0       0       0       0       0       0       0       0       0       0
       0       0       0       0       0       0       0       0       0       0
       0       0       0       0       0       0       0       0       0       0
       0       0       0       0       0       0       0       0       0       0
       0       0       0       0       0       0       0       0       0       0
       0       0       0       0       0       0       0       0       0       0
       0       0       0       0       0       0       0       0       0       0
       0       0       0       0       0       0       0       0       0       0
       0       0       0       0       0       0       0       0       0       0
       0       0       0       0       0       0       0       0       0       0
       0       0       0       0       0       0       0       0       0       0
       0       0       0       0       0       0       0       0       0       0
       0       0       0       0       0       0       0       0       0       0
       0       0       0       0       0       0       0       0       0       0
       0       0       0       0       0       0       0       0       0       0
       0       0       0       0       0       0       0       0       0       0
       0       0       0       0       0       0       0       0       0       0
       0       0       0       0       0       0       0       0       0       0
       0       0       0       0       0       0       0       0       0       0
       0       0       0       0       0       0       0       0       0       0
       0       0       0       0       0       0       0       0       0       0
       0       0       0       0       0       0       0       0       0       0
       0       0       0       0       0       0       0       0       0       0
       0       0       0       0       0       0       0       0       0       0
       0       0       0       0       0       0       0       0       0       0
       0       0       0       0       0       0       0       0       0       0
       0       0       0       0       0       0       0       0       0       0
       0       0       0       0       0       0       0       0       0       0
       0       0       0       0       0       0       0       0       0       0
       0       0       0       0       0       0       0       0       0       0
       0       0       0       0       0       0       0       0       0       0
       0       0       0       0       0       0       0       0       0       0
       0       0       0       0       0       0       0       0       0       0
       0       0       0       0       0       0       0       0       0       0
       0       0       0       0       0       0       0       0       0       0
       0       0       0       0       0       0       0       0       0       0
       0       0       0       0       0       0       0       0       0       0
       0       0       0       0       0       0       0       0       0       0
       0       0       0       0       0       0       0       0       0       0
       0       0       0       0       0       0       0       0       0       0
       0       0       0       0       0       0       0       0       0       0
       0       0       0       0       0       0       0       0       0       0
       0       0       0       0       0       0       0       0       0       0
       0       0       0       0       0       0       0       0       0       0
       0       0       0       0       0       0       0       0       0       0
       0       0       0       0       0       0       0       0       0       0
       0       0       0       0       0       0       0       0       0       0
       0       0       0       0       0       0       0       0       0       0
       0       0       0       0       0       0       0       0       0       0
       0       0       0       0       0       0       0       0       0       0
       0       0       0       0       0       0       0       0       0       0
       0       0       0       0       0       0       0       0       0       0
       0       0       0       0       0       0       0       0       0       0
       0       0       0       0       0       0       0       0       0       0
       0       0       0       0       0       0       0       0       0       0
       0       0       0       0       0       0       0       0       0       0
       0       0       0       0       0       0       0       0       0       0
       0       0       0       0       0       0       0       0       0       0
       0       0       0       0       0       0       0       0       0       0
       0       0       0       0       0       0       0       0       0       0
       0       0       0       0       0       0       0       0       0       0
       0       0       0       0       0       0       0       0       0       0
       0       0       0       0       0       0       0       0       0       0
       0       0       0       0       0       0       0       0       0       0
       0       0       0       0       0       0       0       0       0       0
       0       0       0       0       0       0       0       0       0       0
       0       0       0       0       0       0       0       0       0       0
       0       0       0       0       0       0       0       0       0       0
       0       0       0       0       0       0       0       0       0       0
       0       0       0       0       0       0       0       0       0       0
       0       0       0       0       0       0       0       0       0       0
       0       0       0       0       0       0       0       0       0       0
       0       0       0       0       0       0       0       0       0       0
       0       0       0       0       0       0       0       0       0       0
       0       0       0       0       0       0       0       0       0       0
       0       0       0       0       0       0       0       0       0       0
       0       0       0       0       0       0       0       0       0       0
       0       0       0       0       0       0       0       0       0       0
       0       0       0       0       0       0       0       0       0       0
       0       0       0       0       0       0       0       0       0       0
       0       0       0       0       0       0       0       0       0       0
       0       0       0       0       0       0       0       0       0       0
       0       0       0       0       0       0       0       0       0       0
       0       0       0       0       0       0       0       0       0       0
       0       0       0       0       0       0       0       0       0       0
       0       0       0       0       0       0       0       0       0       0
       0       0       0       0       0       0       0       0       0       0
       0       0       0       0       0       0       0       0       0       0
       0       0       0       0       0       0       0       0       0       0
       0       0       0       0       0       0       0       0       0       0
       0       0       0       0       0       0       0       0       0       0
       0       0       0       0       0       0       0       0       0       0
       0       0       0       0       0       0       0       0       0       0
       0       0       0       0       0       0       0       0       0       0
       0       0       0       0       0       0       0       0       0       0
       0       0       0       0       0       0       0       0       0       0
       0       0       0       0       0       0       0       0       0       0
       0       0       0       0       0       0       0       0       0       0
       0       0       0       0       0       0       0       0       0       0
       0       0       0       0       0       0       0       0       0       0
       0       0       0       0       0       0       0       0       0       0
       0       0       0       0       0       0       0       0       0       0
       0       0       0       0       0       0       0       0       0       0
       0       0       0       0       0       0       0       0       0       0
       0       0       0       0       0       0       0       0       0       0
       0       0       0       0       0       0       0       0       0       0
       0       0       0       0       0       0       0       0       0       0
       0       0       0       0       0       0       0       0       0       0
       0       0       0       0       0       0       0       0       0       0
       0       0       0       0       0       0       0       0       0       0
       0       0       0       0       0       0       0       0       0       0
       0       0       0       0       0       0       0       0       0       0
       0       0       0       0       0       0       0       0       0       0
       0       0       0       0       0       0       0       0       0       0
       0       0       0       0       0       0       0       0       0       0
       0       0       0       0       0       0       0       0       0       0
       0       0       0       0       0       0       0       0       0       0
       0       0       0       0       0       0       0       0       0       0
       0       0       0       0       0       0       0       0       0       0
       0       0       0       0       0       0       0       0       0       0
       0       0       0       0       0       0       0       0       0       0
       0       0       0       0       0       0       0       0       0       0
       0       0       0       0       0       0       0       0       0       0
       0       0       0       0       0       0       0       0       0       0
       0       0       0       0       0       0       0       0       0       0
       0       0       0       0       0       0       0       0       0       0
       0       0       0       0       0       0       0       0       0       0
       0       0       0       0       0       0       0       0       0       0
       0       0       0       0       0       0       0       0       0       0
       0       0       0       0       0       0       0       0       0       0
       0       0       0       0       0       0       0       0       0       0
       0       0       0       0       0       0       0       0       0       0
       0       0       0       0       0       0       0       0       0       0
       0       0       0       0       0       0       0       0       0       0
       0       0       0       0       0       0       0       0       0       0
       0       0       0       0       0       0       0       0       0       0
       0       0       0       0       0       0       0       0       0       0
       0       0       0       0       0       0       0       0       0       0
       0       0       0       0       0       0       0       0       0       0
       0       0       0       0       0       0       0       0       0       0
       0       0       0       0       0       0       0       0       0       0
       0       0       0       0       0       0       0       0       0       0
       0       0       0       0       0       0       0       0       0       0
       0       0       0       0       0       0       0       0       0       0
       0       0       0       0       0       0       0       0       0       0
       0       0       0       0       0       0       0       0       0       0
       0       0       0       0       0       0       0       0       0       0
       0       0       0       0       0       0       0       0       0       0
       0       0       0       0       0       0       0       0       0       0
       0       0       0       0       0       0       0       0       0       0
       0       0       0       0       0       0       0       0       0       0
       0       0       0       0       0       0       0       0       0       0
       0       0       0       0       0       0       0       0       0       0
       0       0       0       0       0       0       0       0       0       0
       0       0       0       0       0       0       0       0       0       0
       0       0       0       0       0       0       0       0       0       0
       0       0       0       0       0       0       0       0       0       0
       0       0       0       0       0       0       0       0       0       0
       0       0       0       0       0       0       0       0       0       0
       0       0       0       0       0       0       0       0       0       0
       0       0       0       0       0       0       0       0       0       0
       0       0       0       0       0       0       0       0       0       0
       0       0       0       0       0       0       0       0       0       0
       0       0       0       0       0       0       0       0       0       0
       0       0       0       0       0       0       0       0       0       0
       0       0       0       0       0       0       0       0       0       0
       0       0       0       0       0       0       0       0       0       0
       0       0       0       0       0       0       0       0       0       0
       0       0       0       0       0       0       0       0       0       0
       0       0       0       0       0       0       0       0       0       0
       0       0       0       0       0       0       0       0       0       0
       0       0       0       0       0       0       0       0       0       0
       0       0       0       0       0       0       0       0       0       0
       0       0       0       0       0       0       0       0       0       0
       0       0       0       0       0       0       0       0       0       0
       0       0       0       0       0       0       0       0       0       0
       0       0       0       0       0       0       0       0       0       0
       0       0       0       0       0       0       0       0       0       0
       0       0       0       0       0       0       0       0       0       0
       0       0       0       0       0       0       0       0       0       0
       0       0       0       0       0       0       0       0       0       0
       0       0       0       0       0       0       0       0       0       0
       0       0       0       0       0       0       0       0       0       0
       0       0       0       0       0       0       0       0       0       0
       0       0       0       0       0       0       0       0       0       0
       0       0       0       0       0       0       0       0       0       0
       0       0       0       0       0       0       0       0       0       0
       0       0       0       0       0       0       0       0       0       0
       0       0       0       0       0       0       0       0       0       0
       0       0       0       0       0       0       0       0       0       0
       0       0       0       0       0       0       0       0       0       0
       0       0       0       0       0       0       0       0       0       0
       0       0       0       0       0       0       0       0       0       0
       0       0       0       0       0       0       0       0       0       0
       0       0       0       0       0       0       0       0       0       0
       0       0       0       0       0       0       0       0       0       0
       0       0       0       0       0       0       0       0       0       0
       0       0       0       0       0       0       0       0       0       0
       0       0       0       0       0       0       0       0       0       0
       0       0       0       0       0       0       0       0       0       0
       0       0       0       0       0       0       0       0       0       0
       0       0       0       0       0       0       0       0       0       0
       0       0       0       0       0       0       0       0       0       0
       0       0       0       0       0       0       0       0       0       0
       0       0       0       0       0       0       0       0       0       0
       0       0       0       0       0       0       0       0       0       0
       0       0       0       0       0       0       0       0       0       0
       0       0       0       0       0       0       0       0       0       0
       0       0       0       0       0       0       0       0       0       0
       0       0       0       0       0       0       0       0       0       0
       0       0       0       0       0       0       0       0       0       0
       0       0       0       0       0       0       0       0       0       0
       0       0       0       0       0       0       0       0       0       0
       0       0       0       0       0       0       0       0       0       0
       0       0       0       0       0       0       0       0       0       0
       0       0       0       0       0       0       0       0       0       0
       0       0       0       0       0       0       0       0       0       0
       0       0       0       0       0       0       0       0       0       0
       0       0       0       0       0       0       0       0       0       0
       0       0       0       0       0       0       0       0       0       0
       0       0       0       0       0       0       0       0       0       0
       0       0       0       0       0       0       0       0       0       0
       0       0       0       0       0       0       0       0       0       0
       0       0       0       0       0       0       0       0       0       0
       0       0       0       0       0       0       0       0       0       0
       0       0       0       0       0       0       0       0       0       0
       0       0       0       0       0       0       0       0       0       0
       0       0       0       0       0       0       0       0       0       0
       0       0       0       0       0       0       0       0       0       0
       0       0       0       0       0       0       0       0       0       0
       0       0       0       0       0       0       0       0       0       0
       0       0       0       0       0       0       0       0       0       0
       0       0       0       0       0       0       0       0       0       0
       0       0       0       0       0       0       0       0       0       0
       0       0       0       0       0       0       0       0       0       0
       0       0       0       0       0       0       0       0       0       0
       0       0       0       0       0       0       0       0       0       0
       0       0       0       0       0       0       0       0       0       0
       0       0       0       0       0       0       0       0       0       0
       0       0       0       0       0       0       0       0       0       0
       0       0       0       0       0       0       0       0       0       0
       0       0       0       0       0       0       0       0       0       0
       0       0       0       0       0       0       0       0       0       0
       0       0       0       0       0       0       0       0       0       0
       0       0       0       0       0       0       0       0       0       0
       0       0       0       0       0       0       0       0       0       0
       0       0       0       0       0       0       0       0       0       0
       0       0       0       0       0       0       0       0       0       0
       0       0       0       0       0       0       0       0       0       0
       0       0       0       0       0       0       0       0       0       0
       0       0       0       0       0       0       0       0       0       0
       0       0       0       0       0       0       0       0       0       0
       0       0       0       0       0       0       0       0       0       0
       0       0       0       0       0       0       0       0       0       0
       0       0       0       0       0       0       0       0       0       0
       0       0       0       0       0       0       0       0       0       0
       0       0       0       0       0       0       0       0       0       0
       0       0       0       0       0       0       0       0       0       0
       0       0       0       0       0       0       0       0       0       0
       0       0       0       0       0       0       0       0       0       0
       0       0       0       0       0       0       0       0       0       0
       0       0       0       0       0       0       0       0       0       0
       0       0       0       0       0       0       0       0       0       0
       0       0       0       0       0       0       0       0       0       0
       0       0       0       0       0       0       0       0       0       0
       0       0       0       0       0       0       0       0       0       0
       0       0       0       0       0       0       0       0       0       0
       0       0       0       0       0       0       0       0       0       0
       0       0       0       0       0       0       0       0       0       0
       0       0       0       0       0       0       0       0       0       0
       0       0       0       0       0       0       0       0       0       0
       0       0       0       0       0       0       0       0       0       0
       0       0       0       0       0       0       0       0       0       0
       0       0       0       0       0       0       0       0       0       0
       0       0       0       0       0       0       0       0       0       0
       0       0       0       0       0       0       0       0       0       0
       0       0       0       0       0       0       0       0       0       0
       0       0       0       0       0       0       0       0       0       0
       0       0       0       0       0       0       0       0       0       0
       0       0       0       0       0       0       0       0       0       0
       0       0       0       0       0       0       0       0       0       0
       0       0       0       0       0       0       0       0       0       0
       0       0       0       0       0       0       0       0       0       0
       0       0       0       0       0       0       0       0       0       0
       0       0       0       0       0       0       0       0       0       0
       0       0       0       0       0       0       0       0       0       0
       0       0       0       0       0       0       0       0       0       0
       0       0       0       0       0       0       0       0       0       0
       0       0       0       0       0       0       0       0       0       0
       0       0       0       0       0       0       0       0       0       0
       0       0       0       0       0       0       0       0       0       0
       0       0       0       0       0       0       0       0       0       0
       0       0       0       0       0       0       0       0       0       0
       0       0       0       0       0       0       0       0       0       0
       0       0       0       0       0       0       0       0       0       0
       0       0       0       0       0       0       0       0       0       0
       0       0       0       0       0       0       0       0       0       0
       0       0       0       0       0       0       0       0       0       0
       0       0       0       0       0       0       0       0       0       0
       0       0       0       0       0       0       0       0       0       0
       0       0       0       0       0       0       0       0       0       0
       0       0       0       0       0       0       0       0       0       0
       0       0       0       0       0       0       0       0       0       0
       0       0       0       0       0       0       0       0       0       0
       0       0       0       0       0       0       0       0       0       0
       0       0       0       0       0       0       0       0       0       0
       0       0       0       0       0       0       0       0       0       0
       0       0       0       0       0       0       0       0       0       0
       0       0       0       0       0       0       0       0       0       0
       0       0       0       0       0       0       0       0       0       0
       0       0       0       0       0       0       0       0       0       0
       0       0       0       0       0       0       0       0       0       0
       0       0       0       0       0       0       0       0       0       0
       0       0       0       0       0       0       0       0       0       0
       0       0       0       0       0       0       0       0       0       0
       0       0       0       0       0       0       0       0       0       0
       0       0       0       0       0       0       0       0       0       0
       0       0       0       0       0       0       0       0       0       0
       0       0       0       0       0       0       0       0       0       0
       0       0       0       0       0       0       0       0       0       0
       0       0       0       0       0       0       0       0       0       0
       0       0       0       0       0       0       0       0       0       0
       0       0       0       0       0       0       0       0       0       0
       0       0       0       0       0       0       0       0       0       0
       0       0       0       0       0       0       0       0       0       0
       0       0       0       0       0       0       0       0       0       0
       0       0       0       0       0       0       0       0       0       0
       0       0       0       0       0       0       0       0       0       0
       0       0       0       0       0       0       0       0       0       0
       0       0       0       0       0       0       0       0       0       0
       0       0       0       0       0       0       0       0       0       0
       0       0       0       0       0       0       0       0       0       0
       0       0       0       0       0       0       0       0       0       0
       0       0       0       0       0       0       0       0       0       0
       0       0       0       0       0       0       0       0       0       0
       0       0       0       0       0       0       0       0       0       0
       0       0       0       0       0       0       0       0       0       0
       0       0       0       0       0       0       0       0       0       0
       0       0       0       0       0       0       0       0       0       0
       0       0       0       0       0       0       0       0       0       0
       0       0       0       0       0       0       0       0       0       0
       0       0       0       0       0       0       0       0       0       0
       0       0       0       0       0       0       0       0       0       0
       0       0       0       0       0       0       0       0       0       0
       0       0       0       0       0       0       0       0       0       0
       0       0       0       0       0       0       0       0       0       0
       0       0       0       0       0       0       0       0       0       0
       0       0       0       0       0       0       0       0       0       0
       0       0       0       0       0       0       0       0       0       0
       0       0       0       0       0       0       0       0       0       0
       0       0       0       0       0       0       0       0       0       0
       0       0       0       0       0       0       0       0       0       0
       0       0       0       0       0       0       0       0       0       0
       0       0       0       0       0       0       0       0       0       0
       0       0       0       0       0       0       0       0       0       0
       0       0       0       0       0       0       0       0       0       0
       0       0       0       0       0       0       0       0       0       0
       0       0       0       0       0       0       0       0       0       0
       0       0       0       0       0       0       0       0       0       0
       0       0       0       0       0       0       0       0       0       0
       0       0       0       0       0       0       0       0       0       0
       0       0       0       0       0       0       0       0       0       0
       0       0       0       0       0       0       0       0       0       0
       0       0       0       0       0       0       0       0       0       0
       0       0       0       0       0       0       0       0       0       0
       0       0       0       0       0       0       0       0       0       0
       0       0       0       0       0       0       0       0       0       0
       0       0       0       0       0       0       0       0       0       0
       0       0       0       0       0       0       0       0       0       0
       0       0       0       0       0       0       0       0       0       0
       0       0       0       0       0       0       0       0       0       0
       0       0       0       0       0       0       0       0       0       0
       0       0       0       0       0       0       0       0       0       0
       0       0       0       0       0       0       0       0       0       0
       0       0       0       0       0       0       0       0       0       0
       0       0       0       0       0       0       0       0       0       0
       0       0       0       0       0       0       0       0       0       0
       0       0       0       0       0       0       0       0       0       0
       0       0       0       0       0       0       0       0       0       0
       0       0       0       0       0       0       0       0       0       0
       0       0       0       0       0       0       0       0       0       0
       0       0       0       0       0       0       0       0       0       0
       0       0       0       0       0       0       0       0       0       0
       0       0       0       0       0       0       0       0       0       0
       0       0       0       0       0       0       0       0       0       0
       0       0       0       0       0       0       0       0       0       0
       0       0       0       0       0       0       0       0       0       0
       0       0       0       0       0       0       0       0       0       0
       0       0       0       0       0       0       0       0       0       0
       0       0       0       0       0       0       0       0       0       0
       0       0       0       0       0       0       0       0       0       0
       0       0       0       0       0       0       0       0       0       0
       0       0       0       0       0       0       0       0       0       0
       0       0       0       0       0       0       0       0       0       0
       0       0       0       0       0       0       0       0       0       0
       0       0       0       0       0       0       0       0       0       0
       0       0       0       0       0       0       0       0       0       0
       0       0       0       0       0       0       0       0       0       0
       0       0       0       0       0       0       0       0       0       0
       0       0       0       0       0       0       0       0       0       0
       0       0       0       0       0       0       0       0       0       0
       0       0       0       0       0       0       0       0       0       0
       0       0       0       0       0       0       0       0       0       0
       0       0       0       0       0       0       0       0       0       0
       0       0       0       0       0       0       0       0       0       0
       0       0       0       0       0       0       0       0       0       0
       0       0       0       0       0       0       0       0       0       0
       0       0       0       0       0       0       0       0       0       0
       0       0       0       0       0       0       0       0       0       0
       0       0       0       0       0       0       0       0       0       0
       0       0       0       0       0       0       0       0       0       0
       0       0       0       0       0       0       0       0       0       0
       0       0       0       0       0       0       0       0       0       0
       0       0       0       0       0       0       0       0       0       0
       0       0       0       0       0       0       0       0       0       0
       0       0       0       0       0       0       0       0       0       0
       0       0       0       0       0       0       0       0       0       0
       0       0       0       0       0       0       0       0       0       0
       0       0       0       0       0       0       0       0       0       0
       0       0       0       0       0       0       0       0       0       0
       0       0       0       0       0       0       0       0       0       0
       0       0       0       0       0       0       0       0       0       0
       0       0       0       0       0       0       0       0       0       0
       0       0       0       0       0       0       0       0       0       0
       0       0       0       0       0       0       0       0       0       0
       0       0       0       0       0       0       0       0       0       0
       0       0       0       0       0       0       0       0       0       0
       0       0       0       0       0       0       0       0       0       0
       0       0       0       0       0       0       0       0       0       0
       0       0       0       0       0       0       0       0       0       0
       0       0       0       0       0       0       0       0       0       0
       0       0       0       0       0       0       0       0       0       0
       0       0       0       0       0       0       0       0       0       0
       0       0       0       0       0       0       0       0       0       0
       0       0       0       0       0       0       0       0       0       0
       0       0       0       0       0       0       0       0       0       0
       0       0       0       0       0       0       0       0       0       0
       0       0       0       0       0       0       0       0       0       0
       0       0       0       0       0       0       0       0       0       0
       0       0       0       0       0       0       0       0       0       0
       0       0       0       0       0       0       0       0       0       0
       0       0       0       0       0       0       0       0       0       0
       0       0       0       0       0       0       0       0       0       0
       0       0       0       0       0       0       0       0       0       0
       0       0       0       0       0       0       0       0       0       0
       0       0       0       0       0       0       0       0       0       0
       0       0       0       0       0       0       0       0       0       0
       0       0       0       0       0       0       0       0       0       0
       0       0       0       0       0       0       0       0       0       0
       0       0       0       0       0       0       0       0       0       0
       0       0       0       0       0       0       0       0       0       0
       0       0       0       0       0       0       0       0       0       0
       0       0       0       0       0       0       0       0       0       0
       0       0       0       0       0       0       0       0       0       0
       0       0       0       0       0       0       0       0       0       0
       0       0       0       0       0       0       0       0       0       0
       0       0       0       0       0       0       0       0       0       0
       0       0       0       0       0       0       0       0       0       0
       0       0       0       0       0       0       0       0       0       0
       0       0       0       0       0       0       0       0       0       0
       0       0       0       0       0       0       0       0       0       0
       0       0       0       0       0       0       0       0       0       0
       0       0       0       0       0       0       0       0       0       0
       0       0       0       0       0       0       0       0       0       0
       0       0       0       0       0       0       0       0       0       0
       0       0       0       0       0       0       0       0       0       0
       0       0       0       0       0       0       0       0       0       0
       0       0       0       0       0       0       0       0       0       0
       0       0       0       0       0       0       0       0       0       0
       0       0       0       0       0       0       0       0       0       0
       0       0       0       0       0       0       0       0       0       0
       0       0       0       0       0       0       0       0       0       0
       0       0       0       0       0       0       0       0       0       0
       0       0       0       0       0       0       0       0       0       0
       0       0       0       0       0       0       0       0       0       0
       0       0       0       0       0       0       0       0       0       0
       0       0       0       0       0       0       0       0       0       0
       0       0       0       0       0       0       0       0       0       0
       0       0       0       0       0       0       0       0       0       0
       0       0       0       0       0       0       0       0       0       0
       0       0       0       0       0       0       0       0       0       0
       0       0       0       0       0       0       0       0       0       0
       0       0       0       0       0       0       0       0       0       0
       0       0       0       0       0       0       0       0       0       0
       0       0       0       0       0       0       0       0       0       0
       0       0       0       0       0       0       0       0       0       0
       0       0       0       0       0       0       0       0       0       0
       0       0       0       0       0       0       0       0       0       0
       0       0       0       0       0       0       0       0       0       0
       0       0       0       0       0       0       0       0       0       0
       0       0       0       0       0       0       0       0       0       0
       0       0       0       0       0       0       0       0       0       0
       0       0       0       0       0       0       0       0       0       0
       0       0       0       0       0       0       0       0       0       0
       0       0       0       0       0       0       0       0       0       0
       0       0       0       0       0       0       0       0       0       0
       0       0       0       0       0       0       0       0       0       0
       0       0       0       0       0       0       0       0       0       0
       0       0       0       0       0       0       0       0       0       0
       0       0       0       0       0       0       0       0       0       0
       0       0       0       0       0       0       0       0       0       0
       0       0       0       0       0       0       0       0       0       0
       0       0       0       0       0       0       0       0       0       0
       0       0       0       0       0       0       0       0       0       0
       0       0       0       0       0       0       0       0       0       0
       0       0       0       0       0       0       0       0       0       0
       0       0       0       0       0       0       0       0       0       0
       0       0       0       0       0       0       0       0       0       0
       0       0       0       0       0       0       0       0       0       0
       0       0       0       0       0       0       0       0       0       0
       0       0       0       0       0       0       0       0       0       0
       0       0       0       0       0       0       0       0       0       0
       0       0       0       0       0       0       0       0       0       0
       0       0       0       0       0       0       0       0       0       0
       0       0       0       0       0       0       0       0       0       0
       0       0       0       0       0       0       0       0       0       0
       0       0       0       0       0       0       0       0       0       0
       0       0       0       0       0       0       0       0       0       0
       0       0       0       0       0       0       0       0       0       0
       0       0       0       0       0       0       0       0       0       0
       0       0       0       0       0       0       0       0       0       0
       0       0       0       0       0       0       0       0       0       0
       0       0       0       0       0       0       0       0       0       0
       0       0       0       0       0       0       0       0       0       0
       0       0       0       0       0       0       0       0       0       0
       0       0       0       0       0       0       0       0       0       0
       0       0       0       0       0       0       0       0       0       0
       0       0       0       0       0       0       0       0       0       0
       0       0       0       0       0       0       0       0       0       0
       0       0       0       0       0       0       0       0       0       0
       0       0       0       0       0       0       0       0       0       0
       0       0       0       0       0       0       0       0       0       0
       0       0       0       0       0       0       0       0       0       0
       0       0       0       0       0       0       0       0       0       0
       0       0       0       0       0       0       0       0       0       0
       0       0       0       0       0       0       0       0       0       0
       0       0       0       0       0       0       0       0       0       0
       0       0       0       0       0       0       0       0       0       0
       0       0       0       0       0       0       0       0       0       0
       0       0       0       0       0       0       0       0       0       0
       0       0       0       0       0       0       0       0       0       0
       0       0       0       0       0       0       0       0       0       0
       0       0       0       0       0       0       0       0       0       0
       0       0       0       0       0       0       0       0       0       0
       0       0       0       0       0       0       0       0       0       0
       0       0       0       0       0       0       0       0       0       0
       0       0       0       0       0       0       0       0       0       0
       0       0       0       0       0       0       0       0       0       0
       0       0       0       0       0       0       0       0       0       0
       0       0       0       0       0       0       0       0       0       0
       0       0       0       0       0       0       0       0       0       0
       0       0       0       0       0       0       0       0       0       0
       0       0       0       0       0       0       0       0       0       0
       0       0       0       0       0       0       0       0       0       0
       0       0       0       0       0       0       0       0       0       0
       0       0       0       0       0       0       0       0       0       0
       0       0       0       0       0       0       0       0       0       0
       0       0       0       0       0       0       0       0       0       0
       0       0       0       0       0       0       0       0       0       0
       0       0       0       0       0       0       0       0       0       0
       0       0       0       0       0       0       0       0       0       0
       0       0       0       0       0       0       0       0       0       0
       0       0       0       0       0       0       0       0       0       0
       0       0       0       0       0       0       0       0       0       0
       0       0       0       0       0       0       0       0       0       0
       0       0       0       0       0       0       0       0       0       0
       0       0       0       0       0       0       0       0       0       0
       0       0       0       0       0       0       0       0       0       0
       0       0       0       0       0       0       0       0       0       0
       0       0       0       0       0       0       0       0       0       0
       0       0       0       0       0       0       0       0       0       0
       0       0       0       0       0       0       0       0       0       0
       0       0       0       0       0       0       0       0       0       0
       0       0       0       0       0       0       0       0       0       0
       0       0       0       0       0       0       0       0       0       0
       0       0       0       0       0       0       0       0       0       0
       0       0       0       0       0       0       0       0       0       0
       0       0       0       0       0       0       0       0       0       0
       0       0       0       0       0       0       0       0       0       0
       0       0       0       0       0       0       0       0       0       0
       0       0       0       0       0       0       0       0       0       0
       0       0       0       0       0       0       0       0       0       0
       0       0       0       0       0       0       0       0       0       0
       0       0       0       0       0       0       0       0       0       0
       0       0       0       0       0       0       0       0       0       0
       0       0       0       0       0       0       0       0       0       0
       0       0       0       0       0       0       0       0       0       0
       0       0       0       0       0       0       0       0       0       0
       0       0       0       0       0       0       0       0       0       0
       0       0       0       0       0       0       0       0       0       0
       0       0       0       0       0       0       0       0       0       0
       0       0       0       0       0       0       0       0       0       0
       0       0       0       0       0       0       0       0       0       0
       0       0       0       0       0       0       0       0       0       0
       0       0       0       0       0       0       0       0       0       0
       0       0       0       0       0       0       0       0       0       0
       0       0       0       0       0       0       0       0       0       0
       0       0       0       0       0       0       0       0       0       0
       0       0       0       0       0       0       0       0       0       0
       0       0       0       0       0       0       0       0       0       0
       0       0       0       0       0       0       0       0       0       0
       0       0       0       0       0       0       0       0       0       0
       0       0       0       0       0       0       0       0       0       0
       0       0       0       0       0       0       0       0       0       0
       0       0       0       0       0       0       0       0       0       0
       0       0       0       0       0       0       0       0       0       0
       0       0       0       0       0       0       0       0       0       0
       0       0       0       0       0       0       0       0       0       0
       0       0       0       0       0       0       0       0       0       0
       0       0       0       0       0       0       0       0       0       0
       0       0       0       0       0       0       0       0       0       0
       0       0       0       0       0       0       0       0       0       0
       0       0       0       0       0       0       0       0       0       0
       0       0       0       0       0       0       0       0       0       0
       0       0       0       0       0       0       0       0       0       0
       0       0       0       0       0       0       0       0       0       0
       0       0       0       0       0       0       0       0       0       0
       0       0       0       0       0       0       0       0       0       0
       0       0       0       0       0       0       0       0       0       0
       0       0       0       0       0       0       0       0       0       0
       0       0       0       0       0       0       0       0       0       0
       0       0       0       0       0       0       0       0       0       0
       0       0       0       0       0       0       0       0       0       0
       0       0       0       0       0       0       0       0       0       0
       0       0       0       0       0       0       0       0       0       0
       0       0       0       0       0       0       0       0       0       0
       0       0       0       0       0       0       0       0       0       0
       0       0       0       0       0       0       0       0       0       0
       0       0       0       0       0       0       0       0       0       0
       0       0       0       0       0       0       0       0       0       0
       0       0       0       0       0       0       0       0       0       0
       0       0       0       0       0       0       0       0       0       0
       0       0       0       0       0       0       0       0       0       0
       0       0       0       0       0       0       0       0       0       0
       0       0       0       0       0       0       0       0       0       0
       0       0       0       0       0       0       0       0       0       0
       0       0       0       0       0       0       0       0       0       0
       0       0       0       0       0       0       0       0       0       0
       0       0       0       0       0       0       0       0       0       0
       0       0       0       0       0       0       0       0       0       0
       0       0       0       0       0       0       0       0       0       0
       0       0       0       0       0       0       0       0       0       0
       0       0       0       0       0       0       0       0       0       0
       0       0       0       0       0       0       0       0       0       0
       0       0       0       0       0       0       0       0       0       0
       0       0       0       0       0       0       0       0       0       0
       0       0       0       0       0       0       0       0       0       0
       0       0       0       0       0       0       0       0       0       0
       0       0       0       0       0       0       0       0       0       0
       0       0       0       0       0       0       0       0       0       0
       0       0       0       0       0       0       0       0       0       0
       0       0       0       0       0       0       0       0       0       0
       0       0       0       0       0       0       0       0       0       0
       0       0       0       0       0       0       0       0       0       0
       0       0       0       0       0       0       0       0       0       0
       0       0       0       0       0       0       0       0       0       0
       0       0       0       0       0       0       0       0       0       0
       0       0       0       0       0       0       0       0       0       0
       0       0       0       0       0       0       0       0       0       0
       0       0       0       0       0       0       0       0       0       0
       0       0       0       0       0       0       0       0       0       0
       0       0       0       0       0       0       0       0       0       0
       0       0       0       0       0       0       0       0       0       0
       0       0       0       0       0       0       0       0       0       0
       0       0       0       0       0       0       0       0       0       0
       0       0       0       0       0       0       0       0       0       0
       0       0       0       0       0       0       0       0       0       0
       0       0       0       0       0       0       0       0       0       0
       0       0       0       0       0       0       0       0       0       0
       0       0       0       0       0       0       0       0       0       0
       0       0       0       0       0       0       0       0       0       0
       0       0       0       0       0       0       0       0       0       0
       0       0       0       0       0       0       0       0       0       0
       0       0       0       0       0       0       0       0       0       0
       0       0       0       0       0       0       0       0       0       0
       0       0       0       0       0       0       0       0       0       0
       0       0       0       0       0       0       0       0       0       0
       0       0       0       0       0       0       0       0       0       0
       0       0       0       0       0       0       0       0       0       0
       0       0       0       0       0       0       0       0       0       0
       0       0       0       0       0       0       0       0       0       0
       0       0       0       0       0       0       0       0       0       0
       0       0       0       0       0       0       0       0       0       0
       0       0       0       0       0       0       0       0       0       0
       0       0       0       0       0       0       0       0       0       0
       0       0       0       0       0       0       0       0       0       0
       0       0       0       0       0       0       0       0       0       0
       0       0       0       0       0       0       0       0       0       0
       0       0       0       0       0       0       0       0       0       0
       0       0       0       0       0       0       0       0       0       0
       0       0       0       0       0       0       0       0       0       0
       0       0       0       0       0       0       0       0       0       0
       0       0       0       0       0       0       0       0       0       0
       0       0       0       0       0       0       0       0       0       0
       0       0       0       0       0       0       0       0       0       0
       0       0       0       0       0       0       0       0       0       0
       0       0       0       0       0       0       0       0       0       0
       0       0       0       0       0       0       0       0       0       0
       0       0       0       0       0       0       0       0       0       0
       0       0       0       0       0       0       0       0       0       0
       0       0       0       0       0       0       0       0       0       0
       0       0       0       0       0       0       0       0       0       0
       0       0       0       0       0       0       0       0       0       0
       0       0       0       0       0       0       0       0       0       0
       0       0       0       0       0       0       0       0       0       0
       0       0       0       0       0       0       0       0       0       0
       0       0       0       0       0       0       0       0       0       0
       0       0       0       0       0       0       0       0       0       0
       0       0       0       0       0       0       0       0       0       0
       0       0       0       0       0       0       0       0       0       0
       0       0       0       0       0       0       0       0       0       0
       0       0       0       0       0       0       0       0       0       0
       0       0       0       0       0       0       0       0       0       0
       0       0       0       0       0       0       0       0       0       0
       0       0       0       0       0       0       0       0       0       0
       0       0       0       0       0       0       0       0       0       0
       0       0       0       0       0       0       0       0       0       0
       0       0       0       0       0       0       0       0       0       0
       0       0       0       0       0       0       0       0       0       0
       0       0       0       0       0       0       0       0       0       0
       0       0       0       0       0       0       0       0       0       0
       0       0       0       0       0       0       0       0       0       0
       0       0       0       0       0       0       0       0       0       0
       0       0       0       0       0       0       0       0       0       0
       0       0       0       0       0       0       0       0       0       0
       0       0       0       0       0       0       0       0       0       0
       0       0       0       0       0       0       0       0       0       0
       0       0       0       0       0       0       0       0       0       0
       0       0       0       0       0       0       0       0       0       0
       0       0       0       0       0       0       0       0       0       0
       0       0       0       0       0       0       0       0       0       0
       0       0       0       0       0       0       0       0       0       0
       0       0       0       0       0       0       0       0       0       0
       0       0       0       0       0       0       0       0       0       0
       0       0       0       0       0       0       0       0       0       0
       0       0       0       0       0       0       0       0       0       0
       0       0       0       0       0       0       0       0       0       0
       0       0       0       0       0       0       0       0       0       0
       0       0       0       0       0       0       0       0       0       0
       0       0       0       0       0       0       0       0       0       0
       0       0       0       0       0       0       0       0       0       0
       0       0       0       0       0       0       0       0       0       0
       0       0       0       0       0       0       0       0       0       0
       0       0       0       0       0       0       0       0       0       0
       0       0       0       0       0       0       0       0       0       0
       0       0       0       0       0       0       0       0       0       0
       0       0       0       0       0       0       0       0       0       0
       0       0       0       0       0       0       0       0       0       0
       0       0       0       0       0       0       0       0       0       0
       0       0       0       0       0       0       0       0       0       0
       0       0       0       0       0       0       0       0       0       0
       0       0       0       0       0       0       0       0       0       0
       0       0       0       0       0       0       0       0       0       0
       0       0       0       0       0       0       0       0       0       0
       0       0       0       0       0       0       0       0       0       0
       0       0       0       0       0       0       0       0       0       0
       0       0       0       0       0       0       0       0       0       0
       0       0       0       0       0       0       0       0       0       0
       0       0       0       0       0       0       0       0       0       0
       0       0       0       0       0       0       0       0       0       0
       0       0       0       0       0       0       0       0       0       0
       0       0       0       0       0       0       0       0       0       0
       0       0       0       0       0       0       0       0       0       0
       0       0       0       0       0       0       0       0       0       0
       0       0       0       0       0       0       0       0       0       0
       0       0       0       0       0       0       0       0       0       0
       0       0       0       0       0       0       0       0       0       0
       0       0       0       0       0       0       0       0       0       0
       0       0       0       0       0       0       0       0       0       0
       0       0       0       0       0       0       0       0       0       0
       0       0       0       0       0       0       0       0       0       0
       0       0       0       0       0       0       0       0       0       0
       0       0       0       0       0       0       0       0       0       0
       0       0       0       0       0       0       0       0       0       0
       0       0       0       0       0       0       0       0       0       0
       0       0       0       0       0       0       0       0       0       0
       0       0       0       0       0       0       0       0       0       0
       0       0       0       0       0       0       0       0       0       0
       0       0       0       0       0       0       0       0       0       0
       0       0       0       0       0       0       0       0       0       0
       0       0       0       0       0       0       0       0       0       0
       0       0       0       0       0       0       0       0       0       0
       0       0       0       0       0       0       0       0       0       0
       0       0       0       0       0       0       0       0       0       0
       0       0       0       0       0       0       0       0       0       0
       0       0       0       0       0       0       0       0       0       0
       0       0       0       0       0       0       0       0       0       0
       0       0       0       0       0       0       0       0       0       0
       0       0       0       0       0       0       0       0       0       0
       0       0       0       0       0       0       0       0       0       0
       0       0       0       0       0       0       0       0       0       0
       0       0       0       0       0       0       0       0       0       0
       0       0       0       0       0       0       0       0       0       0
       0       0       0       0       0       0       0       0       0       0
       0       0       0       0       0       0       0       0       0       0
       0       0       0       0       0       0       0       0       0       0
       0       0       0       0       0       0       0       0       0       0
       0       0       0       0       0       0       0       0       0       0
       0       0       0       0       0       0       0       0       0       0
       0       0       0       0       0       0       0       0       0       0
       0       0       0       0       0       0       0       0       0       0
       0       0       0       0       0       0       0       0       0       0
       0       0       0       0       0       0       0       0       0       0
       0       0       0       0       0       0       0       0       0       0
       0       0       0       0       0       0       0       0       0       0
       0       0       0       0       0       0       0       0       0       0
       0       0       0       0       0       0       0       0       0       0
       0       0       0       0       0       0       0       0       0       0
       0       0       0       0       0       0       0       0       0       0
       0       0       0       0       0       0       0       0       0       0
       0       0       0       0       0       0       0       0       0       0
       0       0       0       0       0       0       0       0       0       0
       0       0       0       0       0       0       0       0       0       0
       0       0       0       0       0       0       0       0       0       0
       0       0       0       0       0       0       0       0       0       0
       0       0       0       0       0       0       0       0       0       0
       0       0       0       0       0       0       0       0       0       0
       0       0       0       0       0       0       0       0       0       0
       0       0       0       0       0       0       0       0       0       0
       0       0       0       0       0       0       0       0       0       0
       0       0       0       0       0       0       0       0       0       0
       0       0       0       0       0       0       0       0       0       0
       0       0       0       0       0       0       0       0       0       0
       0       0       0       0       0       0       0       0       0       0
       0       0       0       0       0       0       0       0       0       0
       0       0       0       0       0       0       0       0       0       0
       0       0       0       0       0       0       0       0       0       0
       0       0       0       0       0       0       0       0       0       0
       0       0       0       0       0       0       0       0       0       0
       0       0       0       0       0       0       0       0       0       0
       0       0       0       0       0       0       0       0       0       0
       0       0       0       0       0       0       0       0       0       0
       0       0       0       0       0       0       0       0       0       0
       0       0       0       0       0       0       0       0       0       0
       0       0       0       0       0       0       0       0       0       0
       0       0       0       0       0       0       0       0       0       0
       0       0       0       0       0       0       0       0       0       0
       0       0       0       0       0       0       0       0       0       0
       0       0       0       0       0       0       0       0       0       0
       0       0       0       0       0       0       0       0       0       0
       0       0       0       0       0       0       0       0       0       0
       0       0       0       0       0       0       0       0       0       0
       0       0       0       0       0       0       0       0       0       0
       0       0       0       0       0       0       0       0       0       0
       0       0       0       0       0       0       0       0       0       0
       0       0       0       0       0       0       0       0       0       0
       0       0       0       0       0       0       0       0       0       0
       0       0       0       0       0       0       0       0       0       0
       0       0       0       0       0       0       0       0       0       0
       0       0       0       0       0       0       0       0       0       0
       0       0       0       0       0       0       0       0       0       0
       0       0       0       0       0       0       0       0       0       0
       0       0       0       0       0       0       0       0       0       0
       0       0       0       0       0       0       0       0       0       0
       0       0       0       0       0       0       0       0       0       0
       0       0       0       0       0       0       0       0       0       0
       0       0       0       0       0       0       0       0       0       0
       0       0       0       0       0       0       0       0       0       0
       0       0       0       0       0       0       0       0       0       0
       0       0       0       0       0       0       0       0       0       0
       0       0       0       0       0       0       0       0       0       0
       0       0       0       0       0       0       0       0       0       0
       0       0       0       0       0       0       0       0       0       0
       0       0       0       0       0       0       0       0       0       0
       0       0       0       0       0       0       0       0       0       0
       0       0       0       0       0       0       0       0       0       0
       0       0       0       0       0       0       0       0       0       0
       0       0       0       0       0       0       0       0       0       0
       0       0       0       0       0       0       0       0       0       0
       0       0       0       0       0       0       0       0       0       0
       0       0       0       0       0       0       0       0       0       0
       0       0       0       0       0       0       0       0       0       0
       0       0       0       0       0       0       0       0       0       0
       0       0       0       0       0       0       0       0       0       0
       0       0       0       0       0       0       0       0       0       0
       0       0       0       0       0       0       0       0       0       0
       0       0       0       0       0       0       0       0       0       0
       0       0       0       0       0       0       0       0       0       0
       0       0       0       0       0       0       0       0       0       0
       0       0       0       0       0       0       0       0       0       0
       0       0       0       0       0       0       0       0       0       0
       0       0       0       0       0       0       0       0       0       0
       0       0       0       0       0       0       0       0       0       0
       0       0       0       0       0       0       0       0       0       0
       0       0       0       0       0       0       0       0       0       0
       0       0       0       0       0       0       0       0       0       0
       0       0       0       0       0       0       0       0       0       0
       0       0       0       0       0       0       0       0       0       0
       0       0       0       0       0       0       0       0       0       0
       0       0       0       0       0       0       0       0       0       0
       0       0       0       0       0       0       0       0       0       0
       0       0       0       0       0       0       0       0       0       0
       0       0       0       0       0       0       0       0       0       0
       0       0       0       0       0       0       0       0       0       0
       0       0       0       0       0       0       0       0       0       0
       0       0       0       0       0       0       0       0       0       0
       0       0       0       0       0       0       0       0       0       0
       0       0       0       0       0       0       0       0       0       0
       0       0       0       0       0       0       0       0       0       0
       0       0       0       0       0       0       0       0       0       0
       0       0       0       0       0       0       0       0       0       0
       0       0       0       0       0       0       0       0       0       0
       0       0       0       0       0       0       0       0       0       0
       0       0       0       0       0       0       0       0       0       0
       0       0       0       0       0       0       0       0       0       0
       0       0       0       0       0       0       0       0       0       0
       0       0       0       0       0       0       0       0       0       0
       0       0       0       0       0       0       0       0       0       0
       0       0       0       0       0       0       0       0       0       0
       0       0       0       0       0       0       0       0       0       0
       0       0       0       0       0       0       0       0       0       0
       0       0       0       0       0       0       0       0       0       0
       0       0       0       0       0       0       0       0       0       0
       0       0       0       0       0       0       0       0       0       0
       0       0       0       0       0       0       0       0       0       0
       0       0       0       0       0       0       0       0       0       0
       0       0       0       0       0       0       0       0       0       0
       0       0       0       0       0       0       0       0       0       0
       0       0       0       0       0       0       0       0       0       0
       0       0       0       0       0       0       0       0       0       0
       0       0       0       0       0       0       0       0       0       0
       0       0       0       0       0       0       0       0       0       0
       0       0       0       0       0       0       0       0       0       0
       0       0       0       0       0       0       0       0       0       0
       0       0       0       0       0       0       0       0       0       0
       0       0       0       0       0       0       0       0       0       0
       0       0       0       0       0       0       0       0       0       0
       0       0       0       0       0       0       0       0       0       0
       0       0       0       0       0       0       0       0       0       0
       0       0       0       0       0       0       0       0       0       0
       0       0       0       0       0       0       0       0       0       0
       0       0       0       0       0       0       0       0       0       0
       0       0       0       0       0       0       0       0       0       0
       0       0       0       0       0       0       0       0       0       0
       0       0       0       0       0       0       0       0       0       0
       0       0       0       0       0       0       0       0       0       0
       0       0       0       0       0       0       0       0       0       0
       0       0       0       0       0       0       0       0       0       0
       0       0       0       0       0       0       0       0       0       0
       0       0       0       0       0       0       0       0       0       0
       0       0       0       0       0       0       0       0       0       0
       0       0       0       0       0       0       0       0       0       0
       0       0       0       0       0       0       0       0       0       0
       0       0       0       0       0       0       0       0       0       0
       0       0       0       0       0       0       0       0       0       0
       0       0       0       0       0       0       0       0       0       0
       0       0       0       0       0       0       0       0       0       0
       0       0       0       0       0       0       0       0       0       0
       0       0       0       0       0       0       0       0       0       0
       0       0       0       0       0       0       0       0       0       0
       0       0       0       0       0       0       0       0       0       0
       0       0       0       0       0       0       0       0       0       0
       0       0       0       0       0       0       0       0       0       0
       0       0       0       0       0       0       0       0       0       0
       0       0       0       0       0       0       0       0       0       0
       0       0       0       0       0       0       0       0       0       0
       0       0       0       0       0       0       0       0       0       0
       0       0       0       0       0       0       0       0       0       0
       0       0       0       0       0       0       0       0       0       0
       0       0       0       0       0       0       0       0       0       0
       0       0       0       0       0       0       0       0       0       0
       0       0       0       0       0       0       0       0       0       0
       0       0       0       0       0       0       0       0       0       0
       0       0       0       0       0       0       0       0       0       0
       0       0       0       0       0       0       0       0       0       0
       0       0       0       0       0       0       0       0       0       0
       0       0       0       0       0       0       0       0       0       0
       0       0       0       0       0       0       0       0       0       0
       0       0       0       0       0       0       0       0       0       0
       0       0       0       0       0       0       0       0       0       0
       0       0       0       0       0       0       0       0       0       0
       0       0       0       0       0       0       0       0       0       0
       0       0       0       0       0       0       0       0       0       0
       0       0       0       0       0       0       0       0       0       0
       0       0       0       0       0       0       0       0       0       0
       0       0       0       0       0       0       0       0       0       0
       0       0       0       0       0       0       0       0       0       0
       0       0       0       0       0       0       0       0       0       0
       0       0       0       0       0       0       0       0       0       0
       0       0       0       0       0       0       0       0       0       0
       0       0       0       0       0       0       0       0       0       0
       0       0       0       0       0       0       0       0       0       0
       0       0       0       0       0       0       0       0       0       0
       0       0       0       0       0       0       0       0       0       0
       0       0       0       0       0       0       0       0       0       0
       0       0       0       0       0       0       0       0       0       0
       0       0       0       0       0       0       0       0       0       0
       0       0       0       0       0       0       0       0       0       0
       0       0       0       0       0       0       0       0       0       0
       0       0       0       0       0       0       0       0       0       0
       0       0       0       0       0       0       0       0       0       0
       0       0       0       0       0       0       0       0       0       0
       0       0       0       0       0       0       0       0       0       0
       0       0       0       0       0       0       0       0       0       0
       0       0       0       0       0       0       0       0       0       0
       0       0       0       0       0       0       0       0       0       0
       0       0       0       0       0       0       0       0       0       0
       0       0       0       0       0       0       0       0       0       0
       0       0       0       0       0       0       0       0       0       0
       0       0       0       0       0       0       0       0       0       0
       0       0       0       0       0       0       0       0       0       0
       0       0       0       0       0       0       0       0       0       0
       0       0       0       0       0       0       0       0       0       0
       0       0       0       0       0       0       0       0       0       0
       0       0       0       0       0       0       0       0       0       0
       0       0       0       0       0       0       0       0       0       0
       0       0       0       0       0       0       0       0       0       0
       0       0       0       0       0       0       0       0       0       0
       0       0       0       0       0       0       0       0       0       0
       0       0       0       0       0       0       0       0       0       0
       0       0       0       0       0       0       0       0       0       0
       0       0       0       0       0       0       0       0       0       0
       0       0       0       0       0       0       0       0       0       0
       0       0       0       0       0       0       0       0       0       0
       0       0       0       0       0       0       0       0       0       0
       0       0       0       0       0       0       0       0       0       0
       0       0       0       0       0       0       0       0       0       0
       0       0       0       0       0       0       0       0       0       0
       0       0       0       0       0       0       0       0       0       0
       0       0       0       0       0       0       0       0       0       0
       0       0       0       0       0       0       0       0       0       0
       0       0       0       0       0       0       0       0       0       0
       0       0       0       0       0       0       0       0       0       0
       0       0       0       0       0       0       0       0       0       0
       0       0       0       0       0       0       0       0       0       0
       0       0       0       0       0       0       0       0       0       0
       0       0       0       0       0       0       0       0       0       0
       0       0       0       0       0       0       0       0       0       0
       0       0       0       0       0       0       0       0       0       0
       0       0       0       0       0       0       0       0       0       0
       0       0       0       0       0       0       0       0       0       0
       0       0       0       0       0       0       0       0       0       0
       0       0       0       0       0       0       0       0       0       0
       0       0       0       0       0       0       0       0       0       0
       0       0       0       0       0       0       0       0       0       0
       0       0       0       0       0       0       0       0       0       0
       0       0       0       0       0       0       0       0       0       0
       0       0       0       0       0       0       0       0       0       0
       0       0       0       0       0       0       0       0       0       0
       0       0       0       0       0       0       0       0       0       0
       0       0       0       0       0       0       0       0       0       0
       0       0       0       0       0       0       0       0       0       0
       0       0       0       0       0       0       0       0       0       0
       0       0       0       0       0       0       0       0       0       0
       0       0       0       0       0       0       0       0       0       0
       0       0       0       0       0       0       0       0       0       0
       0       0       0       0       0       0       0       0       0       0
       0       0       0       0       0       0       0       0       0       0
       0       0       0       0       0       0       0       0       0       0
       0       0       0       0       0       0       0       0       0       0
       0       0       0       0       0       0       0       0       0       0
       0       0       0       0       0       0       0       0       0       0
       0       0       0       0       0       0       0       0       0       0
       0       0       0       0       0       0       0       0       0       0
       0       0       0       0       0       0       0       0       0       0
       0       0       0       0       0       0       0       0       0       0
       0       0       0       0       0       0       0       0       0       0
       0       0       0       0       0       0       0       0       0       0
       0       0       0       0       0       0       0       0       0       0
       0       0       0       0       0       0       0       0       0       0
       0       0       0       0       0       0       0       0       0       0
       0       0       0       0       0       0       0       0       0       0
       0       0       0       0       0       0       0       0       0       0
       0       0       0       0       0       0       0       0       0       0
       0       0       0       0       0       0       0       0       0       0
       0       0       0       0       0       0       0       0       0       0
       0       0       0       0       0       0       0       0       0       0
       0       0       0       0       0       0       0       0       0       0
       0       0       0       0       0       0       0       0       0       0
       0       0       0       0       0       0       0       0       0       0
       0       0       0       0       0       0       0       0       0       0
       0       0       0       0       0       0       0       0       0       0
       0       0       0       0       0       0       0       0       0       0
       0       0       0       0       0       0       0       0       0       0
       0       0       0       0       0       0       0       0       0       0
       0       0       0       0       0       0       0       0       0       0
       0       0       0       0       0       0       0       0       0       0
       0       0       0       0       0       0       0       0       0       0
       0       0       0       0       0       0       0       0       0       0
       0       0       0       0       0       0       0       0       0       0
       0       0       0       0       0       0       0       0       0       0
       0       0       0       0       0       0       0       0       0       0
       0       0       0       0       0       0       0       0       0       0
       0       0       0       0       0       0       0       0       0       0
       0       0       0       0       0       0       0       0       0       0
%FLAG SOLVENT_POINTERS                                                          
%FORMAT(3I8)                                                                    
      49   20815      50
%FLAG ATOMS_PER_MOLECULE                                                        
%FORMAT(10I8)                                                                   
    1644       1       1       1       1       1       1       1       1       1
       1       1       1       1       1       1       1       1       1       1
       1       1       1       1       1       1       1       1       1       1
       1       1       1       1       1       1       1       1       1       1
       1       1       1       1       1       1       1       1       1       3
       3       3       3       3       3       3       3       3       3       3
       3       3       3       3       3       3       3       3       3       3
       3       3       3       3       3       3       3       3       3       3
       3       3       3       3       3       3       3       3       3       3
       3       3       3       3       3       3       3       3       3       3
       3       3       3       3       3       3       3       3       3       3
       3       3       3       3       3       3       3       3       3       3
       3       3       3       3       3       3       3       3       3       3
       3       3       3       3       3       3       3       3       3       3
       3       3       3       3       3       3       3       3       3       3
       3       3       3       3       3       3       3       3       3       3
       3       3       3       3       3       3       3       3       3       3
       3       3       3       3       3       3       3       3       3       3
       3       3       3       3       3       3       3       3       3       3
       3       3       3       3       3       3       3       3       3       3
       3       3       3       3       3       3       3       3       3       3
       3       3       3       3       3       3       3       3       3       3
       3       3       3       3       3       3       3       3       3       3
       3       3       3       3       3       3       3       3       3       3
       3       3       3       3       3       3       3       3       3       3
       3       3       3       3       3       3       3       3       3       3
       3       3       3       3       3       3       3       3       3       3
       3       3       3       3       3       3       3       3       3       3
       3       3       3       3       3       3       3       3       3       3
       3       3       3       3       3       3       3       3       3       3
       3       3       3       3       3       3       3       3       3       3
       3       3       3       3       3       3       3       3       3       3
       3       3       3       3       3       3       3       3       3       3
       3       3       3       3       3       3       3       3       3       3
       3       3       3       3       3       3       3       3       3       3
       3       3       3       3       3       3       3       3       3       3
       3       3       3       3       3       3       3       3       3       3
       3       3       3       3       3       3       3       3       3       3
       3       3       3       3       3       3       3       3       3       3
       3       3       3       3       3       3       3       3       3       3
       3       3       3       3       3       3       3       3       3       3
       3       3       3       3       3       3       3       3       3       3
       3       3       3       3       3       3       3       3       3       3
       3       3       3       3       3       3       3       3       3       3
       3       3       3       3       3       3       3       3       3       3
       3       3       3       3       3       3       3       3       3       3
       3       3       3       3       3       3       3       3       3       3
       3       3       3       3       3       3       3       3       3       3
       3       3       3       3       3       3       3       3       3       3
       3       3       3       3       3       3       3       3       3       3
       3       3       3       3       3       3       3       3       3       3
       3       3       3       3       3       3       3       3       3       3
       3       3       3       3       3       3       3       3       3       3
       3       3       3       3       3       3       3       3       3       3
       3       3       3       3       3       3       3       3       3       3
       3       3       3       3       3       3       3       3       3       3
       3       3       3       3       3       3       3       3       3       3
       3       3       3       3       3       3       3       3       3       3
       3       3       3       3       3       3       3       3       3       3
       3       3       3       3       3       3       3       3       3       3
       3       3       3       3       3       3       3       3       3       3
       3       3       3       3       3       3       3       3       3       3
       3       3       3       3       3       3       3       3       3       3
       3       3       3       3       3       3       3       3       3       3
       3       3       3       3       3       3       3       3       3       3
       3       3       3       3       3       3       3       3       3       3
       3       3       3       3       3       3       3       3       3       3
       3       3       3       3       3       3       3       3       3       3
       3       3       3       3       3       3       3       3       3       3
       3       3       3       3       3       3       3       3       3       3
       3       3       3       3       3       3       3       3       3       3
       3       3       3       3       3       3       3       3       3       3
       3       3       3       3       3       3       3       3       3       3
       3       3       3       3       3       3       3       3       3       3
       3       3       3       3       3       3       3       3       3       3
       3       3       3       3       3       3       3       3       3       3
       3       3       3       3       3       3       3       3       3       3
       3       3       3       3       3       3       3       3       3       3
       3       3       3       3       3       3       3       3       3       3
       3       3       3       3       3       3       3       3       3       3
       3       3       3       3       3       3       3       3       3       3
       3       3       3       3       3       3       3       3       3       3
       3       3       3       3       3       3       3       3       3       3
       3       3       3       3       3       3       3       3       3       3
       3       3       3       3       3       3       3       3       3       3
       3       3       3       3       3       3       3       3       3       3
       3       3       3       3       3       3       3       3       3       3
       3       3       3       3       3       3       3       3       3       3
       3       3       3       3       3       3       3       3       3       3
       3       3       3       3       3       3       3       3       3       3
       3       3       3       3       3       3       3       3       3       3
       3       3       3       3       3       3       3       3       3       3
       3       3       3       3       3       3       3       3       3       3
       3       3       3       3       3       3       3       3       3       3
       3       3       3       3       3       3       3       3       3       3
       3       3       3       3       3       3       3       3       3       3
       3       3       3       3       3       3       3       3       3       3
       3       3       3       3       3       3       3       3       3       3
       3       3       3       3       3       3       3       3       3       3
       3       3       3       3       3       3       3       3       3       3
       3       3       3       3       3       3       3       3       3       3
       3       3       3       3       3       3       3       3       3       3
       3       3       3       3       3       3       3       3       3       3
       3       3       3       3       3       3       3       3       3       3
       3       3       3       3       3       3       3       3       3       3
       3       3       3       3       3       3       3       3       3       3
       3       3       3       3       3       3       3       3       3       3
       3       3       3       3       3       3       3       3       3       3
       3       3       3       3       3       3       3       3       3       3
       3       3       3       3       3       3       3       3       3       3
       3       3       3       3       3       3       3       3       3       3
       3       3       3       3       3       3       3       3       3       3
       3       3       3       3       3       3       3       3       3       3
       3       3       3       3       3       3       3       3       3       3
       3       3       3       3       3       3       3       3       3       3
       3       3       3       3       3       3       3       3       3       3
       3       3       3       3       3       3       3       3       3       3
       3       3       3       3       3       3       3       3       3       3
       3       3       3       3       3       3       3       3       3       3
       3       3       3       3       3       3       3       3       3       3
       3       3       3       3       3       3       3       3       3       3
       3       3       3       3       3       3       3       3       3       3
       3       3       3       3       3       3       3       3       3       3
       3       3       3       3       3       3       3       3       3       3
       3       3       3       3       3       3       3       3       3       3
       3       3       3       3       3       3       3       3       3       3
       3       3       3       3       3       3       3       3       3       3
       3       3       3       3       3       3       3       3       3       3
       3       3       3       3       3       3       3       3       3       3
       3       3       3       3       3       3       3       3       3       3
       3       3       3       3       3       3       3       3       3       3
       3       3       3       3       3       3       3       3       3       3
       3       3       3       3       3       3       3       3       3       3
       3       3       3       3       3       3       3       3       3       3
       3       3       3       3       3       3       3       3       3       3
       3       3       3       3       3       3       3       3       3       3
       3       3       3       3       3       3       3       3       3       3
       3       3       3       3       3       3       3       3       3       3
       3       3       3       3       3       3       3       3       3       3
       3       3       3       3       3       3       3       3       3       3
       3       3       3       3       3       3       3       3       3       3
       3       3       3       3       3       3       3       3       3       3
       3       3       3       3       3       3       3       3       3       3
       3       3       3       3       3       3       3       3       3       3
       3       3       3       3       3       3       3       3       3       3
       3       3       3       3       3       3       3       3       3       3
       3       3       3       3       3       3       3       3       3       3
       3       3       3       3       3       3       3       3       3       3
       3       3       3       3       3       3       3       3       3       3
       3       3       3       3       3       3       3       3       3       3
       3       3       3       3       3       3       3       3       3       3
       3       3       3       3       3       3       3       3       3       3
       3       3       3       3       3       3       3       3       3       3
       3       3       3       3       3       3       3       3       3       3
       3       3       3       3       3       3       3       3       3       3
       3       3       3       3       3       3       3       3       3       3
       3       3       3       3       3       3       3       3       3       3
       3       3       3       3       3       3       3       3       3       3
       3       3       3       3       3       3       3       3       3       3
       3       3       3       3       3       3       3       3       3       3
       3       3       3       3       3       3       3       3       3       3
       3       3       3       3       3       3       3       3       3       3
       3       3       3       3       3       3       3       3       3       3
       3       3       3       3       3       3       3       3       3       3
       3       3       3       3       3       3       3       3       3       3
       3       3       3       3       3       3       3       3       3       3
       3       3       3       3       3       3       3       3       3       3
       3       3       3       3       3       3       3       3       3       3
       3       3       3       3       3       3       3       3       3       3
       3       3       3       3       3       3       3       3       3       3
       3       3       3       3       3       3       3       3       3       3
       3       3       3       3       3       3       3       3       3       3
       3       3       3       3       3       3       3       3       3       3
       3       3       3       3       3       3       3       3       3       3
       3       3       3       3       3       3       3       3       3       3
       3       3       3       3       3       3       3       3       3       3
       3       3       3       3       3       3       3       3       3       3
       3       3       3       3       3       3       3       3       3       3
       3       3       3       3       3       3       3       3       3       3
       3       3       3       3       3       3       3       3       3       3
       3       3       3       3       3       3       3       3       3       3
       3       3       3       3       3       3       3       3       3       3
       3       3       3       3       3       3       3       3       3       3
       3       3       3       3       3       3       3       3       3       3
       3       3       3       3       3       3       3       3       3       3
       3       3       3       3       3       3       3       3       3       3
       3       3       3       3       3       3       3       3       3       3
       3       3       3       3       3       3       3       3       3       3
       3       3       3       3       3       3       3       3       3       3
       3       3       3       3       3       3       3       3       3       3
       3       3       3       3       3       3       3       3       3       3
       3       3       3       3       3       3       3       3       3       3
       3       3       3       3       3       3       3       3       3       3
       3       3       3       3       3       3       3       3       3       3
       3       3       3       3       3       3       3       3       3       3
       3       3       3       3       3       3       3       3       3       3
       3       3       3       3       3       3       3       3       3       3
       3       3       3       3       3       3       3       3       3       3
       3       3       3       3       3       3       3       3       3       3
       3       3       3       3       3       3       3       3       3       3
       3       3       3       3       3       3       3       3       3       3
       3       3       3       3       3       3       3       3       3       3
       3       3       3       3       3       3       3       3       3       3
       3       3       3       3       3       3       3       3       3       3
       3       3       3       3       3       3       3       3       3       3
       3       3       3       3       3       3       3       3       3       3
       3       3       3       3       3       3       3       3       3       3
       3       3       3       3       3       3       3       3       3       3
       3       3       3       3       3       3       3       3       3       3
       3       3       3       3       3       3       3       3       3       3
       3       3       3       3       3       3       3       3       3       3
       3       3       3       3       3       3       3       3       3       3
       3       3       3       3       3       3       3       3       3       3
       3       3       3       3       3       3       3       3       3       3
       3       3       3       3       3       3       3       3       3       3
       3       3       3       3       3       3       3       3       3       3
       3       3       3       3       3       3       3       3       3       3
       3       3       3       3       3       3       3       3       3       3
       3       3       3       3       3       3       3       3       3       3
       3       3       3       3       3       3       3       3       3       3
       3       3       3       3       3       3       3       3       3       3
       3       3       3       3       3       3       3       3       3       3
       3       3       3       3       3       3       3       3       3       3
       3       3       3       3       3       3       3       3       3       3
       3       3       3       3       3       3       3       3       3       3
       3       3       3       3       3       3       3       3       3       3
       3       3       3       3       3       3       3       3       3       3
       3       3       3       3       3       3       3       3       3       3
       3       3       3       3       3       3       3       3       3       3
       3       3       3       3       3       3       3       3       3       3
       3       3       3       3       3       3       3       3       3       3
       3       3       3       3       3       3       3       3       3       3
       3       3       3       3       3       3       3       3       3       3
       3       3       3       3       3       3       3       3       3       3
       3       3       3       3       3       3       3       3       3       3
       3       3       3       3       3       3       3       3       3       3
       3       3       3       3       3       3       3       3       3       3
       3       3       3       3       3       3       3       3       3       3
       3       3       3       3       3       3       3       3       3       3
       3       3       3       3       3       3       3       3       3       3
       3       3       3       3       3       3       3       3       3       3
       3       3       3       3       3       3       3       3       3       3
       3       3       3       3       3       3       3       3       3       3
       3       3       3       3       3       3       3       3       3       3
       3       3       3       3       3       3       3       3       3       3
       3       3       3       3       3       3       3       3       3       3
       3       3       3       3       3       3       3       3       3       3
       3       3       3       3       3       3       3       3       3       3
       3       3       3       3       3       3       3       3       3       3
       3       3       3       3       3       3       3       3       3       3
       3       3       3       3       3       3       3       3       3       3
       3       3       3       3       3       3       3       3       3       3
       3       3       3       3       3       3       3       3       3       3
       3       3       3       3       3       3       3       3       3       3
       3       3       3       3       3       3       3       3       3       3
       3       3       3       3       3       3       3       3       3       3
       3       3       3       3       3       3       3       3       3       3
       3       3       3       3       3       3       3       3       3       3
       3       3       3       3       3       3       3       3       3       3
       3       3       3       3       3       3       3       3       3       3
       3       3       3       3       3       3       3       3       3       3
       3       3       3       3       3       3       3       3       3       3
       3       3       3       3       3       3       3       3       3       3
       3       3       3       3       3       3       3       3       3       3
       3       3       3       3       3       3       3       3       3       3
       3       3       3       3       3       3       3       3       3       3
       3       3       3       3       3       3       3       3       3       3
       3       3       3       3       3       3       3       3       3       3
       3       3       3       3       3       3       3       3       3       3
       3       3       3       3       3       3       3       3       3       3
       3       3       3       3       3       3       3       3       3       3
       3       3       3       3       3       3       3       3       3       3
       3       3       3       3       3       3       3       3       3       3
       3       3       3       3       3       3       3       3       3       3
       3       3       3       3       3       3       3       3       3       3
       3       3       3       3       3       3       3       3       3       3
       3       3       3       3       3       3       3       3       3       3
       3       3       3       3       3       3       3       3       3       3
       3       3       3       3       3       3       3       3       3       3
       3       3       3       3       3       3       3       3       3       3
       3       3       3       3       3       3       3       3       3       3
       3       3       3       3       3       3       3       3       3       3
       3       3       3       3       3       3       3       3       3       3
       3       3       3       3       3       3       3       3       3       3
       3       3       3       3       3       3       3       3       3       3
       3       3       3       3       3       3       3       3       3       3
       3       3       3       3       3       3       3       3       3       3
       3       3       3       3       3       3       3       3       3       3
       3       3       3       3       3       3       3       3       3       3
       3       3       3       3       3       3       3       3       3       3
       3       3       3       3       3       3       3       3       3       3
       3       3       3       3       3       3       3       3       3       3
       3       3       3       3       3       3       3       3       3       3
       3       3       3       3       3       3       3       3       3       3
       3       3       3       3       3       3       3       3       3       3
       3       3       3       3       3       3       3       3       3       3
       3       3       3       3       3       3       3       3       3       3
       3       3       3       3       3       3       3       3       3       3
       3       3       3       3       3       3       3       3       3       3
       3       3       3       3       3       3       3       3       3       3
       3       3       3       3       3       3       3       3       3       3
       3       3       3       3       3       3       3       3       3       3
       3       3       3       3       3       3       3       3       3       3
       3       3       3       3       3       3       3       3       3       3
       3       3       3       3       3       3       3       3       3       3
       3       3       3       3       3       3       3       3       3       3
       3       3       3       3       3       3       3       3       3       3
       3       3       3       3       3       3       3       3       3       3
       3       3       3       3       3       3       3       3       3       3
       3       3       3       3       3       3       3       3       3       3
       3       3       3       3       3       3       3       3       3       3
       3       3       3       3       3       3       3       3       3       3
       3       3       3       3       3       3       3       3       3       3
       3       3       3       3       3       3       3       3       3       3
       3       3       3       3       3       3       3       3       3       3
       3       3       3       3       3       3       3       3       3       3
       3       3       3       3       3       3       3       3       3       3
       3       3       3       3       3       3       3       3       3       3
       3       3       3       3       3       3       3       3       3       3
       3       3       3       3       3       3       3       3       3       3
       3       3       3       3       3       3       3       3       3       3
       3       3       3       3       3       3       3       3       3       3
       3       3       3       3       3       3       3       3       3       3
       3       3       3       3       3       3       3       3       3       3
       3       3       3       3       3       3       3       3       3       3
       3       3       3       3       3       3       3       3       3       3
       3       3       3       3       3       3       3       3       3       3
       3       3       3       3       3       3       3       3       3       3
       3       3       3       3       3       3       3       3       3       3
       3       3       3       3       3       3       3       3       3       3
       3       3       3       3       3       3       3       3       3       3
       3       3       3       3       3       3       3       3       3       3
       3       3       3       3       3       3       3       3       3       3
       3       3       3       3       3       3       3       3       3       3
       3       3       3       3       3       3       3       3       3       3
       3       3       3       3       3       3       3       3       3       3
       3       3       3       3       3       3       3       3       3       3
       3       3       3       3       3       3       3       3       3       3
       3       3       3       3       3       3       3       3       3       3
       3       3       3       3       3       3       3       3       3       3
       3       3       3       3       3       3       3       3       3       3
       3       3       3       3       3       3       3       3       3       3
       3       3       3       3       3       3       3       3       3       3
       3       3       3       3       3       3       3       3       3       3
       3       3       3       3       3       3       3       3       3       3
       3       3       3       3       3       3       3       3       3       3
       3       3       3       3       3       3       3       3       3       3
       3       3       3       3       3       3       3       3       3       3
       3       3       3       3       3       3       3       3       3       3
       3       3       3       3       3       3       3       3       3       3
       3       3       3       3       3       3       3       3       3       3
       3       3       3       3       3       3       3       3       3       3
       3       3       3       3       3       3       3       3       3       3
       3       3       3       3       3       3       3       3       3       3
       3       3       3       3       3       3       3       3       3       3
       3       3       3       3       3       3       3       3       3       3
       3       3       3       3       3       3       3       3       3       3
       3       3       3       3       3       3       3       3       3       3
       3       3       3       3       3       3       3       3       3       3
       3       3       3       3       3       3       3       3       3       3
       3       3       3       3       3       3       3       3       3       3
       3       3       3       3       3       3       3       3       3       3
       3       3       3       3       3       3       3       3       3       3
       3       3       3       3       3       3       3       3       3       3
       3       3       3       3       3       3       3       3       3       3
       3       3       3       3       3       3       3       3       3       3
       3       3       3       3       3       3       3       3       3       3
       3       3       3       3       3       3       3       3       3       3
       3       3       3       3       3       3       3       3       3       3
       3       3       3       3       3       3       3       3       3       3
       3       3       3       3       3       3       3       3       3       3
       3       3       3       3       3       3       3       3       3       3
       3       3       3       3       3       3       3       3       3       3
       3       3       3       3       3       3       3       3       3       3
       3       3       3       3       3       3       3       3       3       3
       3       3       3       3       3       3       3       3       3       3
       3       3       3       3       3       3       3       3       3       3
       3       3       3       3       3       3       3       3       3       3
       3       3       3       3       3       3       3       3       3       3
       3       3       3       3       3       3       3       3       3       3
       3       3       3       3       3       3       3       3       3       3
       3       3       3       3       3       3       3       3       3       3
       3       3       3       3       3       3       3       3       3       3
       3       3       3       3       3       3       3       3       3       3
       3       3       3       3       3       3       3       3       3       3
       3       3       3       3       3       3       3       3       3       3
       3       3       3       3       3       3       3       3       3       3
       3       3       3       3       3       3       3       3       3       3
       3       3       3       3       3       3       3       3       3       3
       3       3       3       3       3       3       3       3       3       3
       3       3       3       3       3       3       3       3       3       3
       3       3       3       3       3       3       3       3       3       3
       3       3       3       3       3       3       3       3       3       3
       3       3       3       3       3       3       3       3       3       3
       3       3       3       3       3       3       3       3       3       3
       3       3       3       3       3       3       3       3       3       3
       3       3       3       3       3       3       3       3       3       3
       3       3       3       3       3       3       3       3       3       3
       3       3       3       3       3       3       3       3       3       3
       3       3       3       3       3       3       3       3       3       3
       3       3       3       3       3       3       3       3       3       3
       3       3       3       3       3       3       3       3       3       3
       3       3       3       3       3       3       3       3       3       3
       3       3       3       3       3       3       3       3       3       3
       3       3       3       3       3       3       3       3       3       3
       3       3       3       3       3       3       3       3       3       3
       3       3       3       3       3       3       3       3       3       3
       3       3       3       3       3       3       3       3       3       3
       3       3       3       3       3       3       3       3       3       3
       3       3       3       3       3       3       3       3       3       3
       3       3       3       3       3       3       3       3       3       3
       3       3       3       3       3       3       3       3       3       3
       3       3       3       3       3       3       3       3       3       3
       3       3       3       3       3       3       3       3       3       3
       3       3       3       3       3       3       3       3       3       3
       3       3       3       3       3       3       3       3       3       3
       3       3       3       3       3       3       3       3       3       3
       3       3       3       3       3       3       3       3       3       3
       3       3       3       3       3       3       3       3       3       3
       3       3       3       3       3       3       3       3       3       3
       3       3       3       3       3       3       3       3       3       3
       3       3       3       3       3       3       3       3       3       3
       3       3       3       3       3       3       3       3       3       3
       3       3       3       3       3       3       3       3       3       3
       3       3       3       3       3       3       3       3       3       3
       3       3       3       3       3       3       3       3       3       3
       3       3       3       3       3       3       3       3       3       3
       3       3       3       3       3       3       3       3       3       3
       3       3       3       3       3       3       3       3       3       3
       3       3       3       3       3       3       3       3       3       3
       3       3       3       3       3       3       3       3       3       3
       3       3       3       3       3       3       3       3       3       3
       3       3       3       3       3       3       3       3       3       3
       3       3       3       3       3       3       3       3       3       3
       3       3       3       3       3       3       3       3       3       3
       3       3       3       3       3       3       3       3       3       3
       3       3       3       3       3       3       3       3       3       3
       3       3       3       3       3       3       3       3       3       3
       3       3       3       3       3       3       3       3       3       3
       3       3       3       3       3       3       3       3       3       3
       3       3       3       3       3       3       3       3       3       3
       3       3       3       3       3       3       3       3       3       3
       3       3       3       3       3       3       3       3       3       3
       3       3       3       3       3       3       3       3       3       3
       3       3       3       3       3       3       3       3       3       3
       3       3       3       3       3       3       3       3       3       3
       3       3       3       3       3       3       3       3       3       3
       3       3       3       3       3       3       3       3       3       3
       3       3       3       3       3       3       3       3       3       3
       3       3       3       3       3       3       3       3       3       3
       3       3       3       3       3       3       3       3       3       3
       3       3       3       3       3       3       3       3       3       3
       3       3       3       3       3       3       3       3       3       3
       3       3       3       3       3       3       3       3       3       3
       3       3       3       3       3       3       3       3       3       3
       3       3       3       3       3       3       3       3       3       3
       3       3       3       3       3       3       3       3       3       3
       3       3       3       3       3       3       3       3       3       3
       3       3       3       3       3       3       3       3       3       3
       3       3       3       3       3       3       3       3       3       3
       3       3       3       3       3       3       3       3       3       3
       3       3       3       3       3       3       3       3       3       3
       3       3       3       3       3       3       3       3       3       3
       3       3       3       3       3       3       3       3       3       3
       3       3       3       3       3       3       3       3       3       3
       3       3       3       3       3       3       3       3       3       3
       3       3       3       3       3       3       3       3       3       3
       3       3       3       3       3       3       3       3       3       3
       3       3       3       3       3       3       3       3       3       3
       3       3       3       3       3       3       3       3       3       3
       3       3       3       3       3       3       3       3       3       3
       3       3       3       3       3       3       3       3       3       3
       3       3       3       3       3       3       3       3       3       3
       3       3       3       3       3       3       3       3       3       3
       3       3       3       3       3       3       3       3       3       3
       3       3       3       3       3       3       3       3       3       3
       3       3       3       3       3       3       3       3       3       3
       3       3       3       3       3       3       3       3       3       3
       3       3       3       3       3       3       3       3       3       3
       3       3       3       3       3       3       3       3       3       3
       3       3       3       3       3       3       3       3       3       3
       3       3       3       3       3       3       3       3       3       3
       3       3       3       3       3       3       3       3       3       3
       3       3       3       3       3       3       3       3       3       3
       3       3       3       3       3       3       3       3       3       3
       3       3       3       3       3       3       3       3       3       3
       3       3       3       3       3       3       3       3       3       3
       3       3       3       3       3       3       3       3       3       3
       3       3       3       3       3       3       3       3       3       3
       3       3       3       3       3       3       3       3       3       3
       3       3       3       3       3       3       3       3       3       3
       3       3       3       3       3       3       3       3       3       3
       3       3       3       3       3       3       3       3       3       3
       3       3       3       3       3       3       3       3       3       3
       3       3       3       3       3       3       3       3       3       3
       3       3       3       3       3       3       3       3       3       3
       3       3       3       3       3       3       3       3       3       3
       3       3       3       3       3       3       3       3       3       3
       3       3       3       3       3       3       3       3       3       3
       3       3       3       3       3       3       3       3       3       3
       3       3       3       3       3       3       3       3       3       3
       3       3       3       3       3       3       3       3       3       3
       3       3       3       3       3       3       3       3       3       3
       3       3       3       3       3       3       3       3       3       3
       3       3       3       3       3       3       3       3       3       3
       3       3       3       3       3       3       3       3       3       3
       3       3       3       3       3       3       3       3       3       3
       3       3       3       3       3       3       3       3       3       3
       3       3       3       3       3       3       3       3       3       3
       3       3       3       3       3       3       3       3       3       3
       3       3       3       3       3       3       3       3       3       3
       3       3       3       3       3       3       3       3       3       3
       3       3       3       3       3       3       3       3       3       3
       3       3       3       3       3       3       3       3       3       3
       3       3       3       3       3       3       3       3       3       3
       3       3       3       3       3       3       3       3       3       3
       3       3       3       3       3       3       3       3       3       3
       3       3       3       3       3       3       3       3       3       3
       3       3       3       3       3       3       3       3       3       3
       3       3       3       3       3       3       3       3       3       3
       3       3       3       3       3       3       3       3       3       3
       3       3       3       3       3       3       3       3       3       3
       3       3       3       3       3       3       3       3       3       3
       3       3       3       3       3       3       3       3       3       3
       3       3       3       3       3       3       3       3       3       3
       3       3       3       3       3       3       3       3       3       3
       3       3       3       3       3       3       3       3       3       3
       3       3       3       3       3       3       3       3       3       3
       3       3       3       3       3       3       3       3       3       3
       3       3       3       3       3       3       3       3       3       3
       3       3       3       3       3       3       3       3       3       3
       3       3       3       3       3       3       3       3       3       3
       3       3       3       3       3       3       3       3       3       3
       3       3       3       3       3       3       3       3       3       3
       3       3       3       3       3       3       3       3       3       3
       3       3       3       3       3       3       3       3       3       3
       3       3       3       3       3       3       3       3       3       3
       3       3       3       3       3       3       3       3       3       3
       3       3       3       3       3       3       3       3       3       3
       3       3       3       3       3       3       3       3       3       3
       3       3       3       3       3       3       3       3       3       3
       3       3       3       3       3       3       3       3       3       3
       3       3       3       3       3       3       3       3       3       3
       3       3       3       3       3       3       3       3       3       3
       3       3       3       3       3       3       3       3       3       3
       3       3       3       3       3       3       3       3       3       3
       3       3       3       3       3       3       3       3       3       3
       3       3       3       3       3       3       3       3       3       3
       3       3       3       3       3       3       3       3       3       3
       3       3       3       3       3       3       3       3       3       3
       3       3       3       3       3       3       3       3       3       3
       3       3       3       3       3       3       3       3       3       3
       3       3       3       3       3       3       3       3       3       3
       3       3       3       3       3       3       3       3       3       3
       3       3       3       3       3       3       3       3       3       3
       3       3       3       3       3       3       3       3       3       3
       3       3       3       3       3       3       3       3       3       3
       3       3       3       3       3       3       3       3       3       3
       3       3       3       3       3       3       3       3       3       3
       3       3       3       3       3       3       3       3       3       3
       3       3       3       3       3       3       3       3       3       3
       3       3       3       3       3       3       3       3       3       3
       3       3       3       3       3       3       3       3       3       3
       3       3       3       3       3       3       3       3       3       3
       3       3       3       3       3       3       3       3       3       3
       3       3       3       3       3       3       3       3       3       3
       3       3       3       3       3       3       3       3       3       3
       3       3       3       3       3       3       3       3       3       3
       3       3       3       3       3       3       3       3       3       3
       3       3       3       3       3       3       3       3       3       3
       3       3       3       3       3       3       3       3       3       3
       3       3       3       3       3       3       3       3       3       3
       3       3       3       3       3       3       3       3       3       3
       3       3       3       3       3       3       3       3       3       3
       3       3       3       3       3       3       3       3       3       3
       3       3       3       3       3       3       3       3       3       3
       3       3       3       3       3       3       3       3       3       3
       3       3       3       3       3       3       3       3       3       3
       3       3       3       3       3       3       3       3       3       3
       3       3       3       3       3       3       3       3       3       3
       3       3       3       3       3       3       3       3       3       3
       3       3       3       3       3       3       3       3       3       3
       3       3       3       3       3       3       3       3       3       3
       3       3       3       3       3       3       3       3       3       3
       3       3       3       3       3       3       3       3       3       3
       3       3       3       3       3       3       3       3       3       3
       3       3       3       3       3       3       3       3       3       3
       3       3       3       3       3       3       3       3       3       3
       3       3       3       3       3       3       3       3       3       3
       3       3       3       3       3       3       3       3       3       3
       3       3       3       3       3       3       3       3       3       3
       3       3       3       3       3       3       3       3       3       3
       3       3       3       3       3       3       3       3       3       3
       3       3       3       3       3       3       3       3       3       3
       3       3       3       3       3       3       3       3       3       3
       3       3       3       3       3       3       3       3       3       3
       3       3       3       3       3       3       3       3       3       3
       3       3       3       3       3       3       3       3       3       3
       3       3       3       3       3       3       3       3       3       3
       3       3       3       3       3       3       3       3       3       3
       3       3       3       3       3       3       3       3       3       3
       3       3       3       3       3       3       3       3       3       3
       3       3       3       3       3       3       3       3       3       3
       3       3       3       3       3       3       3       3       3       3
       3       3       3       3       3       3       3       3       3       3
       3       3       3       3       3       3       3       3       3       3
       3       3       3       3       3       3       3       3       3       3
       3       3       3       3       3       3       3       3       3       3
       3       3       3       3       3       3       3       3       3       3
       3       3       3       3       3       3       3       3       3       3
       3       3       3       3       3       3       3       3       3       3
       3       3       3       3       3       3       3       3       3       3
       3       3       3       3       3       3       3       3       3       3
       3       3       3       3       3       3       3       3       3       3
       3       3       3       3       3       3       3       3       3       3
       3       3       3       3       3       3       3       3       3       3
       3       3       3       3       3       3       3       3       3       3
       3       3       3       3       3       3       3       3       3       3
       3       3       3       3       3       3       3       3       3       3
       3       3       3       3       3       3       3       3       3       3
       3       3       3       3       3       3       3       3       3       3
       3       3       3       3       3       3       3       3       3       3
       3       3       3       3       3       3       3       3       3       3
       3       3       3       3       3       3       3       3       3       3
       3       3       3       3       3       3       3       3       3       3
       3       3       3       3       3       3       3       3       3       3
       3       3       3       3       3       3       3       3       3       3
       3       3       3       3       3       3       3       3       3       3
       3       3       3       3       3       3       3       3       3       3
       3       3       3       3       3       3       3       3       3       3
       3       3       3       3       3       3       3       3       3       3
       3       3       3       3       3       3       3       3       3       3
       3       3       3       3       3       3       3       3       3       3
       3       3       3       3       3       3       3       3       3       3
       3       3       3       3       3       3       3       3       3       3
       3       3       3       3       3       3       3       3       3       3
       3       3       3       3       3       3       3       3       3       3
       3       3       3       3       3       3       3       3       3       3
       3       3       3       3       3       3       3       3       3       3
       3       3       3       3       3       3       3       3       3       3
       3       3       3       3       3       3       3       3       3       3
       3       3       3       3       3       3       3       3       3       3
       3       3       3       3       3       3       3       3       3       3
       3       3       3       3       3       3       3       3       3       3
       3       3       3       3       3       3       3       3       3       3
       3       3       3       3       3       3       3       3       3       3
       3       3       3       3       3       3       3       3       3       3
       3       3       3       3       3       3       3       3       3       3
       3       3       3       3       3       3       3       3       3       3
       3       3       3       3       3       3       3       3       3       3
       3       3       3       3       3       3       3       3       3       3
       3       3       3       3       3       3       3       3       3       3
       3       3       3       3       3       3       3       3       3       3
       3       3       3       3       3       3       3       3       3       3
       3       3       3       3       3       3       3       3       3       3
       3       3       3       3       3       3       3       3       3       3
       3       3       3       3       3       3       3       3       3       3
       3       3       3       3       3       3       3       3       3       3
       3       3       3       3       3       3       3       3       3       3
       3       3       3       3       3       3       3       3       3       3
       3       3       3       3       3       3       3       3       3       3
       3       3       3       3       3       3       3       3       3       3
       3       3       3       3       3       3       3       3       3       3
       3       3       3       3       3       3       3       3       3       3
       3       3       3       3       3       3       3       3       3       3
       3       3       3       3       3       3       3       3       3       3
       3       3       3       3       3       3       3       3       3       3
       3       3       3       3       3       3       3       3       3       3
       3       3       3       3       3       3       3       3       3       3
       3       3       3       3       3       3       3       3       3       3
       3       3       3       3       3       3       3       3       3       3
       3       3       3       3       3       3       3       3       3       3
       3       3       3       3       3       3       3       3       3       3
       3       3       3       3       3       3       3       3       3       3
       3       3       3       3       3       3       3       3       3       3
       3       3       3       3       3       3       3       3       3       3
       3       3       3       3       3       3       3       3       3       3
       3       3       3       3       3       3       3       3       3       3
       3       3       3       3       3       3       3       3       3       3
       3       3       3       3       3       3       3       3       3       3
       3       3       3       3       3       3       3       3       3       3
       3       3       3       3       3       3       3       3       3       3
       3       3       3       3       3       3       3       3       3       3
       3       3       3       3       3       3       3       3       3       3
       3       3       3       3       3       3       3       3       3       3
       3       3       3       3       3       3       3       3       3       3
       3       3       3       3       3       3       3       3       3       3
       3       3       3       3       3       3       3       3       3       3
       3       3       3       3       3       3       3       3       3       3
       3       3       3       3       3       3       3       3       3       3
       3       3       3       3       3       3       3       3       3       3
       3       3       3       3       3       3       3       3       3       3
       3       3       3       3       3       3       3       3       3       3
       3       3       3       3       3       3       3       3       3       3
       3       3       3       3       3       3       3       3       3       3
       3       3       3       3       3       3       3       3       3       3
       3       3       3       3       3       3       3       3       3       3
       3       3       3       3       3       3       3       3       3       3
       3       3       3       3       3       3       3       3       3       3
       3       3       3       3       3       3       3       3       3       3
       3       3       3       3       3       3       3       3       3       3
       3       3       3       3       3       3       3       3       3       3
       3       3       3       3       3       3       3       3       3       3
       3       3       3       3       3       3       3       3       3       3
       3       3       3       3       3       3       3       3       3       3
       3       3       3       3       3       3       3       3       3       3
       3       3       3       3       3       3       3       3       3       3
       3       3       3       3       3       3       3       3       3       3
       3       3       3       3       3       3       3       3       3       3
       3       3       3       3       3       3       3       3       3       3
       3       3       3       3       3       3       3       3       3       3
       3       3       3       3       3       3       3       3       3       3
       3       3       3       3       3       3       3       3       3       3
       3       3       3       3       3       3       3       3       3       3
       3       3       3       3       3       3       3       3       3       3
       3       3       3       3       3       3       3       3       3       3
       3       3       3       3       3       3       3       3       3       3
       3       3       3       3       3       3       3       3       3       3
       3       3       3       3       3       3       3       3       3       3
       3       3       3       3       3       3       3       3       3       3
       3       3       3       3       3       3       3       3       3       3
       3       3       3       3       3       3       3       3       3       3
       3       3       3       3       3       3       3       3       3       3
       3       3       3       3       3       3       3       3       3       3
       3       3       3       3       3       3       3       3       3       3
       3       3       3       3       3       3       3       3       3       3
       3       3       3       3       3       3       3       3       3       3
       3       3       3       3       3       3       3       3       3       3
       3       3       3       3       3       3       3       3       3       3
       3       3       3       3       3       3       3       3       3       3
       3       3       3       3       3       3       3       3       3       3
       3       3       3       3       3       3       3       3       3       3
       3       3       3       3       3       3       3       3       3       3
       3       3       3       3       3       3       3       3       3       3
       3       3       3       3       3       3       3       3       3       3
       3       3       3       3       3       3       3       3       3       3
       3       3       3       3       3       3       3       3       3       3
       3       3       3       3       3       3       3       3       3       3
       3       3       3       3       3       3       3       3       3       3
       3       3       3       3       3       3       3       3       3       3
       3       3       3       3       3       3       3       3       3       3
       3       3       3       3       3       3       3       3       3       3
       3       3       3       3       3       3       3       3       3       3
       3       3       3       3       3       3       3       3       3       3
       3       3       3       3       3       3       3       3       3       3
       3       3       3       3       3       3       3       3       3       3
       3       3       3       3       3       3       3       3       3       3
       3       3       3       3       3       3       3       3       3       3
       3       3       3       3       3       3       3       3       3       3
       3       3       3       3       3       3       3       3       3       3
       3       3       3       3       3       3       3       3       3       3
       3       3       3       3       3       3       3       3       3       3
       3       3       3       3       3       3       3       3       3       3
       3       3       3       3       3       3       3       3       3       3
       3       3       3       3       3       3       3       3       3       3
       3       3       3       3       3       3       3       3       3       3
       3       3       3       3       3       3       3       3       3       3
       3       3       3       3       3       3       3       3       3       3
       3       3       3       3       3       3       3       3       3       3
       3       3       3       3       3       3       3       3       3       3
       3       3       3       3       3       3       3       3       3       3
       3       3       3       3       3       3       3       3       3       3
       3       3       3       3       3       3       3       3       3       3
       3       3       3       3       3       3       3       3       3       3
       3       3       3       3       3       3       3       3       3       3
       3       3       3       3       3       3       3       3       3       3
       3       3       3       3       3       3       3       3       3       3
       3       3       3       3       3       3       3       3       3       3
       3       3       3       3       3       3       3       3       3       3
       3       3       3       3       3       3       3       3       3       3
       3       3       3       3       3       3       3       3       3       3
       3       3       3       3       3       3       3       3       3       3
       3       3       3       3       3       3       3       3       3       3
       3       3       3       3       3       3       3       3       3       3
       3       3       3       3       3       3       3       3       3       3
       3       3       3       3       3       3       3       3       3       3
       3       3       3       3       3       3       3       3       3       3
       3       3       3       3       3       3       3       3       3       3
       3       3       3       3       3       3       3       3       3       3
       3       3       3       3       3       3       3       3       3       3
       3       3       3       3       3       3       3       3       3       3
       3       3       3       3       3       3       3       3       3       3
       3       3       3       3       3       3       3       3       3       3
       3       3       3       3       3       3       3       3       3       3
       3       3       3       3       3       3       3       3       3       3
       3       3       3       3       3       3       3       3       3       3
       3       3       3       3       3       3       3       3       3       3
       3       3       3       3       3       3       3       3       3       3
       3       3       3       3       3       3       3       3       3       3
       3       3       3       3       3       3       3       3       3       3
       3       3       3       3       3       3       3       3       3       3
       3       3       3       3       3       3       3       3       3       3
       3       3       3       3       3       3       3       3       3       3
       3       3       3       3       3       3       3       3       3       3
       3       3       3       3       3       3       3       3       3       3
       3       3       3       3       3       3       3       3       3       3
       3       3       3       3       3       3       3       3       3       3
       3       3       3       3       3       3       3       3       3       3
       3       3       3       3       3       3       3       3       3       3
       3       3       3       3       3       3       3       3       3       3
       3       3       3       3       3       3       3       3       3       3
       3       3       3       3       3       3       3       3       3       3
       3       3       3       3       3       3       3       3       3       3
       3       3       3       3       3       3       3       3       3       3
       3       3       3       3       3       3       3       3       3       3
       3       3       3       3       3       3       3       3       3       3
       3       3       3       3       3       3       3       3       3       3
       3       3       3       3       3       3       3       3       3       3
       3       3       3       3       3       3       3       3       3       3
       3       3       3       3       3       3       3       3       3       3
       3       3       3       3       3       3       3       3       3       3
       3       3       3       3       3       3       3       3       3       3
       3       3       3       3       3       3       3       3       3       3
       3       3       3       3       3       3       3       3       3       3
       3       3       3       3       3       3       3       3       3       3
       3       3       3       3       3       3       3       3       3       3
       3       3       3       3       3       3       3       3       3       3
       3       3       3       3       3       3       3       3       3       3
       3       3       3       3       3       3       3       3       3       3
       3       3       3       3       3       3       3       3       3       3
       3       3       3       3       3       3       3       3       3       3
       3       3       3       3       3       3       3       3       3       3
       3       3       3       3       3       3       3       3       3       3
       3       3       3       3       3       3       3       3       3       3
       3       3       3       3       3       3       3       3       3       3
       3       3       3       3       3       3       3       3       3       3
       3       3       3       3       3       3       3       3       3       3
       3       3       3       3       3       3       3       3       3       3
       3       3       3       3       3       3       3       3       3       3
       3       3       3       3       3       3       3       3       3       3
       3       3       3       3       3       3       3       3       3       3
       3       3       3       3       3       3       3       3       3       3
       3       3       3       3       3       3       3       3       3       3
       3       3       3       3       3       3       3       3       3       3
       3       3       3       3       3       3       3       3       3       3
       3       3       3       3       3       3       3       3       3       3
       3       3       3       3       3       3       3       3       3       3
       3       3       3       3       3       3       3       3       3       3
       3       3       3       3       3       3       3       3       3       3
       3       3       3       3       3       3       3       3       3       3
       3       3       3       3       3       3       3       3       3       3
       3       3       3       3       3       3       3       3       3       3
       3       3       3       3       3       3       3       3       3       3
       3       3       3       3       3       3       3       3       3       3
       3       3       3       3       3       3       3       3       3       3
       3       3       3       3       3       3       3       3       3       3
       3       3       3       3       3       3       3       3       3       3
       3       3       3       3       3       3       3       3       3       3
       3       3       3       3       3       3       3       3       3       3
       3       3       3       3       3       3       3       3       3       3
       3       3       3       3       3       3       3       3       3       3
       3       3       3       3       3       3       3       3       3       3
       3       3       3       3       3       3       3       3       3       3
       3       3       3       3       3       3       3       3       3       3
       3       3       3       3       3       3       3       3       3       3
       3       3       3       3       3       3       3       3       3       3
       3       3       3       3       3       3       3       3       3       3
       3       3       3       3       3       3       3       3       3       3
       3       3       3       3       3       3       3       3       3       3
       3       3       3       3       3       3       3       3       3       3
       3       3       3       3       3       3       3       3       3       3
       3       3       3       3       3       3       3       3       3       3
       3       3       3       3       3       3       3       3       3       3
       3       3       3       3       3       3       3       3       3       3
       3       3       3       3       3       3       3       3       3       3
       3       3       3       3       3       3       3       3       3       3
       3       3       3       3       3       3       3       3       3       3
       3       3       3       3       3       3       3       3       3       3
       3       3       3       3       3       3       3       3       3       3
       3       3       3       3       3       3       3       3       3       3
       3       3       3       3       3       3       3       3       3       3
       3       3       3       3       3       3       3       3       3       3
       3       3       3       3       3       3       3       3       3       3
       3       3       3       3       3       3       3       3       3       3
       3       3       3       3       3       3       3       3       3       3
       3       3       3       3       3       3       3       3       3       3
       3       3       3       3       3       3       3       3       3       3
       3       3       3       3       3       3       3       3       3       3
       3       3       3       3       3       3       3       3       3       3
       3       3       3       3       3       3       3       3       3       3
       3       3       3       3       3       3       3       3       3       3
       3       3       3       3       3       3       3       3       3       3
       3       3       3       3       3       3       3       3       3       3
       3       3       3       3       3       3       3       3       3       3
       3       3       3       3       3       3       3       3       3       3
       3       3       3       3       3       3       3       3       3       3
       3       3       3       3       3       3       3       3       3       3
       3       3       3       3       3       3       3       3       3       3
       3       3       3       3       3       3       3       3       3       3
       3       3       3       3       3       3       3       3       3       3
       3       3       3       3       3       3       3       3       3       3
       3       3       3       3       3       3       3       3       3       3
       3       3       3       3       3       3       3       3       3       3
       3       3       3       3       3       3       3       3       3       3
       3       3       3       3       3       3       3       3       3       3
       3       3       3       3       3       3       3       3       3       3
       3       3       3       3       3       3       3       3       3       3
       3       3       3       3       3       3       3       3       3       3
       3       3       3       3       3       3       3       3       3       3
       3       3       3       3       3       3       3       3       3       3
       3       3       3       3       3       3       3       3       3       3
       3       3       3       3       3       3       3       3       3       3
       3       3       3       3       3       3       3       3       3       3
       3       3       3       3       3       3       3       3       3       3
       3       3       3       3       3       3       3       3       3       3
       3       3       3       3       3       3       3       3       3       3
       3       3       3       3       3       3       3       3       3       3
       3       3       3       3       3       3       3       3       3       3
       3       3       3       3       3       3       3       3       3       3
       3       3       3       3       3       3       3       3       3       3
       3       3       3       3       3       3       3       3       3       3
       3       3       3       3       3       3       3       3       3       3
       3       3       3       3       3       3       3       3       3       3
       3       3       3       3       3       3       3       3       3       3
       3       3       3       3       3       3       3       3       3       3
       3       3       3       3       3       3       3       3       3       3
       3       3       3       3       3       3       3       3       3       3
       3       3       3       3       3       3       3       3       3       3
       3       3       3       3       3       3       3       3       3       3
       3       3       3       3       3       3       3       3       3       3
       3       3       3       3       3       3       3       3       3       3
       3       3       3       3       3       3       3       3       3       3
       3       3       3       3       3       3       3       3       3       3
       3       3       3       3       3       3       3       3       3       3
       3       3       3       3       3       3       3       3       3       3
       3       3       3       3       3       3       3       3       3       3
       3       3       3       3       3       3       3       3       3       3
       3       3       3       3       3       3       3       3       3       3
       3       3       3       3       3       3       3       3       3       3
       3       3       3       3       3       3       3       3       3       3
       3       3       3       3       3       3       3       3       3       3
       3       3       3       3       3       3       3       3       3       3
       3       3       3       3       3       3       3       3       3       3
       3       3       3       3       3       3       3       3       3       3
       3       3       3       3       3       3       3       3       3       3
       3       3       3       3       3       3       3       3       3       3
       3       3       3       3       3       3       3       3       3       3
       3       3       3       3       3       3       3       3       3       3
       3       3       3       3       3       3       3       3       3       3
       3       3       3       3       3       3       3       3       3       3
       3       3       3       3       3       3       3       3       3       3
       3       3       3       3       3       3       3       3       3       3
       3       3       3       3       3       3       3       3       3       3
       3       3       3       3       3       3       3       3       3       3
       3       3       3       3       3       3       3       3       3       3
       3       3       3       3       3       3       3       3       3       3
       3       3       3       3       3       3       3       3       3       3
       3       3       3       3       3       3       3       3       3       3
       3       3       3       3       3       3       3       3       3       3
       3       3       3       3       3       3       3       3       3       3
       3       3       3       3       3       3       3       3       3       3
       3       3       3       3       3       3       3       3       3       3
       3       3       3       3       3       3       3       3       3       3
       3       3       3       3       3       3       3       3       3       3
       3       3       3       3       3       3       3       3       3       3
       3       3       3       3       3       3       3       3       3       3
       3       3       3       3       3       3       3       3       3       3
       3       3       3       3       3       3       3       3       3       3
       3       3       3       3       3       3       3       3       3       3
       3       3       3       3       3       3       3       3       3       3
       3       3       3       3       3       3       3       3       3       3
       3       3       3       3       3       3       3       3       3       3
       3       3       3       3       3       3       3       3       3       3
       3       3       3       3       3       3       3       3       3       3
       3       3       3       3       3       3       3       3       3       3
       3       3       3       3       3       3       3       3       3       3
       3       3       3       3       3       3       3       3       3       3
       3       3       3       3       3       3       3       3       3       3
       3       3       3       3       3       3       3       3       3       3
       3       3       3       3       3       3       3       3       3       3
       3       3       3       3       3       3       3       3       3       3
       3       3       3       3       3       3       3       3       3       3
       3       3       3       3       3       3       3       3       3       3
       3       3       3       3       3       3       3       3       3       3
       3       3       3       3       3       3       3       3       3       3
       3       3       3       3       3       3       3       3       3       3
       3       3       3       3       3       3       3       3       3       3
       3       3       3       3       3       3       3       3       3       3
       3       3       3       3       3       3       3       3       3       3
       3       3       3       3       3       3       3       3       3       3
       3       3       3       3       3       3       3       3       3       3
       3       3       3       3       3       3       3       3       3       3
       3       3       3       3       3       3       3       3       3       3
       3       3       3       3       3       3       3       3       3       3
       3       3       3       3       3       3       3       3       3       3
       3       3       3       3       3       3       3       3       3       3
       3       3       3       3       3       3       3       3       3       3
       3       3       3       3       3       3       3       3       3       3
       3       3       3       3       3       3       3       3       3       3
       3       3       3       3       3       3       3       3       3       3
       3       3       3       3       3       3       3       3       3       3
       3       3       3       3       3       3       3       3       3       3
       3       3       3       3       3       3       3       3       3       3
       3       3       3       3       3       3       3       3       3       3
       3       3       3       3       3       3       3       3       3       3
       3       3       3       3       3       3       3       3       3       3
       3       3       3       3       3       3       3       3       3       3
       3       3       3       3       3       3       3       3       3       3
       3       3       3       3       3       3       3       3       3       3
       3       3       3       3       3       3       3       3       3       3
       3       3       3       3       3       3       3       3       3       3
       3       3       3       3       3       3       3       3       3       3
       3       3       3       3       3       3       3       3       3       3
       3       3       3       3       3       3       3       3       3       3
       3       3       3       3       3       3       3       3       3       3
       3       3       3       3       3       3       3       3       3       3
       3       3       3       3       3       3       3       3       3       3
       3       3       3       3       3       3       3       3       3       3
       3       3       3       3       3       3       3       3       3       3
       3       3       3       3       3       3       3       3       3       3
       3       3       3       3       3       3       3       3       3       3
       3       3       3       3       3       3       3       3       3       3
       3       3       3       3       3       3       3       3       3       3
       3       3       3       3       3       3       3       3       3       3
       3       3       3       3       3       3       3       3       3       3
       3       3       3       3       3       3       3       3       3       3
       3       3       3       3       3       3       3       3       3       3
       3       3       3       3       3       3       3       3       3       3
       3       3       3       3       3       3       3       3       3       3
       3       3       3       3       3       3       3       3       3       3
       3       3       3       3       3       3       3       3       3       3
       3       3       3       3       3       3       3       3       3       3
       3       3       3       3       3       3       3       3       3       3
       3       3       3       3       3       3       3       3       3       3
       3       3       3       3       3       3       3       3       3       3
       3       3       3       3       3       3       3       3       3       3
       3       3       3       3       3       3       3       3       3       3
       3       3       3       3       3       3       3       3       3       3
       3       3       3       3       3       3       3       3       3       3
       3       3       3       3       3       3       3       3       3       3
       3       3       3       3       3       3       3       3       3       3
       3       3       3       3       3       3       3       3       3       3
       3       3       3       3       3       3       3       3       3       3
       3       3       3       3       3       3       3       3       3       3
       3       3       3       3       3       3       3       3       3       3
       3       3       3       3       3       3       3       3       3       3
       3       3       3       3       3       3       3       3       3       3
       3       3       3       3       3       3       3       3       3       3
       3       3       3       3       3       3       3       3       3       3
       3       3       3       3       3       3       3       3       3       3
       3       3       3       3       3       3       3       3       3       3
       3       3       3       3       3       3       3       3       3       3
       3       3       3       3       3       3       3       3       3       3
       3       3       3       3       3       3       3       3       3       3
       3       3       3       3       3       3       3       3       3       3
       3       3       3       3       3       3       3       3       3       3
       3       3       3       3       3       3       3       3       3       3
       3       3       3       3       3       3       3       3       3       3
       3       3       3       3       3       3       3       3       3       3
       3       3       3       3       3       3       3       3       3       3
       3       3       3       3       3       3       3       3       3       3
       3       3       3       3       3       3       3       3       3       3
       3       3       3       3       3       3       3       3       3       3
       3       3       3       3       3       3       3       3       3       3
       3       3       3       3       3       3       3       3       3       3
       3       3       3       3       3       3       3       3       3       3
       3       3       3       3       3       3       3       3       3       3
       3       3       3       3       3       3       3       3       3       3
       3       3       3       3       3       3       3       3       3       3
       3       3       3       3       3       3       3       3       3       3
       3       3       3       3       3       3       3       3       3       3
       3       3       3       3       3       3       3       3       3       3
       3       3       3       3       3       3       3       3       3       3
       3       3       3       3       3       3       3       3       3       3
       3       3       3       3       3       3       3       3       3       3
       3       3       3       3       3       3       3       3       3       3
       3       3       3       3       3       3       3       3       3       3
       3       3       3       3       3       3       3       3       3       3
       3       3       3       3       3       3       3       3       3       3
       3       3       3       3       3       3       3       3       3       3
       3       3       3       3       3       3       3       3       3       3
       3       3       3       3       3       3       3       3       3       3
       3       3       3       3       3       3       3       3       3       3
       3       3       3       3       3       3       3       3       3       3
       3       3       3       3       3       3       3       3       3       3
       3       3       3       3       3       3       3       3       3       3
       3       3       3       3       3       3       3       3       3       3
       3       3       3       3       3       3       3       3       3       3
       3       3       3       3       3       3       3       3       3       3
       3       3       3       3       3       3       3       3       3       3
       3       3       3       3       3       3       3       3       3       3
       3       3       3       3       3       3       3       3       3       3
       3       3       3       3       3       3       3       3       3       3
       3       3       3       3       3       3       3       3       3       3
       3       3       3       3       3       3       3       3       3       3
       3       3       3       3       3       3       3       3       3       3
       3       3       3       3       3       3       3       3       3       3
       3       3       3       3       3       3       3       3       3       3
       3       3       3       3       3       3       3       3       3       3
       3       3       3       3       3       3       3       3       3       3
       3       3       3       3       3       3       3       3       3       3
       3       3       3       3       3       3       3       3       3       3
       3       3       3       3       3       3       3       3       3       3
       3       3       3       3       3       3       3       3       3       3
       3       3       3       3       3       3       3       3       3       3
       3       3       3       3       3       3       3       3       3       3
       3       3       3       3       3       3       3       3       3       3
       3       3       3       3       3       3       3       3       3       3
       3       3       3       3       3       3       3       3       3       3
       3       3       3       3       3       3       3       3       3       3
       3       3       3       3       3       3       3       3       3       3
       3       3       3       3       3       3       3       3       3       3
       3       3       3       3       3       3       3       3       3       3
       3       3       3       3       3       3       3       3       3       3
       3       3       3       3       3       3       3       3       3       3
       3       3       3       3       3       3       3       3       3       3
       3       3       3       3       3       3       3       3       3       3
       3       3       3       3       3       3       3       3       3       3
       3       3       3       3       3       3       3       3       3       3
       3       3       3       3       3       3       3       3       3       3
       3       3       3       3       3       3       3       3       3       3
       3       3       3       3       3       3       3       3       3       3
       3       3       3       3       3       3       3       3       3       3
       3       3       3       3       3       3       3       3       3       3
       3       3       3       3       3       3       3       3       3       3
       3       3       3       3       3       3       3       3       3       3
       3       3       3       3       3       3       3       3       3       3
       3       3       3       3       3       3       3       3       3       3
       3       3       3       3       3       3       3       3       3       3
       3       3       3       3       3       3       3       3       3       3
       3       3       3       3       3       3       3       3       3       3
       3       3       3       3       3       3       3       3       3       3
       3       3       3       3       3       3       3       3       3       3
       3       3       3       3       3       3       3       3       3       3
       3       3       3       3       3       3       3       3       3       3
       3       3       3       3       3       3       3       3       3       3
       3       3       3       3       3       3       3       3       3       3
       3       3       3       3       3       3       3       3       3       3
       3       3       3       3       3       3       3       3       3       3
       3       3       3       3       3       3       3       3       3       3
       3       3       3       3       3       3       3       3       3       3
       3       3       3       3       3       3       3       3       3       3
       3       3       3       3       3       3       3       3       3       3
       3       3       3       3       3       3       3       3       3       3
       3       3       3       3       3       3       3       3       3       3
       3       3       3       3       3       3       3       3       3       3
       3       3       3       3       3       3       3       3       3       3
       3       3       3       3       3       3       3       3       3       3
       3       3       3       3       3       3       3       3       3       3
       3       3       3       3       3       3       3       3       3       3
       3       3       3       3       3       3       3       3       3       3
       3       3       3       3       3       3       3       3       3       3
       3       3       3       3       3       3       3       3       3       3
       3       3       3       3       3       3       3       3       3       3
       3       3       3       3       3       3       3       3       3       3
       3       3       3       3       3       3       3       3       3       3
       3       3       3       3       3       3       3       3       3       3
       3       3       3       3       3       3       3       3       3       3
       3       3       3       3       3       3       3       3       3       3
       3       3       3       3       3       3       3       3       3       3
       3       3       3       3       3       3       3       3       3       3
       3       3       3       3       3       3       3       3       3       3
       3       3       3       3       3       3       3       3       3       3
       3       3       3       3       3       3       3       3       3       3
       3       3       3       3       3       3       3       3       3       3
       3       3       3       3       3       3       3       3       3       3
       3       3       3       3       3       3       3       3       3       3
       3       3       3       3       3       3       3       3       3       3
       3       3       3       3       3       3       3       3       3       3
       3       3       3       3       3       3       3       3       3       3
       3       3       3       3       3       3       3       3       3       3
       3       3       3       3       3       3       3       3       3       3
       3       3       3       3       3       3       3       3       3       3
       3       3       3       3       3       3       3       3       3       3
       3       3       3       3       3       3       3       3       3       3
       3       3       3       3       3       3       3       3       3       3
       3       3       3       3       3       3       3       3       3       3
       3       3       3       3       3       3       3       3       3       3
       3       3       3       3       3       3       3       3       3       3
       3       3       3       3       3       3       3       3       3       3
       3       3       3       3       3       3       3       3       3       3
       3       3       3       3       3       3       3       3       3       3
       3       3       3       3       3       3       3       3       3       3
       3       3       3       3       3       3       3       3       3       3
       3       3       3       3       3       3       3       3       3       3
       3       3       3       3       3       3       3       3       3       3
       3       3       3       3       3       3       3       3       3       3
       3       3       3       3       3       3       3       3       3       3
       3       3       3       3       3       3       3       3       3       3
       3       3       3       3       3       3       3       3       3       3
       3       3       3       3       3       3       3       3       3       3
       3       3       3       3       3       3       3       3       3       3
       3       3       3       3       3       3       3       3       3       3
       3       3       3       3       3       3       3       3       3       3
       3       3       3       3       3       3       3       3       3       3
       3       3       3       3       3       3       3       3       3       3
       3       3       3       3       3       3       3       3       3       3
       3       3       3       3       3       3       3       3       3       3
       3       3       3       3       3       3       3       3       3       3
       3       3       3       3       3       3       3       3       3       3
       3       3       3       3       3       3       3       3       3       3
       3       3       3       3       3       3       3       3       3       3
       3       3       3       3       3       3       3       3       3       3
       3       3       3       3       3       3       3       3       3       3
       3       3       3       3       3       3       3       3       3       3
       3       3       3       3       3       3       3       3       3       3
       3       3       3       3       3       3       3       3       3       3
       3       3       3       3       3       3       3       3       3       3
       3       3       3       3       3       3       3       3       3       3
       3       3       3       3       3       3       3       3       3       3
       3       3       3       3       3       3       3       3       3       3
       3       3       3       3       3       3       3       3       3       3
       3       3       3       3       3       3       3       3       3       3
       3       3       3       3       3       3       3       3       3       3
       3       3       3       3       3       3       3       3       3       3
       3       3       3       3       3       3       3       3       3       3
       3       3       3       3       3       3       3       3       3       3
       3       3       3       3       3       3       3       3       3       3
       3       3       3       3       3       3       3       3       3       3
       3       3       3       3       3       3       3       3       3       3
       3       3       3       3       3       3       3       3       3       3
       3       3       3       3       3       3       3       3       3       3
       3       3       3       3       3       3       3       3       3       3
       3       3       3       3       3       3       3       3       3       3
       3       3       3       3       3       3       3       3       3       3
       3       3       3       3       3       3       3       3       3       3
       3       3       3       3       3       3       3       3       3       3
       3       3       3       3       3       3       3       3       3       3
       3       3       3       3       3       3       3       3       3       3
       3       3       3       3       3       3       3       3       3       3
       3       3       3       3       3       3       3       3       3       3
       3       3       3       3       3       3       3       3       3       3
       3       3       3       3       3       3       3       3       3       3
       3       3       3       3       3       3       3       3       3       3
       3       3       3       3       3       3       3       3       3       3
       3       3       3       3       3       3       3       3       3       3
       3       3       3       3       3       3       3       3       3       3
       3       3       3       3       3       3       3       3       3       3
       3       3       3       3       3       3       3       3       3       3
       3       3       3       3       3       3       3       3       3       3
       3       3       3       3       3       3       3       3       3       3
       3       3       3       3       3       3       3       3       3       3
       3       3       3       3       3       3       3       3       3       3
       3       3       3       3       3       3       3       3       3       3
       3       3       3       3       3       3       3       3       3       3
       3       3       3       3       3       3       3       3       3       3
       3       3       3       3       3       3       3       3       3       3
       3       3       3       3       3       3       3       3       3       3
       3       3       3       3       3       3       3       3       3       3
       3       3       3       3       3       3       3       3       3       3
       3       3       3       3       3       3       3       3       3       3
       3       3       3       3       3       3       3       3       3       3
       3       3       3       3       3       3       3       3       3       3
       3       3       3       3       3       3       3       3       3       3
       3       3       3       3       3       3       3       3       3       3
       3       3       3       3       3       3       3       3       3       3
       3       3       3       3       3       3       3       3       3       3
       3       3       3       3       3       3       3       3       3       3
       3       3       3       3       3       3       3       3       3       3
       3       3       3       3       3       3       3       3       3       3
       3       3       3       3       3       3       3       3       3       3
       3       3       3       3       3       3       3       3       3       3
       3       3       3       3       3       3       3       3       3       3
       3       3       3       3       3       3       3       3       3       3
       3       3       3       3       3       3       3       3       3       3
       3       3       3       3       3       3       3       3       3       3
       3       3       3       3       3       3       3       3       3       3
       3       3       3       3       3       3       3       3       3       3
       3       3       3       3       3       3       3       3       3       3
       3       3       3       3       3       3       3       3       3       3
       3       3       3       3       3       3       3       3       3       3
       3       3       3       3       3       3       3       3       3       3
       3       3       3       3       3       3       3       3       3       3
       3       3       3       3       3       3       3       3       3       3
       3       3       3       3       3       3       3       3       3       3
       3       3       3       3       3       3       3       3       3       3
       3       3       3       3       3       3       3       3       3       3
       3       3       3       3       3       3       3       3       3       3
       3       3       3       3       3       3       3       3       3       3
       3       3       3       3       3       3       3       3       3       3
       3       3       3       3       3       3       3       3       3       3
       3       3       3       3       3       3       3       3       3       3
       3       3       3       3       3       3       3       3       3       3
       3       3       3       3       3       3       3       3       3       3
       3       3       3       3       3       3       3       3       3       3
       3       3       3       3       3       3       3       3       3       3
       3       3       3       3       3       3       3       3       3       3
       3       3       3       3       3       3       3       3       3       3
       3       3       3       3       3       3       3       3       3       3
       3       3       3       3       3       3       3       3       3       3
       3       3       3       3       3       3       3       3       3       3
       3       3       3       3       3       3       3       3       3       3
       3       3       3       3       3       3       3       3       3       3
       3       3       3       3       3       3       3       3       3       3
       3       3       3       3       3       3       3       3       3       3
       3       3       3       3       3       3       3       3       3       3
       3       3       3       3       3       3       3       3       3       3
       3       3       3       3       3       3       3       3       3       3
       3       3       3       3       3       3       3       3       3       3
       3       3       3       3       3       3       3       3       3       3
       3       3       3       3       3       3       3       3       3       3
       3       3       3       3       3       3       3       3       3       3
       3       3       3       3       3       3       3       3       3       3
       3       3       3       3       3       3       3       3       3       3
       3       3       3       3       3       3       3       3       3       3
       3       3       3       3       3       3       3       3       3       3
       3       3       3       3       3       3       3       3       3       3
       3       3       3       3       3       3       3       3       3       3
       3       3       3       3       3       3       3       3       3       3
       3       3       3       3       3       3       3       3       3       3
       3       3       3       3       3       3       3       3       3       3
       3       3       3       3       3       3       3       3       3       3
       3       3       3       3       3       3       3       3       3       3
       3       3       3       3       3       3       3       3       3       3
       3       3       3       3       3       3       3       3       3       3
       3       3       3       3       3       3       3       3       3       3
       3       3       3       3       3       3       3       3       3       3
       3       3       3       3       3       3       3       3       3       3
       3       3       3       3       3       3       3       3       3       3
       3       3       3       3       3       3       3       3       3       3
       3       3       3       3       3       3       3       3       3       3
       3       3       3       3       3       3       3       3       3       3
       3       3       3       3       3       3       3       3       3       3
       3       3       3       3       3       3       3       3       3       3
       3       3       3       3       3       3       3       3       3       3
       3       3       3       3       3       3       3       3       3       3
       3       3       3       3       3       3       3       3       3       3
       3       3       3       3       3       3       3       3       3       3
       3       3       3       3       3       3       3       3       3       3
       3       3       3       3       3       3       3       3       3       3
       3       3       3       3       3       3       3       3       3       3
       3       3       3       3       3       3       3       3       3       3
       3       3       3       3       3       3       3       3       3       3
       3       3       3       3       3       3       3       3       3       3
       3       3       3       3       3       3       3       3       3       3
       3       3       3       3       3       3       3       3       3       3
       3       3       3       3       3       3       3       3       3       3
       3       3       3       3       3       3       3       3       3       3
       3       3       3       3       3       3       3       3       3       3
       3       3       3       3       3       3       3       3       3       3
       3       3       3       3       3       3       3       3       3       3
       3       3       3       3       3       3       3       3       3       3
       3       3       3       3       3       3       3       3       3       3
       3       3       3       3       3       3       3       3       3       3
       3       3       3       3       3       3       3       3       3       3
       3       3       3       3       3       3       3       3       3       3
       3       3       3       3       3       3       3       3       3       3
       3       3       3       3       3       3       3       3       3       3
       3       3       3       3       3       3       3       3       3       3
       3       3       3       3       3       3       3       3       3       3
       3       3       3       3       3       3       3       3       3       3
       3       3       3       3       3       3       3       3       3       3
       3       3       3       3       3       3       3       3       3       3
       3       3       3       3       3       3       3       3       3       3
       3       3       3       3       3       3       3       3       3       3
       3       3       3       3       3       3       3       3       3       3
       3       3       3       3       3       3       3       3       3       3
       3       3       3       3       3       3       3       3       3       3
       3       3       3       3       3       3       3       3       3       3
       3       3       3       3       3       3       3       3       3       3
       3       3       3       3       3       3       3       3       3       3
       3       3       3       3       3       3       3       3       3       3
       3       3       3       3       3       3       3       3       3       3
       3       3       3       3       3       3       3       3       3       3
       3       3       3       3       3       3       3       3       3       3
       3       3       3       3       3       3       3       3       3       3
       3       3       3       3       3       3       3       3       3       3
       3       3       3       3       3       3       3       3       3       3
       3       3       3       3       3       3       3       3       3       3
       3       3       3       3       3       3       3       3       3       3
       3       3       3       3       3       3       3       3       3       3
       3       3       3       3       3       3       3       3       3       3
       3       3       3       3       3       3       3       3       3       3
       3       3       3       3       3       3       3       3       3       3
       3       3       3       3       3       3       3       3       3       3
       3       3       3       3       3       3       3       3       3       3
       3       3       3       3       3       3       3       3       3       3
       3       3       3       3       3       3       3       3       3       3
       3       3       3       3       3       3       3       3       3       3
       3       3       3       3       3       3       3       3       3       3
       3       3       3       3       3       3       3       3       3       3
       3       3       3       3       3       3       3       3       3       3
       3       3       3       3       3       3       3       3       3       3
       3       3       3       3       3       3       3       3       3       3
       3       3       3       3       3       3       3       3       3       3
       3       3       3       3       3       3       3       3       3       3
       3       3       3       3       3       3       3       3       3       3
       3       3       3       3       3       3       3       3       3       3
       3       3       3       3       3       3       3       3       3       3
       3       3       3       3       3       3       3       3       3       3
       3       3       3       3       3       3       3       3       3       3
       3       3       3       3       3       3       3       3       3       3
       3       3       3       3       3       3       3       3       3       3
       3       3       3       3       3       3       3       3       3       3
       3       3       3       3       3       3       3       3       3       3
       3       3       3       3       3       3       3       3       3       3
       3       3       3       3       3       3       3       3       3       3
       3       3       3       3       3       3       3       3       3       3
       3       3       3       3       3       3       3       3       3       3
       3       3       3       3       3       3       3       3       3       3
       3       3       3       3       3       3       3       3       3       3
       3       3       3       3       3       3       3       3       3       3
       3       3       3       3       3       3       3       3       3       3
       3       3       3       3       3       3       3       3       3       3
       3       3       3       3       3       3       3       3       3       3
       3       3       3       3       3       3       3       3       3       3
       3       3       3       3       3       3       3       3       3       3
       3       3       3       3       3       3       3       3       3       3
       3       3       3       3       3       3       3       3       3       3
       3       3       3       3       3       3       3       3       3       3
       3       3       3       3       3       3       3       3       3       3
       3       3       3       3       3       3       3       3       3       3
       3       3       3       3       3       3       3       3       3       3
       3       3       3       3       3       3       3       3       3       3
       3       3       3       3       3       3       3       3       3       3
       3       3       3       3       3       3       3       3       3       3
       3       3       3       3       3       3       3       3       3       3
       3       3       3       3       3       3       3       3       3       3
       3       3       3       3       3       3       3       3       3       3
       3       3       3       3       3       3       3       3       3       3
       3       3       3       3       3       3       3       3       3       3
       3       3       3       3       3       3       3       3       3       3
       3       3       3       3       3       3       3       3       3       3
       3       3       3       3       3       3       3       3       3       3
       3       3       3       3       3       3       3       3       3       3
       3       3       3       3       3       3       3       3       3       3
       3       3       3       3       3       3       3       3       3       3
       3       3       3       3       3       3       3       3       3       3
       3       3       3       3       3       3       3       3       3       3
       3       3       3       3       3       3       3       3       3       3
       3       3       3       3       3       3       3       3       3       3
       3       3       3       3       3       3       3       3       3       3
       3       3       3       3       3       3       3       3       3       3
       3       3       3       3       3       3       3       3       3       3
       3       3       3       3       3       3       3       3       3       3
       3       3       3       3       3       3       3       3       3       3
       3       3       3       3       3       3       3       3       3       3
       3       3       3       3       3       3       3       3       3       3
       3       3       3       3       3       3       3       3       3       3
       3       3       3       3       3       3       3       3       3       3
       3       3       3       3       3       3       3       3       3       3
       3       3       3       3       3       3       3       3       3       3
       3       3       3       3       3       3       3       3       3       3
       3       3       3       3       3       3       3       3       3       3
       3       3       3       3       3       3       3       3       3       3
       3       3       3       3       3       3       3       3       3       3
       3       3       3       3       3       3       3       3       3       3
       3       3       3       3       3       3       3       3       3       3
       3       3       3       3       3       3       3       3       3       3
       3       3       3       3       3       3       3       3       3       3
       3       3       3       3       3       3       3       3       3       3
       3       3       3       3       3       3       3       3       3       3
       3       3       3       3       3       3       3       3       3       3
       3       3       3       3       3       3       3       3       3       3
       3       3       3       3       3       3       3       3       3       3
       3       3       3       3       3       3       3       3       3       3
       3       3       3       3       3       3       3       3       3       3
       3       3       3       3       3       3       3       3       3       3
       3       3       3       3       3       3       3       3       3       3
       3       3       3       3       3       3       3       3       3       3
       3       3       3       3       3       3       3       3       3       3
       3       3       3       3       3       3       3       3       3       3
       3       3       3       3       3       3       3       3       3       3
       3       3       3       3       3       3       3       3       3       3
       3       3       3       3       3       3       3       3       3       3
       3       3       3       3       3       3       3       3       3       3
       3       3       3       3       3       3       3       3       3       3
       3       3       3       3       3       3       3       3       3       3
       3       3       3       3       3       3       3       3       3       3
       3       3       3       3       3       3       3       3       3       3
       3       3       3       3       3       3       3       3       3       3
       3       3       3       3       3       3       3       3       3       3
       3       3       3       3       3       3       3       3       3       3
       3       3       3       3       3       3       3       3       3       3
       3       3       3       3       3       3       3       3       3       3
       3       3       3       3       3       3       3       3       3       3
       3       3       3       3       3       3       3       3       3       3
       3       3       3       3       3       3       3       3       3       3
       3       3       3       3       3       3       3       3       3       3
       3       3       3       3       3       3       3       3       3       3
       3       3       3       3       3       3       3       3       3       3
       3       3       3       3       3       3       3       3       3       3
       3       3       3       3       3       3       3       3       3       3
       3       3       3       3       3       3       3       3       3       3
       3       3       3       3       3       3       3       3       3       3
       3       3       3       3       3       3       3       3       3       3
       3       3       3       3       3       3       3       3       3       3
       3       3       3       3       3       3       3       3       3       3
       3       3       3       3       3       3       3       3       3       3
       3       3       3       3       3       3       3       3       3       3
       3       3       3       3       3       3       3       3       3       3
       3       3       3       3       3       3       3       3       3       3
       3       3       3       3       3       3       3       3       3       3
       3       3       3       3       3       3       3       3       3       3
       3       3       3       3       3       3       3       3       3       3
       3       3       3       3       3       3       3       3       3       3
       3       3       3       3       3       3       3       3       3       3
       3       3       3       3       3       3       3       3       3       3
       3       3       3       3       3       3       3       3       3       3
       3       3       3       3       3       3       3       3       3       3
       3       3       3       3       3       3       3       3       3       3
       3       3       3       3       3       3       3       3       3       3
       3       3       3       3       3       3       3       3       3       3
       3       3       3       3       3       3       3       3       3       3
       3       3       3       3       3       3       3       3       3       3
       3       3       3       3       3       3       3       3       3       3
       3       3       3       3       3       3       3       3       3       3
       3       3       3       3       3       3       3       3       3       3
       3       3       3       3       3       3       3       3       3       3
       3       3       3       3       3       3       3       3       3       3
       3       3       3       3       3       3       3       3       3       3
       3       3       3       3       3       3       3       3       3       3
       3       3       3       3       3       3       3       3       3       3
       3       3       3       3       3       3       3       3       3       3
       3       3       3       3       3       3       3       3       3       3
       3       3       3       3       3       3       3       3       3       3
       3       3       3       3       3       3       3       3       3       3
       3       3       3       3       3       3       3       3       3       3
       3       3       3       3       3       3       3       3       3       3
       3       3       3       3       3       3       3       3       3       3
       3       3       3       3       3       3       3       3       3       3
       3       3       3       3       3       3       3       3       3       3
       3       3       3       3       3       3       3       3       3       3
       3       3       3       3       3       3       3       3       3       3
       3       3       3       3       3       3       3       3       3       3
       3       3       3       3       3       3       3       3       3       3
       3       3       3       3       3       3       3       3       3       3
       3       3       3       3       3       3       3       3       3       3
       3       3       3       3       3       3       3       3       3       3
       3       3       3       3       3       3       3       3       3       3
       3       3       3       3       3       3       3       3       3       3
       3       3       3       3       3       3       3       3       3       3
       3       3       3       3       3       3       3       3       3       3
       3       3       3       3       3       3       3       3       3       3
       3       3       3       3       3       3       3       3       3       3
       3       3       3       3       3       3       3       3       3       3
       3       3       3       3       3       3       3       3       3       3
       3       3       3       3       3       3       3       3       3       3
       3       3       3       3       3       3       3       3       3       3
       3       3       3       3       3       3       3       3       3       3
       3       3       3       3       3       3       3       3       3       3
       3       3       3       3       3       3       3       3       3       3
       3       3       3       3       3       3       3       3       3       3
       3       3       3       3       3       3       3       3       3       3
       3       3       3       3       3       3       3       3       3       3
       3       3       3       3       3       3       3       3       3       3
       3       3       3       3       3       3       3       3       3       3
       3       3       3       3       3       3       3       3       3       3
       3       3       3       3       3       3       3       3       3       3
       3       3       3       3       3       3       3       3       3       3
       3       3       3       3       3       3       3       3       3       3
       3       3       3       3       3       3       3       3       3       3
       3       3       3       3       3       3       3       3       3       3
       3       3       3       3       3       3       3       3       3       3
       3       3       3       3       3       3       3       3       3       3
       3       3       3       3       3       3       3       3       3       3
       3       3       3       3       3       3       3       3       3       3
       3       3       3       3       3       3       3       3       3       3
       3       3       3       3       3       3       3       3       3       3
       3       3       3       3       3       3       3       3       3       3
       3       3       3       3       3       3       3       3       3       3
       3       3       3       3       3       3       3       3       3       3
       3       3       3       3       3       3       3       3       3       3
       3       3       3       3       3       3       3       3       3       3
       3       3       3       3       3       3       3       3       3       3
       3       3       3       3       3       3       3       3       3       3
       3       3       3       3       3       3       3       3       3       3
       3       3       3       3       3       3       3       3       3       3
       3       3       3       3       3       3       3       3       3       3
       3       3       3       3       3       3       3       3       3       3
       3       3       3       3       3       3       3       3       3       3
       3       3       3       3       3       3       3       3       3       3
       3       3       3       3       3       3       3       3       3       3
       3       3       3       3       3       3       3       3       3       3
       3       3       3       3       3       3       3       3       3       3
       3       3       3       3       3       3       3       3       3       3
       3       3       3       3       3       3       3       3       3       3
       3       3       3       3       3       3       3       3       3       3
       3       3       3       3       3       3       3       3       3       3
       3       3       3       3       3       3       3       3       3       3
       3       3       3       3       3       3       3       3       3       3
       3       3       3       3       3       3       3       3       3       3
       3       3       3       3       3       3       3       3       3       3
       3       3       3       3       3       3       3       3       3       3
       3       3       3       3       3       3       3       3       3       3
       3       3       3       3       3       3       3       3       3       3
       3       3       3       3       3       3       3       3       3       3
       3       3       3       3       3       3       3       3       3       3
       3       3       3       3       3       3       3       3       3       3
       3       3       3       3       3       3       3       3       3       3
       3       3       3       3       3       3       3       3       3       3
       3       3       3       3       3       3       3       3       3       3
       3       3       3       3       3       3       3       3       3       3
       3       3       3       3       3       3       3       3       3       3
       3       3       3       3       3       3       3       3       3       3
       3       3       3       3       3       3       3       3       3       3
       3       3       3       3       3       3       3       3       3       3
       3       3       3       3       3       3       3       3       3       3
       3       3       3       3       3       3       3       3       3       3
       3       3       3       3       3       3       3       3       3       3
       3       3       3       3       3       3       3       3       3       3
       3       3       3       3       3       3       3       3       3       3
       3       3       3       3       3       3       3       3       3       3
       3       3       3       3       3       3       3       3       3       3
       3       3       3       3       3       3       3       3       3       3
       3       3       3       3       3       3       3       3       3       3
       3       3       3       3       3       3       3       3       3       3
       3       3       3       3       3       3       3       3       3       3
       3       3       3       3       3       3       3       3       3       3
       3       3       3       3       3       3       3       3       3       3
       3       3       3       3       3       3       3       3       3       3
       3       3       3       3       3       3       3       3       3       3
       3       3       3       3       3       3       3       3       3       3
       3       3       3       3       3       3       3       3       3       3
       3       3       3       3       3       3       3       3       3       3
       3       3       3       3       3       3       3       3       3       3
       3       3       3       3       3       3       3       3       3       3
       3       3       3       3       3       3       3       3       3       3
       3       3       3       3       3       3       3       3       3       3
       3       3       3       3       3       3       3       3       3       3
       3       3       3       3       3       3       3       3       3       3
       3       3       3       3       3       3       3       3       3       3
       3       3       3       3       3       3       3       3       3       3
       3       3       3       3       3       3       3       3       3       3
       3       3       3       3       3       3       3       3       3       3
       3       3       3       3       3       3       3       3       3       3
       3       3       3       3       3       3       3       3       3       3
       3       3       3       3       3       3       3       3       3       3
       3       3       3       3       3       3       3       3       3       3
       3       3       3       3       3       3       3       3       3       3
       3       3       3       3       3       3       3       3       3       3
       3       3       3       3       3       3       3       3       3       3
       3       3       3       3       3       3       3       3       3       3
       3       3       3       3       3       3       3       3       3       3
       3       3       3       3       3       3       3       3       3       3
       3       3       3       3       3       3       3       3       3       3
       3       3       3       3       3       3       3       3       3       3
       3       3       3       3       3       3       3       3       3       3
       3       3       3       3       3       3       3       3       3       3
       3       3       3       3       3       3       3       3       3       3
       3       3       3       3       3       3       3       3       3       3
       3       3       3       3       3       3       3       3       3       3
       3       3       3       3       3       3       3       3       3       3
       3       3       3       3       3       3       3       3       3       3
       3       3       3       3       3       3       3       3       3       3
       3       3       3       3       3       3       3       3       3       3
       3       3       3       3       3       3       3       3       3       3
       3       3       3       3       3       3       3       3       3       3
       3       3       3       3       3       3       3       3       3       3
       3       3       3       3       3       3       3       3       3       3
       3       3       3       3       3       3       3       3       3       3
       3       3       3       3       3       3       3       3       3       3
       3       3       3       3       3       3       3       3       3       3
       3       3       3       3       3       3       3       3       3       3
       3       3       3       3       3       3       3       3       3       3
       3       3       3       3       3       3       3       3       3       3
       3       3       3       3       3       3       3       3       3       3
       3       3       3       3       3       3       3       3       3       3
       3       3       3       3       3       3       3       3       3       3
       3       3       3       3       3       3       3       3       3       3
       3       3       3       3       3       3       3       3       3       3
       3       3       3       3       3       3       3       3       3       3
       3       3       3       3       3       3       3       3       3       3
       3       3       3       3       3       3       3       3       3       3
       3       3       3       3       3       3       3       3       3       3
       3       3       3       3       3       3       3       3       3       3
       3       3       3       3       3       3       3       3       3       3
       3       3       3       3       3       3       3       3       3       3
       3       3       3       3       3       3       3       3       3       3
       3       3       3       3       3       3       3       3       3       3
       3       3       3       3       3       3       3       3       3       3
       3       3       3       3       3       3       3       3       3       3
       3       3       3       3       3       3       3       3       3       3
       3       3       3       3       3       3       3       3       3       3
       3       3       3       3       3       3       3       3       3       3
       3       3       3       3       3       3       3       3       3       3
       3       3       3       3       3       3       3       3       3       3
       3       3       3       3       3       3       3       3       3       3
       3       3       3       3       3       3       3       3       3       3
       3       3       3       3       3       3       3       3       3       3
       3       3       3       3       3       3       3       3       3       3
       3       3       3       3       3       3       3       3       3       3
       3       3       3       3       3       3       3       3       3       3
       3       3       3       3       3       3       3       3       3       3
       3       3       3       3       3       3       3       3       3       3
       3       3       3       3       3       3       3       3       3       3
       3       3       3       3       3       3       3       3       3       3
       3       3       3       3       3       3       3       3       3       3
       3       3       3       3       3       3       3       3       3       3
       3       3       3       3       3       3       3       3       3       3
       3       3       3       3       3       3       3       3       3       3
       3       3       3       3       3       3       3       3       3       3
       3       3       3       3       3       3       3       3       3       3
       3       3       3       3       3       3       3       3       3       3
       3       3       3       3       3       3       3       3       3       3
       3       3       3       3       3       3       3       3       3       3
       3       3       3       3       3       3       3       3       3       3
       3       3       3       3       3       3       3       3       3       3
       3       3       3       3       3       3       3       3       3       3
       3       3       3       3       3       3       3       3       3       3
       3       3       3       3       3       3       3       3       3       3
       3       3       3       3       3       3       3       3       3       3
       3       3       3       3       3       3       3       3       3       3
       3       3       3       3       3       3       3       3       3       3
       3       3       3       3       3       3       3       3       3       3
       3       3       3       3       3       3       3       3       3       3
       3       3       3       3       3       3       3       3       3       3
       3       3       3       3       3       3       3       3       3       3
       3       3       3       3       3       3       3       3       3       3
       3       3       3       3       3       3       3       3       3       3
       3       3       3       3       3       3       3       3       3       3
       3       3       3       3       3       3       3       3       3       3
       3       3       3       3       3       3       3       3       3       3
       3       3       3       3       3       3       3       3       3       3
       3       3       3       3       3       3       3       3       3       3
       3       3       3       3       3       3       3       3       3       3
       3       3       3       3       3       3       3       3       3       3
       3       3       3       3       3       3       3       3       3       3
       3       3       3       3       3       3       3       3       3       3
       3       3       3       3       3       3       3       3       3       3
       3       3       3       3       3       3       3       3       3       3
       3       3       3       3       3       3       3       3       3       3
       3       3       3       3       3       3       3       3       3       3
       3       3       3       3       3       3       3       3       3       3
       3       3       3       3       3       3       3       3       3       3
       3       3       3       3       3       3       3       3       3       3
       3       3       3       3       3       3       3       3       3       3
       3       3       3       3       3       3       3       3       3       3
       3       3       3       3       3       3       3       3       3       3
       3       3       3       3       3       3       3       3       3       3
       3       3       3       3       3       3       3       3       3       3
       3       3       3       3       3       3       3       3       3       3
       3       3       3       3       3       3       3       3       3       3
       3       3       3       3       3       3       3       3       3       3
       3       3       3       3       3       3       3       3       3       3
       3       3       3       3       3       3       3       3       3       3
       3       3       3       3       3       3       3       3       3       3
       3       3       3       3       3       3       3       3       3       3
       3       3       3       3       3       3       3       3       3       3
       3       3       3       3       3       3       3       3       3       3
       3       3       3       3       3       3       3       3       3       3
       3       3       3       3       3       3       3       3       3       3
       3       3       3       3       3       3       3       3       3       3
       3       3       3       3       3       3       3       3       3       3
       3       3       3       3       3       3       3       3       3       3
       3       3       3       3       3       3       3       3       3       3
       3       3       3       3       3       3       3       3       3       3
       3       3       3       3       3       3       3       3       3       3
       3       3       3       3       3       3       3       3       3       3
       3       3       3       3       3       3       3       3       3       3
       3       3       3       3       3       3       3       3       3       3
       3       3       3       3       3       3       3       3       3       3
       3       3       3       3       3       3       3       3       3       3
       3       3       3       3       3       3       3       3       3       3
       3       3       3       3       3       3       3       3       3       3
       3       3       3       3       3       3       3       3       3       3
       3       3       3       3       3       3       3       3       3       3
       3       3       3       3       3       3       3       3       3       3
       3       3       3       3       3       3       3       3       3       3
       3       3       3       3       3       3       3       3       3       3
       3       3       3       3       3       3       3       3       3       3
       3       3       3       3       3       3       3       3       3       3
       3       3       3       3       3       3       3       3       3       3
       3       3       3       3       3       3       3       3       3       3
       3       3       3       3       3       3       3       3       3       3
       3       3       3       3       3       3       3       3       3       3
       3       3       3       3       3       3       3       3       3       3
       3       3       3       3       3       3       3       3       3       3
       3       3       3       3       3       3       3       3       3       3
       3       3       3       3       3       3       3       3       3       3
       3       3       3       3       3       3       3       3       3       3
       3       3       3       3       3       3       3       3       3       3
       3       3       3       3       3       3       3       3       3       3
       3       3       3       3       3       3       3       3       3       3
       3       3       3       3       3       3       3       3       3       3
       3       3       3       3       3       3       3       3       3       3
       3       3       3       3       3       3       3       3       3       3
       3       3       3       3       3       3       3       3       3       3
       3       3       3       3       3       3       3       3       3       3
       3       3       3       3       3       3       3       3       3       3
       3       3       3       3       3       3       3       3       3       3
       3       3       3       3       3       3       3       3       3       3
       3       3       3       3       3       3       3       3       3       3
       3       3       3       3       3       3       3       3       3       3
       3       3       3       3       3       3       3       3       3       3
       3       3       3       3       3       3       3       3       3       3
       3       3       3       3       3       3       3       3       3       3
       3       3       3       3       3       3       3       3       3       3
       3       3       3       3       3       3       3       3       3       3
       3       3       3       3       3       3       3       3       3       3
       3       3       3       3       3       3       3       3       3       3
       3       3       3       3       3       3       3       3       3       3
       3       3       3       3       3       3       3       3       3       3
       3       3       3       3       3       3       3       3       3       3
       3       3       3       3       3       3       3       3       3       3
       3       3       3       3       3       3       3       3       3       3
       3       3       3       3       3       3       3       3       3       3
       3       3       3       3       3       3       3       3       3       3
       3       3       3       3       3       3       3       3       3       3
       3       3       3       3       3       3       3       3       3       3
       3       3       3       3       3       3       3       3       3       3
       3       3       3       3       3       3       3       3       3       3
       3       3       3       3       3       3       3       3       3       3
       3       3       3       3       3       3       3       3       3       3
       3       3       3       3       3       3       3       3       3       3
       3       3       3       3       3       3       3       3       3       3
       3       3       3       3       3       3       3       3       3       3
       3       3       3       3       3       3       3       3       3       3
       3       3       3       3       3       3       3       3       3       3
       3       3       3       3       3       3       3       3       3       3
       3       3       3       3       3       3       3       3       3       3
       3       3       3       3       3       3       3       3       3       3
       3       3       3       3       3       3       3       3       3       3
       3       3       3       3       3       3       3       3       3       3
       3       3       3       3       3       3       3       3       3       3
       3       3       3       3       3       3       3       3       3       3
       3       3       3       3       3       3       3       3       3       3
       3       3       3       3       3       3       3       3       3       3
       3       3       3       3       3       3       3       3       3       3
       3       3       3       3       3       3       3       3       3       3
       3       3       3       3       3       3       3       3       3       3
       3       3       3       3       3       3       3       3       3       3
       3       3       3       3       3       3       3       3       3       3
       3       3       3       3       3       3       3       3       3       3
       3       3       3       3       3       3       3       3       3       3
       3       3       3       3       3       3       3       3       3       3
       3       3       3       3       3       3       3       3       3       3
       3       3       3       3       3       3       3       3       3       3
       3       3       3       3       3       3       3       3       3       3
       3       3       3       3       3       3       3       3       3       3
       3       3       3       3       3       3       3       3       3       3
       3       3       3       3       3       3       3       3       3       3
       3       3       3       3       3       3       3       3       3       3
       3       3       3       3       3       3       3       3       3       3
       3       3       3       3       3       3       3       3       3       3
       3       3       3       3       3       3       3       3       3       3
       3       3       3       3       3       3       3       3       3       3
       3       3       3       3       3       3       3       3       3       3
       3       3       3       3       3       3       3       3       3       3
       3       3       3       3       3       3       3       3       3       3
       3       3       3       3       3       3       3       3       3       3
       3       3       3       3       3       3       3       3       3       3
       3       3       3       3       3       3       3       3       3       3
       3       3       3       3       3       3       3       3       3       3
       3       3       3       3       3       3       3       3       3       3
       3       3       3       3       3       3       3       3       3       3
       3       3       3       3       3       3       3       3       3       3
       3       3       3       3       3       3       3       3       3       3
       3       3       3       3       3       3       3       3       3       3
       3       3       3       3       3       3       3       3       3       3
       3       3       3       3       3       3       3       3       3       3
       3       3       3       3       3       3       3       3       3       3
       3       3       3       3       3       3       3       3       3       3
       3       3       3       3       3       3       3       3       3       3
       3       3       3       3       3       3       3       3       3       3
       3       3       3       3       3       3       3       3       3       3
       3       3       3       3       3       3       3       3       3       3
       3       3       3       3       3       3       3       3       3       3
       3       3       3       3       3       3       3       3       3       3
       3       3       3       3       3       3       3       3       3       3
       3       3       3       3       3       3       3       3       3       3
       3       3       3       3       3       3       3       3       3       3
       3       3       3       3       3       3       3       3       3       3
       3       3       3       3       3       3       3       3       3       3
       3       3       3       3       3       3       3       3       3       3
       3       3       3       3       3       3       3       3       3       3
       3       3       3       3       3       3       3       3       3       3
       3       3       3       3       3       3       3       3       3       3
       3       3       3       3       3       3       3       3       3       3
       3       3       3       3       3       3       3       3       3       3
       3       3       3       3       3       3       3       3       3       3
       3       3       3       3       3       3       3       3       3       3
       3       3       3       3       3       3       3       3       3       3
       3       3       3       3       3       3       3       3       3       3
       3       3       3       3       3       3       3       3       3       3
       3       3       3       3       3       3       3       3       3       3
       3       3       3       3       3       3       3       3       3       3
       3       3       3       3       3       3       3       3       3       3
       3       3       3       3       3       3       3       3       3       3
       3       3       3       3       3       3       3       3       3       3
       3       3       3       3       3       3       3       3       3       3
       3       3       3       3       3       3       3       3       3       3
       3       3       3       3       3       3       3       3       3       3
       3       3       3       3       3       3       3       3       3       3
       3       3       3       3       3       3       3       3       3       3
       3       3       3       3       3       3       3       3       3       3
       3       3       3       3       3       3       3       3       3       3
       3       3       3       3       3       3       3       3       3       3
       3       3       3       3       3       3       3       3       3       3
       3       3       3       3       3       3       3       3       3       3
       3       3       3       3       3       3       3       3       3       3
       3       3       3       3       3       3       3       3       3       3
       3       3       3       3       3       3       3       3       3       3
       3       3       3       3       3       3       3       3       3       3
       3       3       3       3       3       3       3       3       3       3
       3       3       3       3       3       3       3       3       3       3
       3       3       3       3       3       3       3       3       3       3
       3       3       3       3       3       3       3       3       3       3
       3       3       3       3       3       3       3       3       3       3
       3       3       3       3       3       3       3       3       3       3
       3       3       3       3       3       3       3       3       3       3
       3       3       3       3       3       3       3       3       3       3
       3       3       3       3       3       3       3       3       3       3
       3       3       3       3       3       3       3       3       3       3
       3       3       3       3       3       3       3       3       3       3
       3       3       3       3       3       3       3       3       3       3
       3       3       3       3       3       3       3       3       3       3
       3       3       3       3       3       3       3       3       3       3
       3       3       3       3       3       3       3       3       3       3
       3       3       3       3       3       3       3       3       3       3
       3       3       3       3       3       3       3       3       3       3
       3       3       3       3       3       3       3       3       3       3
       3       3       3       3       3       3       3       3       3       3
       3       3       3       3       3       3       3       3       3       3
       3       3       3       3       3       3       3       3       3       3
       3       3       3       3       3       3       3       3       3       3
       3       3       3       3       3       3       3       3       3       3
       3       3       3       3       3       3       3       3       3       3
       3       3       3       3       3       3       3       3       3       3
       3       3       3       3       3       3       3       3       3       3
       3       3       3       3       3       3       3       3       3       3
       3       3       3       3       3       3       3       3       3       3
       3       3       3       3       3       3       3       3       3       3
       3       3       3       3       3       3       3       3       3       3
       3       3       3       3       3       3       3       3       3       3
       3       3       3       3       3       3       3       3       3       3
       3       3       3       3       3       3       3       3       3       3
       3       3       3       3       3       3       3       3       3       3
       3       3       3       3       3       3       3       3       3       3
       3       3       3       3       3       3       3       3       3       3
       3       3       3       3       3       3       3       3       3       3
       3       3       3       3       3       3       3       3       3       3
       3       3       3       3       3       3       3       3       3       3
       3       3       3       3       3       3       3       3       3       3
       3       3       3       3       3       3       3       3       3       3
       3       3       3       3       3       3       3       3       3       3
       3       3       3       3       3       3       3       3       3       3
       3       3       3       3       3       3       3       3       3       3
       3       3       3       3       3       3       3       3       3       3
       3       3       3       3       3       3       3       3       3       3
       3       3       3       3       3       3       3       3       3       3
       3       3       3       3       3       3       3       3       3       3
       3       3       3       3       3       3       3       3       3       3
       3       3       3       3       3       3       3       3       3       3
       3       3       3       3       3       3       3       3       3       3
       3       3       3       3       3       3       3       3       3       3
       3       3       3       3       3       3       3       3       3       3
       3       3       3       3       3       3       3       3       3       3
       3       3       3       3       3       3       3       3       3       3
       3       3       3       3       3       3       3       3       3       3
       3       3       3       3       3       3       3       3       3       3
       3       3       3       3       3       3       3       3       3       3
       3       3       3       3       3       3       3       3       3       3
       3       3       3       3       3       3       3       3       3       3
       3       3       3       3       3       3       3       3       3       3
       3       3       3       3       3       3       3       3       3       3
       3       3       3       3       3       3       3       3       3       3
       3       3       3       3       3       3       3       3       3       3
       3       3       3       3       3       3       3       3       3       3
       3       3       3       3       3       3       3       3       3       3
       3       3       3       3       3       3       3       3       3       3
       3       3       3       3       3       3       3       3       3       3
       3       3       3       3       3       3       3       3       3       3
       3       3       3       3       3       3       3       3       3       3
       3       3       3       3       3       3       3       3       3       3
       3       3       3       3       3       3       3       3       3       3
       3       3       3       3       3       3       3       3       3       3
       3       3       3       3       3       3       3       3       3       3
       3       3       3       3       3       3       3       3       3       3
       3       3       3       3       3       3       3       3       3       3
       3       3       3       3       3       3       3       3       3       3
       3       3       3       3       3       3       3       3       3       3
       3       3       3       3       3       3       3       3       3       3
       3       3       3       3       3       3       3       3       3       3
       3       3       3       3       3       3       3       3       3       3
       3       3       3       3       3       3       3       3       3       3
       3       3       3       3       3       3       3       3       3       3
       3       3       3       3       3       3       3       3       3       3
       3       3       3       3       3       3       3       3       3       3
       3       3       3       3       3       3       3       3       3       3
       3       3       3       3       3       3       3       3       3       3
       3       3       3       3       3       3       3       3       3       3
       3       3       3       3       3       3       3       3       3       3
       3       3       3       3       3       3       3       3       3       3
       3       3       3       3       3       3       3       3       3       3
       3       3       3       3       3       3       3       3       3       3
       3       3       3       3       3       3       3       3       3       3
       3       3       3       3       3       3       3       3       3       3
       3       3       3       3       3       3       3       3       3       3
       3       3       3       3       3       3       3       3       3       3
       3       3       3       3       3       3       3       3       3       3
       3       3       3       3       3       3       3       3       3       3
       3       3       3       3       3       3       3       3       3       3
       3       3       3       3       3       3       3       3       3       3
       3       3       3       3       3       3       3       3       3       3
       3       3       3       3       3       3       3       3       3       3
       3       3       3       3       3       3       3       3       3       3
       3       3       3       3       3       3       3       3       3       3
       3       3       3       3       3       3       3       3       3       3
       3       3       3       3       3       3       3       3       3       3
       3       3       3       3       3       3       3       3       3       3
       3       3       3       3       3       3       3       3       3       3
       3       3       3       3       3       3       3       3       3       3
       3       3       3       3       3       3       3       3       3       3
       3       3       3       3       3       3       3       3       3       3
       3       3       3       3       3       3       3       3       3       3
       3       3       3       3       3       3       3       3       3       3
       3       3       3       3       3       3       3       3       3       3
       3       3       3       3       3       3       3       3       3       3
       3       3       3       3       3       3       3       3       3       3
       3       3       3       3       3       3       3       3       3       3
       3       3       3       3       3       3       3       3       3       3
       3       3       3       3       3       3       3       3       3       3
       3       3       3       3       3       3       3       3       3       3
       3       3       3       3       3       3       3       3       3       3
       3       3       3       3       3       3       3       3       3       3
       3       3       3       3       3       3       3       3       3       3
       3       3       3       3       3       3       3       3       3       3
       3       3       3       3       3       3       3       3       3       3
       3       3       3       3       3       3       3       3       3       3
       3       3       3       3       3       3       3       3       3       3
       3       3       3       3       3       3       3       3       3       3
       3       3       3       3       3       3       3       3       3       3
       3       3       3       3       3       3       3       3       3       3
       3       3       3       3       3       3       3       3       3       3
       3       3       3       3       3       3       3       3       3       3
       3       3       3       3       3       3       3       3       3       3
       3       3       3       3       3       3       3       3       3       3
       3       3       3       3       3       3       3       3       3       3
       3       3       3       3       3       3       3       3       3       3
       3       3       3       3       3       3       3       3       3       3
       3       3       3       3       3       3       3       3       3       3
       3       3       3       3       3       3       3       3       3       3
       3       3       3       3       3       3       3       3       3       3
       3       3       3       3       3       3       3       3       3       3
       3       3       3       3       3       3       3       3       3       3
       3       3       3       3       3       3       3       3       3       3
       3       3       3       3       3       3       3       3       3       3
       3       3       3       3       3       3       3       3       3       3
       3       3       3       3       3       3       3       3       3       3
       3       3       3       3       3       3       3       3       3       3
       3       3       3       3       3       3       3       3       3       3
       3       3       3       3       3       3       3       3       3       3
       3       3       3       3       3       3       3       3       3       3
       3       3       3       3       3       3       3       3       3       3
       3       3       3       3       3       3       3       3       3       3
       3       3       3       3       3       3       3       3       3       3
       3       3       3       3       3       3       3       3       3       3
       3       3       3       3       3       3       3       3       3       3
       3       3       3       3       3       3       3       3       3       3
       3       3       3       3       3       3       3       3       3       3
       3       3       3       3       3       3       3       3       3       3
       3       3       3       3       3       3       3       3       3       3
       3       3       3       3       3       3       3       3       3       3
       3       3       3       3       3       3       3       3       3       3
       3       3       3       3       3       3       3       3       3       3
       3       3       3       3       3       3       3       3       3       3
       3       3       3       3       3       3       3       3       3       3
       3       3       3       3       3       3       3       3       3       3
       3       3       3       3       3       3       3       3       3       3
       3       3       3       3       3       3       3       3       3       3
       3       3       3       3       3       3       3       3       3       3
       3       3       3       3       3       3       3       3       3       3
       3       3       3       3       3       3       3       3       3       3
       3       3       3       3       3       3       3       3       3       3
       3       3       3       3       3       3       3       3       3       3
       3       3       3       3       3       3       3       3       3       3
       3       3       3       3       3       3       3       3       3       3
       3       3       3       3       3       3       3       3       3       3
       3       3       3       3       3       3       3       3       3       3
       3       3       3       3       3       3       3       3       3       3
       3       3       3       3       3       3       3       3       3       3
       3       3       3       3       3       3       3       3       3       3
       3       3       3       3       3       3       3       3       3       3
       3       3       3       3       3       3       3       3       3       3
       3       3       3       3       3       3       3       3       3       3
       3       3       3       3       3       3       3       3       3       3
       3       3       3       3       3       3       3       3       3       3
       3       3       3       3       3       3       3       3       3       3
       3       3       3       3       3       3       3       3       3       3
       3       3       3       3       3       3       3       3       3       3
       3       3       3       3       3       3       3       3       3       3
       3       3       3       3       3       3       3       3       3       3
       3       3       3       3       3       3       3       3       3       3
       3       3       3       3       3       3       3       3       3       3
       3       3       3       3       3       3       3       3       3       3
       3       3       3       3       3       3       3       3       3       3
       3       3       3       3       3       3       3       3       3       3
       3       3       3       3       3       3       3       3       3       3
       3       3       3       3       3       3       3       3       3       3
       3       3       3       3       3       3       3       3       3       3
       3       3       3       3       3
%FLAG BOX_DIMENSIONS                                                            
%FORMAT(5E16.8)                                                                 
  9.00000000E+01  1.04009217E+02  9.54385400E+01  7.76847510E+01
%FLAG RADIUS_SET                                                                
%FORMAT(1a80)                                                                   
modified Bondi radii (mbondi)                                                   
%FLAG RADII                                                                     
%FORMAT(5E16.8)                                                                 
  1.70000000E+00  1.70000000E+00  1.70000000E+00  1.70000000E+00  1.70000000E+00
  1.70000000E+00  1.70000000E+00  1.70000000E+00  1.70000000E+00  1.70000000E+00
  1.70000000E+00  1.70000000E+00  1.70000000E+00  1.70000000E+00  1.70000000E+00
  1.70000000E+00  1.70000000E+00  1.70000000E+00  1.70000000E+00  1.70000000E+00
  1.70000000E+00  1.70000000E+00  1.70000000E+00  1.70000000E+00  1.70000000E+00
  1.70000000E+00  1.70000000E+00  1.70000000E+00  1.70000000E+00  1.70000000E+00
  1.70000000E+00  1.70000000E+00  1.70000000E+00  1.70000000E+00  1.70000000E+00
  1.70000000E+00  1.70000000E+00  1.70000000E+00  1.70000000E+00  1.70000000E+00
  1.70000000E+00  1.70000000E+00  1.70000000E+00  1.70000000E+00  1.70000000E+00
  1.70000000E+00  1.70000000E+00  1.70000000E+00  1.70000000E+00  1.70000000E+00
  1.70000000E+00  1.70000000E+00  1.70000000E+00  1.70000000E+00  1.70000000E+00
  1.70000000E+00  1.70000000E+00  1.70000000E+00  1.70000000E+00  1.70000000E+00
  1.70000000E+00  1.70000000E+00  1.70000000E+00  1.70000000E+00  1.70000000E+00
  1.70000000E+00  1.70000000E+00  1.70000000E+00  1.70000000E+00  1.70000000E+00
  1.70000000E+00  1.70000000E+00  1.70000000E+00  1.70000000E+00  1.70000000E+00
  1.70000000E+00  1.70000000E+00  1.55000000E+00  1.70000000E+00  1.70000000E+00
  1.70000000E+00  1.70000000E+00  1.70000000E+00  1.70000000E+00  1.70000000E+00
  1.70000000E+00  1.70000000E+00  1.70000000E+00  1.55000000E+00  1.70000000E+00
  1.70000000E+00  1.70000000E+00  1.70000000E+00  1.70000000E+00  1.70000000E+00
  1.70000000E+00  1.70000000E+00  1.70000000E+00  1.70000000E+00  1.55000000E+00
  1.70000000E+00  1.70000000E+00  1.70000000E+00  1.70000000E+00  1.70000000E+00
  1.70000000E+00  1.70000000E+00  1.70000000E+00  1.70000000E+00  1.70000000E+00
  1.55000000E+00  1.70000000E+00  1.70000000E+00  1.70000000E+00  1.70000000E+00
  1.70000000E+00  1.70000000E+00  1.70000000E+00  1.70000000E+00  1.70000000E+00
  1.70000000E+00  1.55000000E+00  1.70000000E+00  1.70000000E+00  1.70000000E+00
  1.70000000E+00  1.70000000E+00  1.70000000E+00  1.70000000E+00  1.70000000E+00
  1.70000000E+00  1.70000000E+00  1.55000000E+00  1.70000000E+00  1.70000000E+00
  1.70000000E+00  1.70000000E+00  1.70000000E+00  1.70000000E+00  1.70000000E+00
  1.70000000E+00  1.70000000E+00  1.70000000E+00  1.55000000E+00  1.70000000E+00
  1.70000000E+00  1.70000000E+00  1.70000000E+00  1.70000000E+00  1.70000000E+00
  1.70000000E+00  1.70000000E+00  1.70000000E+00  1.70000000E+00  1.55000000E+00
  1.70000000E+00  1.70000000E+00  1.70000000E+00  1.70000000E+00  1.70000000E+00
  1.70000000E+00  1.70000000E+00  1.70000000E+00  1.70000000E+00  1.70000000E+00
  1.55000000E+00  1.70000000E+00  1.70000000E+00  1.70000000E+00  1.70000000E+00
  1.70000000E+00  1.70000000E+00  1.70000000E+00  1.70000000E+00  1.70000000E+00
  1.70000000E+00  1.55000000E+00  1.70000000E+00  1.70000000E+00  1.70000000E+00
  1.70000000E+00  1.70000000E+00  1.70000000E+00  1.70000000E+00  1.70000000E+00
  1.70000000E+00  1.70000000E+00  1.55000000E+00  1.70000000E+00  1.70000000E+00
  1.70000000E+00  1.70000000E+00  1.70000000E+00  1.70000000E+00  1.70000000E+00
  1.70000000E+00  1.70000000E+00  1.70000000E+00  1.55000000E+00  1.70000000E+00
  1.70000000E+00  1.70000000E+00  1.70000000E+00  1.70000000E+00  1.70000000E+00
  1.70000000E+00  1.70000000E+00  1.70000000E+00  1.70000000E+00  1.70000000E+00
  1.70000000E+00  1.70000000E+00  1.70000000E+00  1.70000000E+00  1.70000000E+00
  1.70000000E+00  1.70000000E+00  1.70000000E+00  1.70000000E+00  1.70000000E+00
  1.70000000E+00  1.70000000E+00  1.70000000E+00  1.70000000E+00  1.70000000E+00
  1.70000000E+00  1.70000000E+00  1.70000000E+00  1.70000000E+00  1.70000000E+00
  1.70000000E+00  1.70000000E+00  1.70000000E+00  1.70000000E+00  1.70000000E+00
  1.70000000E+00  1.70000000E+00  1.70000000E+00  1.70000000E+00  1.70000000E+00
  1.70000000E+00  1.70000000E+00  1.70000000E+00  1.70000000E+00  1.70000000E+00
  1.70000000E+00  1.70000000E+00  1.70000000E+00  1.55000000E+00  1.70000000E+00
  1.70000000E+00  1.70000000E+00  1.70000000E+00  1.70000000E+00  1.70000000E+00
  1.70000000E+00  1.70000000E+00  1.70000000E+00  1.70000000E+00  1.55000000E+00
  1.70000000E+00  1.70000000E+00  1.70000000E+00  1.70000000E+00  1.70000000E+00
  1.70000000E+00  1.70000000E+00  1.70000000E+00  1.70000000E+00  1.70000000E+00
  1.55000000E+00  1.70000000E+00  1.70000000E+00  1.70000000E+00  1.70000000E+00
  1.70000000E+00  1.70000000E+00  1.70000000E+00  1.70000000E+00  1.70000000E+00
  1.70000000E+00  1.55000000E+00  1.70000000E+00  1.70000000E+00  1.70000000E+00
  1.70000000E+00  1.70000000E+00  1.70000000E+00  1.70000000E+00  1.70000000E+00
  1.70000000E+00  1.70000000E+00  1.55000000E+00  1.70000000E+00  1.70000000E+00
  1.70000000E+00  1.70000000E+00  1.70000000E+00  1.70000000E+00  1.70000000E+00
  1.70000000E+00  1.70000000E+00  1.70000000E+00  1.55000000E+00  1.70000000E+00
  1.70000000E+00  1.70000000E+00  1.70000000E+00  1.70000000E+00  1.70000000E+00
  1.70000000E+00  1.70000000E+00  1.70000000E+00  1.70000000E+00  1.55000000E+00
  1.70000000E+00  1.70000000E+00  1.70000000E+00  1.70000000E+00  1.70000000E+00
  1.70000000E+00  1.70000000E+00  1.70000000E+00  1.70000000E+00  1.70000000E+00
  1.55000000E+00  1.70000000E+00  1.70000000E+00  1.70000000E+00  1.70000000E+00
  1.70000000E+00  1.70000000E+00  1.70000000E+00  1.70000000E+00  1.70000000E+00
  1.70000000E+00  1.55000000E+00  1.70000000E+00  1.70000000E+00  1.70000000E+00
  1.70000000E+00  1.70000000E+00  1.70000000E+00  1.70000000E+00  1.70000000E+00
  1.70000000E+00  1.70000000E+00  1.55000000E+00  1.70000000E+00  1.70000000E+00
  1.70000000E+00  1.70000000E+00  1.70000000E+00  1.70000000E+00  1.70000000E+00
  1.70000000E+00  1.70000000E+00  1.70000000E+00  1.55000000E+00  1.70000000E+00
  1.70000000E+00  1.70000000E+00  1.70000000E+00  1.70000000E+00  1.70000000E+00
  1.70000000E+00  1.70000000E+00  1.70000000E+00  1.70000000E+00  1.70000000E+00
  1.70000000E+00  1.70000000E+00  1.70000000E+00  1.70000000E+00  1.70000000E+00
  1.70000000E+00  1.70000000E+00  1.70000000E+00  1.70000000E+00  1.70000000E+00
  1.70000000E+00  1.70000000E+00  1.70000000E+00  1.70000000E+00  1.70000000E+00
  1.70000000E+00  1.70000000E+00  1.70000000E+00  1.70000000E+00  1.70000000E+00
  1.70000000E+00  1.70000000E+00  1.70000000E+00  1.70000000E+00  1.70000000E+00
  1.70000000E+00  1.70000000E+00  1.70000000E+00  1.70000000E+00  1.70000000E+00
  1.70000000E+00  1.70000000E+00  1.70000000E+00  1.70000000E+00  1.70000000E+00
  1.70000000E+00  1.55000000E+00  1.70000000E+00  1.70000000E+00  1.70000000E+00
  1.70000000E+00  1.70000000E+00  1.70000000E+00  1.70000000E+00  1.70000000E+00
  1.70000000E+00  1.70000000E+00  1.55000000E+00  1.70000000E+00  1.70000000E+00
  1.70000000E+00  1.70000000E+00  1.70000000E+00  1.70000000E+00  1.70000000E+00
  1.70000000E+00  1.70000000E+00  1.70000000E+00  1.55000000E+00  1.70000000E+00
  1.70000000E+00  1.70000000E+00  1.70000000E+00  1.70000000E+00  1.70000000E+00
  1.70000000E+00  1.70000000E+00  1.70000000E+00  1.70000000E+00  1.55000000E+00
  1.70000000E+00  1.70000000E+00  1.70000000E+00  1.70000000E+00  1.70000000E+00
  1.70000000E+00  1.70000000E+00  1.70000000E+00  1.70000000E+00  1.70000000E+00
  1.55000000E+00  1.70000000E+00  1.70000000E+00  1.70000000E+00  1.70000000E+00
  1.70000000E+00  1.70000000E+00  1.70000000E+00  1.70000000E+00  1.70000000E+00
  1.70000000E+00  1.55000000E+00  1.70000000E+00  1.70000000E+00  1.70000000E+00
  1.70000000E+00  1.70000000E+00  1.70000000E+00  1.70000000E+00  1.70000000E+00
  1.70000000E+00  1.70000000E+00  1.55000000E+00  1.70000000E+00  1.70000000E+00
  1.70000000E+00  1.70000000E+00  1.70000000E+00  1.70000000E+00  1.70000000E+00
  1.70000000E+00  1.70000000E+00  1.70000000E+00  1.55000000E+00  1.70000000E+00
  1.70000000E+00  1.70000000E+00  1.70000000E+00  1.70000000E+00  1.70000000E+00
  1.70000000E+00  1.70000000E+00  1.70000000E+00  1.70000000E+00  1.55000000E+00
  1.70000000E+00  1.70000000E+00  1.70000000E+00  1.70000000E+00  1.70000000E+00
  1.70000000E+00  1.70000000E+00  1.70000000E+00  1.70000000E+00  1.70000000E+00
  1.55000000E+00  1.70000000E+00  1.70000000E+00  1.70000000E+00  1.70000000E+00
  1.70000000E+00  1.70000000E+00  1.70000000E+00  1.70000000E+00  1.70000000E+00
  1.70000000E+00  1.55000000E+00  1.70000000E+00  1.70000000E+00  1.70000000E+00
  1.70000000E+00  1.70000000E+00  1.70000000E+00  1.70000000E+00  1.70000000E+00
  1.70000000E+00  1.70000000E+00  1.55000000E+00  1.70000000E+00  1.70000000E+00
  1.70000000E+00  1.70000000E+00  1.70000000E+00  1.70000000E+00  1.70000000E+00
  1.70000000E+00  1.70000000E+00  1.70000000E+00  1.55000000E+00  1.70000000E+00
  1.70000000E+00  1.70000000E+00  1.70000000E+00  1.70000000E+00  1.70000000E+00
  1.70000000E+00  1.70000000E+00  1.70000000E+00  1.70000000E+00  1.70000000E+00
  1.70000000E+00  1.55000000E+00  1.70000000E+00  1.70000000E+00  1.70000000E+00
  1.70000000E+00  1.70000000E+00  1.70000000E+00  1.70000000E+00  1.70000000E+00
  1.70000000E+00  1.70000000E+00  1.55000000E+00  1.70000000E+00  1.70000000E+00
  1.70000000E+00  1.70000000E+00  1.70000000E+00  1.70000000E+00  1.70000000E+00
  1.70000000E+00  1.70000000E+00  1.70000000E+00  1.55000000E+00  1.70000000E+00
  1.70000000E+00  1.70000000E+00  1.70000000E+00  1.70000000E+00  1.70000000E+00
  1.70000000E+00  1.70000000E+00  1.70000000E+00  1.70000000E+00  1.55000000E+00
  1.70000000E+00  1.70000000E+00  1.70000000E+00  1.70000000E+00  1.70000000E+00
  1.70000000E+00  1.70000000E+00  1.70000000E+00  1.70000000E+00  1.70000000E+00
  1.55000000E+00  1.70000000E+00  1.70000000E+00  1.70000000E+00  1.70000000E+00
  1.70000000E+00  1.70000000E+00  1.70000000E+00  1.70000000E+00  1.70000000E+00
  1.70000000E+00  1.55000000E+00  1.70000000E+00  1.70000000E+00  1.70000000E+00
  1.70000000E+00  1.70000000E+00  1.70000000E+00  1.70000000E+00  1.70000000E+00
  1.70000000E+00  1.70000000E+00  1.55000000E+00  1.70000000E+00  1.70000000E+00
  1.70000000E+00  1.70000000E+00  1.70000000E+00  1.70000000E+00  1.70000000E+00
  1.70000000E+00  1.70000000E+00  1.70000000E+00  1.55000000E+00  1.70000000E+00
  1.70000000E+00  1.70000000E+00  1.70000000E+00  1.70000000E+00  1.70000000E+00
  1.70000000E+00  1.70000000E+00  1.70000000E+00  1.70000000E+00  1.55000000E+00
  1.70000000E+00  1.70000000E+00  1.70000000E+00  1.70000000E+00  1.70000000E+00
  1.70000000E+00  1.70000000E+00  1.70000000E+00  1.70000000E+00  1.70000000E+00
  1.55000000E+00  1.70000000E+00  1.70000000E+00  1.70000000E+00  1.70000000E+00
  1.70000000E+00  1.70000000E+00  1.70000000E+00  1.70000000E+00  1.70000000E+00
  1.70000000E+00  1.55000000E+00  1.70000000E+00  1.70000000E+00  1.70000000E+00
  1.70000000E+00  1.70000000E+00  1.70000000E+00  1.70000000E+00  1.70000000E+00
  1.70000000E+00  1.70000000E+00  1.55000000E+00  1.70000000E+00  1.70000000E+00
  1.70000000E+00  1.70000000E+00  1.70000000E+00  1.30000000E+00  1.30000000E+00
  1.30000000E+00  1.30000000E+00  1.30000000E+00  1.30000000E+00  1.30000000E+00
  1.30000000E+00  1.30000000E+00  1.30000000E+00  1.30000000E+00  1.30000000E+00
  1.30000000E+00  1.30000000E+00  1.30000000E+00  1.30000000E+00  1.30000000E+00
  1.30000000E+00  1.30000000E+00  1.30000000E+00  1.30000000E+00  1.30000000E+00
  1.30000000E+00  1.30000000E+00  1.30000000E+00  1.30000000E+00  1.30000000E+00
  1.30000000E+00  1.30000000E+00  1.30000000E+00  1.30000000E+00  1.30000000E+00
  1.30000000E+00  1.30000000E+00  1.30000000E+00  1.30000000E+00  1.30000000E+00
  1.30000000E+00  1.30000000E+00  1.30000000E+00  1.30000000E+00  1.30000000E+00
  1.30000000E+00  1.30000000E+00  1.30000000E+00  1.30000000E+00  1.30000000E+00
  1.30000000E+00  1.30000000E+00  1.30000000E+00  1.30000000E+00  1.30000000E+00
  1.30000000E+00  1.30000000E+00  1.30000000E+00  1.30000000E+00  1.30000000E+00
  1.30000000E+00  1.30000000E+00  1.30000000E+00  1.30000000E+00  1.30000000E+00
  1.30000000E+00  1.30000000E+00  1.30000000E+00  1.30000000E+00  1.30000000E+00
  1.30000000E+00  1.30000000E+00  1.30000000E+00  1.30000000E+00  1.30000000E+00
  1.30000000E+00  1.30000000E+00  1.30000000E+00  1.30000000E+00  1.30000000E+00
  1.30000000E+00  1.30000000E+00  1.30000000E+00  1.30000000E+00  1.30000000E+00
  1.30000000E+00  1.30000000E+00  1.30000000E+00  1.30000000E+00  1.30000000E+00
  1.30000000E+00  1.30000000E+00  1.30000000E+00  1.30000000E+00  1.30000000E+00
  1.30000000E+00  1.30000000E+00  1.30000000E+00  1.30000000E+00  1.30000000E+00
  1.30000000E+00  1.30000000E+00  1.30000000E+00  1.30000000E+00  1.30000000E+00
  1.30000000E+00  1.30000000E+00  1.30000000E+00  1.30000000E+00  1.30000000E+00
  1.30000000E+00  1.30000000E+00  1.30000000E+00  1.30000000E+00  1.30000000E+00
  1.30000000E+00  1.30000000E+00  1.30000000E+00  1.30000000E+00  1.30000000E+00
  1.30000000E+00  1.30000000E+00  1.30000000E+00  1.30000000E+00  1.30000000E+00
  1.30000000E+00  1.30000000E+00  1.30000000E+00  1.30000000E+00  1.30000000E+00
  1.30000000E+00  1.30000000E+00  1.30000000E+00  1.30000000E+00  1.30000000E+00
  1.30000000E+00  1.30000000E+00  1.30000000E+00  1.30000000E+00  1.30000000E+00
  1.30000000E+00  1.30000000E+00  1.30000000E+00  1.30000000E+00  1.30000000E+00
  1.30000000E+00  1.30000000E+00  1.30000000E+00  1.30000000E+00  1.30000000E+00
  1.30000000E+00  1.30000000E+00  1.30000000E+00  1.30000000E+00  1.30000000E+00
  1.30000000E+00  1.30000000E+00  1.30000000E+00  1.30000000E+00  1.30000000E+00
  1.30000000E+00  1.30000000E+00  1.30000000E+00  1.30000000E+00  1.30000000E+00
  1.30000000E+00  1.30000000E+00  1.30000000E+00  1.30000000E+00  1.30000000E+00
  1.30000000E+00  1.30000000E+00  1.30000000E+00  1.30000000E+00  1.30000000E+00
  1.30000000E+00  1.30000000E+00  1.30000000E+00  1.30000000E+00  1.30000000E+00
  1.30000000E+00  1.30000000E+00  1.30000000E+00  1.30000000E+00  1.30000000E+00
  1.30000000E+00  1.30000000E+00  1.30000000E+00  1.30000000E+00  1.30000000E+00
  1.30000000E+00  1.30000000E+00  1.30000000E+00  1.30000000E+00  1.30000000E+00
  1.30000000E+00  1.30000000E+00  1.30000000E+00  1.30000000E+00  1.30000000E+00
  1.30000000E+00  1.30000000E+00  1.30000000E+00  1.30000000E+00  1.30000000E+00
  1.30000000E+00  1.30000000E+00  1.30000000E+00  1.30000000E+00  1.30000000E+00
  1.30000000E+00  1.30000000E+00  1.30000000E+00  1.30000000E+00  1.30000000E+00
  1.30000000E+00  1.30000000E+00  1.30000000E+00  1.30000000E+00  1.30000000E+00
  1.30000000E+00  1.30000000E+00  1.30000000E+00  1.30000000E+00  1.30000000E+00
  1.30000000E+00  1.30000000E+00  1.30000000E+00  1.30000000E+00  1.30000000E+00
  1.30000000E+00  1.30000000E+00  1.30000000E+00  1.30000000E+00  1.30000000E+00
  1.30000000E+00  1.30000000E+00  1.30000000E+00  1.30000000E+00  1.30000000E+00
  1.30000000E+00  1.30000000E+00  1.30000000E+00  1.30000000E+00  1.30000000E+00
  1.30000000E+00  1.30000000E+00  1.30000000E+00  1.30000000E+00  1.30000000E+00
  1.30000000E+00  1.30000000E+00  1.30000000E+00  1.30000000E+00  1.30000000E+00
  1.30000000E+00  1.30000000E+00  1.30000000E+00  1.30000000E+00  1.30000000E+00
  1.30000000E+00  1.30000000E+00  1.30000000E+00  1.30000000E+00  1.30000000E+00
  1.30000000E+00  1.30000000E+00  1.30000000E+00  1.30000000E+00  1.30000000E+00
  1.30000000E+00  1.30000000E+00  1.30000000E+00  1.30000000E+00  1.30000000E+00
  1.30000000E+00  1.30000000E+00  1.30000000E+00  1.30000000E+00  1.30000000E+00
  1.30000000E+00  1.30000000E+00  1.30000000E+00  1.30000000E+00  1.30000000E+00
  1.30000000E+00  1.30000000E+00  1.30000000E+00  1.30000000E+00  1.30000000E+00
  1.30000000E+00  1.30000000E+00  1.30000000E+00  1.30000000E+00  1.30000000E+00
  1.30000000E+00  1.30000000E+00  1.30000000E+00  1.30000000E+00  1.30000000E+00
  1.30000000E+00  1.30000000E+00  1.30000000E+00  1.30000000E+00  1.30000000E+00
  1.30000000E+00  1.30000000E+00  1.30000000E+00  1.30000000E+00  1.30000000E+00
  1.30000000E+00  1.30000000E+00  1.30000000E+00  1.30000000E+00  1.30000000E+00
  1.30000000E+00  1.30000000E+00  1.30000000E+00  1.30000000E+00  1.30000000E+00
  1.30000000E+00  1.30000000E+00  1.30000000E+00  1.30000000E+00  1.30000000E+00
  1.30000000E+00  1.30000000E+00  1.30000000E+00  1.30000000E+00  1.30000000E+00
  1.30000000E+00  1.30000000E+00  1.30000000E+00  1.30000000E+00  1.30000000E+00
  1.30000000E+00  1.30000000E+00  1.30000000E+00  1.30000000E+00  1.30000000E+00
  1.30000000E+00  1.30000000E+00  1.30000000E+00  1.30000000E+00  1.30000000E+00
  1.30000000E+00  1.30000000E+00  1.30000000E+00  1.30000000E+00  1.30000000E+00
  1.30000000E+00  1.30000000E+00  1.30000000E+00  1.30000000E+00  1.30000000E+00
  1.30000000E+00  1.30000000E+00  1.30000000E+00  1.30000000E+00  1.30000000E+00
  1.30000000E+00  1.30000000E+00  1.30000000E+00  1.30000000E+00  1.30000000E+00
  1.30000000E+00  1.30000000E+00  1.30000000E+00  1.30000000E+00  1.30000000E+00
  1.30000000E+00  1.30000000E+00  1.30000000E+00  1.30000000E+00  1.30000000E+00
  1.30000000E+00  1.30000000E+00  1.30000000E+00  1.30000000E+00  1.30000000E+00
  1.30000000E+00  1.30000000E+00  1.30000000E+00  1.30000000E+00  1.30000000E+00
  1.30000000E+00  1.30000000E+00  1.30000000E+00  1.30000000E+00  1.30000000E+00
  1.30000000E+00  1.30000000E+00  1.30000000E+00  1.30000000E+00  1.30000000E+00
  1.30000000E+00  1.30000000E+00  1.30000000E+00  1.30000000E+00  1.30000000E+00
  1.30000000E+00  1.30000000E+00  1.30000000E+00  1.30000000E+00  1.30000000E+00
  1.30000000E+00  1.30000000E+00  1.30000000E+00  1.30000000E+00  1.30000000E+00
  1.30000000E+00  1.30000000E+00  1.30000000E+00  1.30000000E+00  1.30000000E+00
  1.30000000E+00  1.30000000E+00  1.30000000E+00  1.30000000E+00  1.30000000E+00
  1.30000000E+00  1.30000000E+00  1.30000000E+00  1.30000000E+00  1.30000000E+00
  1.30000000E+00  1.30000000E+00  1.30000000E+00  1.30000000E+00  1.30000000E+00
  1.30000000E+00  1.30000000E+00  1.30000000E+00  1.30000000E+00  1.30000000E+00
  1.30000000E+00  1.30000000E+00  1.30000000E+00  1.30000000E+00  1.30000000E+00
  1.30000000E+00  1.30000000E+00  1.30000000E+00  1.30000000E+00  1.30000000E+00
  1.30000000E+00  1.30000000E+00  1.30000000E+00  1.30000000E+00  1.30000000E+00
  1.30000000E+00  1.30000000E+00  1.30000000E+00  1.30000000E+00  1.30000000E+00
  1.30000000E+00  1.30000000E+00  1.30000000E+00  1.30000000E+00  1.30000000E+00
  1.30000000E+00  1.30000000E+00  1.30000000E+00  1.30000000E+00  1.30000000E+00
  1.30000000E+00  1.30000000E+00  1.30000000E+00  1.30000000E+00  1.30000000E+00
  1.30000000E+00  1.30000000E+00  1.30000000E+00  1.30000000E+00  1.30000000E+00
  1.30000000E+00  1.30000000E+00  1.30000000E+00  1.30000000E+00  1.30000000E+00
  1.30000000E+00  1.30000000E+00  1.30000000E+00  1.30000000E+00  1.30000000E+00
  1.30000000E+00  1.30000000E+00  1.30000000E+00  1.30000000E+00  1.30000000E+00
  1.30000000E+00  1.30000000E+00  1.30000000E+00  1.30000000E+00  1.30000000E+00
  1.30000000E+00  1.30000000E+00  1.30000000E+00  1.30000000E+00  1.30000000E+00
  1.30000000E+00  1.30000000E+00  1.30000000E+00  1.30000000E+00  1.30000000E+00
  1.30000000E+00  1.30000000E+00  1.30000000E+00  1.30000000E+00  1.30000000E+00
  1.30000000E+00  1.30000000E+00  1.30000000E+00  1.30000000E+00  1.30000000E+00
  1.30000000E+00  1.30000000E+00  1.30000000E+00  1.30000000E+00  1.30000000E+00
  1.30000000E+00  1.30000000E+00  1.30000000E+00  1.30000000E+00  1.30000000E+00
  1.30000000E+00  1.30000000E+00  1.30000000E+00  1.30000000E+00  1.30000000E+00
  1.30000000E+00  1.30000000E+00  1.30000000E+00  1.30000000E+00  1.30000000E+00
  1.30000000E+00  1.30000000E+00  1.30000000E+00  1.30000000E+00  1.30000000E+00
  1.30000000E+00  1.30000000E+00  1.30000000E+00  1.30000000E+00  1.30000000E+00
  1.30000000E+00  1.30000000E+00  1.30000000E+00  1.30000000E+00  1.30000000E+00
  1.30000000E+00  1.30000000E+00  1.30000000E+00  1.30000000E+00  1.30000000E+00
  1.30000000E+00  1.30000000E+00  1.30000000E+00  1.30000000E+00  1.30000000E+00
  1.30000000E+00  1.30000000E+00  1.30000000E+00  1.30000000E+00  1.30000000E+00
  1.30000000E+00  1.30000000E+00  1.30000000E+00  1.30000000E+00  1.30000000E+00
  1.30000000E+00  1.30000000E+00  1.30000000E+00  1.30000000E+00  1.30000000E+00
  1.30000000E+00  1.30000000E+00  1.30000000E+00  1.30000000E+00  1.30000000E+00
  1.30000000E+00  1.30000000E+00  1.30000000E+00  1.30000000E+00  1.30000000E+00
  1.30000000E+00  1.30000000E+00  1.30000000E+00  1.30000000E+00  1.30000000E+00
  1.30000000E+00  1.30000000E+00  1.30000000E+00  1.30000000E+00  1.30000000E+00
  1.30000000E+00  1.30000000E+00  1.30000000E+00  1.30000000E+00  1.30000000E+00
  1.30000000E+00  1.30000000E+00  1.30000000E+00  1.30000000E+00  1.30000000E+00
  1.30000000E+00  1.30000000E+00  1.30000000E+00  1.30000000E+00  1.30000000E+00
  1.30000000E+00  1.30000000E+00  1.30000000E+00  1.30000000E+00  1.30000000E+00
  1.30000000E+00  1.30000000E+00  1.30000000E+00  1.30000000E+00  1.30000000E+00
  1.30000000E+00  1.30000000E+00  1.30000000E+00  1.30000000E+00  1.30000000E+00
  1.30000000E+00  1.30000000E+00  1.30000000E+00  1.30000000E+00  1.30000000E+00
  1.30000000E+00  1.30000000E+00  1.30000000E+00  1.30000000E+00  1.30000000E+00
  1.30000000E+00  1.30000000E+00  1.30000000E+00  1.30000000E+00  1.30000000E+00
  1.30000000E+00  1.30000000E+00  1.30000000E+00  1.30000000E+00  1.30000000E+00
  1.30000000E+00  1.30000000E+00  1.30000000E+00  1.30000000E+00  1.30000000E+00
  1.30000000E+00  1.30000000E+00  1.30000000E+00  1.30000000E+00  1.30000000E+00
  1.30000000E+00  1.30000000E+00  1.30000000E+00  1.30000000E+00  1.30000000E+00
  1.30000000E+00  1.30000000E+00  1.30000000E+00  1.30000000E+00  1.30000000E+00
  1.30000000E+00  1.30000000E+00  1.30000000E+00  1.30000000E+00  1.30000000E+00
  1.30000000E+00  1.30000000E+00  1.30000000E+00  1.30000000E+00  1.30000000E+00
  1.30000000E+00  1.30000000E+00  1.30000000E+00  1.30000000E+00  1.30000000E+00
  1.30000000E+00  1.30000000E+00  1.30000000E+00  1.30000000E+00  1.30000000E+00
  1.30000000E+00  1.30000000E+00  1.30000000E+00  1.30000000E+00  1.30000000E+00
  1.30000000E+00  1.30000000E+00  1.30000000E+00  1.30000000E+00  1.30000000E+00
  1.30000000E+00  1.30000000E+00  1.30000000E+00  1.30000000E+00  1.30000000E+00
  1.30000000E+00  1.30000000E+00  1.30000000E+00  1.30000000E+00  1.30000000E+00
  1.30000000E+00  1.30000000E+00  1.30000000E+00  1.30000000E+00  1.30000000E+00
  1.30000000E+00  1.30000000E+00  1.30000000E+00  1.30000000E+00  1.30000000E+00
  1.30000000E+00  1.30000000E+00  1.30000000E+00  1.30000000E+00  1.30000000E+00
  1.30000000E+00  1.30000000E+00  1.30000000E+00  1.30000000E+00  1.30000000E+00
  1.30000000E+00  1.30000000E+00  1.30000000E+00  1.30000000E+00  1.30000000E+00
  1.30000000E+00  1.30000000E+00  1.30000000E+00  1.30000000E+00  1.30000000E+00
  1.30000000E+00  1.30000000E+00  1.30000000E+00  1.30000000E+00  1.30000000E+00
  1.30000000E+00  1.30000000E+00  1.30000000E+00  1.30000000E+00  1.30000000E+00
  1.30000000E+00  1.30000000E+00  1.30000000E+00  1.30000000E+00  1.30000000E+00
  1.30000000E+00  1.30000000E+00  1.30000000E+00  1.30000000E+00  1.30000000E+00
  1.30000000E+00  1.30000000E+00  1.30000000E+00  1.30000000E+00  1.30000000E+00
  1.30000000E+00  1.30000000E+00  1.30000000E+00  1.30000000E+00  1.30000000E+00
  1.30000000E+00  1.30000000E+00  1.30000000E+00  1.30000000E+00  1.30000000E+00
  1.30000000E+00  1.30000000E+00  1.30000000E+00  1.30000000E+00  1.30000000E+00
  1.30000000E+00  1.30000000E+00  1.30000000E+00  1.30000000E+00  1.30000000E+00
  1.30000000E+00  1.30000000E+00  1.30000000E+00  1.30000000E+00  1.30000000E+00
  1.30000000E+00  1.30000000E+00  1.30000000E+00  1.30000000E+00  1.30000000E+00
  1.30000000E+00  1.30000000E+00  1.30000000E+00  1.30000000E+00  1.30000000E+00
  1.30000000E+00  1.30000000E+00  1.30000000E+00  1.30000000E+00  1.30000000E+00
  1.30000000E+00  1.30000000E+00  1.30000000E+00  1.30000000E+00  1.30000000E+00
  1.30000000E+00  1.30000000E+00  1.30000000E+00  1.30000000E+00  1.30000000E+00
  1.30000000E+00  1.30000000E+00  1.30000000E+00  1.30000000E+00  1.30000000E+00
  1.30000000E+00  1.30000000E+00  1.30000000E+00  1.30000000E+00  1.30000000E+00
  1.30000000E+00  1.30000000E+00  1.30000000E+00  1.30000000E+00  1.30000000E+00
  1.30000000E+00  1.30000000E+00  1.30000000E+00  1.30000000E+00  1.30000000E+00
  1.30000000E+00  1.30000000E+00  1.30000000E+00  1.30000000E+00  1.30000000E+00
  1.30000000E+00  1.30000000E+00  1.30000000E+00  1.30000000E+00  1.30000000E+00
  1.30000000E+00  1.30000000E+00  1.30000000E+00  1.30000000E+00  1.30000000E+00
  1.30000000E+00  1.30000000E+00  1.30000000E+00  1.30000000E+00  1.30000000E+00
  1.30000000E+00  1.30000000E+00  1.30000000E+00  1.30000000E+00  1.30000000E+00
  1.30000000E+00  1.30000000E+00  1.30000000E+00  1.30000000E+00  1.30000000E+00
  1.30000000E+00  1.30000000E+00  1.30000000E+00  1.30000000E+00  1.30000000E+00
  1.30000000E+00  1.30000000E+00  1.30000000E+00  1.30000000E+00  1.30000000E+00
  1.30000000E+00  1.30000000E+00  1.30000000E+00  1.30000000E+00  1.30000000E+00
  1.30000000E+00  1.30000000E+00  1.30000000E+00  1.30000000E+00  1.30000000E+00
  1.30000000E+00  1.30000000E+00  1.30000000E+00  1.30000000E+00  1.30000000E+00
  1.30000000E+00  1.30000000E+00  1.30000000E+00  1.30000000E+00  1.30000000E+00
  1.30000000E+00  1.30000000E+00  1.30000000E+00  1.30000000E+00  1.30000000E+00
  1.30000000E+00  1.30000000E+00  1.30000000E+00  1.30000000E+00  1.30000000E+00
  1.30000000E+00  1.30000000E+00  1.30000000E+00  1.30000000E+00  1.30000000E+00
  1.30000000E+00  1.30000000E+00  1.30000000E+00  1.30000000E+00  1.30000000E+00
  1.30000000E+00  1.30000000E+00  1.30000000E+00  1.30000000E+00  1.30000000E+00
  1.30000000E+00  1.30000000E+00  1.30000000E+00  1.30000000E+00  1.30000000E+00
  1.30000000E+00  1.30000000E+00  1.30000000E+00  1.30000000E+00  1.30000000E+00
  1.30000000E+00  1.30000000E+00  1.30000000E+00  1.30000000E+00  1.30000000E+00
  1.30000000E+00  1.30000000E+00  1.30000000E+00  1.30000000E+00  1.30000000E+00
  1.30000000E+00  1.30000000E+00  1.30000000E+00  1.30000000E+00  1.30000000E+00
  1.30000000E+00  1.30000000E+00  1.30000000E+00  1.30000000E+00  1.30000000E+00
  1.30000000E+00  1.30000000E+00  1.30000000E+00  1.30000000E+00  1.30000000E+00
  1.30000000E+00  1.30000000E+00  1.30000000E+00  1.30000000E+00  1.30000000E+00
  1.30000000E+00  1.30000000E+00  1.30000000E+00  1.30000000E+00  1.30000000E+00
  1.30000000E+00  1.30000000E+00  1.30000000E+00  1.30000000E+00  1.30000000E+00
  1.30000000E+00  1.30000000E+00  1.30000000E+00  1.30000000E+00  1.70000000E+00
  1.70000000E+00  1.70000000E+00  1.70000000E+00  1.70000000E+00  1.70000000E+00
  1.70000000E+00  1.70000000E+00  1.70000000E+00  1.70000000E+00  1.70000000E+00
  1.70000000E+00  1.70000000E+00  1.70000000E+00  1.70000000E+00  1.70000000E+00
  1.70000000E+00  1.70000000E+00  1.70000000E+00  1.70000000E+00  1.70000000E+00
  1.70000000E+00  1.70000000E+00  1.70000000E+00  1.70000000E+00  1.70000000E+00
  1.70000000E+00  1.70000000E+00  1.70000000E+00  1.70000000E+00  1.70000000E+00
  1.70000000E+00  1.70000000E+00  1.70000000E+00  1.70000000E+00  1.70000000E+00
  1.70000000E+00  1.70000000E+00  1.70000000E+00  1.70000000E+00  1.70000000E+00
  1.70000000E+00  1.70000000E+00  1.70000000E+00  1.70000000E+00  1.70000000E+00
  1.70000000E+00  1.70000000E+00  1.50000000E+00  8.00000000E-01  8.00000000E-01
  1.50000000E+00  8.00000000E-01  8.00000000E-01  1.50000000E+00  8.00000000E-01
  8.00000000E-01  1.50000000E+00  8.00000000E-01  8.00000000E-01  1.50000000E+00
  8.00000000E-01  8.00000000E-01  1.50000000E+00  8.00000000E-01  8.00000000E-01
  1.50000000E+00  8.00000000E-01  8.00000000E-01  1.50000000E+00  8.00000000E-01
  8.00000000E-01  1.50000000E+00  8.00000000E-01  8.00000000E-01  1.50000000E+00
  8.00000000E-01  8.00000000E-01  1.50000000E+00  8.00000000E-01  8.00000000E-01
  1.50000000E+00  8.00000000E-01  8.00000000E-01  1.50000000E+00  8.00000000E-01
  8.00000000E-01  1.50000000E+00  8.00000000E-01  8.00000000E-01  1.50000000E+00
  8.00000000E-01  8.00000000E-01  1.50000000E+00  8.00000000E-01  8.00000000E-01
  1.50000000E+00  8.00000000E-01  8.00000000E-01  1.50000000E+00  8.00000000E-01
  8.00000000E-01  1.50000000E+00  8.00000000E-01  8.00000000E-01  1.50000000E+00
  8.00000000E-01  8.00000000E-01  1.50000000E+00  8.00000000E-01  8.00000000E-01
  1.50000000E+00  8.00000000E-01  8.00000000E-01  1.50000000E+00  8.00000000E-01
  8.00000000E-01  1.50000000E+00  8.00000000E-01  8.00000000E-01  1.50000000E+00
  8.00000000E-01  8.00000000E-01  1.50000000E+00  8.00000000E-01  8.00000000E-01
  1.50000000E+00  8.00000000E-01  8.00000000E-01  1.50000000E+00  8.00000000E-01
  8.00000000E-01  1.50000000E+00  8.00000000E-01  8.00000000E-01  1.50000000E+00
  8.00000000E-01  8.00000000E-01  1.50000000E+00  8.00000000E-01  8.00000000E-01
  1.50000000E+00  8.00000000E-01  8.00000000E-01  1.50000000E+00  8.00000000E-01
  8.00000000E-01  1.50000000E+00  8.00000000E-01  8.00000000E-01  1.50000000E+00
  8.00000000E-01  8.00000000E-01  1.50000000E+00  8.00000000E-01  8.00000000E-01
  1.50000000E+00  8.00000000E-01  8.00000000E-01  1.50000000E+00  8.00000000E-01
  8.00000000E-01  1.50000000E+00  8.00000000E-01  8.00000000E-01  1.50000000E+00
  8.00000000E-01  8.00000000E-01  1.50000000E+00  8.00000000E-01  8.00000000E-01
  1.50000000E+00  8.00000000E-01  8.00000000E-01  1.50000000E+00  8.00000000E-01
  8.00000000E-01  1.50000000E+00  8.00000000E-01  8.00000000E-01  1.50000000E+00
  8.00000000E-01  8.00000000E-01  1.50000000E+00  8.00000000E-01  8.00000000E-01
  1.50000000E+00  8.00000000E-01  8.00000000E-01  1.50000000E+00  8.00000000E-01
  8.00000000E-01  1.50000000E+00  8.00000000E-01  8.00000000E-01  1.50000000E+00
  8.00000000E-01  8.00000000E-01  1.50000000E+00  8.00000000E-01  8.00000000E-01
  1.50000000E+00  8.00000000E-01  8.00000000E-01  1.50000000E+00  8.00000000E-01
  8.00000000E-01  1.50000000E+00  8.00000000E-01  8.00000000E-01  1.50000000E+00
  8.00000000E-01  8.00000000E-01  1.50000000E+00  8.00000000E-01  8.00000000E-01
  1.50000000E+00  8.00000000E-01  8.00000000E-01  1.50000000E+00  8.00000000E-01
  8.00000000E-01  1.50000000E+00  8.00000000E-01  8.00000000E-01  1.50000000E+00
  8.00000000E-01  8.00000000E-01  1.50000000E+00  8.00000000E-01  8.00000000E-01
  1.50000000E+00  8.00000000E-01  8.00000000E-01  1.50000000E+00  8.00000000E-01
  8.00000000E-01  1.50000000E+00  8.00000000E-01  8.00000000E-01  1.50000000E+00
  8.00000000E-01  8.00000000E-01  1.50000000E+00  8.00000000E-01  8.00000000E-01
  1.50000000E+00  8.00000000E-01  8.00000000E-01  1.50000000E+00  8.00000000E-01
  8.00000000E-01  1.50000000E+00  8.00000000E-01  8.00000000E-01  1.50000000E+00
  8.00000000E-01  8.00000000E-01  1.50000000E+00  8.00000000E-01  8.00000000E-01
  1.50000000E+00  8.00000000E-01  8.00000000E-01  1.50000000E+00  8.00000000E-01
  8.00000000E-01  1.50000000E+00  8.00000000E-01  8.00000000E-01  1.50000000E+00
  8.00000000E-01  8.00000000E-01  1.50000000E+00  8.00000000E-01  8.00000000E-01
  1.50000000E+00  8.00000000E-01  8.00000000E-01  1.50000000E+00  8.00000000E-01
  8.00000000E-01  1.50000000E+00  8.00000000E-01  8.00000000E-01  1.50000000E+00
  8.00000000E-01  8.00000000E-01  1.50000000E+00  8.00000000E-01  8.00000000E-01
  1.50000000E+00  8.00000000E-01  8.00000000E-01  1.50000000E+00  8.00000000E-01
  8.00000000E-01  1.50000000E+00  8.00000000E-01  8.00000000E-01  1.50000000E+00
  8.00000000E-01  8.00000000E-01  1.50000000E+00  8.00000000E-01  8.00000000E-01
  1.50000000E+00  8.00000000E-01  8.00000000E-01  1.50000000E+00  8.00000000E-01
  8.00000000E-01  1.50000000E+00  8.00000000E-01  8.00000000E-01  1.50000000E+00
  8.00000000E-01  8.00000000E-01  1.50000000E+00  8.00000000E-01  8.00000000E-01
  1.50000000E+00  8.00000000E-01  8.00000000E-01  1.50000000E+00  8.00000000E-01
  8.00000000E-01  1.50000000E+00  8.00000000E-01  8.00000000E-01  1.50000000E+00
  8.00000000E-01  8.00000000E-01  1.50000000E+00  8.00000000E-01  8.00000000E-01
  1.50000000E+00  8.00000000E-01  8.00000000E-01  1.50000000E+00  8.00000000E-01
  8.00000000E-01  1.50000000E+00  8.00000000E-01  8.00000000E-01  1.50000000E+00
  8.00000000E-01  8.00000000E-01  1.50000000E+00  8.00000000E-01  8.00000000E-01
  1.50000000E+00  8.00000000E-01  8.00000000E-01  1.50000000E+00  8.00000000E-01
  8.00000000E-01  1.50000000E+00  8.00000000E-01  8.00000000E-01  1.50000000E+00
  8.00000000E-01  8.00000000E-01  1.50000000E+00  8.00000000E-01  8.00000000E-01
  1.50000000E+00  8.00000000E-01  8.00000000E-01  1.50000000E+00  8.00000000E-01
  8.00000000E-01  1.50000000E+00  8.00000000E-01  8.00000000E-01  1.50000000E+00
  8.00000000E-01  8.00000000E-01  1.50000000E+00  8.00000000E-01  8.00000000E-01
  1.50000000E+00  8.00000000E-01  8.00000000E-01  1.50000000E+00  8.00000000E-01
  8.00000000E-01  1.50000000E+00  8.00000000E-01  8.00000000E-01  1.50000000E+00
  8.00000000E-01  8.00000000E-01  1.50000000E+00  8.00000000E-01  8.00000000E-01
  1.50000000E+00  8.00000000E-01  8.00000000E-01  1.50000000E+00  8.00000000E-01
  8.00000000E-01  1.50000000E+00  8.00000000E-01  8.00000000E-01  1.50000000E+00
  8.00000000E-01  8.00000000E-01  1.50000000E+00  8.00000000E-01  8.00000000E-01
  1.50000000E+00  8.00000000E-01  8.00000000E-01  1.50000000E+00  8.00000000E-01
  8.00000000E-01  1.50000000E+00  8.00000000E-01  8.00000000E-01  1.50000000E+00
  8.00000000E-01  8.00000000E-01  1.50000000E+00  8.00000000E-01  8.00000000E-01
  1.50000000E+00  8.00000000E-01  8.00000000E-01  1.50000000E+00  8.00000000E-01
  8.00000000E-01  1.50000000E+00  8.00000000E-01  8.00000000E-01  1.50000000E+00
  8.00000000E-01  8.00000000E-01  1.50000000E+00  8.00000000E-01  8.00000000E-01
  1.50000000E+00  8.00000000E-01  8.00000000E-01  1.50000000E+00  8.00000000E-01
  8.00000000E-01  1.50000000E+00  8.00000000E-01  8.00000000E-01  1.50000000E+00
  8.00000000E-01  8.00000000E-01  1.50000000E+00  8.00000000E-01  8.00000000E-01
  1.50000000E+00  8.00000000E-01  8.00000000E-01  1.50000000E+00  8.00000000E-01
  8.00000000E-01  1.50000000E+00  8.00000000E-01  8.00000000E-01  1.50000000E+00
  8.00000000E-01  8.00000000E-01  1.50000000E+00  8.00000000E-01  8.00000000E-01
  1.50000000E+00  8.00000000E-01  8.00000000E-01  1.50000000E+00  8.00000000E-01
  8.00000000E-01  1.50000000E+00  8.00000000E-01  8.00000000E-01  1.50000000E+00
  8.00000000E-01  8.00000000E-01  1.50000000E+00  8.00000000E-01  8.00000000E-01
  1.50000000E+00  8.00000000E-01  8.00000000E-01  1.50000000E+00  8.00000000E-01
  8.00000000E-01  1.50000000E+00  8.00000000E-01  8.00000000E-01  1.50000000E+00
  8.00000000E-01  8.00000000E-01  1.50000000E+00  8.00000000E-01  8.00000000E-01
  1.50000000E+00  8.00000000E-01  8.00000000E-01  1.50000000E+00  8.00000000E-01
  8.00000000E-01  1.50000000E+00  8.00000000E-01  8.00000000E-01  1.50000000E+00
  8.00000000E-01  8.00000000E-01  1.50000000E+00  8.00000000E-01  8.00000000E-01
  1.50000000E+00  8.00000000E-01  8.00000000E-01  1.50000000E+00  8.00000000E-01
  8.00000000E-01  1.50000000E+00  8.00000000E-01  8.00000000E-01  1.50000000E+00
  8.00000000E-01  8.00000000E-01  1.50000000E+00  8.00000000E-01  8.00000000E-01
  1.50000000E+00  8.00000000E-01  8.00000000E-01  1.50000000E+00  8.00000000E-01
  8.00000000E-01  1.50000000E+00  8.00000000E-01  8.00000000E-01  1.50000000E+00
  8.00000000E-01  8.00000000E-01  1.50000000E+00  8.00000000E-01  8.00000000E-01
  1.50000000E+00  8.00000000E-01  8.00000000E-01  1.50000000E+00  8.00000000E-01
  8.00000000E-01  1.50000000E+00  8.00000000E-01  8.00000000E-01  1.50000000E+00
  8.00000000E-01  8.00000000E-01  1.50000000E+00  8.00000000E-01  8.00000000E-01
  1.50000000E+00  8.00000000E-01  8.00000000E-01  1.50000000E+00  8.00000000E-01
  8.00000000E-01  1.50000000E+00  8.00000000E-01  8.00000000E-01  1.50000000E+00
  8.00000000E-01  8.00000000E-01  1.50000000E+00  8.00000000E-01  8.00000000E-01
  1.50000000E+00  8.00000000E-01  8.00000000E-01  1.50000000E+00  8.00000000E-01
  8.00000000E-01  1.50000000E+00  8.00000000E-01  8.00000000E-01  1.50000000E+00
  8.00000000E-01  8.00000000E-01  1.50000000E+00  8.00000000E-01  8.00000000E-01
  1.50000000E+00  8.00000000E-01  8.00000000E-01  1.50000000E+00  8.00000000E-01
  8.00000000E-01  1.50000000E+00  8.00000000E-01  8.00000000E-01  1.50000000E+00
  8.00000000E-01  8.00000000E-01  1.50000000E+00  8.00000000E-01  8.00000000E-01
  1.50000000E+00  8.00000000E-01  8.00000000E-01  1.50000000E+00  8.00000000E-01
  8.00000000E-01  1.50000000E+00  8.00000000E-01  8.00000000E-01  1.50000000E+00
  8.00000000E-01  8.00000000E-01  1.50000000E+00  8.00000000E-01  8.00000000E-01
  1.50000000E+00  8.00000000E-01  8.00000000E-01  1.50000000E+00  8.00000000E-01
  8.00000000E-01  1.50000000E+00  8.00000000E-01  8.00000000E-01  1.50000000E+00
  8.00000000E-01  8.00000000E-01  1.50000000E+00  8.00000000E-01  8.00000000E-01
  1.50000000E+00  8.00000000E-01  8.00000000E-01  1.50000000E+00  8.00000000E-01
  8.00000000E-01  1.50000000E+00  8.00000000E-01  8.00000000E-01  1.50000000E+00
  8.00000000E-01  8.00000000E-01  1.50000000E+00  8.00000000E-01  8.00000000E-01
  1.50000000E+00  8.00000000E-01  8.00000000E-01  1.50000000E+00  8.00000000E-01
  8.00000000E-01  1.50000000E+00  8.00000000E-01  8.00000000E-01  1.50000000E+00
  8.00000000E-01  8.00000000E-01  1.50000000E+00  8.00000000E-01  8.00000000E-01
  1.50000000E+00  8.00000000E-01  8.00000000E-01  1.50000000E+00  8.00000000E-01
  8.00000000E-01  1.50000000E+00  8.00000000E-01  8.00000000E-01  1.50000000E+00
  8.00000000E-01  8.00000000E-01  1.50000000E+00  8.00000000E-01  8.00000000E-01
  1.50000000E+00  8.00000000E-01  8.00000000E-01  1.50000000E+00  8.00000000E-01
  8.00000000E-01  1.50000000E+00  8.00000000E-01  8.00000000E-01  1.50000000E+00
  8.00000000E-01  8.00000000E-01  1.50000000E+00  8.00000000E-01  8.00000000E-01
  1.50000000E+00  8.00000000E-01  8.00000000E-01  1.50000000E+00  8.00000000E-01
  8.00000000E-01  1.50000000E+00  8.00000000E-01  8.00000000E-01  1.50000000E+00
  8.00000000E-01  8.00000000E-01  1.50000000E+00  8.00000000E-01  8.00000000E-01
  1.50000000E+00  8.00000000E-01  8.00000000E-01  1.50000000E+00  8.00000000E-01
  8.00000000E-01  1.50000000E+00  8.00000000E-01  8.00000000E-01  1.50000000E+00
  8.00000000E-01  8.00000000E-01  1.50000000E+00  8.00000000E-01  8.00000000E-01
  1.50000000E+00  8.00000000E-01  8.00000000E-01  1.50000000E+00  8.00000000E-01
  8.00000000E-01  1.50000000E+00  8.00000000E-01  8.00000000E-01  1.50000000E+00
  8.00000000E-01  8.00000000E-01  1.50000000E+00  8.00000000E-01  8.00000000E-01
  1.50000000E+00  8.00000000E-01  8.00000000E-01  1.50000000E+00  8.00000000E-01
  8.00000000E-01  1.50000000E+00  8.00000000E-01  8.00000000E-01  1.50000000E+00
  8.00000000E-01  8.00000000E-01  1.50000000E+00  8.00000000E-01  8.00000000E-01
  1.50000000E+00  8.00000000E-01  8.00000000E-01  1.50000000E+00  8.00000000E-01
  8.00000000E-01  1.50000000E+00  8.00000000E-01  8.00000000E-01  1.50000000E+00
  8.00000000E-01  8.00000000E-01  1.50000000E+00  8.00000000E-01  8.00000000E-01
  1.50000000E+00  8.00000000E-01  8.00000000E-01  1.50000000E+00  8.00000000E-01
  8.00000000E-01  1.50000000E+00  8.00000000E-01  8.00000000E-01  1.50000000E+00
  8.00000000E-01  8.00000000E-01  1.50000000E+00  8.00000000E-01  8.00000000E-01
  1.50000000E+00  8.00000000E-01  8.00000000E-01  1.50000000E+00  8.00000000E-01
  8.00000000E-01  1.50000000E+00  8.00000000E-01  8.00000000E-01  1.50000000E+00
  8.00000000E-01  8.00000000E-01  1.50000000E+00  8.00000000E-01  8.00000000E-01
  1.50000000E+00  8.00000000E-01  8.00000000E-01  1.50000000E+00  8.00000000E-01
  8.00000000E-01  1.50000000E+00  8.00000000E-01  8.00000000E-01  1.50000000E+00
  8.00000000E-01  8.00000000E-01  1.50000000E+00  8.00000000E-01  8.00000000E-01
  1.50000000E+00  8.00000000E-01  8.00000000E-01  1.50000000E+00  8.00000000E-01
  8.00000000E-01  1.50000000E+00  8.00000000E-01  8.00000000E-01  1.50000000E+00
  8.00000000E-01  8.00000000E-01  1.50000000E+00  8.00000000E-01  8.00000000E-01
  1.50000000E+00  8.00000000E-01  8.00000000E-01  1.50000000E+00  8.00000000E-01
  8.00000000E-01  1.50000000E+00  8.00000000E-01  8.00000000E-01  1.50000000E+00
  8.00000000E-01  8.00000000E-01  1.50000000E+00  8.00000000E-01  8.00000000E-01
  1.50000000E+00  8.00000000E-01  8.00000000E-01  1.50000000E+00  8.00000000E-01
  8.00000000E-01  1.50000000E+00  8.00000000E-01  8.00000000E-01  1.50000000E+00
  8.00000000E-01  8.00000000E-01  1.50000000E+00  8.00000000E-01  8.00000000E-01
  1.50000000E+00  8.00000000E-01  8.00000000E-01  1.50000000E+00  8.00000000E-01
  8.00000000E-01  1.50000000E+00  8.00000000E-01  8.00000000E-01  1.50000000E+00
  8.00000000E-01  8.00000000E-01  1.50000000E+00  8.00000000E-01  8.00000000E-01
  1.50000000E+00  8.00000000E-01  8.00000000E-01  1.50000000E+00  8.00000000E-01
  8.00000000E-01  1.50000000E+00  8.00000000E-01  8.00000000E-01  1.50000000E+00
  8.00000000E-01  8.00000000E-01  1.50000000E+00  8.00000000E-01  8.00000000E-01
  1.50000000E+00  8.00000000E-01  8.00000000E-01  1.50000000E+00  8.00000000E-01
  8.00000000E-01  1.50000000E+00  8.00000000E-01  8.00000000E-01  1.50000000E+00
  8.00000000E-01  8.00000000E-01  1.50000000E+00  8.00000000E-01  8.00000000E-01
  1.50000000E+00  8.00000000E-01  8.00000000E-01  1.50000000E+00  8.00000000E-01
  8.00000000E-01  1.50000000E+00  8.00000000E-01  8.00000000E-01  1.50000000E+00
  8.00000000E-01  8.00000000E-01  1.50000000E+00  8.00000000E-01  8.00000000E-01
  1.50000000E+00  8.00000000E-01  8.00000000E-01  1.50000000E+00  8.00000000E-01
  8.00000000E-01  1.50000000E+00  8.00000000E-01  8.00000000E-01  1.50000000E+00
  8.00000000E-01  8.00000000E-01  1.50000000E+00  8.00000000E-01  8.00000000E-01
  1.50000000E+00  8.00000000E-01  8.00000000E-01  1.50000000E+00  8.00000000E-01
  8.00000000E-01  1.50000000E+00  8.00000000E-01  8.00000000E-01  1.50000000E+00
  8.00000000E-01  8.00000000E-01  1.50000000E+00  8.00000000E-01  8.00000000E-01
  1.50000000E+00  8.00000000E-01  8.00000000E-01  1.50000000E+00  8.00000000E-01
  8.00000000E-01  1.50000000E+00  8.00000000E-01  8.00000000E-01  1.50000000E+00
  8.00000000E-01  8.00000000E-01  1.50000000E+00  8.00000000E-01  8.00000000E-01
  1.50000000E+00  8.00000000E-01  8.00000000E-01  1.50000000E+00  8.00000000E-01
  8.00000000E-01  1.50000000E+00  8.00000000E-01  8.00000000E-01  1.50000000E+00
  8.00000000E-01  8.00000000E-01  1.50000000E+00  8.00000000E-01  8.00000000E-01
  1.50000000E+00  8.00000000E-01  8.00000000E-01  1.50000000E+00  8.00000000E-01
  8.00000000E-01  1.50000000E+00  8.00000000E-01  8.00000000E-01  1.50000000E+00
  8.00000000E-01  8.00000000E-01  1.50000000E+00  8.00000000E-01  8.00000000E-01
  1.50000000E+00  8.00000000E-01  8.00000000E-01  1.50000000E+00  8.00000000E-01
  8.00000000E-01  1.50000000E+00  8.00000000E-01  8.00000000E-01  1.50000000E+00
  8.00000000E-01  8.00000000E-01  1.50000000E+00  8.00000000E-01  8.00000000E-01
  1.50000000E+00  8.00000000E-01  8.00000000E-01  1.50000000E+00  8.00000000E-01
  8.00000000E-01  1.50000000E+00  8.00000000E-01  8.00000000E-01  1.50000000E+00
  8.00000000E-01  8.00000000E-01  1.50000000E+00  8.00000000E-01  8.00000000E-01
  1.50000000E+00  8.00000000E-01  8.00000000E-01  1.50000000E+00  8.00000000E-01
  8.00000000E-01  1.50000000E+00  8.00000000E-01  8.00000000E-01  1.50000000E+00
  8.00000000E-01  8.00000000E-01  1.50000000E+00  8.00000000E-01  8.00000000E-01
  1.50000000E+00  8.00000000E-01  8.00000000E-01  1.50000000E+00  8.00000000E-01
  8.00000000E-01  1.50000000E+00  8.00000000E-01  8.00000000E-01  1.50000000E+00
  8.00000000E-01  8.00000000E-01  1.50000000E+00  8.00000000E-01  8.00000000E-01
  1.50000000E+00  8.00000000E-01  8.00000000E-01  1.50000000E+00  8.00000000E-01
  8.00000000E-01  1.50000000E+00  8.00000000E-01  8.00000000E-01  1.50000000E+00
  8.00000000E-01  8.00000000E-01  1.50000000E+00  8.00000000E-01  8.00000000E-01
  1.50000000E+00  8.00000000E-01  8.00000000E-01  1.50000000E+00  8.00000000E-01
  8.00000000E-01  1.50000000E+00  8.00000000E-01  8.00000000E-01  1.50000000E+00
  8.00000000E-01  8.00000000E-01  1.50000000E+00  8.00000000E-01  8.00000000E-01
  1.50000000E+00  8.00000000E-01  8.00000000E-01  1.50000000E+00  8.00000000E-01
  8.00000000E-01  1.50000000E+00  8.00000000E-01  8.00000000E-01  1.50000000E+00
  8.00000000E-01  8.00000000E-01  1.50000000E+00  8.00000000E-01  8.00000000E-01
  1.50000000E+00  8.00000000E-01  8.00000000E-01  1.50000000E+00  8.00000000E-01
  8.00000000E-01  1.50000000E+00  8.00000000E-01  8.00000000E-01  1.50000000E+00
  8.00000000E-01  8.00000000E-01  1.50000000E+00  8.00000000E-01  8.00000000E-01
  1.50000000E+00  8.00000000E-01  8.00000000E-01  1.50000000E+00  8.00000000E-01
  8.00000000E-01  1.50000000E+00  8.00000000E-01  8.00000000E-01  1.50000000E+00
  8.00000000E-01  8.00000000E-01  1.50000000E+00  8.00000000E-01  8.00000000E-01
  1.50000000E+00  8.00000000E-01  8.00000000E-01  1.50000000E+00  8.00000000E-01
  8.00000000E-01  1.50000000E+00  8.00000000E-01  8.00000000E-01  1.50000000E+00
  8.00000000E-01  8.00000000E-01  1.50000000E+00  8.00000000E-01  8.00000000E-01
  1.50000000E+00  8.00000000E-01  8.00000000E-01  1.50000000E+00  8.00000000E-01
  8.00000000E-01  1.50000000E+00  8.00000000E-01  8.00000000E-01  1.50000000E+00
  8.00000000E-01  8.00000000E-01  1.50000000E+00  8.00000000E-01  8.00000000E-01
  1.50000000E+00  8.00000000E-01  8.00000000E-01  1.50000000E+00  8.00000000E-01
  8.00000000E-01  1.50000000E+00  8.00000000E-01  8.00000000E-01  1.50000000E+00
  8.00000000E-01  8.00000000E-01  1.50000000E+00  8.00000000E-01  8.00000000E-01
  1.50000000E+00  8.00000000E-01  8.00000000E-01  1.50000000E+00  8.00000000E-01
  8.00000000E-01  1.50000000E+00  8.00000000E-01  8.00000000E-01  1.50000000E+00
  8.00000000E-01  8.00000000E-01  1.50000000E+00  8.00000000E-01  8.00000000E-01
  1.50000000E+00  8.00000000E-01  8.00000000E-01  1.50000000E+00  8.00000000E-01
  8.00000000E-01  1.50000000E+00  8.00000000E-01  8.00000000E-01  1.50000000E+00
  8.00000000E-01  8.00000000E-01  1.50000000E+00  8.00000000E-01  8.00000000E-01
  1.50000000E+00  8.00000000E-01  8.00000000E-01  1.50000000E+00  8.00000000E-01
  8.00000000E-01  1.50000000E+00  8.00000000E-01  8.00000000E-01  1.50000000E+00
  8.00000000E-01  8.00000000E-01  1.50000000E+00  8.00000000E-01  8.00000000E-01
  1.50000000E+00  8.00000000E-01  8.00000000E-01  1.50000000E+00  8.00000000E-01
  8.00000000E-01  1.50000000E+00  8.00000000E-01  8.00000000E-01  1.50000000E+00
  8.00000000E-01  8.00000000E-01  1.50000000E+00  8.00000000E-01  8.00000000E-01
  1.50000000E+00  8.00000000E-01  8.00000000E-01  1.50000000E+00  8.00000000E-01
  8.00000000E-01  1.50000000E+00  8.00000000E-01  8.00000000E-01  1.50000000E+00
  8.00000000E-01  8.00000000E-01  1.50000000E+00  8.00000000E-01  8.00000000E-01
  1.50000000E+00  8.00000000E-01  8.00000000E-01  1.50000000E+00  8.00000000E-01
  8.00000000E-01  1.50000000E+00  8.00000000E-01  8.00000000E-01  1.50000000E+00
  8.00000000E-01  8.00000000E-01  1.50000000E+00  8.00000000E-01  8.00000000E-01
  1.50000000E+00  8.00000000E-01  8.00000000E-01  1.50000000E+00  8.00000000E-01
  8.00000000E-01  1.50000000E+00  8.00000000E-01  8.00000000E-01  1.50000000E+00
  8.00000000E-01  8.00000000E-01  1.50000000E+00  8.00000000E-01  8.00000000E-01
  1.50000000E+00  8.00000000E-01  8.00000000E-01  1.50000000E+00  8.00000000E-01
  8.00000000E-01  1.50000000E+00  8.00000000E-01  8.00000000E-01  1.50000000E+00
  8.00000000E-01  8.00000000E-01  1.50000000E+00  8.00000000E-01  8.00000000E-01
  1.50000000E+00  8.00000000E-01  8.00000000E-01  1.50000000E+00  8.00000000E-01
  8.00000000E-01  1.50000000E+00  8.00000000E-01  8.00000000E-01  1.50000000E+00
  8.00000000E-01  8.00000000E-01  1.50000000E+00  8.00000000E-01  8.00000000E-01
  1.50000000E+00  8.00000000E-01  8.00000000E-01  1.50000000E+00  8.00000000E-01
  8.00000000E-01  1.50000000E+00  8.00000000E-01  8.00000000E-01  1.50000000E+00
  8.00000000E-01  8.00000000E-01  1.50000000E+00  8.00000000E-01  8.00000000E-01
  1.50000000E+00  8.00000000E-01  8.00000000E-01  1.50000000E+00  8.00000000E-01
  8.00000000E-01  1.50000000E+00  8.00000000E-01  8.00000000E-01  1.50000000E+00
  8.00000000E-01  8.00000000E-01  1.50000000E+00  8.00000000E-01  8.00000000E-01
  1.50000000E+00  8.00000000E-01  8.00000000E-01  1.50000000E+00  8.00000000E-01
  8.00000000E-01  1.50000000E+00  8.00000000E-01  8.00000000E-01  1.50000000E+00
  8.00000000E-01  8.00000000E-01  1.50000000E+00  8.00000000E-01  8.00000000E-01
  1.50000000E+00  8.00000000E-01  8.00000000E-01  1.50000000E+00  8.00000000E-01
  8.00000000E-01  1.50000000E+00  8.00000000E-01  8.00000000E-01  1.50000000E+00
  8.00000000E-01  8.00000000E-01  1.50000000E+00  8.00000000E-01  8.00000000E-01
  1.50000000E+00  8.00000000E-01  8.00000000E-01  1.50000000E+00  8.00000000E-01
  8.00000000E-01  1.50000000E+00  8.00000000E-01  8.00000000E-01  1.50000000E+00
  8.00000000E-01  8.00000000E-01  1.50000000E+00  8.00000000E-01  8.00000000E-01
  1.50000000E+00  8.00000000E-01  8.00000000E-01  1.50000000E+00  8.00000000E-01
  8.00000000E-01  1.50000000E+00  8.00000000E-01  8.00000000E-01  1.50000000E+00
  8.00000000E-01  8.00000000E-01  1.50000000E+00  8.00000000E-01  8.00000000E-01
  1.50000000E+00  8.00000000E-01  8.00000000E-01  1.50000000E+00  8.00000000E-01
  8.00000000E-01  1.50000000E+00  8.00000000E-01  8.00000000E-01  1.50000000E+00
  8.00000000E-01  8.00000000E-01  1.50000000E+00  8.00000000E-01  8.00000000E-01
  1.50000000E+00  8.00000000E-01  8.00000000E-01  1.50000000E+00  8.00000000E-01
  8.00000000E-01  1.50000000E+00  8.00000000E-01  8.00000000E-01  1.50000000E+00
  8.00000000E-01  8.00000000E-01  1.50000000E+00  8.00000000E-01  8.00000000E-01
  1.50000000E+00  8.00000000E-01  8.00000000E-01  1.50000000E+00  8.00000000E-01
  8.00000000E-01  1.50000000E+00  8.00000000E-01  8.00000000E-01  1.50000000E+00
  8.00000000E-01  8.00000000E-01  1.50000000E+00  8.00000000E-01  8.00000000E-01
  1.50000000E+00  8.00000000E-01  8.00000000E-01  1.50000000E+00  8.00000000E-01
  8.00000000E-01  1.50000000E+00  8.00000000E-01  8.00000000E-01  1.50000000E+00
  8.00000000E-01  8.00000000E-01  1.50000000E+00  8.00000000E-01  8.00000000E-01
  1.50000000E+00  8.00000000E-01  8.00000000E-01  1.50000000E+00  8.00000000E-01
  8.00000000E-01  1.50000000E+00  8.00000000E-01  8.00000000E-01  1.50000000E+00
  8.00000000E-01  8.00000000E-01  1.50000000E+00  8.00000000E-01  8.00000000E-01
  1.50000000E+00  8.00000000E-01  8.00000000E-01  1.50000000E+00  8.00000000E-01
  8.00000000E-01  1.50000000E+00  8.00000000E-01  8.00000000E-01  1.50000000E+00
  8.00000000E-01  8.00000000E-01  1.50000000E+00  8.00000000E-01  8.00000000E-01
  1.50000000E+00  8.00000000E-01  8.00000000E-01  1.50000000E+00  8.00000000E-01
  8.00000000E-01  1.50000000E+00  8.00000000E-01  8.00000000E-01  1.50000000E+00
  8.00000000E-01  8.00000000E-01  1.50000000E+00  8.00000000E-01  8.00000000E-01
  1.50000000E+00  8.00000000E-01  8.00000000E-01  1.50000000E+00  8.00000000E-01
  8.00000000E-01  1.50000000E+00  8.00000000E-01  8.00000000E-01  1.50000000E+00
  8.00000000E-01  8.00000000E-01  1.50000000E+00  8.00000000E-01  8.00000000E-01
  1.50000000E+00  8.00000000E-01  8.00000000E-01  1.50000000E+00  8.00000000E-01
  8.00000000E-01  1.50000000E+00  8.00000000E-01  8.00000000E-01  1.50000000E+00
  8.00000000E-01  8.00000000E-01  1.50000000E+00  8.00000000E-01  8.00000000E-01
  1.50000000E+00  8.00000000E-01  8.00000000E-01  1.50000000E+00  8.00000000E-01
  8.00000000E-01  1.50000000E+00  8.00000000E-01  8.00000000E-01  1.50000000E+00
  8.00000000E-01  8.00000000E-01  1.50000000E+00  8.00000000E-01  8.00000000E-01
  1.50000000E+00  8.00000000E-01  8.00000000E-01  1.50000000E+00  8.00000000E-01
  8.00000000E-01  1.50000000E+00  8.00000000E-01  8.00000000E-01  1.50000000E+00
  8.00000000E-01  8.00000000E-01  1.50000000E+00  8.00000000E-01  8.00000000E-01
  1.50000000E+00  8.00000000E-01  8.00000000E-01  1.50000000E+00  8.00000000E-01
  8.00000000E-01  1.50000000E+00  8.00000000E-01  8.00000000E-01  1.50000000E+00
  8.00000000E-01  8.00000000E-01  1.50000000E+00  8.00000000E-01  8.00000000E-01
  1.50000000E+00  8.00000000E-01  8.00000000E-01  1.50000000E+00  8.00000000E-01
  8.00000000E-01  1.50000000E+00  8.00000000E-01  8.00000000E-01  1.50000000E+00
  8.00000000E-01  8.00000000E-01  1.50000000E+00  8.00000000E-01  8.00000000E-01
  1.50000000E+00  8.00000000E-01  8.00000000E-01  1.50000000E+00  8.00000000E-01
  8.00000000E-01  1.50000000E+00  8.00000000E-01  8.00000000E-01  1.50000000E+00
  8.00000000E-01  8.00000000E-01  1.50000000E+00  8.00000000E-01  8.00000000E-01
  1.50000000E+00  8.00000000E-01  8.00000000E-01  1.50000000E+00  8.00000000E-01
  8.00000000E-01  1.50000000E+00  8.00000000E-01  8.00000000E-01  1.50000000E+00
  8.00000000E-01  8.00000000E-01  1.50000000E+00  8.00000000E-01  8.00000000E-01
  1.50000000E+00  8.00000000E-01  8.00000000E-01  1.50000000E+00  8.00000000E-01
  8.00000000E-01  1.50000000E+00  8.00000000E-01  8.00000000E-01  1.50000000E+00
  8.00000000E-01  8.00000000E-01  1.50000000E+00  8.00000000E-01  8.00000000E-01
  1.50000000E+00  8.00000000E-01  8.00000000E-01  1.50000000E+00  8.00000000E-01
  8.00000000E-01  1.50000000E+00  8.00000000E-01  8.00000000E-01  1.50000000E+00
  8.00000000E-01  8.00000000E-01  1.50000000E+00  8.00000000E-01  8.00000000E-01
  1.50000000E+00  8.00000000E-01  8.00000000E-01  1.50000000E+00  8.00000000E-01
  8.00000000E-01  1.50000000E+00  8.00000000E-01  8.00000000E-01  1.50000000E+00
  8.00000000E-01  8.00000000E-01  1.50000000E+00  8.00000000E-01  8.00000000E-01
  1.50000000E+00  8.00000000E-01  8.00000000E-01  1.50000000E+00  8.00000000E-01
  8.00000000E-01  1.50000000E+00  8.00000000E-01  8.00000000E-01  1.50000000E+00
  8.00000000E-01  8.00000000E-01  1.50000000E+00  8.00000000E-01  8.00000000E-01
  1.50000000E+00  8.00000000E-01  8.00000000E-01  1.50000000E+00  8.00000000E-01
  8.00000000E-01  1.50000000E+00  8.00000000E-01  8.00000000E-01  1.50000000E+00
  8.00000000E-01  8.00000000E-01  1.50000000E+00  8.00000000E-01  8.00000000E-01
  1.50000000E+00  8.00000000E-01  8.00000000E-01  1.50000000E+00  8.00000000E-01
  8.00000000E-01  1.50000000E+00  8.00000000E-01  8.00000000E-01  1.50000000E+00
  8.00000000E-01  8.00000000E-01  1.50000000E+00  8.00000000E-01  8.00000000E-01
  1.50000000E+00  8.00000000E-01  8.00000000E-01  1.50000000E+00  8.00000000E-01
  8.00000000E-01  1.50000000E+00  8.00000000E-01  8.00000000E-01  1.50000000E+00
  8.00000000E-01  8.00000000E-01  1.50000000E+00  8.00000000E-01  8.00000000E-01
  1.50000000E+00  8.00000000E-01  8.00000000E-01  1.50000000E+00  8.00000000E-01
  8.00000000E-01  1.50000000E+00  8.00000000E-01  8.00000000E-01  1.50000000E+00
  8.00000000E-01  8.00000000E-01  1.50000000E+00  8.00000000E-01  8.00000000E-01
  1.50000000E+00  8.00000000E-01  8.00000000E-01  1.50000000E+00  8.00000000E-01
  8.00000000E-01  1.50000000E+00  8.00000000E-01  8.00000000E-01  1.50000000E+00
  8.00000000E-01  8.00000000E-01  1.50000000E+00  8.00000000E-01  8.00000000E-01
  1.50000000E+00  8.00000000E-01  8.00000000E-01  1.50000000E+00  8.00000000E-01
  8.00000000E-01  1.50000000E+00  8.00000000E-01  8.00000000E-01  1.50000000E+00
  8.00000000E-01  8.00000000E-01  1.50000000E+00  8.00000000E-01  8.00000000E-01
  1.50000000E+00  8.00000000E-01  8.00000000E-01  1.50000000E+00  8.00000000E-01
  8.00000000E-01  1.50000000E+00  8.00000000E-01  8.00000000E-01  1.50000000E+00
  8.00000000E-01  8.00000000E-01  1.50000000E+00  8.00000000E-01  8.00000000E-01
  1.50000000E+00  8.00000000E-01  8.00000000E-01  1.50000000E+00  8.00000000E-01
  8.00000000E-01  1.50000000E+00  8.00000000E-01  8.00000000E-01  1.50000000E+00
  8.00000000E-01  8.00000000E-01  1.50000000E+00  8.00000000E-01  8.00000000E-01
  1.50000000E+00  8.00000000E-01  8.00000000E-01  1.50000000E+00  8.00000000E-01
  8.00000000E-01  1.50000000E+00  8.00000000E-01  8.00000000E-01  1.50000000E+00
  8.00000000E-01  8.00000000E-01  1.50000000E+00  8.00000000E-01  8.00000000E-01
  1.50000000E+00  8.00000000E-01  8.00000000E-01  1.50000000E+00  8.00000000E-01
  8.00000000E-01  1.50000000E+00  8.00000000E-01  8.00000000E-01  1.50000000E+00
  8.00000000E-01  8.00000000E-01  1.50000000E+00  8.00000000E-01  8.00000000E-01
  1.50000000E+00  8.00000000E-01  8.00000000E-01  1.50000000E+00  8.00000000E-01
  8.00000000E-01  1.50000000E+00  8.00000000E-01  8.00000000E-01  1.50000000E+00
  8.00000000E-01  8.00000000E-01  1.50000000E+00  8.00000000E-01  8.00000000E-01
  1.50000000E+00  8.00000000E-01  8.00000000E-01  1.50000000E+00  8.00000000E-01
  8.00000000E-01  1.50000000E+00  8.00000000E-01  8.00000000E-01  1.50000000E+00
  8.00000000E-01  8.00000000E-01  1.50000000E+00  8.00000000E-01  8.00000000E-01
  1.50000000E+00  8.00000000E-01  8.00000000E-01  1.50000000E+00  8.00000000E-01
  8.00000000E-01  1.50000000E+00  8.00000000E-01  8.00000000E-01  1.50000000E+00
  8.00000000E-01  8.00000000E-01  1.50000000E+00  8.00000000E-01  8.00000000E-01
  1.50000000E+00  8.00000000E-01  8.00000000E-01  1.50000000E+00  8.00000000E-01
  8.00000000E-01  1.50000000E+00  8.00000000E-01  8.00000000E-01  1.50000000E+00
  8.00000000E-01  8.00000000E-01  1.50000000E+00  8.00000000E-01  8.00000000E-01
  1.50000000E+00  8.00000000E-01  8.00000000E-01  1.50000000E+00  8.00000000E-01
  8.00000000E-01  1.50000000E+00  8.00000000E-01  8.00000000E-01  1.50000000E+00
  8.00000000E-01  8.00000000E-01  1.50000000E+00  8.00000000E-01  8.00000000E-01
  1.50000000E+00  8.00000000E-01  8.00000000E-01  1.50000000E+00  8.00000000E-01
  8.00000000E-01  1.50000000E+00  8.00000000E-01  8.00000000E-01  1.50000000E+00
  8.00000000E-01  8.00000000E-01  1.50000000E+00  8.00000000E-01  8.00000000E-01
  1.50000000E+00  8.00000000E-01  8.00000000E-01  1.50000000E+00  8.00000000E-01
  8.00000000E-01  1.50000000E+00  8.00000000E-01  8.00000000E-01  1.50000000E+00
  8.00000000E-01  8.00000000E-01  1.50000000E+00  8.00000000E-01  8.00000000E-01
  1.50000000E+00  8.00000000E-01  8.00000000E-01  1.50000000E+00  8.00000000E-01
  8.00000000E-01  1.50000000E+00  8.00000000E-01  8.00000000E-01  1.50000000E+00
  8.00000000E-01  8.00000000E-01  1.50000000E+00  8.00000000E-01  8.00000000E-01
  1.50000000E+00  8.00000000E-01  8.00000000E-01  1.50000000E+00  8.00000000E-01
  8.00000000E-01  1.50000000E+00  8.00000000E-01  8.00000000E-01  1.50000000E+00
  8.00000000E-01  8.00000000E-01  1.50000000E+00  8.00000000E-01  8.00000000E-01
  1.50000000E+00  8.00000000E-01  8.00000000E-01  1.50000000E+00  8.00000000E-01
  8.00000000E-01  1.50000000E+00  8.00000000E-01  8.00000000E-01  1.50000000E+00
  8.00000000E-01  8.00000000E-01  1.50000000E+00  8.00000000E-01  8.00000000E-01
  1.50000000E+00  8.00000000E-01  8.00000000E-01  1.50000000E+00  8.00000000E-01
  8.00000000E-01  1.50000000E+00  8.00000000E-01  8.00000000E-01  1.50000000E+00
  8.00000000E-01  8.00000000E-01  1.50000000E+00  8.00000000E-01  8.00000000E-01
  1.50000000E+00  8.00000000E-01  8.00000000E-01  1.50000000E+00  8.00000000E-01
  8.00000000E-01  1.50000000E+00  8.00000000E-01  8.00000000E-01  1.50000000E+00
  8.00000000E-01  8.00000000E-01  1.50000000E+00  8.00000000E-01  8.00000000E-01
  1.50000000E+00  8.00000000E-01  8.00000000E-01  1.50000000E+00  8.00000000E-01
  8.00000000E-01  1.50000000E+00  8.00000000E-01  8.00000000E-01  1.50000000E+00
  8.00000000E-01  8.00000000E-01  1.50000000E+00  8.00000000E-01  8.00000000E-01
  1.50000000E+00  8.00000000E-01  8.00000000E-01  1.50000000E+00  8.00000000E-01
  8.00000000E-01  1.50000000E+00  8.00000000E-01  8.00000000E-01  1.50000000E+00
  8.00000000E-01  8.00000000E-01  1.50000000E+00  8.00000000E-01  8.00000000E-01
  1.50000000E+00  8.00000000E-01  8.00000000E-01  1.50000000E+00  8.00000000E-01
  8.00000000E-01  1.50000000E+00  8.00000000E-01  8.00000000E-01  1.50000000E+00
  8.00000000E-01  8.00000000E-01  1.50000000E+00  8.00000000E-01  8.00000000E-01
  1.50000000E+00  8.00000000E-01  8.00000000E-01  1.50000000E+00  8.00000000E-01
  8.00000000E-01  1.50000000E+00  8.00000000E-01  8.00000000E-01  1.50000000E+00
  8.00000000E-01  8.00000000E-01  1.50000000E+00  8.00000000E-01  8.00000000E-01
  1.50000000E+00  8.00000000E-01  8.00000000E-01  1.50000000E+00  8.00000000E-01
  8.00000000E-01  1.50000000E+00  8.00000000E-01  8.00000000E-01  1.50000000E+00
  8.00000000E-01  8.00000000E-01  1.50000000E+00  8.00000000E-01  8.00000000E-01
  1.50000000E+00  8.00000000E-01  8.00000000E-01  1.50000000E+00  8.00000000E-01
  8.00000000E-01  1.50000000E+00  8.00000000E-01  8.00000000E-01  1.50000000E+00
  8.00000000E-01  8.00000000E-01  1.50000000E+00  8.00000000E-01  8.00000000E-01
  1.50000000E+00  8.00000000E-01  8.00000000E-01  1.50000000E+00  8.00000000E-01
  8.00000000E-01  1.50000000E+00  8.00000000E-01  8.00000000E-01  1.50000000E+00
  8.00000000E-01  8.00000000E-01  1.50000000E+00  8.00000000E-01  8.00000000E-01
  1.50000000E+00  8.00000000E-01  8.00000000E-01  1.50000000E+00  8.00000000E-01
  8.00000000E-01  1.50000000E+00  8.00000000E-01  8.00000000E-01  1.50000000E+00
  8.00000000E-01  8.00000000E-01  1.50000000E+00  8.00000000E-01  8.00000000E-01
  1.50000000E+00  8.00000000E-01  8.00000000E-01  1.50000000E+00  8.00000000E-01
  8.00000000E-01  1.50000000E+00  8.00000000E-01  8.00000000E-01  1.50000000E+00
  8.00000000E-01  8.00000000E-01  1.50000000E+00  8.00000000E-01  8.00000000E-01
  1.50000000E+00  8.00000000E-01  8.00000000E-01  1.50000000E+00  8.00000000E-01
  8.00000000E-01  1.50000000E+00  8.00000000E-01  8.00000000E-01  1.50000000E+00
  8.00000000E-01  8.00000000E-01  1.50000000E+00  8.00000000E-01  8.00000000E-01
  1.50000000E+00  8.00000000E-01  8.00000000E-01  1.50000000E+00  8.00000000E-01
  8.00000000E-01  1.50000000E+00  8.00000000E-01  8.00000000E-01  1.50000000E+00
  8.00000000E-01  8.00000000E-01  1.50000000E+00  8.00000000E-01  8.00000000E-01
  1.50000000E+00  8.00000000E-01  8.00000000E-01  1.50000000E+00  8.00000000E-01
  8.00000000E-01  1.50000000E+00  8.00000000E-01  8.00000000E-01  1.50000000E+00
  8.00000000E-01  8.00000000E-01  1.50000000E+00  8.00000000E-01  8.00000000E-01
  1.50000000E+00  8.00000000E-01  8.00000000E-01  1.50000000E+00  8.00000000E-01
  8.00000000E-01  1.50000000E+00  8.00000000E-01  8.00000000E-01  1.50000000E+00
  8.00000000E-01  8.00000000E-01  1.50000000E+00  8.00000000E-01  8.00000000E-01
  1.50000000E+00  8.00000000E-01  8.00000000E-01  1.50000000E+00  8.00000000E-01
  8.00000000E-01  1.50000000E+00  8.00000000E-01  8.00000000E-01  1.50000000E+00
  8.00000000E-01  8.00000000E-01  1.50000000E+00  8.00000000E-01  8.00000000E-01
  1.50000000E+00  8.00000000E-01  8.00000000E-01  1.50000000E+00  8.00000000E-01
  8.00000000E-01  1.50000000E+00  8.00000000E-01  8.00000000E-01  1.50000000E+00
  8.00000000E-01  8.00000000E-01  1.50000000E+00  8.00000000E-01  8.00000000E-01
  1.50000000E+00  8.00000000E-01  8.00000000E-01  1.50000000E+00  8.00000000E-01
  8.00000000E-01  1.50000000E+00  8.00000000E-01  8.00000000E-01  1.50000000E+00
  8.00000000E-01  8.00000000E-01  1.50000000E+00  8.00000000E-01  8.00000000E-01
  1.50000000E+00  8.00000000E-01  8.00000000E-01  1.50000000E+00  8.00000000E-01
  8.00000000E-01  1.50000000E+00  8.00000000E-01  8.00000000E-01  1.50000000E+00
  8.00000000E-01  8.00000000E-01  1.50000000E+00  8.00000000E-01  8.00000000E-01
  1.50000000E+00  8.00000000E-01  8.00000000E-01  1.50000000E+00  8.00000000E-01
  8.00000000E-01  1.50000000E+00  8.00000000E-01  8.00000000E-01  1.50000000E+00
  8.00000000E-01  8.00000000E-01  1.50000000E+00  8.00000000E-01  8.00000000E-01
  1.50000000E+00  8.00000000E-01  8.00000000E-01  1.50000000E+00  8.00000000E-01
  8.00000000E-01  1.50000000E+00  8.00000000E-01  8.00000000E-01  1.50000000E+00
  8.00000000E-01  8.00000000E-01  1.50000000E+00  8.00000000E-01  8.00000000E-01
  1.50000000E+00  8.00000000E-01  8.00000000E-01  1.50000000E+00  8.00000000E-01
  8.00000000E-01  1.50000000E+00  8.00000000E-01  8.00000000E-01  1.50000000E+00
  8.00000000E-01  8.00000000E-01  1.50000000E+00  8.00000000E-01  8.00000000E-01
  1.50000000E+00  8.00000000E-01  8.00000000E-01  1.50000000E+00  8.00000000E-01
  8.00000000E-01  1.50000000E+00  8.00000000E-01  8.00000000E-01  1.50000000E+00
  8.00000000E-01  8.00000000E-01  1.50000000E+00  8.00000000E-01  8.00000000E-01
  1.50000000E+00  8.00000000E-01  8.00000000E-01  1.50000000E+00  8.00000000E-01
  8.00000000E-01  1.50000000E+00  8.00000000E-01  8.00000000E-01  1.50000000E+00
  8.00000000E-01  8.00000000E-01  1.50000000E+00  8.00000000E-01  8.00000000E-01
  1.50000000E+00  8.00000000E-01  8.00000000E-01  1.50000000E+00  8.00000000E-01
  8.00000000E-01  1.50000000E+00  8.00000000E-01  8.00000000E-01  1.50000000E+00
  8.00000000E-01  8.00000000E-01  1.50000000E+00  8.00000000E-01  8.00000000E-01
  1.50000000E+00  8.00000000E-01  8.00000000E-01  1.50000000E+00  8.00000000E-01
  8.00000000E-01  1.50000000E+00  8.00000000E-01  8.00000000E-01  1.50000000E+00
  8.00000000E-01  8.00000000E-01  1.50000000E+00  8.00000000E-01  8.00000000E-01
  1.50000000E+00  8.00000000E-01  8.00000000E-01  1.50000000E+00  8.00000000E-01
  8.00000000E-01  1.50000000E+00  8.00000000E-01  8.00000000E-01  1.50000000E+00
  8.00000000E-01  8.00000000E-01  1.50000000E+00  8.00000000E-01  8.00000000E-01
  1.50000000E+00  8.00000000E-01  8.00000000E-01  1.50000000E+00  8.00000000E-01
  8.00000000E-01  1.50000000E+00  8.00000000E-01  8.00000000E-01  1.50000000E+00
  8.00000000E-01  8.00000000E-01  1.50000000E+00  8.00000000E-01  8.00000000E-01
  1.50000000E+00  8.00000000E-01  8.00000000E-01  1.50000000E+00  8.00000000E-01
  8.00000000E-01  1.50000000E+00  8.00000000E-01  8.00000000E-01  1.50000000E+00
  8.00000000E-01  8.00000000E-01  1.50000000E+00  8.00000000E-01  8.00000000E-01
  1.50000000E+00  8.00000000E-01  8.00000000E-01  1.50000000E+00  8.00000000E-01
  8.00000000E-01  1.50000000E+00  8.00000000E-01  8.00000000E-01  1.50000000E+00
  8.00000000E-01  8.00000000E-01  1.50000000E+00  8.00000000E-01  8.00000000E-01
  1.50000000E+00  8.00000000E-01  8.00000000E-01  1.50000000E+00  8.00000000E-01
  8.00000000E-01  1.50000000E+00  8.00000000E-01  8.00000000E-01  1.50000000E+00
  8.00000000E-01  8.00000000E-01  1.50000000E+00  8.00000000E-01  8.00000000E-01
  1.50000000E+00  8.00000000E-01  8.00000000E-01  1.50000000E+00  8.00000000E-01
  8.00000000E-01  1.50000000E+00  8.00000000E-01  8.00000000E-01  1.50000000E+00
  8.00000000E-01  8.00000000E-01  1.50000000E+00  8.00000000E-01  8.00000000E-01
  1.50000000E+00  8.00000000E-01  8.00000000E-01  1.50000000E+00  8.00000000E-01
  8.00000000E-01  1.50000000E+00  8.00000000E-01  8.00000000E-01  1.50000000E+00
  8.00000000E-01  8.00000000E-01  1.50000000E+00  8.00000000E-01  8.00000000E-01
  1.50000000E+00  8.00000000E-01  8.00000000E-01  1.50000000E+00  8.00000000E-01
  8.00000000E-01  1.50000000E+00  8.00000000E-01  8.00000000E-01  1.50000000E+00
  8.00000000E-01  8.00000000E-01  1.50000000E+00  8.00000000E-01  8.00000000E-01
  1.50000000E+00  8.00000000E-01  8.00000000E-01  1.50000000E+00  8.00000000E-01
  8.00000000E-01  1.50000000E+00  8.00000000E-01  8.00000000E-01  1.50000000E+00
  8.00000000E-01  8.00000000E-01  1.50000000E+00  8.00000000E-01  8.00000000E-01
  1.50000000E+00  8.00000000E-01  8.00000000E-01  1.50000000E+00  8.00000000E-01
  8.00000000E-01  1.50000000E+00  8.00000000E-01  8.00000000E-01  1.50000000E+00
  8.00000000E-01  8.00000000E-01  1.50000000E+00  8.00000000E-01  8.00000000E-01
  1.50000000E+00  8.00000000E-01  8.00000000E-01  1.50000000E+00  8.00000000E-01
  8.00000000E-01  1.50000000E+00  8.00000000E-01  8.00000000E-01  1.50000000E+00
  8.00000000E-01  8.00000000E-01  1.50000000E+00  8.00000000E-01  8.00000000E-01
  1.50000000E+00  8.00000000E-01  8.00000000E-01  1.50000000E+00  8.00000000E-01
  8.00000000E-01  1.50000000E+00  8.00000000E-01  8.00000000E-01  1.50000000E+00
  8.00000000E-01  8.00000000E-01  1.50000000E+00  8.00000000E-01  8.00000000E-01
  1.50000000E+00  8.00000000E-01  8.00000000E-01  1.50000000E+00  8.00000000E-01
  8.00000000E-01  1.50000000E+00  8.00000000E-01  8.00000000E-01  1.50000000E+00
  8.00000000E-01  8.00000000E-01  1.50000000E+00  8.00000000E-01  8.00000000E-01
  1.50000000E+00  8.00000000E-01  8.00000000E-01  1.50000000E+00  8.00000000E-01
  8.00000000E-01  1.50000000E+00  8.00000000E-01  8.00000000E-01  1.50000000E+00
  8.00000000E-01  8.00000000E-01  1.50000000E+00  8.00000000E-01  8.00000000E-01
  1.50000000E+00  8.00000000E-01  8.00000000E-01  1.50000000E+00  8.00000000E-01
  8.00000000E-01  1.50000000E+00  8.00000000E-01  8.00000000E-01  1.50000000E+00
  8.00000000E-01  8.00000000E-01  1.50000000E+00  8.00000000E-01  8.00000000E-01
  1.50000000E+00  8.00000000E-01  8.00000000E-01  1.50000000E+00  8.00000000E-01
  8.00000000E-01  1.50000000E+00  8.00000000E-01  8.00000000E-01  1.50000000E+00
  8.00000000E-01  8.00000000E-01  1.50000000E+00  8.00000000E-01  8.00000000E-01
  1.50000000E+00  8.00000000E-01  8.00000000E-01  1.50000000E+00  8.00000000E-01
  8.00000000E-01  1.50000000E+00  8.00000000E-01  8.00000000E-01  1.50000000E+00
  8.00000000E-01  8.00000000E-01  1.50000000E+00  8.00000000E-01  8.00000000E-01
  1.50000000E+00  8.00000000E-01  8.00000000E-01  1.50000000E+00  8.00000000E-01
  8.00000000E-01  1.50000000E+00  8.00000000E-01  8.00000000E-01  1.50000000E+00
  8.00000000E-01  8.00000000E-01  1.50000000E+00  8.00000000E-01  8.00000000E-01
  1.50000000E+00  8.00000000E-01  8.00000000E-01  1.50000000E+00  8.00000000E-01
  8.00000000E-01  1.50000000E+00  8.00000000E-01  8.00000000E-01  1.50000000E+00
  8.00000000E-01  8.00000000E-01  1.50000000E+00  8.00000000E-01  8.00000000E-01
  1.50000000E+00  8.00000000E-01  8.00000000E-01  1.50000000E+00  8.00000000E-01
  8.00000000E-01  1.50000000E+00  8.00000000E-01  8.00000000E-01  1.50000000E+00
  8.00000000E-01  8.00000000E-01  1.50000000E+00  8.00000000E-01  8.00000000E-01
  1.50000000E+00  8.00000000E-01  8.00000000E-01  1.50000000E+00  8.00000000E-01
  8.00000000E-01  1.50000000E+00  8.00000000E-01  8.00000000E-01  1.50000000E+00
  8.00000000E-01  8.00000000E-01  1.50000000E+00  8.00000000E-01  8.00000000E-01
  1.50000000E+00  8.00000000E-01  8.00000000E-01  1.50000000E+00  8.00000000E-01
  8.00000000E-01  1.50000000E+00  8.00000000E-01  8.00000000E-01  1.50000000E+00
  8.00000000E-01  8.00000000E-01  1.50000000E+00  8.00000000E-01  8.00000000E-01
  1.50000000E+00  8.00000000E-01  8.00000000E-01  1.50000000E+00  8.00000000E-01
  8.00000000E-01  1.50000000E+00  8.00000000E-01  8.00000000E-01  1.50000000E+00
  8.00000000E-01  8.00000000E-01  1.50000000E+00  8.00000000E-01  8.00000000E-01
  1.50000000E+00  8.00000000E-01  8.00000000E-01  1.50000000E+00  8.00000000E-01
  8.00000000E-01  1.50000000E+00  8.00000000E-01  8.00000000E-01  1.50000000E+00
  8.00000000E-01  8.00000000E-01  1.50000000E+00  8.00000000E-01  8.00000000E-01
  1.50000000E+00  8.00000000E-01  8.00000000E-01  1.50000000E+00  8.00000000E-01
  8.00000000E-01  1.50000000E+00  8.00000000E-01  8.00000000E-01  1.50000000E+00
  8.00000000E-01  8.00000000E-01  1.50000000E+00  8.00000000E-01  8.00000000E-01
  1.50000000E+00  8.00000000E-01  8.00000000E-01  1.50000000E+00  8.00000000E-01
  8.00000000E-01  1.50000000E+00  8.00000000E-01  8.00000000E-01  1.50000000E+00
  8.00000000E-01  8.00000000E-01  1.50000000E+00  8.00000000E-01  8.00000000E-01
  1.50000000E+00  8.00000000E-01  8.00000000E-01  1.50000000E+00  8.00000000E-01
  8.00000000E-01  1.50000000E+00  8.00000000E-01  8.00000000E-01  1.50000000E+00
  8.00000000E-01  8.00000000E-01  1.50000000E+00  8.00000000E-01  8.00000000E-01
  1.50000000E+00  8.00000000E-01  8.00000000E-01  1.50000000E+00  8.00000000E-01
  8.00000000E-01  1.50000000E+00  8.00000000E-01  8.00000000E-01  1.50000000E+00
  8.00000000E-01  8.00000000E-01  1.50000000E+00  8.00000000E-01  8.00000000E-01
  1.50000000E+00  8.00000000E-01  8.00000000E-01  1.50000000E+00  8.00000000E-01
  8.00000000E-01  1.50000000E+00  8.00000000E-01  8.00000000E-01  1.50000000E+00
  8.00000000E-01  8.00000000E-01  1.50000000E+00  8.00000000E-01  8.00000000E-01
  1.50000000E+00  8.00000000E-01  8.00000000E-01  1.50000000E+00  8.00000000E-01
  8.00000000E-01  1.50000000E+00  8.00000000E-01  8.00000000E-01  1.50000000E+00
  8.00000000E-01  8.00000000E-01  1.50000000E+00  8.00000000E-01  8.00000000E-01
  1.50000000E+00  8.00000000E-01  8.00000000E-01  1.50000000E+00  8.00000000E-01
  8.00000000E-01  1.50000000E+00  8.00000000E-01  8.00000000E-01  1.50000000E+00
  8.00000000E-01  8.00000000E-01  1.50000000E+00  8.00000000E-01  8.00000000E-01
  1.50000000E+00  8.00000000E-01  8.00000000E-01  1.50000000E+00  8.00000000E-01
  8.00000000E-01  1.50000000E+00  8.00000000E-01  8.00000000E-01  1.50000000E+00
  8.00000000E-01  8.00000000E-01  1.50000000E+00  8.00000000E-01  8.00000000E-01
  1.50000000E+00  8.00000000E-01  8.00000000E-01  1.50000000E+00  8.00000000E-01
  8.00000000E-01  1.50000000E+00  8.00000000E-01  8.00000000E-01  1.50000000E+00
  8.00000000E-01  8.00000000E-01  1.50000000E+00  8.00000000E-01  8.00000000E-01
  1.50000000E+00  8.00000000E-01  8.00000000E-01  1.50000000E+00  8.00000000E-01
  8.00000000E-01  1.50000000E+00  8.00000000E-01  8.00000000E-01  1.50000000E+00
  8.00000000E-01  8.00000000E-01  1.50000000E+00  8.00000000E-01  8.00000000E-01
  1.50000000E+00  8.00000000E-01  8.00000000E-01  1.50000000E+00  8.00000000E-01
  8.00000000E-01  1.50000000E+00  8.00000000E-01  8.00000000E-01  1.50000000E+00
  8.00000000E-01  8.00000000E-01  1.50000000E+00  8.00000000E-01  8.00000000E-01
  1.50000000E+00  8.00000000E-01  8.00000000E-01  1.50000000E+00  8.00000000E-01
  8.00000000E-01  1.50000000E+00  8.00000000E-01  8.00000000E-01  1.50000000E+00
  8.00000000E-01  8.00000000E-01  1.50000000E+00  8.00000000E-01  8.00000000E-01
  1.50000000E+00  8.00000000E-01  8.00000000E-01  1.50000000E+00  8.00000000E-01
  8.00000000E-01  1.50000000E+00  8.00000000E-01  8.00000000E-01  1.50000000E+00
  8.00000000E-01  8.00000000E-01  1.50000000E+00  8.00000000E-01  8.00000000E-01
  1.50000000E+00  8.00000000E-01  8.00000000E-01  1.50000000E+00  8.00000000E-01
  8.00000000E-01  1.50000000E+00  8.00000000E-01  8.00000000E-01  1.50000000E+00
  8.00000000E-01  8.00000000E-01  1.50000000E+00  8.00000000E-01  8.00000000E-01
  1.50000000E+00  8.00000000E-01  8.00000000E-01  1.50000000E+00  8.00000000E-01
  8.00000000E-01  1.50000000E+00  8.00000000E-01  8.00000000E-01  1.50000000E+00
  8.00000000E-01  8.00000000E-01  1.50000000E+00  8.00000000E-01  8.00000000E-01
  1.50000000E+00  8.00000000E-01  8.00000000E-01  1.50000000E+00  8.00000000E-01
  8.00000000E-01  1.50000000E+00  8.00000000E-01  8.00000000E-01  1.50000000E+00
  8.00000000E-01  8.00000000E-01  1.50000000E+00  8.00000000E-01  8.00000000E-01
  1.50000000E+00  8.00000000E-01  8.00000000E-01  1.50000000E+00  8.00000000E-01
  8.00000000E-01  1.50000000E+00  8.00000000E-01  8.00000000E-01  1.50000000E+00
  8.00000000E-01  8.00000000E-01  1.50000000E+00  8.00000000E-01  8.00000000E-01
  1.50000000E+00  8.00000000E-01  8.00000000E-01  1.50000000E+00  8.00000000E-01
  8.00000000E-01  1.50000000E+00  8.00000000E-01  8.00000000E-01  1.50000000E+00
  8.00000000E-01  8.00000000E-01  1.50000000E+00  8.00000000E-01  8.00000000E-01
  1.50000000E+00  8.00000000E-01  8.00000000E-01  1.50000000E+00  8.00000000E-01
  8.00000000E-01  1.50000000E+00  8.00000000E-01  8.00000000E-01  1.50000000E+00
  8.00000000E-01  8.00000000E-01  1.50000000E+00  8.00000000E-01  8.00000000E-01
  1.50000000E+00  8.00000000E-01  8.00000000E-01  1.50000000E+00  8.00000000E-01
  8.00000000E-01  1.50000000E+00  8.00000000E-01  8.00000000E-01  1.50000000E+00
  8.00000000E-01  8.00000000E-01  1.50000000E+00  8.00000000E-01  8.00000000E-01
  1.50000000E+00  8.00000000E-01  8.00000000E-01  1.50000000E+00  8.00000000E-01
  8.00000000E-01  1.50000000E+00  8.00000000E-01  8.00000000E-01  1.50000000E+00
  8.00000000E-01  8.00000000E-01  1.50000000E+00  8.00000000E-01  8.00000000E-01
  1.50000000E+00  8.00000000E-01  8.00000000E-01  1.50000000E+00  8.00000000E-01
  8.00000000E-01  1.50000000E+00  8.00000000E-01  8.00000000E-01  1.50000000E+00
  8.00000000E-01  8.00000000E-01  1.50000000E+00  8.00000000E-01  8.00000000E-01
  1.50000000E+00  8.00000000E-01  8.00000000E-01  1.50000000E+00  8.00000000E-01
  8.00000000E-01  1.50000000E+00  8.00000000E-01  8.00000000E-01  1.50000000E+00
  8.00000000E-01  8.00000000E-01  1.50000000E+00  8.00000000E-01  8.00000000E-01
  1.50000000E+00  8.00000000E-01  8.00000000E-01  1.50000000E+00  8.00000000E-01
  8.00000000E-01  1.50000000E+00  8.00000000E-01  8.00000000E-01  1.50000000E+00
  8.00000000E-01  8.00000000E-01  1.50000000E+00  8.00000000E-01  8.00000000E-01
  1.50000000E+00  8.00000000E-01  8.00000000E-01  1.50000000E+00  8.00000000E-01
  8.00000000E-01  1.50000000E+00  8.00000000E-01  8.00000000E-01  1.50000000E+00
  8.00000000E-01  8.00000000E-01  1.50000000E+00  8.00000000E-01  8.00000000E-01
  1.50000000E+00  8.00000000E-01  8.00000000E-01  1.50000000E+00  8.00000000E-01
  8.00000000E-01  1.50000000E+00  8.00000000E-01  8.00000000E-01  1.50000000E+00
  8.00000000E-01  8.00000000E-01  1.50000000E+00  8.00000000E-01  8.00000000E-01
  1.50000000E+00  8.00000000E-01  8.00000000E-01  1.50000000E+00  8.00000000E-01
  8.00000000E-01  1.50000000E+00  8.00000000E-01  8.00000000E-01  1.50000000E+00
  8.00000000E-01  8.00000000E-01  1.50000000E+00  8.00000000E-01  8.00000000E-01
  1.50000000E+00  8.00000000E-01  8.00000000E-01  1.50000000E+00  8.00000000E-01
  8.00000000E-01  1.50000000E+00  8.00000000E-01  8.00000000E-01  1.50000000E+00
  8.00000000E-01  8.00000000E-01  1.50000000E+00  8.00000000E-01  8.00000000E-01
  1.50000000E+00  8.00000000E-01  8.00000000E-01  1.50000000E+00  8.00000000E-01
  8.00000000E-01  1.50000000E+00  8.00000000E-01  8.00000000E-01  1.50000000E+00
  8.00000000E-01  8.00000000E-01  1.50000000E+00  8.00000000E-01  8.00000000E-01
  1.50000000E+00  8.00000000E-01  8.00000000E-01  1.50000000E+00  8.00000000E-01
  8.00000000E-01  1.50000000E+00  8.00000000E-01  8.00000000E-01  1.50000000E+00
  8.00000000E-01  8.00000000E-01  1.50000000E+00  8.00000000E-01  8.00000000E-01
  1.50000000E+00  8.00000000E-01  8.00000000E-01  1.50000000E+00  8.00000000E-01
  8.00000000E-01  1.50000000E+00  8.00000000E-01  8.00000000E-01  1.50000000E+00
  8.00000000E-01  8.00000000E-01  1.50000000E+00  8.00000000E-01  8.00000000E-01
  1.50000000E+00  8.00000000E-01  8.00000000E-01  1.50000000E+00  8.00000000E-01
  8.00000000E-01  1.50000000E+00  8.00000000E-01  8.00000000E-01  1.50000000E+00
  8.00000000E-01  8.00000000E-01  1.50000000E+00  8.00000000E-01  8.00000000E-01
  1.50000000E+00  8.00000000E-01  8.00000000E-01  1.50000000E+00  8.00000000E-01
  8.00000000E-01  1.50000000E+00  8.00000000E-01  8.00000000E-01  1.50000000E+00
  8.00000000E-01  8.00000000E-01  1.50000000E+00  8.00000000E-01  8.00000000E-01
  1.50000000E+00  8.00000000E-01  8.00000000E-01  1.50000000E+00  8.00000000E-01
  8.00000000E-01  1.50000000E+00  8.00000000E-01  8.00000000E-01  1.50000000E+00
  8.00000000E-01  8.00000000E-01  1.50000000E+00  8.00000000E-01  8.00000000E-01
  1.50000000E+00  8.00000000E-01  8.00000000E-01  1.50000000E+00  8.00000000E-01
  8.00000000E-01  1.50000000E+00  8.00000000E-01  8.00000000E-01  1.50000000E+00
  8.00000000E-01  8.00000000E-01  1.50000000E+00  8.00000000E-01  8.00000000E-01
  1.50000000E+00  8.00000000E-01  8.00000000E-01  1.50000000E+00  8.00000000E-01
  8.00000000E-01  1.50000000E+00  8.00000000E-01  8.00000000E-01  1.50000000E+00
  8.00000000E-01  8.00000000E-01  1.50000000E+00  8.00000000E-01  8.00000000E-01
  1.50000000E+00  8.00000000E-01  8.00000000E-01  1.50000000E+00  8.00000000E-01
  8.00000000E-01  1.50000000E+00  8.00000000E-01  8.00000000E-01  1.50000000E+00
  8.00000000E-01  8.00000000E-01  1.50000000E+00  8.00000000E-01  8.00000000E-01
  1.50000000E+00  8.00000000E-01  8.00000000E-01  1.50000000E+00  8.00000000E-01
  8.00000000E-01  1.50000000E+00  8.00000000E-01  8.00000000E-01  1.50000000E+00
  8.00000000E-01  8.00000000E-01  1.50000000E+00  8.00000000E-01  8.00000000E-01
  1.50000000E+00  8.00000000E-01  8.00000000E-01  1.50000000E+00  8.00000000E-01
  8.00000000E-01  1.50000000E+00  8.00000000E-01  8.00000000E-01  1.50000000E+00
  8.00000000E-01  8.00000000E-01  1.50000000E+00  8.00000000E-01  8.00000000E-01
  1.50000000E+00  8.00000000E-01  8.00000000E-01  1.50000000E+00  8.00000000E-01
  8.00000000E-01  1.50000000E+00  8.00000000E-01  8.00000000E-01  1.50000000E+00
  8.00000000E-01  8.00000000E-01  1.50000000E+00  8.00000000E-01  8.00000000E-01
  1.50000000E+00  8.00000000E-01  8.00000000E-01  1.50000000E+00  8.00000000E-01
  8.00000000E-01  1.50000000E+00  8.00000000E-01  8.00000000E-01  1.50000000E+00
  8.00000000E-01  8.00000000E-01  1.50000000E+00  8.00000000E-01  8.00000000E-01
  1.50000000E+00  8.00000000E-01  8.00000000E-01  1.50000000E+00  8.00000000E-01
  8.00000000E-01  1.50000000E+00  8.00000000E-01  8.00000000E-01  1.50000000E+00
  8.00000000E-01  8.00000000E-01  1.50000000E+00  8.00000000E-01  8.00000000E-01
  1.50000000E+00  8.00000000E-01  8.00000000E-01  1.50000000E+00  8.00000000E-01
  8.00000000E-01  1.50000000E+00  8.00000000E-01  8.00000000E-01  1.50000000E+00
  8.00000000E-01  8.00000000E-01  1.50000000E+00  8.00000000E-01  8.00000000E-01
  1.50000000E+00  8.00000000E-01  8.00000000E-01  1.50000000E+00  8.00000000E-01
  8.00000000E-01  1.50000000E+00  8.00000000E-01  8.00000000E-01  1.50000000E+00
  8.00000000E-01  8.00000000E-01  1.50000000E+00  8.00000000E-01  8.00000000E-01
  1.50000000E+00  8.00000000E-01  8.00000000E-01  1.50000000E+00  8.00000000E-01
  8.00000000E-01  1.50000000E+00  8.00000000E-01  8.00000000E-01  1.50000000E+00
  8.00000000E-01  8.00000000E-01  1.50000000E+00  8.00000000E-01  8.00000000E-01
  1.50000000E+00  8.00000000E-01  8.00000000E-01  1.50000000E+00  8.00000000E-01
  8.00000000E-01  1.50000000E+00  8.00000000E-01  8.00000000E-01  1.50000000E+00
  8.00000000E-01  8.00000000E-01  1.50000000E+00  8.00000000E-01  8.00000000E-01
  1.50000000E+00  8.00000000E-01  8.00000000E-01  1.50000000E+00  8.00000000E-01
  8.00000000E-01  1.50000000E+00  8.00000000E-01  8.00000000E-01  1.50000000E+00
  8.00000000E-01  8.00000000E-01  1.50000000E+00  8.00000000E-01  8.00000000E-01
  1.50000000E+00  8.00000000E-01  8.00000000E-01  1.50000000E+00  8.00000000E-01
  8.00000000E-01  1.50000000E+00  8.00000000E-01  8.00000000E-01  1.50000000E+00
  8.00000000E-01  8.00000000E-01  1.50000000E+00  8.00000000E-01  8.00000000E-01
  1.50000000E+00  8.00000000E-01  8.00000000E-01  1.50000000E+00  8.00000000E-01
  8.00000000E-01  1.50000000E+00  8.00000000E-01  8.00000000E-01  1.50000000E+00
  8.00000000E-01  8.00000000E-01  1.50000000E+00  8.00000000E-01  8.00000000E-01
  1.50000000E+00  8.00000000E-01  8.00000000E-01  1.50000000E+00  8.00000000E-01
  8.00000000E-01  1.50000000E+00  8.00000000E-01  8.00000000E-01  1.50000000E+00
  8.00000000E-01  8.00000000E-01  1.50000000E+00  8.00000000E-01  8.00000000E-01
  1.50000000E+00  8.00000000E-01  8.00000000E-01  1.50000000E+00  8.00000000E-01
  8.00000000E-01  1.50000000E+00  8.00000000E-01  8.00000000E-01  1.50000000E+00
  8.00000000E-01  8.00000000E-01  1.50000000E+00  8.00000000E-01  8.00000000E-01
  1.50000000E+00  8.00000000E-01  8.00000000E-01  1.50000000E+00  8.00000000E-01
  8.00000000E-01  1.50000000E+00  8.00000000E-01  8.00000000E-01  1.50000000E+00
  8.00000000E-01  8.00000000E-01  1.50000000E+00  8.00000000E-01  8.00000000E-01
  1.50000000E+00  8.00000000E-01  8.00000000E-01  1.50000000E+00  8.00000000E-01
  8.00000000E-01  1.50000000E+00  8.00000000E-01  8.00000000E-01  1.50000000E+00
  8.00000000E-01  8.00000000E-01  1.50000000E+00  8.00000000E-01  8.00000000E-01
  1.50000000E+00  8.00000000E-01  8.00000000E-01  1.50000000E+00  8.00000000E-01
  8.00000000E-01  1.50000000E+00  8.00000000E-01  8.00000000E-01  1.50000000E+00
  8.00000000E-01  8.00000000E-01  1.50000000E+00  8.00000000E-01  8.00000000E-01
  1.50000000E+00  8.00000000E-01  8.00000000E-01  1.50000000E+00  8.00000000E-01
  8.00000000E-01  1.50000000E+00  8.00000000E-01  8.00000000E-01  1.50000000E+00
  8.00000000E-01  8.00000000E-01  1.50000000E+00  8.00000000E-01  8.00000000E-01
  1.50000000E+00  8.00000000E-01  8.00000000E-01  1.50000000E+00  8.00000000E-01
  8.00000000E-01  1.50000000E+00  8.00000000E-01  8.00000000E-01  1.50000000E+00
  8.00000000E-01  8.00000000E-01  1.50000000E+00  8.00000000E-01  8.00000000E-01
  1.50000000E+00  8.00000000E-01  8.00000000E-01  1.50000000E+00  8.00000000E-01
  8.00000000E-01  1.50000000E+00  8.00000000E-01  8.00000000E-01  1.50000000E+00
  8.00000000E-01  8.00000000E-01  1.50000000E+00  8.00000000E-01  8.00000000E-01
  1.50000000E+00  8.00000000E-01  8.00000000E-01  1.50000000E+00  8.00000000E-01
  8.00000000E-01  1.50000000E+00  8.00000000E-01  8.00000000E-01  1.50000000E+00
  8.00000000E-01  8.00000000E-01  1.50000000E+00  8.00000000E-01  8.00000000E-01
  1.50000000E+00  8.00000000E-01  8.00000000E-01  1.50000000E+00  8.00000000E-01
  8.00000000E-01  1.50000000E+00  8.00000000E-01  8.00000000E-01  1.50000000E+00
  8.00000000E-01  8.00000000E-01  1.50000000E+00  8.00000000E-01  8.00000000E-01
  1.50000000E+00  8.00000000E-01  8.00000000E-01  1.50000000E+00  8.00000000E-01
  8.00000000E-01  1.50000000E+00  8.00000000E-01  8.00000000E-01  1.50000000E+00
  8.00000000E-01  8.00000000E-01  1.50000000E+00  8.00000000E-01  8.00000000E-01
  1.50000000E+00  8.00000000E-01  8.00000000E-01  1.50000000E+00  8.00000000E-01
  8.00000000E-01  1.50000000E+00  8.00000000E-01  8.00000000E-01  1.50000000E+00
  8.00000000E-01  8.00000000E-01  1.50000000E+00  8.00000000E-01  8.00000000E-01
  1.50000000E+00  8.00000000E-01  8.00000000E-01  1.50000000E+00  8.00000000E-01
  8.00000000E-01  1.50000000E+00  8.00000000E-01  8.00000000E-01  1.50000000E+00
  8.00000000E-01  8.00000000E-01  1.50000000E+00  8.00000000E-01  8.00000000E-01
  1.50000000E+00  8.00000000E-01  8.00000000E-01  1.50000000E+00  8.00000000E-01
  8.00000000E-01  1.50000000E+00  8.00000000E-01  8.00000000E-01  1.50000000E+00
  8.00000000E-01  8.00000000E-01  1.50000000E+00  8.00000000E-01  8.00000000E-01
  1.50000000E+00  8.00000000E-01  8.00000000E-01  1.50000000E+00  8.00000000E-01
  8.00000000E-01  1.50000000E+00  8.00000000E-01  8.00000000E-01  1.50000000E+00
  8.00000000E-01  8.00000000E-01  1.50000000E+00  8.00000000E-01  8.00000000E-01
  1.50000000E+00  8.00000000E-01  8.00000000E-01  1.50000000E+00  8.00000000E-01
  8.00000000E-01  1.50000000E+00  8.00000000E-01  8.00000000E-01  1.50000000E+00
  8.00000000E-01  8.00000000E-01  1.50000000E+00  8.00000000E-01  8.00000000E-01
  1.50000000E+00  8.00000000E-01  8.00000000E-01  1.50000000E+00  8.00000000E-01
  8.00000000E-01  1.50000000E+00  8.00000000E-01  8.00000000E-01  1.50000000E+00
  8.00000000E-01  8.00000000E-01  1.50000000E+00  8.00000000E-01  8.00000000E-01
  1.50000000E+00  8.00000000E-01  8.00000000E-01  1.50000000E+00  8.00000000E-01
  8.00000000E-01  1.50000000E+00  8.00000000E-01  8.00000000E-01  1.50000000E+00
  8.00000000E-01  8.00000000E-01  1.50000000E+00  8.00000000E-01  8.00000000E-01
  1.50000000E+00  8.00000000E-01  8.00000000E-01  1.50000000E+00  8.00000000E-01
  8.00000000E-01  1.50000000E+00  8.00000000E-01  8.00000000E-01  1.50000000E+00
  8.00000000E-01  8.00000000E-01  1.50000000E+00  8.00000000E-01  8.00000000E-01
  1.50000000E+00  8.00000000E-01  8.00000000E-01  1.50000000E+00  8.00000000E-01
  8.00000000E-01  1.50000000E+00  8.00000000E-01  8.00000000E-01  1.50000000E+00
  8.00000000E-01  8.00000000E-01  1.50000000E+00  8.00000000E-01  8.00000000E-01
  1.50000000E+00  8.00000000E-01  8.00000000E-01  1.50000000E+00  8.00000000E-01
  8.00000000E-01  1.50000000E+00  8.00000000E-01  8.00000000E-01  1.50000000E+00
  8.00000000E-01  8.00000000E-01  1.50000000E+00  8.00000000E-01  8.00000000E-01
  1.50000000E+00  8.00000000E-01  8.00000000E-01  1.50000000E+00  8.00000000E-01
  8.00000000E-01  1.50000000E+00  8.00000000E-01  8.00000000E-01  1.50000000E+00
  8.00000000E-01  8.00000000E-01  1.50000000E+00  8.00000000E-01  8.00000000E-01
  1.50000000E+00  8.00000000E-01  8.00000000E-01  1.50000000E+00  8.00000000E-01
  8.00000000E-01  1.50000000E+00  8.00000000E-01  8.00000000E-01  1.50000000E+00
  8.00000000E-01  8.00000000E-01  1.50000000E+00  8.00000000E-01  8.00000000E-01
  1.50000000E+00  8.00000000E-01  8.00000000E-01  1.50000000E+00  8.00000000E-01
  8.00000000E-01  1.50000000E+00  8.00000000E-01  8.00000000E-01  1.50000000E+00
  8.00000000E-01  8.00000000E-01  1.50000000E+00  8.00000000E-01  8.00000000E-01
  1.50000000E+00  8.00000000E-01  8.00000000E-01  1.50000000E+00  8.00000000E-01
  8.00000000E-01  1.50000000E+00  8.00000000E-01  8.00000000E-01  1.50000000E+00
  8.00000000E-01  8.00000000E-01  1.50000000E+00  8.00000000E-01  8.00000000E-01
  1.50000000E+00  8.00000000E-01  8.00000000E-01  1.50000000E+00  8.00000000E-01
  8.00000000E-01  1.50000000E+00  8.00000000E-01  8.00000000E-01  1.50000000E+00
  8.00000000E-01  8.00000000E-01  1.50000000E+00  8.00000000E-01  8.00000000E-01
  1.50000000E+00  8.00000000E-01  8.00000000E-01  1.50000000E+00  8.00000000E-01
  8.00000000E-01  1.50000000E+00  8.00000000E-01  8.00000000E-01  1.50000000E+00
  8.00000000E-01  8.00000000E-01  1.50000000E+00  8.00000000E-01  8.00000000E-01
  1.50000000E+00  8.00000000E-01  8.00000000E-01  1.50000000E+00  8.00000000E-01
  8.00000000E-01  1.50000000E+00  8.00000000E-01  8.00000000E-01  1.50000000E+00
  8.00000000E-01  8.00000000E-01  1.50000000E+00  8.00000000E-01  8.00000000E-01
  1.50000000E+00  8.00000000E-01  8.00000000E-01  1.50000000E+00  8.00000000E-01
  8.00000000E-01  1.50000000E+00  8.00000000E-01  8.00000000E-01  1.50000000E+00
  8.00000000E-01  8.00000000E-01  1.50000000E+00  8.00000000E-01  8.00000000E-01
  1.50000000E+00  8.00000000E-01  8.00000000E-01  1.50000000E+00  8.00000000E-01
  8.00000000E-01  1.50000000E+00  8.00000000E-01  8.00000000E-01  1.50000000E+00
  8.00000000E-01  8.00000000E-01  1.50000000E+00  8.00000000E-01  8.00000000E-01
  1.50000000E+00  8.00000000E-01  8.00000000E-01  1.50000000E+00  8.00000000E-01
  8.00000000E-01  1.50000000E+00  8.00000000E-01  8.00000000E-01  1.50000000E+00
  8.00000000E-01  8.00000000E-01  1.50000000E+00  8.00000000E-01  8.00000000E-01
  1.50000000E+00  8.00000000E-01  8.00000000E-01  1.50000000E+00  8.00000000E-01
  8.00000000E-01  1.50000000E+00  8.00000000E-01  8.00000000E-01  1.50000000E+00
  8.00000000E-01  8.00000000E-01  1.50000000E+00  8.00000000E-01  8.00000000E-01
  1.50000000E+00  8.00000000E-01  8.00000000E-01  1.50000000E+00  8.00000000E-01
  8.00000000E-01  1.50000000E+00  8.00000000E-01  8.00000000E-01  1.50000000E+00
  8.00000000E-01  8.00000000E-01  1.50000000E+00  8.00000000E-01  8.00000000E-01
  1.50000000E+00  8.00000000E-01  8.00000000E-01  1.50000000E+00  8.00000000E-01
  8.00000000E-01  1.50000000E+00  8.00000000E-01  8.00000000E-01  1.50000000E+00
  8.00000000E-01  8.00000000E-01  1.50000000E+00  8.00000000E-01  8.00000000E-01
  1.50000000E+00  8.00000000E-01  8.00000000E-01  1.50000000E+00  8.00000000E-01
  8.00000000E-01  1.50000000E+00  8.00000000E-01  8.00000000E-01  1.50000000E+00
  8.00000000E-01  8.00000000E-01  1.50000000E+00  8.00000000E-01  8.00000000E-01
  1.50000000E+00  8.00000000E-01  8.00000000E-01  1.50000000E+00  8.00000000E-01
  8.00000000E-01  1.50000000E+00  8.00000000E-01  8.00000000E-01  1.50000000E+00
  8.00000000E-01  8.00000000E-01  1.50000000E+00  8.00000000E-01  8.00000000E-01
  1.50000000E+00  8.00000000E-01  8.00000000E-01  1.50000000E+00  8.00000000E-01
  8.00000000E-01  1.50000000E+00  8.00000000E-01  8.00000000E-01  1.50000000E+00
  8.00000000E-01  8.00000000E-01  1.50000000E+00  8.00000000E-01  8.00000000E-01
  1.50000000E+00  8.00000000E-01  8.00000000E-01  1.50000000E+00  8.00000000E-01
  8.00000000E-01  1.50000000E+00  8.00000000E-01  8.00000000E-01  1.50000000E+00
  8.00000000E-01  8.00000000E-01  1.50000000E+00  8.00000000E-01  8.00000000E-01
  1.50000000E+00  8.00000000E-01  8.00000000E-01  1.50000000E+00  8.00000000E-01
  8.00000000E-01  1.50000000E+00  8.00000000E-01  8.00000000E-01  1.50000000E+00
  8.00000000E-01  8.00000000E-01  1.50000000E+00  8.00000000E-01  8.00000000E-01
  1.50000000E+00  8.00000000E-01  8.00000000E-01  1.50000000E+00  8.00000000E-01
  8.00000000E-01  1.50000000E+00  8.00000000E-01  8.00000000E-01  1.50000000E+00
  8.00000000E-01  8.00000000E-01  1.50000000E+00  8.00000000E-01  8.00000000E-01
  1.50000000E+00  8.00000000E-01  8.00000000E-01  1.50000000E+00  8.00000000E-01
  8.00000000E-01  1.50000000E+00  8.00000000E-01  8.00000000E-01  1.50000000E+00
  8.00000000E-01  8.00000000E-01  1.50000000E+00  8.00000000E-01  8.00000000E-01
  1.50000000E+00  8.00000000E-01  8.00000000E-01  1.50000000E+00  8.00000000E-01
  8.00000000E-01  1.50000000E+00  8.00000000E-01  8.00000000E-01  1.50000000E+00
  8.00000000E-01  8.00000000E-01  1.50000000E+00  8.00000000E-01  8.00000000E-01
  1.50000000E+00  8.00000000E-01  8.00000000E-01  1.50000000E+00  8.00000000E-01
  8.00000000E-01  1.50000000E+00  8.00000000E-01  8.00000000E-01  1.50000000E+00
  8.00000000E-01  8.00000000E-01  1.50000000E+00  8.00000000E-01  8.00000000E-01
  1.50000000E+00  8.00000000E-01  8.00000000E-01  1.50000000E+00  8.00000000E-01
  8.00000000E-01  1.50000000E+00  8.00000000E-01  8.00000000E-01  1.50000000E+00
  8.00000000E-01  8.00000000E-01  1.50000000E+00  8.00000000E-01  8.00000000E-01
  1.50000000E+00  8.00000000E-01  8.00000000E-01  1.50000000E+00  8.00000000E-01
  8.00000000E-01  1.50000000E+00  8.00000000E-01  8.00000000E-01  1.50000000E+00
  8.00000000E-01  8.00000000E-01  1.50000000E+00  8.00000000E-01  8.00000000E-01
  1.50000000E+00  8.00000000E-01  8.00000000E-01  1.50000000E+00  8.00000000E-01
  8.00000000E-01  1.50000000E+00  8.00000000E-01  8.00000000E-01  1.50000000E+00
  8.00000000E-01  8.00000000E-01  1.50000000E+00  8.00000000E-01  8.00000000E-01
  1.50000000E+00  8.00000000E-01  8.00000000E-01  1.50000000E+00  8.00000000E-01
  8.00000000E-01  1.50000000E+00  8.00000000E-01  8.00000000E-01  1.50000000E+00
  8.00000000E-01  8.00000000E-01  1.50000000E+00  8.00000000E-01  8.00000000E-01
  1.50000000E+00  8.00000000E-01  8.00000000E-01  1.50000000E+00  8.00000000E-01
  8.00000000E-01  1.50000000E+00  8.00000000E-01  8.00000000E-01  1.50000000E+00
  8.00000000E-01  8.00000000E-01  1.50000000E+00  8.00000000E-01  8.00000000E-01
  1.50000000E+00  8.00000000E-01  8.00000000E-01  1.50000000E+00  8.00000000E-01
  8.00000000E-01  1.50000000E+00  8.00000000E-01  8.00000000E-01  1.50000000E+00
  8.00000000E-01  8.00000000E-01  1.50000000E+00  8.00000000E-01  8.00000000E-01
  1.50000000E+00  8.00000000E-01  8.00000000E-01  1.50000000E+00  8.00000000E-01
  8.00000000E-01  1.50000000E+00  8.00000000E-01  8.00000000E-01  1.50000000E+00
  8.00000000E-01  8.00000000E-01  1.50000000E+00  8.00000000E-01  8.00000000E-01
  1.50000000E+00  8.00000000E-01  8.00000000E-01  1.50000000E+00  8.00000000E-01
  8.00000000E-01  1.50000000E+00  8.00000000E-01  8.00000000E-01  1.50000000E+00
  8.00000000E-01  8.00000000E-01  1.50000000E+00  8.00000000E-01  8.00000000E-01
  1.50000000E+00  8.00000000E-01  8.00000000E-01  1.50000000E+00  8.00000000E-01
  8.00000000E-01  1.50000000E+00  8.00000000E-01  8.00000000E-01  1.50000000E+00
  8.00000000E-01  8.00000000E-01  1.50000000E+00  8.00000000E-01  8.00000000E-01
  1.50000000E+00  8.00000000E-01  8.00000000E-01  1.50000000E+00  8.00000000E-01
  8.00000000E-01  1.50000000E+00  8.00000000E-01  8.00000000E-01  1.50000000E+00
  8.00000000E-01  8.00000000E-01  1.50000000E+00  8.00000000E-01  8.00000000E-01
  1.50000000E+00  8.00000000E-01  8.00000000E-01  1.50000000E+00  8.00000000E-01
  8.00000000E-01  1.50000000E+00  8.00000000E-01  8.00000000E-01  1.50000000E+00
  8.00000000E-01  8.00000000E-01  1.50000000E+00  8.00000000E-01  8.00000000E-01
  1.50000000E+00  8.00000000E-01  8.00000000E-01  1.50000000E+00  8.00000000E-01
  8.00000000E-01  1.50000000E+00  8.00000000E-01  8.00000000E-01  1.50000000E+00
  8.00000000E-01  8.00000000E-01  1.50000000E+00  8.00000000E-01  8.00000000E-01
  1.50000000E+00  8.00000000E-01  8.00000000E-01  1.50000000E+00  8.00000000E-01
  8.00000000E-01  1.50000000E+00  8.00000000E-01  8.00000000E-01  1.50000000E+00
  8.00000000E-01  8.00000000E-01  1.50000000E+00  8.00000000E-01  8.00000000E-01
  1.50000000E+00  8.00000000E-01  8.00000000E-01  1.50000000E+00  8.00000000E-01
  8.00000000E-01  1.50000000E+00  8.00000000E-01  8.00000000E-01  1.50000000E+00
  8.00000000E-01  8.00000000E-01  1.50000000E+00  8.00000000E-01  8.00000000E-01
  1.50000000E+00  8.00000000E-01  8.00000000E-01  1.50000000E+00  8.00000000E-01
  8.00000000E-01  1.50000000E+00  8.00000000E-01  8.00000000E-01  1.50000000E+00
  8.00000000E-01  8.00000000E-01  1.50000000E+00  8.00000000E-01  8.00000000E-01
  1.50000000E+00  8.00000000E-01  8.00000000E-01  1.50000000E+00  8.00000000E-01
  8.00000000E-01  1.50000000E+00  8.00000000E-01  8.00000000E-01  1.50000000E+00
  8.00000000E-01  8.00000000E-01  1.50000000E+00  8.00000000E-01  8.00000000E-01
  1.50000000E+00  8.00000000E-01  8.00000000E-01  1.50000000E+00  8.00000000E-01
  8.00000000E-01  1.50000000E+00  8.00000000E-01  8.00000000E-01  1.50000000E+00
  8.00000000E-01  8.00000000E-01  1.50000000E+00  8.00000000E-01  8.00000000E-01
  1.50000000E+00  8.00000000E-01  8.00000000E-01  1.50000000E+00  8.00000000E-01
  8.00000000E-01  1.50000000E+00  8.00000000E-01  8.00000000E-01  1.50000000E+00
  8.00000000E-01  8.00000000E-01  1.50000000E+00  8.00000000E-01  8.00000000E-01
  1.50000000E+00  8.00000000E-01  8.00000000E-01  1.50000000E+00  8.00000000E-01
  8.00000000E-01  1.50000000E+00  8.00000000E-01  8.00000000E-01  1.50000000E+00
  8.00000000E-01  8.00000000E-01  1.50000000E+00  8.00000000E-01  8.00000000E-01
  1.50000000E+00  8.00000000E-01  8.00000000E-01  1.50000000E+00  8.00000000E-01
  8.00000000E-01  1.50000000E+00  8.00000000E-01  8.00000000E-01  1.50000000E+00
  8.00000000E-01  8.00000000E-01  1.50000000E+00  8.00000000E-01  8.00000000E-01
  1.50000000E+00  8.00000000E-01  8.00000000E-01  1.50000000E+00  8.00000000E-01
  8.00000000E-01  1.50000000E+00  8.00000000E-01  8.00000000E-01  1.50000000E+00
  8.00000000E-01  8.00000000E-01  1.50000000E+00  8.00000000E-01  8.00000000E-01
  1.50000000E+00  8.00000000E-01  8.00000000E-01  1.50000000E+00  8.00000000E-01
  8.00000000E-01  1.50000000E+00  8.00000000E-01  8.00000000E-01  1.50000000E+00
  8.00000000E-01  8.00000000E-01  1.50000000E+00  8.00000000E-01  8.00000000E-01
  1.50000000E+00  8.00000000E-01  8.00000000E-01  1.50000000E+00  8.00000000E-01
  8.00000000E-01  1.50000000E+00  8.00000000E-01  8.00000000E-01  1.50000000E+00
  8.00000000E-01  8.00000000E-01  1.50000000E+00  8.00000000E-01  8.00000000E-01
  1.50000000E+00  8.00000000E-01  8.00000000E-01  1.50000000E+00  8.00000000E-01
  8.00000000E-01  1.50000000E+00  8.00000000E-01  8.00000000E-01  1.50000000E+00
  8.00000000E-01  8.00000000E-01  1.50000000E+00  8.00000000E-01  8.00000000E-01
  1.50000000E+00  8.00000000E-01  8.00000000E-01  1.50000000E+00  8.00000000E-01
  8.00000000E-01  1.50000000E+00  8.00000000E-01  8.00000000E-01  1.50000000E+00
  8.00000000E-01  8.00000000E-01  1.50000000E+00  8.00000000E-01  8.00000000E-01
  1.50000000E+00  8.00000000E-01  8.00000000E-01  1.50000000E+00  8.00000000E-01
  8.00000000E-01  1.50000000E+00  8.00000000E-01  8.00000000E-01  1.50000000E+00
  8.00000000E-01  8.00000000E-01  1.50000000E+00  8.00000000E-01  8.00000000E-01
  1.50000000E+00  8.00000000E-01  8.00000000E-01  1.50000000E+00  8.00000000E-01
  8.00000000E-01  1.50000000E+00  8.00000000E-01  8.00000000E-01  1.50000000E+00
  8.00000000E-01  8.00000000E-01  1.50000000E+00  8.00000000E-01  8.00000000E-01
  1.50000000E+00  8.00000000E-01  8.00000000E-01  1.50000000E+00  8.00000000E-01
  8.00000000E-01  1.50000000E+00  8.00000000E-01  8.00000000E-01  1.50000000E+00
  8.00000000E-01  8.00000000E-01  1.50000000E+00  8.00000000E-01  8.00000000E-01
  1.50000000E+00  8.00000000E-01  8.00000000E-01  1.50000000E+00  8.00000000E-01
  8.00000000E-01  1.50000000E+00  8.00000000E-01  8.00000000E-01  1.50000000E+00
  8.00000000E-01  8.00000000E-01  1.50000000E+00  8.00000000E-01  8.00000000E-01
  1.50000000E+00  8.00000000E-01  8.00000000E-01  1.50000000E+00  8.00000000E-01
  8.00000000E-01  1.50000000E+00  8.00000000E-01  8.00000000E-01  1.50000000E+00
  8.00000000E-01  8.00000000E-01  1.50000000E+00  8.00000000E-01  8.00000000E-01
  1.50000000E+00  8.00000000E-01  8.00000000E-01  1.50000000E+00  8.00000000E-01
  8.00000000E-01  1.50000000E+00  8.00000000E-01  8.00000000E-01  1.50000000E+00
  8.00000000E-01  8.00000000E-01  1.50000000E+00  8.00000000E-01  8.00000000E-01
  1.50000000E+00  8.00000000E-01  8.00000000E-01  1.50000000E+00  8.00000000E-01
  8.00000000E-01  1.50000000E+00  8.00000000E-01  8.00000000E-01  1.50000000E+00
  8.00000000E-01  8.00000000E-01  1.50000000E+00  8.00000000E-01  8.00000000E-01
  1.50000000E+00  8.00000000E-01  8.00000000E-01  1.50000000E+00  8.00000000E-01
  8.00000000E-01  1.50000000E+00  8.00000000E-01  8.00000000E-01  1.50000000E+00
  8.00000000E-01  8.00000000E-01  1.50000000E+00  8.00000000E-01  8.00000000E-01
  1.50000000E+00  8.00000000E-01  8.00000000E-01  1.50000000E+00  8.00000000E-01
  8.00000000E-01  1.50000000E+00  8.00000000E-01  8.00000000E-01  1.50000000E+00
  8.00000000E-01  8.00000000E-01  1.50000000E+00  8.00000000E-01  8.00000000E-01
  1.50000000E+00  8.00000000E-01  8.00000000E-01  1.50000000E+00  8.00000000E-01
  8.00000000E-01  1.50000000E+00  8.00000000E-01  8.00000000E-01  1.50000000E+00
  8.00000000E-01  8.00000000E-01  1.50000000E+00  8.00000000E-01  8.00000000E-01
  1.50000000E+00  8.00000000E-01  8.00000000E-01  1.50000000E+00  8.00000000E-01
  8.00000000E-01  1.50000000E+00  8.00000000E-01  8.00000000E-01  1.50000000E+00
  8.00000000E-01  8.00000000E-01  1.50000000E+00  8.00000000E-01  8.00000000E-01
  1.50000000E+00  8.00000000E-01  8.00000000E-01  1.50000000E+00  8.00000000E-01
  8.00000000E-01  1.50000000E+00  8.00000000E-01  8.00000000E-01  1.50000000E+00
  8.00000000E-01  8.00000000E-01  1.50000000E+00  8.00000000E-01  8.00000000E-01
  1.50000000E+00  8.00000000E-01  8.00000000E-01  1.50000000E+00  8.00000000E-01
  8.00000000E-01  1.50000000E+00  8.00000000E-01  8.00000000E-01  1.50000000E+00
  8.00000000E-01  8.00000000E-01  1.50000000E+00  8.00000000E-01  8.00000000E-01
  1.50000000E+00  8.00000000E-01  8.00000000E-01  1.50000000E+00  8.00000000E-01
  8.00000000E-01  1.50000000E+00  8.00000000E-01  8.00000000E-01  1.50000000E+00
  8.00000000E-01  8.00000000E-01  1.50000000E+00  8.00000000E-01  8.00000000E-01
  1.50000000E+00  8.00000000E-01  8.00000000E-01  1.50000000E+00  8.00000000E-01
  8.00000000E-01  1.50000000E+00  8.00000000E-01  8.00000000E-01  1.50000000E+00
  8.00000000E-01  8.00000000E-01  1.50000000E+00  8.00000000E-01  8.00000000E-01
  1.50000000E+00  8.00000000E-01  8.00000000E-01  1.50000000E+00  8.00000000E-01
  8.00000000E-01  1.50000000E+00  8.00000000E-01  8.00000000E-01  1.50000000E+00
  8.00000000E-01  8.00000000E-01  1.50000000E+00  8.00000000E-01  8.00000000E-01
  1.50000000E+00  8.00000000E-01  8.00000000E-01  1.50000000E+00  8.00000000E-01
  8.00000000E-01  1.50000000E+00  8.00000000E-01  8.00000000E-01  1.50000000E+00
  8.00000000E-01  8.00000000E-01  1.50000000E+00  8.00000000E-01  8.00000000E-01
  1.50000000E+00  8.00000000E-01  8.00000000E-01  1.50000000E+00  8.00000000E-01
  8.00000000E-01  1.50000000E+00  8.00000000E-01  8.00000000E-01  1.50000000E+00
  8.00000000E-01  8.00000000E-01  1.50000000E+00  8.00000000E-01  8.00000000E-01
  1.50000000E+00  8.00000000E-01  8.00000000E-01  1.50000000E+00  8.00000000E-01
  8.00000000E-01  1.50000000E+00  8.00000000E-01  8.00000000E-01  1.50000000E+00
  8.00000000E-01  8.00000000E-01  1.50000000E+00  8.00000000E-01  8.00000000E-01
  1.50000000E+00  8.00000000E-01  8.00000000E-01  1.50000000E+00  8.00000000E-01
  8.00000000E-01  1.50000000E+00  8.00000000E-01  8.00000000E-01  1.50000000E+00
  8.00000000E-01  8.00000000E-01  1.50000000E+00  8.00000000E-01  8.00000000E-01
  1.50000000E+00  8.00000000E-01  8.00000000E-01  1.50000000E+00  8.00000000E-01
  8.00000000E-01  1.50000000E+00  8.00000000E-01  8.00000000E-01  1.50000000E+00
  8.00000000E-01  8.00000000E-01  1.50000000E+00  8.00000000E-01  8.00000000E-01
  1.50000000E+00  8.00000000E-01  8.00000000E-01  1.50000000E+00  8.00000000E-01
  8.00000000E-01  1.50000000E+00  8.00000000E-01  8.00000000E-01  1.50000000E+00
  8.00000000E-01  8.00000000E-01  1.50000000E+00  8.00000000E-01  8.00000000E-01
  1.50000000E+00  8.00000000E-01  8.00000000E-01  1.50000000E+00  8.00000000E-01
  8.00000000E-01  1.50000000E+00  8.00000000E-01  8.00000000E-01  1.50000000E+00
  8.00000000E-01  8.00000000E-01  1.50000000E+00  8.00000000E-01  8.00000000E-01
  1.50000000E+00  8.00000000E-01  8.00000000E-01  1.50000000E+00  8.00000000E-01
  8.00000000E-01  1.50000000E+00  8.00000000E-01  8.00000000E-01  1.50000000E+00
  8.00000000E-01  8.00000000E-01  1.50000000E+00  8.00000000E-01  8.00000000E-01
  1.50000000E+00  8.00000000E-01  8.00000000E-01  1.50000000E+00  8.00000000E-01
  8.00000000E-01  1.50000000E+00  8.00000000E-01  8.00000000E-01  1.50000000E+00
  8.00000000E-01  8.00000000E-01  1.50000000E+00  8.00000000E-01  8.00000000E-01
  1.50000000E+00  8.00000000E-01  8.00000000E-01  1.50000000E+00  8.00000000E-01
  8.00000000E-01  1.50000000E+00  8.00000000E-01  8.00000000E-01  1.50000000E+00
  8.00000000E-01  8.00000000E-01  1.50000000E+00  8.00000000E-01  8.00000000E-01
  1.50000000E+00  8.00000000E-01  8.00000000E-01  1.50000000E+00  8.00000000E-01
  8.00000000E-01  1.50000000E+00  8.00000000E-01  8.00000000E-01  1.50000000E+00
  8.00000000E-01  8.00000000E-01  1.50000000E+00  8.00000000E-01  8.00000000E-01
  1.50000000E+00  8.00000000E-01  8.00000000E-01  1.50000000E+00  8.00000000E-01
  8.00000000E-01  1.50000000E+00  8.00000000E-01  8.00000000E-01  1.50000000E+00
  8.00000000E-01  8.00000000E-01  1.50000000E+00  8.00000000E-01  8.00000000E-01
  1.50000000E+00  8.00000000E-01  8.00000000E-01  1.50000000E+00  8.00000000E-01
  8.00000000E-01  1.50000000E+00  8.00000000E-01  8.00000000E-01  1.50000000E+00
  8.00000000E-01  8.00000000E-01  1.50000000E+00  8.00000000E-01  8.00000000E-01
  1.50000000E+00  8.00000000E-01  8.00000000E-01  1.50000000E+00  8.00000000E-01
  8.00000000E-01  1.50000000E+00  8.00000000E-01  8.00000000E-01  1.50000000E+00
  8.00000000E-01  8.00000000E-01  1.50000000E+00  8.00000000E-01  8.00000000E-01
  1.50000000E+00  8.00000000E-01  8.00000000E-01  1.50000000E+00  8.00000000E-01
  8.00000000E-01  1.50000000E+00  8.00000000E-01  8.00000000E-01  1.50000000E+00
  8.00000000E-01  8.00000000E-01  1.50000000E+00  8.00000000E-01  8.00000000E-01
  1.50000000E+00  8.00000000E-01  8.00000000E-01  1.50000000E+00  8.00000000E-01
  8.00000000E-01  1.50000000E+00  8.00000000E-01  8.00000000E-01  1.50000000E+00
  8.00000000E-01  8.00000000E-01  1.50000000E+00  8.00000000E-01  8.00000000E-01
  1.50000000E+00  8.00000000E-01  8.00000000E-01  1.50000000E+00  8.00000000E-01
  8.00000000E-01  1.50000000E+00  8.00000000E-01  8.00000000E-01  1.50000000E+00
  8.00000000E-01  8.00000000E-01  1.50000000E+00  8.00000000E-01  8.00000000E-01
  1.50000000E+00  8.00000000E-01  8.00000000E-01  1.50000000E+00  8.00000000E-01
  8.00000000E-01  1.50000000E+00  8.00000000E-01  8.00000000E-01  1.50000000E+00
  8.00000000E-01  8.00000000E-01  1.50000000E+00  8.00000000E-01  8.00000000E-01
  1.50000000E+00  8.00000000E-01  8.00000000E-01  1.50000000E+00  8.00000000E-01
  8.00000000E-01  1.50000000E+00  8.00000000E-01  8.00000000E-01  1.50000000E+00
  8.00000000E-01  8.00000000E-01  1.50000000E+00  8.00000000E-01  8.00000000E-01
  1.50000000E+00  8.00000000E-01  8.00000000E-01  1.50000000E+00  8.00000000E-01
  8.00000000E-01  1.50000000E+00  8.00000000E-01  8.00000000E-01  1.50000000E+00
  8.00000000E-01  8.00000000E-01  1.50000000E+00  8.00000000E-01  8.00000000E-01
  1.50000000E+00  8.00000000E-01  8.00000000E-01  1.50000000E+00  8.00000000E-01
  8.00000000E-01  1.50000000E+00  8.00000000E-01  8.00000000E-01  1.50000000E+00
  8.00000000E-01  8.00000000E-01  1.50000000E+00  8.00000000E-01  8.00000000E-01
  1.50000000E+00  8.00000000E-01  8.00000000E-01  1.50000000E+00  8.00000000E-01
  8.00000000E-01  1.50000000E+00  8.00000000E-01  8.00000000E-01  1.50000000E+00
  8.00000000E-01  8.00000000E-01  1.50000000E+00  8.00000000E-01  8.00000000E-01
  1.50000000E+00  8.00000000E-01  8.00000000E-01  1.50000000E+00  8.00000000E-01
  8.00000000E-01  1.50000000E+00  8.00000000E-01  8.00000000E-01  1.50000000E+00
  8.00000000E-01  8.00000000E-01  1.50000000E+00  8.00000000E-01  8.00000000E-01
  1.50000000E+00  8.00000000E-01  8.00000000E-01  1.50000000E+00  8.00000000E-01
  8.00000000E-01  1.50000000E+00  8.00000000E-01  8.00000000E-01  1.50000000E+00
  8.00000000E-01  8.00000000E-01  1.50000000E+00  8.00000000E-01  8.00000000E-01
  1.50000000E+00  8.00000000E-01  8.00000000E-01  1.50000000E+00  8.00000000E-01
  8.00000000E-01  1.50000000E+00  8.00000000E-01  8.00000000E-01  1.50000000E+00
  8.00000000E-01  8.00000000E-01  1.50000000E+00  8.00000000E-01  8.00000000E-01
  1.50000000E+00  8.00000000E-01  8.00000000E-01  1.50000000E+00  8.00000000E-01
  8.00000000E-01  1.50000000E+00  8.00000000E-01  8.00000000E-01  1.50000000E+00
  8.00000000E-01  8.00000000E-01  1.50000000E+00  8.00000000E-01  8.00000000E-01
  1.50000000E+00  8.00000000E-01  8.00000000E-01  1.50000000E+00  8.00000000E-01
  8.00000000E-01  1.50000000E+00  8.00000000E-01  8.00000000E-01  1.50000000E+00
  8.00000000E-01  8.00000000E-01  1.50000000E+00  8.00000000E-01  8.00000000E-01
  1.50000000E+00  8.00000000E-01  8.00000000E-01  1.50000000E+00  8.00000000E-01
  8.00000000E-01  1.50000000E+00  8.00000000E-01  8.00000000E-01  1.50000000E+00
  8.00000000E-01  8.00000000E-01  1.50000000E+00  8.00000000E-01  8.00000000E-01
  1.50000000E+00  8.00000000E-01  8.00000000E-01  1.50000000E+00  8.00000000E-01
  8.00000000E-01  1.50000000E+00  8.00000000E-01  8.00000000E-01  1.50000000E+00
  8.00000000E-01  8.00000000E-01  1.50000000E+00  8.00000000E-01  8.00000000E-01
  1.50000000E+00  8.00000000E-01  8.00000000E-01  1.50000000E+00  8.00000000E-01
  8.00000000E-01  1.50000000E+00  8.00000000E-01  8.00000000E-01  1.50000000E+00
  8.00000000E-01  8.00000000E-01  1.50000000E+00  8.00000000E-01  8.00000000E-01
  1.50000000E+00  8.00000000E-01  8.00000000E-01  1.50000000E+00  8.00000000E-01
  8.00000000E-01  1.50000000E+00  8.00000000E-01  8.00000000E-01  1.50000000E+00
  8.00000000E-01  8.00000000E-01  1.50000000E+00  8.00000000E-01  8.00000000E-01
  1.50000000E+00  8.00000000E-01  8.00000000E-01  1.50000000E+00  8.00000000E-01
  8.00000000E-01  1.50000000E+00  8.00000000E-01  8.00000000E-01  1.50000000E+00
  8.00000000E-01  8.00000000E-01  1.50000000E+00  8.00000000E-01  8.00000000E-01
  1.50000000E+00  8.00000000E-01  8.00000000E-01  1.50000000E+00  8.00000000E-01
  8.00000000E-01  1.50000000E+00  8.00000000E-01  8.00000000E-01  1.50000000E+00
  8.00000000E-01  8.00000000E-01  1.50000000E+00  8.00000000E-01  8.00000000E-01
  1.50000000E+00  8.00000000E-01  8.00000000E-01  1.50000000E+00  8.00000000E-01
  8.00000000E-01  1.50000000E+00  8.00000000E-01  8.00000000E-01  1.50000000E+00
  8.00000000E-01  8.00000000E-01  1.50000000E+00  8.00000000E-01  8.00000000E-01
  1.50000000E+00  8.00000000E-01  8.00000000E-01  1.50000000E+00  8.00000000E-01
  8.00000000E-01  1.50000000E+00  8.00000000E-01  8.00000000E-01  1.50000000E+00
  8.00000000E-01  8.00000000E-01  1.50000000E+00  8.00000000E-01  8.00000000E-01
  1.50000000E+00  8.00000000E-01  8.00000000E-01  1.50000000E+00  8.00000000E-01
  8.00000000E-01  1.50000000E+00  8.00000000E-01  8.00000000E-01  1.50000000E+00
  8.00000000E-01  8.00000000E-01  1.50000000E+00  8.00000000E-01  8.00000000E-01
  1.50000000E+00  8.00000000E-01  8.00000000E-01  1.50000000E+00  8.00000000E-01
  8.00000000E-01  1.50000000E+00  8.00000000E-01  8.00000000E-01  1.50000000E+00
  8.00000000E-01  8.00000000E-01  1.50000000E+00  8.00000000E-01  8.00000000E-01
  1.50000000E+00  8.00000000E-01  8.00000000E-01  1.50000000E+00  8.00000000E-01
  8.00000000E-01  1.50000000E+00  8.00000000E-01  8.00000000E-01  1.50000000E+00
  8.00000000E-01  8.00000000E-01  1.50000000E+00  8.00000000E-01  8.00000000E-01
  1.50000000E+00  8.00000000E-01  8.00000000E-01  1.50000000E+00  8.00000000E-01
  8.00000000E-01  1.50000000E+00  8.00000000E-01  8.00000000E-01  1.50000000E+00
  8.00000000E-01  8.00000000E-01  1.50000000E+00  8.00000000E-01  8.00000000E-01
  1.50000000E+00  8.00000000E-01  8.00000000E-01  1.50000000E+00  8.00000000E-01
  8.00000000E-01  1.50000000E+00  8.00000000E-01  8.00000000E-01  1.50000000E+00
  8.00000000E-01  8.00000000E-01  1.50000000E+00  8.00000000E-01  8.00000000E-01
  1.50000000E+00  8.00000000E-01  8.00000000E-01  1.50000000E+00  8.00000000E-01
  8.00000000E-01  1.50000000E+00  8.00000000E-01  8.00000000E-01  1.50000000E+00
  8.00000000E-01  8.00000000E-01  1.50000000E+00  8.00000000E-01  8.00000000E-01
  1.50000000E+00  8.00000000E-01  8.00000000E-01  1.50000000E+00  8.00000000E-01
  8.00000000E-01  1.50000000E+00  8.00000000E-01  8.00000000E-01  1.50000000E+00
  8.00000000E-01  8.00000000E-01  1.50000000E+00  8.00000000E-01  8.00000000E-01
  1.50000000E+00  8.00000000E-01  8.00000000E-01  1.50000000E+00  8.00000000E-01
  8.00000000E-01  1.50000000E+00  8.00000000E-01  8.00000000E-01  1.50000000E+00
  8.00000000E-01  8.00000000E-01  1.50000000E+00  8.00000000E-01  8.00000000E-01
  1.50000000E+00  8.00000000E-01  8.00000000E-01  1.50000000E+00  8.00000000E-01
  8.00000000E-01  1.50000000E+00  8.00000000E-01  8.00000000E-01  1.50000000E+00
  8.00000000E-01  8.00000000E-01  1.50000000E+00  8.00000000E-01  8.00000000E-01
  1.50000000E+00  8.00000000E-01  8.00000000E-01  1.50000000E+00  8.00000000E-01
  8.00000000E-01  1.50000000E+00  8.00000000E-01  8.00000000E-01  1.50000000E+00
  8.00000000E-01  8.00000000E-01  1.50000000E+00  8.00000000E-01  8.00000000E-01
  1.50000000E+00  8.00000000E-01  8.00000000E-01  1.50000000E+00  8.00000000E-01
  8.00000000E-01  1.50000000E+00  8.00000000E-01  8.00000000E-01  1.50000000E+00
  8.00000000E-01  8.00000000E-01  1.50000000E+00  8.00000000E-01  8.00000000E-01
  1.50000000E+00  8.00000000E-01  8.00000000E-01  1.50000000E+00  8.00000000E-01
  8.00000000E-01  1.50000000E+00  8.00000000E-01  8.00000000E-01  1.50000000E+00
  8.00000000E-01  8.00000000E-01  1.50000000E+00  8.00000000E-01  8.00000000E-01
  1.50000000E+00  8.00000000E-01  8.00000000E-01  1.50000000E+00  8.00000000E-01
  8.00000000E-01  1.50000000E+00  8.00000000E-01  8.00000000E-01  1.50000000E+00
  8.00000000E-01  8.00000000E-01  1.50000000E+00  8.00000000E-01  8.00000000E-01
  1.50000000E+00  8.00000000E-01  8.00000000E-01  1.50000000E+00  8.00000000E-01
  8.00000000E-01  1.50000000E+00  8.00000000E-01  8.00000000E-01  1.50000000E+00
  8.00000000E-01  8.00000000E-01  1.50000000E+00  8.00000000E-01  8.00000000E-01
  1.50000000E+00  8.00000000E-01  8.00000000E-01  1.50000000E+00  8.00000000E-01
  8.00000000E-01  1.50000000E+00  8.00000000E-01  8.00000000E-01  1.50000000E+00
  8.00000000E-01  8.00000000E-01  1.50000000E+00  8.00000000E-01  8.00000000E-01
  1.50000000E+00  8.00000000E-01  8.00000000E-01  1.50000000E+00  8.00000000E-01
  8.00000000E-01  1.50000000E+00  8.00000000E-01  8.00000000E-01  1.50000000E+00
  8.00000000E-01  8.00000000E-01  1.50000000E+00  8.00000000E-01  8.00000000E-01
  1.50000000E+00  8.00000000E-01  8.00000000E-01  1.50000000E+00  8.00000000E-01
  8.00000000E-01  1.50000000E+00  8.00000000E-01  8.00000000E-01  1.50000000E+00
  8.00000000E-01  8.00000000E-01  1.50000000E+00  8.00000000E-01  8.00000000E-01
  1.50000000E+00  8.00000000E-01  8.00000000E-01  1.50000000E+00  8.00000000E-01
  8.00000000E-01  1.50000000E+00  8.00000000E-01  8.00000000E-01  1.50000000E+00
  8.00000000E-01  8.00000000E-01  1.50000000E+00  8.00000000E-01  8.00000000E-01
  1.50000000E+00  8.00000000E-01  8.00000000E-01  1.50000000E+00  8.00000000E-01
  8.00000000E-01  1.50000000E+00  8.00000000E-01  8.00000000E-01  1.50000000E+00
  8.00000000E-01  8.00000000E-01  1.50000000E+00  8.00000000E-01  8.00000000E-01
  1.50000000E+00  8.00000000E-01  8.00000000E-01  1.50000000E+00  8.00000000E-01
  8.00000000E-01  1.50000000E+00  8.00000000E-01  8.00000000E-01  1.50000000E+00
  8.00000000E-01  8.00000000E-01  1.50000000E+00  8.00000000E-01  8.00000000E-01
  1.50000000E+00  8.00000000E-01  8.00000000E-01  1.50000000E+00  8.00000000E-01
  8.00000000E-01  1.50000000E+00  8.00000000E-01  8.00000000E-01  1.50000000E+00
  8.00000000E-01  8.00000000E-01  1.50000000E+00  8.00000000E-01  8.00000000E-01
  1.50000000E+00  8.00000000E-01  8.00000000E-01  1.50000000E+00  8.00000000E-01
  8.00000000E-01  1.50000000E+00  8.00000000E-01  8.00000000E-01  1.50000000E+00
  8.00000000E-01  8.00000000E-01  1.50000000E+00  8.00000000E-01  8.00000000E-01
  1.50000000E+00  8.00000000E-01  8.00000000E-01  1.50000000E+00  8.00000000E-01
  8.00000000E-01  1.50000000E+00  8.00000000E-01  8.00000000E-01  1.50000000E+00
  8.00000000E-01  8.00000000E-01  1.50000000E+00  8.00000000E-01  8.00000000E-01
  1.50000000E+00  8.00000000E-01  8.00000000E-01  1.50000000E+00  8.00000000E-01
  8.00000000E-01  1.50000000E+00  8.00000000E-01  8.00000000E-01  1.50000000E+00
  8.00000000E-01  8.00000000E-01  1.50000000E+00  8.00000000E-01  8.00000000E-01
  1.50000000E+00  8.00000000E-01  8.00000000E-01  1.50000000E+00  8.00000000E-01
  8.00000000E-01  1.50000000E+00  8.00000000E-01  8.00000000E-01  1.50000000E+00
  8.00000000E-01  8.00000000E-01  1.50000000E+00  8.00000000E-01  8.00000000E-01
  1.50000000E+00  8.00000000E-01  8.00000000E-01  1.50000000E+00  8.00000000E-01
  8.00000000E-01  1.50000000E+00  8.00000000E-01  8.00000000E-01  1.50000000E+00
  8.00000000E-01  8.00000000E-01  1.50000000E+00  8.00000000E-01  8.00000000E-01
  1.50000000E+00  8.00000000E-01  8.00000000E-01  1.50000000E+00  8.00000000E-01
  8.00000000E-01  1.50000000E+00  8.00000000E-01  8.00000000E-01  1.50000000E+00
  8.00000000E-01  8.00000000E-01  1.50000000E+00  8.00000000E-01  8.00000000E-01
  1.50000000E+00  8.00000000E-01  8.00000000E-01  1.50000000E+00  8.00000000E-01
  8.00000000E-01  1.50000000E+00  8.00000000E-01  8.00000000E-01  1.50000000E+00
  8.00000000E-01  8.00000000E-01  1.50000000E+00  8.00000000E-01  8.00000000E-01
  1.50000000E+00  8.00000000E-01  8.00000000E-01  1.50000000E+00  8.00000000E-01
  8.00000000E-01  1.50000000E+00  8.00000000E-01  8.00000000E-01  1.50000000E+00
  8.00000000E-01  8.00000000E-01  1.50000000E+00  8.00000000E-01  8.00000000E-01
  1.50000000E+00  8.00000000E-01  8.00000000E-01  1.50000000E+00  8.00000000E-01
  8.00000000E-01  1.50000000E+00  8.00000000E-01  8.00000000E-01  1.50000000E+00
  8.00000000E-01  8.00000000E-01  1.50000000E+00  8.00000000E-01  8.00000000E-01
  1.50000000E+00  8.00000000E-01  8.00000000E-01  1.50000000E+00  8.00000000E-01
  8.00000000E-01  1.50000000E+00  8.00000000E-01  8.00000000E-01  1.50000000E+00
  8.00000000E-01  8.00000000E-01  1.50000000E+00  8.00000000E-01  8.00000000E-01
  1.50000000E+00  8.00000000E-01  8.00000000E-01  1.50000000E+00  8.00000000E-01
  8.00000000E-01  1.50000000E+00  8.00000000E-01  8.00000000E-01  1.50000000E+00
  8.00000000E-01  8.00000000E-01  1.50000000E+00  8.00000000E-01  8.00000000E-01
  1.50000000E+00  8.00000000E-01  8.00000000E-01  1.50000000E+00  8.00000000E-01
  8.00000000E-01  1.50000000E+00  8.00000000E-01  8.00000000E-01  1.50000000E+00
  8.00000000E-01  8.00000000E-01  1.50000000E+00  8.00000000E-01  8.00000000E-01
  1.50000000E+00  8.00000000E-01  8.00000000E-01  1.50000000E+00  8.00000000E-01
  8.00000000E-01  1.50000000E+00  8.00000000E-01  8.00000000E-01  1.50000000E+00
  8.00000000E-01  8.00000000E-01  1.50000000E+00  8.00000000E-01  8.00000000E-01
  1.50000000E+00  8.00000000E-01  8.00000000E-01  1.50000000E+00  8.00000000E-01
  8.00000000E-01  1.50000000E+00  8.00000000E-01  8.00000000E-01  1.50000000E+00
  8.00000000E-01  8.00000000E-01  1.50000000E+00  8.00000000E-01  8.00000000E-01
  1.50000000E+00  8.00000000E-01  8.00000000E-01  1.50000000E+00  8.00000000E-01
  8.00000000E-01  1.50000000E+00  8.00000000E-01  8.00000000E-01  1.50000000E+00
  8.00000000E-01  8.00000000E-01  1.50000000E+00  8.00000000E-01  8.00000000E-01
  1.50000000E+00  8.00000000E-01  8.00000000E-01  1.50000000E+00  8.00000000E-01
  8.00000000E-01  1.50000000E+00  8.00000000E-01  8.00000000E-01  1.50000000E+00
  8.00000000E-01  8.00000000E-01  1.50000000E+00  8.00000000E-01  8.00000000E-01
  1.50000000E+00  8.00000000E-01  8.00000000E-01  1.50000000E+00  8.00000000E-01
  8.00000000E-01  1.50000000E+00  8.00000000E-01  8.00000000E-01  1.50000000E+00
  8.00000000E-01  8.00000000E-01  1.50000000E+00  8.00000000E-01  8.00000000E-01
  1.50000000E+00  8.00000000E-01  8.00000000E-01  1.50000000E+00  8.00000000E-01
  8.00000000E-01  1.50000000E+00  8.00000000E-01  8.00000000E-01  1.50000000E+00
  8.00000000E-01  8.00000000E-01  1.50000000E+00  8.00000000E-01  8.00000000E-01
  1.50000000E+00  8.00000000E-01  8.00000000E-01  1.50000000E+00  8.00000000E-01
  8.00000000E-01  1.50000000E+00  8.00000000E-01  8.00000000E-01  1.50000000E+00
  8.00000000E-01  8.00000000E-01  1.50000000E+00  8.00000000E-01  8.00000000E-01
  1.50000000E+00  8.00000000E-01  8.00000000E-01  1.50000000E+00  8.00000000E-01
  8.00000000E-01  1.50000000E+00  8.00000000E-01  8.00000000E-01  1.50000000E+00
  8.00000000E-01  8.00000000E-01  1.50000000E+00  8.00000000E-01  8.00000000E-01
  1.50000000E+00  8.00000000E-01  8.00000000E-01  1.50000000E+00  8.00000000E-01
  8.00000000E-01  1.50000000E+00  8.00000000E-01  8.00000000E-01  1.50000000E+00
  8.00000000E-01  8.00000000E-01  1.50000000E+00  8.00000000E-01  8.00000000E-01
  1.50000000E+00  8.00000000E-01  8.00000000E-01  1.50000000E+00  8.00000000E-01
  8.00000000E-01  1.50000000E+00  8.00000000E-01  8.00000000E-01  1.50000000E+00
  8.00000000E-01  8.00000000E-01  1.50000000E+00  8.00000000E-01  8.00000000E-01
  1.50000000E+00  8.00000000E-01  8.00000000E-01  1.50000000E+00  8.00000000E-01
  8.00000000E-01  1.50000000E+00  8.00000000E-01  8.00000000E-01  1.50000000E+00
  8.00000000E-01  8.00000000E-01  1.50000000E+00  8.00000000E-01  8.00000000E-01
  1.50000000E+00  8.00000000E-01  8.00000000E-01  1.50000000E+00  8.00000000E-01
  8.00000000E-01  1.50000000E+00  8.00000000E-01  8.00000000E-01  1.50000000E+00
  8.00000000E-01  8.00000000E-01  1.50000000E+00  8.00000000E-01  8.00000000E-01
  1.50000000E+00  8.00000000E-01  8.00000000E-01  1.50000000E+00  8.00000000E-01
  8.00000000E-01  1.50000000E+00  8.00000000E-01  8.00000000E-01  1.50000000E+00
  8.00000000E-01  8.00000000E-01  1.50000000E+00  8.00000000E-01  8.00000000E-01
  1.50000000E+00  8.00000000E-01  8.00000000E-01  1.50000000E+00  8.00000000E-01
  8.00000000E-01  1.50000000E+00  8.00000000E-01  8.00000000E-01  1.50000000E+00
  8.00000000E-01  8.00000000E-01  1.50000000E+00  8.00000000E-01  8.00000000E-01
  1.50000000E+00  8.00000000E-01  8.00000000E-01  1.50000000E+00  8.00000000E-01
  8.00000000E-01  1.50000000E+00  8.00000000E-01  8.00000000E-01  1.50000000E+00
  8.00000000E-01  8.00000000E-01  1.50000000E+00  8.00000000E-01  8.00000000E-01
  1.50000000E+00  8.00000000E-01  8.00000000E-01  1.50000000E+00  8.00000000E-01
  8.00000000E-01  1.50000000E+00  8.00000000E-01  8.00000000E-01  1.50000000E+00
  8.00000000E-01  8.00000000E-01  1.50000000E+00  8.00000000E-01  8.00000000E-01
  1.50000000E+00  8.00000000E-01  8.00000000E-01  1.50000000E+00  8.00000000E-01
  8.00000000E-01  1.50000000E+00  8.00000000E-01  8.00000000E-01  1.50000000E+00
  8.00000000E-01  8.00000000E-01  1.50000000E+00  8.00000000E-01  8.00000000E-01
  1.50000000E+00  8.00000000E-01  8.00000000E-01  1.50000000E+00  8.00000000E-01
  8.00000000E-01  1.50000000E+00  8.00000000E-01  8.00000000E-01  1.50000000E+00
  8.00000000E-01  8.00000000E-01  1.50000000E+00  8.00000000E-01  8.00000000E-01
  1.50000000E+00  8.00000000E-01  8.00000000E-01  1.50000000E+00  8.00000000E-01
  8.00000000E-01  1.50000000E+00  8.00000000E-01  8.00000000E-01  1.50000000E+00
  8.00000000E-01  8.00000000E-01  1.50000000E+00  8.00000000E-01  8.00000000E-01
  1.50000000E+00  8.00000000E-01  8.00000000E-01  1.50000000E+00  8.00000000E-01
  8.00000000E-01  1.50000000E+00  8.00000000E-01  8.00000000E-01  1.50000000E+00
  8.00000000E-01  8.00000000E-01  1.50000000E+00  8.00000000E-01  8.00000000E-01
  1.50000000E+00  8.00000000E-01  8.00000000E-01  1.50000000E+00  8.00000000E-01
  8.00000000E-01  1.50000000E+00  8.00000000E-01  8.00000000E-01  1.50000000E+00
  8.00000000E-01  8.00000000E-01  1.50000000E+00  8.00000000E-01  8.00000000E-01
  1.50000000E+00  8.00000000E-01  8.00000000E-01  1.50000000E+00  8.00000000E-01
  8.00000000E-01  1.50000000E+00  8.00000000E-01  8.00000000E-01  1.50000000E+00
  8.00000000E-01  8.00000000E-01  1.50000000E+00  8.00000000E-01  8.00000000E-01
  1.50000000E+00  8.00000000E-01  8.00000000E-01  1.50000000E+00  8.00000000E-01
  8.00000000E-01  1.50000000E+00  8.00000000E-01  8.00000000E-01  1.50000000E+00
  8.00000000E-01  8.00000000E-01  1.50000000E+00  8.00000000E-01  8.00000000E-01
  1.50000000E+00  8.00000000E-01  8.00000000E-01  1.50000000E+00  8.00000000E-01
  8.00000000E-01  1.50000000E+00  8.00000000E-01  8.00000000E-01  1.50000000E+00
  8.00000000E-01  8.00000000E-01  1.50000000E+00  8.00000000E-01  8.00000000E-01
  1.50000000E+00  8.00000000E-01  8.00000000E-01  1.50000000E+00  8.00000000E-01
  8.00000000E-01  1.50000000E+00  8.00000000E-01  8.00000000E-01  1.50000000E+00
  8.00000000E-01  8.00000000E-01  1.50000000E+00  8.00000000E-01  8.00000000E-01
  1.50000000E+00  8.00000000E-01  8.00000000E-01  1.50000000E+00  8.00000000E-01
  8.00000000E-01  1.50000000E+00  8.00000000E-01  8.00000000E-01  1.50000000E+00
  8.00000000E-01  8.00000000E-01  1.50000000E+00  8.00000000E-01  8.00000000E-01
  1.50000000E+00  8.00000000E-01  8.00000000E-01  1.50000000E+00  8.00000000E-01
  8.00000000E-01  1.50000000E+00  8.00000000E-01  8.00000000E-01  1.50000000E+00
  8.00000000E-01  8.00000000E-01  1.50000000E+00  8.00000000E-01  8.00000000E-01
  1.50000000E+00  8.00000000E-01  8.00000000E-01  1.50000000E+00  8.00000000E-01
  8.00000000E-01  1.50000000E+00  8.00000000E-01  8.00000000E-01  1.50000000E+00
  8.00000000E-01  8.00000000E-01  1.50000000E+00  8.00000000E-01  8.00000000E-01
  1.50000000E+00  8.00000000E-01  8.00000000E-01  1.50000000E+00  8.00000000E-01
  8.00000000E-01  1.50000000E+00  8.00000000E-01  8.00000000E-01  1.50000000E+00
  8.00000000E-01  8.00000000E-01  1.50000000E+00  8.00000000E-01  8.00000000E-01
  1.50000000E+00  8.00000000E-01  8.00000000E-01  1.50000000E+00  8.00000000E-01
  8.00000000E-01  1.50000000E+00  8.00000000E-01  8.00000000E-01  1.50000000E+00
  8.00000000E-01  8.00000000E-01  1.50000000E+00  8.00000000E-01  8.00000000E-01
  1.50000000E+00  8.00000000E-01  8.00000000E-01  1.50000000E+00  8.00000000E-01
  8.00000000E-01  1.50000000E+00  8.00000000E-01  8.00000000E-01  1.50000000E+00
  8.00000000E-01  8.00000000E-01  1.50000000E+00  8.00000000E-01  8.00000000E-01
  1.50000000E+00  8.00000000E-01  8.00000000E-01  1.50000000E+00  8.00000000E-01
  8.00000000E-01  1.50000000E+00  8.00000000E-01  8.00000000E-01  1.50000000E+00
  8.00000000E-01  8.00000000E-01  1.50000000E+00  8.00000000E-01  8.00000000E-01
  1.50000000E+00  8.00000000E-01  8.00000000E-01  1.50000000E+00  8.00000000E-01
  8.00000000E-01  1.50000000E+00  8.00000000E-01  8.00000000E-01  1.50000000E+00
  8.00000000E-01  8.00000000E-01  1.50000000E+00  8.00000000E-01  8.00000000E-01
  1.50000000E+00  8.00000000E-01  8.00000000E-01  1.50000000E+00  8.00000000E-01
  8.00000000E-01  1.50000000E+00  8.00000000E-01  8.00000000E-01  1.50000000E+00
  8.00000000E-01  8.00000000E-01  1.50000000E+00  8.00000000E-01  8.00000000E-01
  1.50000000E+00  8.00000000E-01  8.00000000E-01  1.50000000E+00  8.00000000E-01
  8.00000000E-01  1.50000000E+00  8.00000000E-01  8.00000000E-01  1.50000000E+00
  8.00000000E-01  8.00000000E-01  1.50000000E+00  8.00000000E-01  8.00000000E-01
  1.50000000E+00  8.00000000E-01  8.00000000E-01  1.50000000E+00  8.00000000E-01
  8.00000000E-01  1.50000000E+00  8.00000000E-01  8.00000000E-01  1.50000000E+00
  8.00000000E-01  8.00000000E-01  1.50000000E+00  8.00000000E-01  8.00000000E-01
  1.50000000E+00  8.00000000E-01  8.00000000E-01  1.50000000E+00  8.00000000E-01
  8.00000000E-01  1.50000000E+00  8.00000000E-01  8.00000000E-01  1.50000000E+00
  8.00000000E-01  8.00000000E-01  1.50000000E+00  8.00000000E-01  8.00000000E-01
  1.50000000E+00  8.00000000E-01  8.00000000E-01  1.50000000E+00  8.00000000E-01
  8.00000000E-01  1.50000000E+00  8.00000000E-01  8.00000000E-01  1.50000000E+00
  8.00000000E-01  8.00000000E-01  1.50000000E+00  8.00000000E-01  8.00000000E-01
  1.50000000E+00  8.00000000E-01  8.00000000E-01  1.50000000E+00  8.00000000E-01
  8.00000000E-01  1.50000000E+00  8.00000000E-01  8.00000000E-01  1.50000000E+00
  8.00000000E-01  8.00000000E-01  1.50000000E+00  8.00000000E-01  8.00000000E-01
  1.50000000E+00  8.00000000E-01  8.00000000E-01  1.50000000E+00  8.00000000E-01
  8.00000000E-01  1.50000000E+00  8.00000000E-01  8.00000000E-01  1.50000000E+00
  8.00000000E-01  8.00000000E-01  1.50000000E+00  8.00000000E-01  8.00000000E-01
  1.50000000E+00  8.00000000E-01  8.00000000E-01  1.50000000E+00  8.00000000E-01
  8.00000000E-01  1.50000000E+00  8.00000000E-01  8.00000000E-01  1.50000000E+00
  8.00000000E-01  8.00000000E-01  1.50000000E+00  8.00000000E-01  8.00000000E-01
  1.50000000E+00  8.00000000E-01  8.00000000E-01  1.50000000E+00  8.00000000E-01
  8.00000000E-01  1.50000000E+00  8.00000000E-01  8.00000000E-01  1.50000000E+00
  8.00000000E-01  8.00000000E-01  1.50000000E+00  8.00000000E-01  8.00000000E-01
  1.50000000E+00  8.00000000E-01  8.00000000E-01  1.50000000E+00  8.00000000E-01
  8.00000000E-01  1.50000000E+00  8.00000000E-01  8.00000000E-01  1.50000000E+00
  8.00000000E-01  8.00000000E-01  1.50000000E+00  8.00000000E-01  8.00000000E-01
  1.50000000E+00  8.00000000E-01  8.00000000E-01  1.50000000E+00  8.00000000E-01
  8.00000000E-01  1.50000000E+00  8.00000000E-01  8.00000000E-01  1.50000000E+00
  8.00000000E-01  8.00000000E-01  1.50000000E+00  8.00000000E-01  8.00000000E-01
  1.50000000E+00  8.00000000E-01  8.00000000E-01  1.50000000E+00  8.00000000E-01
  8.00000000E-01  1.50000000E+00  8.00000000E-01  8.00000000E-01  1.50000000E+00
  8.00000000E-01  8.00000000E-01  1.50000000E+00  8.00000000E-01  8.00000000E-01
  1.50000000E+00  8.00000000E-01  8.00000000E-01  1.50000000E+00  8.00000000E-01
  8.00000000E-01  1.50000000E+00  8.00000000E-01  8.00000000E-01  1.50000000E+00
  8.00000000E-01  8.00000000E-01  1.50000000E+00  8.00000000E-01  8.00000000E-01
  1.50000000E+00  8.00000000E-01  8.00000000E-01  1.50000000E+00  8.00000000E-01
  8.00000000E-01  1.50000000E+00  8.00000000E-01  8.00000000E-01  1.50000000E+00
  8.00000000E-01  8.00000000E-01  1.50000000E+00  8.00000000E-01  8.00000000E-01
  1.50000000E+00  8.00000000E-01  8.00000000E-01  1.50000000E+00  8.00000000E-01
  8.00000000E-01  1.50000000E+00  8.00000000E-01  8.00000000E-01  1.50000000E+00
  8.00000000E-01  8.00000000E-01  1.50000000E+00  8.00000000E-01  8.00000000E-01
  1.50000000E+00  8.00000000E-01  8.00000000E-01  1.50000000E+00  8.00000000E-01
  8.00000000E-01  1.50000000E+00  8.00000000E-01  8.00000000E-01  1.50000000E+00
  8.00000000E-01  8.00000000E-01  1.50000000E+00  8.00000000E-01  8.00000000E-01
  1.50000000E+00  8.00000000E-01  8.00000000E-01  1.50000000E+00  8.00000000E-01
  8.00000000E-01  1.50000000E+00  8.00000000E-01  8.00000000E-01  1.50000000E+00
  8.00000000E-01  8.00000000E-01  1.50000000E+00  8.00000000E-01  8.00000000E-01
  1.50000000E+00  8.00000000E-01  8.00000000E-01  1.50000000E+00  8.00000000E-01
  8.00000000E-01  1.50000000E+00  8.00000000E-01  8.00000000E-01  1.50000000E+00
  8.00000000E-01  8.00000000E-01  1.50000000E+00  8.00000000E-01  8.00000000E-01
  1.50000000E+00  8.00000000E-01  8.00000000E-01  1.50000000E+00  8.00000000E-01
  8.00000000E-01  1.50000000E+00  8.00000000E-01  8.00000000E-01  1.50000000E+00
  8.00000000E-01  8.00000000E-01  1.50000000E+00  8.00000000E-01  8.00000000E-01
  1.50000000E+00  8.00000000E-01  8.00000000E-01  1.50000000E+00  8.00000000E-01
  8.00000000E-01  1.50000000E+00  8.00000000E-01  8.00000000E-01  1.50000000E+00
  8.00000000E-01  8.00000000E-01  1.50000000E+00  8.00000000E-01  8.00000000E-01
  1.50000000E+00  8.00000000E-01  8.00000000E-01  1.50000000E+00  8.00000000E-01
  8.00000000E-01  1.50000000E+00  8.00000000E-01  8.00000000E-01  1.50000000E+00
  8.00000000E-01  8.00000000E-01  1.50000000E+00  8.00000000E-01  8.00000000E-01
  1.50000000E+00  8.00000000E-01  8.00000000E-01  1.50000000E+00  8.00000000E-01
  8.00000000E-01  1.50000000E+00  8.00000000E-01  8.00000000E-01  1.50000000E+00
  8.00000000E-01  8.00000000E-01  1.50000000E+00  8.00000000E-01  8.00000000E-01
  1.50000000E+00  8.00000000E-01  8.00000000E-01  1.50000000E+00  8.00000000E-01
  8.00000000E-01  1.50000000E+00  8.00000000E-01  8.00000000E-01  1.50000000E+00
  8.00000000E-01  8.00000000E-01  1.50000000E+00  8.00000000E-01  8.00000000E-01
  1.50000000E+00  8.00000000E-01  8.00000000E-01  1.50000000E+00  8.00000000E-01
  8.00000000E-01  1.50000000E+00  8.00000000E-01  8.00000000E-01  1.50000000E+00
  8.00000000E-01  8.00000000E-01  1.50000000E+00  8.00000000E-01  8.00000000E-01
  1.50000000E+00  8.00000000E-01  8.00000000E-01  1.50000000E+00  8.00000000E-01
  8.00000000E-01  1.50000000E+00  8.00000000E-01  8.00000000E-01  1.50000000E+00
  8.00000000E-01  8.00000000E-01  1.50000000E+00  8.00000000E-01  8.00000000E-01
  1.50000000E+00  8.00000000E-01  8.00000000E-01  1.50000000E+00  8.00000000E-01
  8.00000000E-01  1.50000000E+00  8.00000000E-01  8.00000000E-01  1.50000000E+00
  8.00000000E-01  8.00000000E-01  1.50000000E+00  8.00000000E-01  8.00000000E-01
  1.50000000E+00  8.00000000E-01  8.00000000E-01  1.50000000E+00  8.00000000E-01
  8.00000000E-01  1.50000000E+00  8.00000000E-01  8.00000000E-01  1.50000000E+00
  8.00000000E-01  8.00000000E-01  1.50000000E+00  8.00000000E-01  8.00000000E-01
  1.50000000E+00  8.00000000E-01  8.00000000E-01  1.50000000E+00  8.00000000E-01
  8.00000000E-01  1.50000000E+00  8.00000000E-01  8.00000000E-01  1.50000000E+00
  8.00000000E-01  8.00000000E-01  1.50000000E+00  8.00000000E-01  8.00000000E-01
  1.50000000E+00  8.00000000E-01  8.00000000E-01  1.50000000E+00  8.00000000E-01
  8.00000000E-01  1.50000000E+00  8.00000000E-01  8.00000000E-01  1.50000000E+00
  8.00000000E-01  8.00000000E-01  1.50000000E+00  8.00000000E-01  8.00000000E-01
  1.50000000E+00  8.00000000E-01  8.00000000E-01  1.50000000E+00  8.00000000E-01
  8.00000000E-01  1.50000000E+00  8.00000000E-01  8.00000000E-01  1.50000000E+00
  8.00000000E-01  8.00000000E-01  1.50000000E+00  8.00000000E-01  8.00000000E-01
  1.50000000E+00  8.00000000E-01  8.00000000E-01  1.50000000E+00  8.00000000E-01
  8.00000000E-01  1.50000000E+00  8.00000000E-01  8.00000000E-01  1.50000000E+00
  8.00000000E-01  8.00000000E-01  1.50000000E+00  8.00000000E-01  8.00000000E-01
  1.50000000E+00  8.00000000E-01  8.00000000E-01  1.50000000E+00  8.00000000E-01
  8.00000000E-01  1.50000000E+00  8.00000000E-01  8.00000000E-01  1.50000000E+00
  8.00000000E-01  8.00000000E-01  1.50000000E+00  8.00000000E-01  8.00000000E-01
  1.50000000E+00  8.00000000E-01  8.00000000E-01  1.50000000E+00  8.00000000E-01
  8.00000000E-01  1.50000000E+00  8.00000000E-01  8.00000000E-01  1.50000000E+00
  8.00000000E-01  8.00000000E-01  1.50000000E+00  8.00000000E-01  8.00000000E-01
  1.50000000E+00  8.00000000E-01  8.00000000E-01  1.50000000E+00  8.00000000E-01
  8.00000000E-01  1.50000000E+00  8.00000000E-01  8.00000000E-01  1.50000000E+00
  8.00000000E-01  8.00000000E-01  1.50000000E+00  8.00000000E-01  8.00000000E-01
  1.50000000E+00  8.00000000E-01  8.00000000E-01  1.50000000E+00  8.00000000E-01
  8.00000000E-01  1.50000000E+00  8.00000000E-01  8.00000000E-01  1.50000000E+00
  8.00000000E-01  8.00000000E-01  1.50000000E+00  8.00000000E-01  8.00000000E-01
  1.50000000E+00  8.00000000E-01  8.00000000E-01  1.50000000E+00  8.00000000E-01
  8.00000000E-01  1.50000000E+00  8.00000000E-01  8.00000000E-01  1.50000000E+00
  8.00000000E-01  8.00000000E-01  1.50000000E+00  8.00000000E-01  8.00000000E-01
  1.50000000E+00  8.00000000E-01  8.00000000E-01  1.50000000E+00  8.00000000E-01
  8.00000000E-01  1.50000000E+00  8.00000000E-01  8.00000000E-01  1.50000000E+00
  8.00000000E-01  8.00000000E-01  1.50000000E+00  8.00000000E-01  8.00000000E-01
  1.50000000E+00  8.00000000E-01  8.00000000E-01  1.50000000E+00  8.00000000E-01
  8.00000000E-01  1.50000000E+00  8.00000000E-01  8.00000000E-01  1.50000000E+00
  8.00000000E-01  8.00000000E-01  1.50000000E+00  8.00000000E-01  8.00000000E-01
  1.50000000E+00  8.00000000E-01  8.00000000E-01  1.50000000E+00  8.00000000E-01
  8.00000000E-01  1.50000000E+00  8.00000000E-01  8.00000000E-01  1.50000000E+00
  8.00000000E-01  8.00000000E-01  1.50000000E+00  8.00000000E-01  8.00000000E-01
  1.50000000E+00  8.00000000E-01  8.00000000E-01  1.50000000E+00  8.00000000E-01
  8.00000000E-01  1.50000000E+00  8.00000000E-01  8.00000000E-01  1.50000000E+00
  8.00000000E-01  8.00000000E-01  1.50000000E+00  8.00000000E-01  8.00000000E-01
  1.50000000E+00  8.00000000E-01  8.00000000E-01  1.50000000E+00  8.00000000E-01
  8.00000000E-01  1.50000000E+00  8.00000000E-01  8.00000000E-01  1.50000000E+00
  8.00000000E-01  8.00000000E-01  1.50000000E+00  8.00000000E-01  8.00000000E-01
  1.50000000E+00  8.00000000E-01  8.00000000E-01  1.50000000E+00  8.00000000E-01
  8.00000000E-01  1.50000000E+00  8.00000000E-01  8.00000000E-01  1.50000000E+00
  8.00000000E-01  8.00000000E-01  1.50000000E+00  8.00000000E-01  8.00000000E-01
  1.50000000E+00  8.00000000E-01  8.00000000E-01  1.50000000E+00  8.00000000E-01
  8.00000000E-01  1.50000000E+00  8.00000000E-01  8.00000000E-01  1.50000000E+00
  8.00000000E-01  8.00000000E-01  1.50000000E+00  8.00000000E-01  8.00000000E-01
  1.50000000E+00  8.00000000E-01  8.00000000E-01  1.50000000E+00  8.00000000E-01
  8.00000000E-01  1.50000000E+00  8.00000000E-01  8.00000000E-01  1.50000000E+00
  8.00000000E-01  8.00000000E-01  1.50000000E+00  8.00000000E-01  8.00000000E-01
  1.50000000E+00  8.00000000E-01  8.00000000E-01  1.50000000E+00  8.00000000E-01
  8.00000000E-01  1.50000000E+00  8.00000000E-01  8.00000000E-01  1.50000000E+00
  8.00000000E-01  8.00000000E-01  1.50000000E+00  8.00000000E-01  8.00000000E-01
  1.50000000E+00  8.00000000E-01  8.00000000E-01  1.50000000E+00  8.00000000E-01
  8.00000000E-01  1.50000000E+00  8.00000000E-01  8.00000000E-01  1.50000000E+00
  8.00000000E-01  8.00000000E-01  1.50000000E+00  8.00000000E-01  8.00000000E-01
  1.50000000E+00  8.00000000E-01  8.00000000E-01  1.50000000E+00  8.00000000E-01
  8.00000000E-01  1.50000000E+00  8.00000000E-01  8.00000000E-01  1.50000000E+00
  8.00000000E-01  8.00000000E-01  1.50000000E+00  8.00000000E-01  8.00000000E-01
  1.50000000E+00  8.00000000E-01  8.00000000E-01  1.50000000E+00  8.00000000E-01
  8.00000000E-01  1.50000000E+00  8.00000000E-01  8.00000000E-01  1.50000000E+00
  8.00000000E-01  8.00000000E-01  1.50000000E+00  8.00000000E-01  8.00000000E-01
  1.50000000E+00  8.00000000E-01  8.00000000E-01  1.50000000E+00  8.00000000E-01
  8.00000000E-01  1.50000000E+00  8.00000000E-01  8.00000000E-01  1.50000000E+00
  8.00000000E-01  8.00000000E-01  1.50000000E+00  8.00000000E-01  8.00000000E-01
  1.50000000E+00  8.00000000E-01  8.00000000E-01  1.50000000E+00  8.00000000E-01
  8.00000000E-01  1.50000000E+00  8.00000000E-01  8.00000000E-01  1.50000000E+00
  8.00000000E-01  8.00000000E-01  1.50000000E+00  8.00000000E-01  8.00000000E-01
  1.50000000E+00  8.00000000E-01  8.00000000E-01  1.50000000E+00  8.00000000E-01
  8.00000000E-01  1.50000000E+00  8.00000000E-01  8.00000000E-01  1.50000000E+00
  8.00000000E-01  8.00000000E-01  1.50000000E+00  8.00000000E-01  8.00000000E-01
  1.50000000E+00  8.00000000E-01  8.00000000E-01  1.50000000E+00  8.00000000E-01
  8.00000000E-01  1.50000000E+00  8.00000000E-01  8.00000000E-01  1.50000000E+00
  8.00000000E-01  8.00000000E-01  1.50000000E+00  8.00000000E-01  8.00000000E-01
  1.50000000E+00  8.00000000E-01  8.00000000E-01  1.50000000E+00  8.00000000E-01
  8.00000000E-01  1.50000000E+00  8.00000000E-01  8.00000000E-01  1.50000000E+00
  8.00000000E-01  8.00000000E-01  1.50000000E+00  8.00000000E-01  8.00000000E-01
  1.50000000E+00  8.00000000E-01  8.00000000E-01  1.50000000E+00  8.00000000E-01
  8.00000000E-01  1.50000000E+00  8.00000000E-01  8.00000000E-01  1.50000000E+00
  8.00000000E-01  8.00000000E-01  1.50000000E+00  8.00000000E-01  8.00000000E-01
  1.50000000E+00  8.00000000E-01  8.00000000E-01  1.50000000E+00  8.00000000E-01
  8.00000000E-01  1.50000000E+00  8.00000000E-01  8.00000000E-01  1.50000000E+00
  8.00000000E-01  8.00000000E-01  1.50000000E+00  8.00000000E-01  8.00000000E-01
  1.50000000E+00  8.00000000E-01  8.00000000E-01  1.50000000E+00  8.00000000E-01
  8.00000000E-01  1.50000000E+00  8.00000000E-01  8.00000000E-01  1.50000000E+00
  8.00000000E-01  8.00000000E-01  1.50000000E+00  8.00000000E-01  8.00000000E-01
  1.50000000E+00  8.00000000E-01  8.00000000E-01  1.50000000E+00  8.00000000E-01
  8.00000000E-01  1.50000000E+00  8.00000000E-01  8.00000000E-01  1.50000000E+00
  8.00000000E-01  8.00000000E-01  1.50000000E+00  8.00000000E-01  8.00000000E-01
  1.50000000E+00  8.00000000E-01  8.00000000E-01  1.50000000E+00  8.00000000E-01
  8.00000000E-01  1.50000000E+00  8.00000000E-01  8.00000000E-01  1.50000000E+00
  8.00000000E-01  8.00000000E-01  1.50000000E+00  8.00000000E-01  8.00000000E-01
  1.50000000E+00  8.00000000E-01  8.00000000E-01  1.50000000E+00  8.00000000E-01
  8.00000000E-01  1.50000000E+00  8.00000000E-01  8.00000000E-01  1.50000000E+00
  8.00000000E-01  8.00000000E-01  1.50000000E+00  8.00000000E-01  8.00000000E-01
  1.50000000E+00  8.00000000E-01  8.00000000E-01  1.50000000E+00  8.00000000E-01
  8.00000000E-01  1.50000000E+00  8.00000000E-01  8.00000000E-01  1.50000000E+00
  8.00000000E-01  8.00000000E-01  1.50000000E+00  8.00000000E-01  8.00000000E-01
  1.50000000E+00  8.00000000E-01  8.00000000E-01  1.50000000E+00  8.00000000E-01
  8.00000000E-01  1.50000000E+00  8.00000000E-01  8.00000000E-01  1.50000000E+00
  8.00000000E-01  8.00000000E-01  1.50000000E+00  8.00000000E-01  8.00000000E-01
  1.50000000E+00  8.00000000E-01  8.00000000E-01  1.50000000E+00  8.00000000E-01
  8.00000000E-01  1.50000000E+00  8.00000000E-01  8.00000000E-01  1.50000000E+00
  8.00000000E-01  8.00000000E-01  1.50000000E+00  8.00000000E-01  8.00000000E-01
  1.50000000E+00  8.00000000E-01  8.00000000E-01  1.50000000E+00  8.00000000E-01
  8.00000000E-01  1.50000000E+00  8.00000000E-01  8.00000000E-01  1.50000000E+00
  8.00000000E-01  8.00000000E-01  1.50000000E+00  8.00000000E-01  8.00000000E-01
  1.50000000E+00  8.00000000E-01  8.00000000E-01  1.50000000E+00  8.00000000E-01
  8.00000000E-01  1.50000000E+00  8.00000000E-01  8.00000000E-01  1.50000000E+00
  8.00000000E-01  8.00000000E-01  1.50000000E+00  8.00000000E-01  8.00000000E-01
  1.50000000E+00  8.00000000E-01  8.00000000E-01  1.50000000E+00  8.00000000E-01
  8.00000000E-01  1.50000000E+00  8.00000000E-01  8.00000000E-01  1.50000000E+00
  8.00000000E-01  8.00000000E-01  1.50000000E+00  8.00000000E-01  8.00000000E-01
  1.50000000E+00  8.00000000E-01  8.00000000E-01  1.50000000E+00  8.00000000E-01
  8.00000000E-01  1.50000000E+00  8.00000000E-01  8.00000000E-01  1.50000000E+00
  8.00000000E-01  8.00000000E-01  1.50000000E+00  8.00000000E-01  8.00000000E-01
  1.50000000E+00  8.00000000E-01  8.00000000E-01  1.50000000E+00  8.00000000E-01
  8.00000000E-01  1.50000000E+00  8.00000000E-01  8.00000000E-01  1.50000000E+00
  8.00000000E-01  8.00000000E-01  1.50000000E+00  8.00000000E-01  8.00000000E-01
  1.50000000E+00  8.00000000E-01  8.00000000E-01  1.50000000E+00  8.00000000E-01
  8.00000000E-01  1.50000000E+00  8.00000000E-01  8.00000000E-01  1.50000000E+00
  8.00000000E-01  8.00000000E-01  1.50000000E+00  8.00000000E-01  8.00000000E-01
  1.50000000E+00  8.00000000E-01  8.00000000E-01  1.50000000E+00  8.00000000E-01
  8.00000000E-01  1.50000000E+00  8.00000000E-01  8.00000000E-01  1.50000000E+00
  8.00000000E-01  8.00000000E-01  1.50000000E+00  8.00000000E-01  8.00000000E-01
  1.50000000E+00  8.00000000E-01  8.00000000E-01  1.50000000E+00  8.00000000E-01
  8.00000000E-01  1.50000000E+00  8.00000000E-01  8.00000000E-01  1.50000000E+00
  8.00000000E-01  8.00000000E-01  1.50000000E+00  8.00000000E-01  8.00000000E-01
  1.50000000E+00  8.00000000E-01  8.00000000E-01  1.50000000E+00  8.00000000E-01
  8.00000000E-01  1.50000000E+00  8.00000000E-01  8.00000000E-01  1.50000000E+00
  8.00000000E-01  8.00000000E-01  1.50000000E+00  8.00000000E-01  8.00000000E-01
  1.50000000E+00  8.00000000E-01  8.00000000E-01  1.50000000E+00  8.00000000E-01
  8.00000000E-01  1.50000000E+00  8.00000000E-01  8.00000000E-01  1.50000000E+00
  8.00000000E-01  8.00000000E-01  1.50000000E+00  8.00000000E-01  8.00000000E-01
  1.50000000E+00  8.00000000E-01  8.00000000E-01  1.50000000E+00  8.00000000E-01
  8.00000000E-01  1.50000000E+00  8.00000000E-01  8.00000000E-01  1.50000000E+00
  8.00000000E-01  8.00000000E-01  1.50000000E+00  8.00000000E-01  8.00000000E-01
  1.50000000E+00  8.00000000E-01  8.00000000E-01  1.50000000E+00  8.00000000E-01
  8.00000000E-01  1.50000000E+00  8.00000000E-01  8.00000000E-01  1.50000000E+00
  8.00000000E-01  8.00000000E-01  1.50000000E+00  8.00000000E-01  8.00000000E-01
  1.50000000E+00  8.00000000E-01  8.00000000E-01  1.50000000E+00  8.00000000E-01
  8.00000000E-01  1.50000000E+00  8.00000000E-01  8.00000000E-01  1.50000000E+00
  8.00000000E-01  8.00000000E-01  1.50000000E+00  8.00000000E-01  8.00000000E-01
  1.50000000E+00  8.00000000E-01  8.00000000E-01  1.50000000E+00  8.00000000E-01
  8.00000000E-01  1.50000000E+00  8.00000000E-01  8.00000000E-01  1.50000000E+00
  8.00000000E-01  8.00000000E-01  1.50000000E+00  8.00000000E-01  8.00000000E-01
  1.50000000E+00  8.00000000E-01  8.00000000E-01  1.50000000E+00  8.00000000E-01
  8.00000000E-01  1.50000000E+00  8.00000000E-01  8.00000000E-01  1.50000000E+00
  8.00000000E-01  8.00000000E-01  1.50000000E+00  8.00000000E-01  8.00000000E-01
  1.50000000E+00  8.00000000E-01  8.00000000E-01  1.50000000E+00  8.00000000E-01
  8.00000000E-01  1.50000000E+00  8.00000000E-01  8.00000000E-01  1.50000000E+00
  8.00000000E-01  8.00000000E-01  1.50000000E+00  8.00000000E-01  8.00000000E-01
  1.50000000E+00  8.00000000E-01  8.00000000E-01  1.50000000E+00  8.00000000E-01
  8.00000000E-01  1.50000000E+00  8.00000000E-01  8.00000000E-01  1.50000000E+00
  8.00000000E-01  8.00000000E-01  1.50000000E+00  8.00000000E-01  8.00000000E-01
  1.50000000E+00  8.00000000E-01  8.00000000E-01  1.50000000E+00  8.00000000E-01
  8.00000000E-01  1.50000000E+00  8.00000000E-01  8.00000000E-01  1.50000000E+00
  8.00000000E-01  8.00000000E-01  1.50000000E+00  8.00000000E-01  8.00000000E-01
  1.50000000E+00  8.00000000E-01  8.00000000E-01  1.50000000E+00  8.00000000E-01
  8.00000000E-01  1.50000000E+00  8.00000000E-01  8.00000000E-01  1.50000000E+00
  8.00000000E-01  8.00000000E-01  1.50000000E+00  8.00000000E-01  8.00000000E-01
  1.50000000E+00  8.00000000E-01  8.00000000E-01  1.50000000E+00  8.00000000E-01
  8.00000000E-01  1.50000000E+00  8.00000000E-01  8.00000000E-01  1.50000000E+00
  8.00000000E-01  8.00000000E-01  1.50000000E+00  8.00000000E-01  8.00000000E-01
  1.50000000E+00  8.00000000E-01  8.00000000E-01  1.50000000E+00  8.00000000E-01
  8.00000000E-01  1.50000000E+00  8.00000000E-01  8.00000000E-01  1.50000000E+00
  8.00000000E-01  8.00000000E-01  1.50000000E+00  8.00000000E-01  8.00000000E-01
  1.50000000E+00  8.00000000E-01  8.00000000E-01  1.50000000E+00  8.00000000E-01
  8.00000000E-01  1.50000000E+00  8.00000000E-01  8.00000000E-01  1.50000000E+00
  8.00000000E-01  8.00000000E-01  1.50000000E+00  8.00000000E-01  8.00000000E-01
  1.50000000E+00  8.00000000E-01  8.00000000E-01  1.50000000E+00  8.00000000E-01
  8.00000000E-01  1.50000000E+00  8.00000000E-01  8.00000000E-01  1.50000000E+00
  8.00000000E-01  8.00000000E-01  1.50000000E+00  8.00000000E-01  8.00000000E-01
  1.50000000E+00  8.00000000E-01  8.00000000E-01  1.50000000E+00  8.00000000E-01
  8.00000000E-01  1.50000000E+00  8.00000000E-01  8.00000000E-01  1.50000000E+00
  8.00000000E-01  8.00000000E-01  1.50000000E+00  8.00000000E-01  8.00000000E-01
  1.50000000E+00  8.00000000E-01  8.00000000E-01  1.50000000E+00  8.00000000E-01
  8.00000000E-01  1.50000000E+00  8.00000000E-01  8.00000000E-01  1.50000000E+00
  8.00000000E-01  8.00000000E-01  1.50000000E+00  8.00000000E-01  8.00000000E-01
  1.50000000E+00  8.00000000E-01  8.00000000E-01  1.50000000E+00  8.00000000E-01
  8.00000000E-01  1.50000000E+00  8.00000000E-01  8.00000000E-01  1.50000000E+00
  8.00000000E-01  8.00000000E-01  1.50000000E+00  8.00000000E-01  8.00000000E-01
  1.50000000E+00  8.00000000E-01  8.00000000E-01  1.50000000E+00  8.00000000E-01
  8.00000000E-01  1.50000000E+00  8.00000000E-01  8.00000000E-01  1.50000000E+00
  8.00000000E-01  8.00000000E-01  1.50000000E+00  8.00000000E-01  8.00000000E-01
  1.50000000E+00  8.00000000E-01  8.00000000E-01  1.50000000E+00  8.00000000E-01
  8.00000000E-01  1.50000000E+00  8.00000000E-01  8.00000000E-01  1.50000000E+00
  8.00000000E-01  8.00000000E-01  1.50000000E+00  8.00000000E-01  8.00000000E-01
  1.50000000E+00  8.00000000E-01  8.00000000E-01  1.50000000E+00  8.00000000E-01
  8.00000000E-01  1.50000000E+00  8.00000000E-01  8.00000000E-01  1.50000000E+00
  8.00000000E-01  8.00000000E-01  1.50000000E+00  8.00000000E-01  8.00000000E-01
  1.50000000E+00  8.00000000E-01  8.00000000E-01  1.50000000E+00  8.00000000E-01
  8.00000000E-01  1.50000000E+00  8.00000000E-01  8.00000000E-01  1.50000000E+00
  8.00000000E-01  8.00000000E-01  1.50000000E+00  8.00000000E-01  8.00000000E-01
  1.50000000E+00  8.00000000E-01  8.00000000E-01  1.50000000E+00  8.00000000E-01
  8.00000000E-01  1.50000000E+00  8.00000000E-01  8.00000000E-01  1.50000000E+00
  8.00000000E-01  8.00000000E-01  1.50000000E+00  8.00000000E-01  8.00000000E-01
  1.50000000E+00  8.00000000E-01  8.00000000E-01  1.50000000E+00  8.00000000E-01
  8.00000000E-01  1.50000000E+00  8.00000000E-01  8.00000000E-01  1.50000000E+00
  8.00000000E-01  8.00000000E-01  1.50000000E+00  8.00000000E-01  8.00000000E-01
  1.50000000E+00  8.00000000E-01  8.00000000E-01  1.50000000E+00  8.00000000E-01
  8.00000000E-01  1.50000000E+00  8.00000000E-01  8.00000000E-01  1.50000000E+00
  8.00000000E-01  8.00000000E-01  1.50000000E+00  8.00000000E-01  8.00000000E-01
  1.50000000E+00  8.00000000E-01  8.00000000E-01  1.50000000E+00  8.00000000E-01
  8.00000000E-01  1.50000000E+00  8.00000000E-01  8.00000000E-01  1.50000000E+00
  8.00000000E-01  8.00000000E-01  1.50000000E+00  8.00000000E-01  8.00000000E-01
  1.50000000E+00  8.00000000E-01  8.00000000E-01  1.50000000E+00  8.00000000E-01
  8.00000000E-01  1.50000000E+00  8.00000000E-01  8.00000000E-01  1.50000000E+00
  8.00000000E-01  8.00000000E-01  1.50000000E+00  8.00000000E-01  8.00000000E-01
  1.50000000E+00  8.00000000E-01  8.00000000E-01  1.50000000E+00  8.00000000E-01
  8.00000000E-01  1.50000000E+00  8.00000000E-01  8.00000000E-01  1.50000000E+00
  8.00000000E-01  8.00000000E-01  1.50000000E+00  8.00000000E-01  8.00000000E-01
  1.50000000E+00  8.00000000E-01  8.00000000E-01  1.50000000E+00  8.00000000E-01
  8.00000000E-01  1.50000000E+00  8.00000000E-01  8.00000000E-01  1.50000000E+00
  8.00000000E-01  8.00000000E-01  1.50000000E+00  8.00000000E-01  8.00000000E-01
  1.50000000E+00  8.00000000E-01  8.00000000E-01  1.50000000E+00  8.00000000E-01
  8.00000000E-01  1.50000000E+00  8.00000000E-01  8.00000000E-01  1.50000000E+00
  8.00000000E-01  8.00000000E-01  1.50000000E+00  8.00000000E-01  8.00000000E-01
  1.50000000E+00  8.00000000E-01  8.00000000E-01  1.50000000E+00  8.00000000E-01
  8.00000000E-01  1.50000000E+00  8.00000000E-01  8.00000000E-01  1.50000000E+00
  8.00000000E-01  8.00000000E-01  1.50000000E+00  8.00000000E-01  8.00000000E-01
  1.50000000E+00  8.00000000E-01  8.00000000E-01  1.50000000E+00  8.00000000E-01
  8.00000000E-01  1.50000000E+00  8.00000000E-01  8.00000000E-01  1.50000000E+00
  8.00000000E-01  8.00000000E-01  1.50000000E+00  8.00000000E-01  8.00000000E-01
  1.50000000E+00  8.00000000E-01  8.00000000E-01  1.50000000E+00  8.00000000E-01
  8.00000000E-01  1.50000000E+00  8.00000000E-01  8.00000000E-01  1.50000000E+00
  8.00000000E-01  8.00000000E-01  1.50000000E+00  8.00000000E-01  8.00000000E-01
  1.50000000E+00  8.00000000E-01  8.00000000E-01  1.50000000E+00  8.00000000E-01
  8.00000000E-01  1.50000000E+00  8.00000000E-01  8.00000000E-01  1.50000000E+00
  8.00000000E-01  8.00000000E-01  1.50000000E+00  8.00000000E-01  8.00000000E-01
  1.50000000E+00  8.00000000E-01  8.00000000E-01  1.50000000E+00  8.00000000E-01
  8.00000000E-01  1.50000000E+00  8.00000000E-01  8.00000000E-01  1.50000000E+00
  8.00000000E-01  8.00000000E-01  1.50000000E+00  8.00000000E-01  8.00000000E-01
  1.50000000E+00  8.00000000E-01  8.00000000E-01  1.50000000E+00  8.00000000E-01
  8.00000000E-01  1.50000000E+00  8.00000000E-01  8.00000000E-01  1.50000000E+00
  8.00000000E-01  8.00000000E-01  1.50000000E+00  8.00000000E-01  8.00000000E-01
  1.50000000E+00  8.00000000E-01  8.00000000E-01  1.50000000E+00  8.00000000E-01
  8.00000000E-01  1.50000000E+00  8.00000000E-01  8.00000000E-01  1.50000000E+00
  8.00000000E-01  8.00000000E-01  1.50000000E+00  8.00000000E-01  8.00000000E-01
  1.50000000E+00  8.00000000E-01  8.00000000E-01  1.50000000E+00  8.00000000E-01
  8.00000000E-01  1.50000000E+00  8.00000000E-01  8.00000000E-01  1.50000000E+00
  8.00000000E-01  8.00000000E-01  1.50000000E+00  8.00000000E-01  8.00000000E-01
  1.50000000E+00  8.00000000E-01  8.00000000E-01  1.50000000E+00  8.00000000E-01
  8.00000000E-01  1.50000000E+00  8.00000000E-01  8.00000000E-01  1.50000000E+00
  8.00000000E-01  8.00000000E-01  1.50000000E+00  8.00000000E-01  8.00000000E-01
  1.50000000E+00  8.00000000E-01  8.00000000E-01  1.50000000E+00  8.00000000E-01
  8.00000000E-01  1.50000000E+00  8.00000000E-01  8.00000000E-01  1.50000000E+00
  8.00000000E-01  8.00000000E-01  1.50000000E+00  8.00000000E-01  8.00000000E-01
  1.50000000E+00  8.00000000E-01  8.00000000E-01  1.50000000E+00  8.00000000E-01
  8.00000000E-01  1.50000000E+00  8.00000000E-01  8.00000000E-01  1.50000000E+00
  8.00000000E-01  8.00000000E-01  1.50000000E+00  8.00000000E-01  8.00000000E-01
  1.50000000E+00  8.00000000E-01  8.00000000E-01  1.50000000E+00  8.00000000E-01
  8.00000000E-01  1.50000000E+00  8.00000000E-01  8.00000000E-01  1.50000000E+00
  8.00000000E-01  8.00000000E-01  1.50000000E+00  8.00000000E-01  8.00000000E-01
  1.50000000E+00  8.00000000E-01  8.00000000E-01  1.50000000E+00  8.00000000E-01
  8.00000000E-01  1.50000000E+00  8.00000000E-01  8.00000000E-01  1.50000000E+00
  8.00000000E-01  8.00000000E-01  1.50000000E+00  8.00000000E-01  8.00000000E-01
  1.50000000E+00  8.00000000E-01  8.00000000E-01  1.50000000E+00  8.00000000E-01
  8.00000000E-01  1.50000000E+00  8.00000000E-01  8.00000000E-01  1.50000000E+00
  8.00000000E-01  8.00000000E-01  1.50000000E+00  8.00000000E-01  8.00000000E-01
  1.50000000E+00  8.00000000E-01  8.00000000E-01  1.50000000E+00  8.00000000E-01
  8.00000000E-01  1.50000000E+00  8.00000000E-01  8.00000000E-01  1.50000000E+00
  8.00000000E-01  8.00000000E-01  1.50000000E+00  8.00000000E-01  8.00000000E-01
  1.50000000E+00  8.00000000E-01  8.00000000E-01  1.50000000E+00  8.00000000E-01
  8.00000000E-01  1.50000000E+00  8.00000000E-01  8.00000000E-01  1.50000000E+00
  8.00000000E-01  8.00000000E-01  1.50000000E+00  8.00000000E-01  8.00000000E-01
  1.50000000E+00  8.00000000E-01  8.00000000E-01  1.50000000E+00  8.00000000E-01
  8.00000000E-01  1.50000000E+00  8.00000000E-01  8.00000000E-01  1.50000000E+00
  8.00000000E-01  8.00000000E-01  1.50000000E+00  8.00000000E-01  8.00000000E-01
  1.50000000E+00  8.00000000E-01  8.00000000E-01  1.50000000E+00  8.00000000E-01
  8.00000000E-01  1.50000000E+00  8.00000000E-01  8.00000000E-01  1.50000000E+00
  8.00000000E-01  8.00000000E-01  1.50000000E+00  8.00000000E-01  8.00000000E-01
  1.50000000E+00  8.00000000E-01  8.00000000E-01  1.50000000E+00  8.00000000E-01
  8.00000000E-01  1.50000000E+00  8.00000000E-01  8.00000000E-01  1.50000000E+00
  8.00000000E-01  8.00000000E-01  1.50000000E+00  8.00000000E-01  8.00000000E-01
  1.50000000E+00  8.00000000E-01  8.00000000E-01  1.50000000E+00  8.00000000E-01
  8.00000000E-01  1.50000000E+00  8.00000000E-01  8.00000000E-01  1.50000000E+00
  8.00000000E-01  8.00000000E-01  1.50000000E+00  8.00000000E-01  8.00000000E-01
  1.50000000E+00  8.00000000E-01  8.00000000E-01  1.50000000E+00  8.00000000E-01
  8.00000000E-01  1.50000000E+00  8.00000000E-01  8.00000000E-01  1.50000000E+00
  8.00000000E-01  8.00000000E-01  1.50000000E+00  8.00000000E-01  8.00000000E-01
  1.50000000E+00  8.00000000E-01  8.00000000E-01  1.50000000E+00  8.00000000E-01
  8.00000000E-01  1.50000000E+00  8.00000000E-01  8.00000000E-01  1.50000000E+00
  8.00000000E-01  8.00000000E-01  1.50000000E+00  8.00000000E-01  8.00000000E-01
  1.50000000E+00  8.00000000E-01  8.00000000E-01  1.50000000E+00  8.00000000E-01
  8.00000000E-01  1.50000000E+00  8.00000000E-01  8.00000000E-01  1.50000000E+00
  8.00000000E-01  8.00000000E-01  1.50000000E+00  8.00000000E-01  8.00000000E-01
  1.50000000E+00  8.00000000E-01  8.00000000E-01  1.50000000E+00  8.00000000E-01
  8.00000000E-01  1.50000000E+00  8.00000000E-01  8.00000000E-01  1.50000000E+00
  8.00000000E-01  8.00000000E-01  1.50000000E+00  8.00000000E-01  8.00000000E-01
  1.50000000E+00  8.00000000E-01  8.00000000E-01  1.50000000E+00  8.00000000E-01
  8.00000000E-01  1.50000000E+00  8.00000000E-01  8.00000000E-01  1.50000000E+00
  8.00000000E-01  8.00000000E-01  1.50000000E+00  8.00000000E-01  8.00000000E-01
  1.50000000E+00  8.00000000E-01  8.00000000E-01  1.50000000E+00  8.00000000E-01
  8.00000000E-01  1.50000000E+00  8.00000000E-01  8.00000000E-01  1.50000000E+00
  8.00000000E-01  8.00000000E-01  1.50000000E+00  8.00000000E-01  8.00000000E-01
  1.50000000E+00  8.00000000E-01  8.00000000E-01  1.50000000E+00  8.00000000E-01
  8.00000000E-01  1.50000000E+00  8.00000000E-01  8.00000000E-01  1.50000000E+00
  8.00000000E-01  8.00000000E-01  1.50000000E+00  8.00000000E-01  8.00000000E-01
  1.50000000E+00  8.00000000E-01  8.00000000E-01  1.50000000E+00  8.00000000E-01
  8.00000000E-01  1.50000000E+00  8.00000000E-01  8.00000000E-01  1.50000000E+00
  8.00000000E-01  8.00000000E-01  1.50000000E+00  8.00000000E-01  8.00000000E-01
  1.50000000E+00  8.00000000E-01  8.00000000E-01  1.50000000E+00  8.00000000E-01
  8.00000000E-01  1.50000000E+00  8.00000000E-01  8.00000000E-01  1.50000000E+00
  8.00000000E-01  8.00000000E-01  1.50000000E+00  8.00000000E-01  8.00000000E-01
  1.50000000E+00  8.00000000E-01  8.00000000E-01  1.50000000E+00  8.00000000E-01
  8.00000000E-01  1.50000000E+00  8.00000000E-01  8.00000000E-01  1.50000000E+00
  8.00000000E-01  8.00000000E-01  1.50000000E+00  8.00000000E-01  8.00000000E-01
  1.50000000E+00  8.00000000E-01  8.00000000E-01  1.50000000E+00  8.00000000E-01
  8.00000000E-01  1.50000000E+00  8.00000000E-01  8.00000000E-01  1.50000000E+00
  8.00000000E-01  8.00000000E-01  1.50000000E+00  8.00000000E-01  8.00000000E-01
  1.50000000E+00  8.00000000E-01  8.00000000E-01  1.50000000E+00  8.00000000E-01
  8.00000000E-01  1.50000000E+00  8.00000000E-01  8.00000000E-01  1.50000000E+00
  8.00000000E-01  8.00000000E-01  1.50000000E+00  8.00000000E-01  8.00000000E-01
  1.50000000E+00  8.00000000E-01  8.00000000E-01  1.50000000E+00  8.00000000E-01
  8.00000000E-01  1.50000000E+00  8.00000000E-01  8.00000000E-01  1.50000000E+00
  8.00000000E-01  8.00000000E-01  1.50000000E+00  8.00000000E-01  8.00000000E-01
  1.50000000E+00  8.00000000E-01  8.00000000E-01  1.50000000E+00  8.00000000E-01
  8.00000000E-01  1.50000000E+00  8.00000000E-01  8.00000000E-01  1.50000000E+00
  8.00000000E-01  8.00000000E-01  1.50000000E+00  8.00000000E-01  8.00000000E-01
  1.50000000E+00  8.00000000E-01  8.00000000E-01  1.50000000E+00  8.00000000E-01
  8.00000000E-01  1.50000000E+00  8.00000000E-01  8.00000000E-01  1.50000000E+00
  8.00000000E-01  8.00000000E-01  1.50000000E+00  8.00000000E-01  8.00000000E-01
  1.50000000E+00  8.00000000E-01  8.00000000E-01  1.50000000E+00  8.00000000E-01
  8.00000000E-01  1.50000000E+00  8.00000000E-01  8.00000000E-01  1.50000000E+00
  8.00000000E-01  8.00000000E-01  1.50000000E+00  8.00000000E-01  8.00000000E-01
  1.50000000E+00  8.00000000E-01  8.00000000E-01  1.50000000E+00  8.00000000E-01
  8.00000000E-01  1.50000000E+00  8.00000000E-01  8.00000000E-01  1.50000000E+00
  8.00000000E-01  8.00000000E-01  1.50000000E+00  8.00000000E-01  8.00000000E-01
  1.50000000E+00  8.00000000E-01  8.00000000E-01  1.50000000E+00  8.00000000E-01
  8.00000000E-01  1.50000000E+00  8.00000000E-01  8.00000000E-01  1.50000000E+00
  8.00000000E-01  8.00000000E-01  1.50000000E+00  8.00000000E-01  8.00000000E-01
  1.50000000E+00  8.00000000E-01  8.00000000E-01  1.50000000E+00  8.00000000E-01
  8.00000000E-01  1.50000000E+00  8.00000000E-01  8.00000000E-01  1.50000000E+00
  8.00000000E-01  8.00000000E-01  1.50000000E+00  8.00000000E-01  8.00000000E-01
  1.50000000E+00  8.00000000E-01  8.00000000E-01  1.50000000E+00  8.00000000E-01
  8.00000000E-01  1.50000000E+00  8.00000000E-01  8.00000000E-01  1.50000000E+00
  8.00000000E-01  8.00000000E-01  1.50000000E+00  8.00000000E-01  8.00000000E-01
  1.50000000E+00  8.00000000E-01  8.00000000E-01  1.50000000E+00  8.00000000E-01
  8.00000000E-01  1.50000000E+00  8.00000000E-01  8.00000000E-01  1.50000000E+00
  8.00000000E-01  8.00000000E-01  1.50000000E+00  8.00000000E-01  8.00000000E-01
  1.50000000E+00  8.00000000E-01  8.00000000E-01  1.50000000E+00  8.00000000E-01
  8.00000000E-01  1.50000000E+00  8.00000000E-01  8.00000000E-01  1.50000000E+00
  8.00000000E-01  8.00000000E-01  1.50000000E+00  8.00000000E-01  8.00000000E-01
  1.50000000E+00  8.00000000E-01  8.00000000E-01  1.50000000E+00  8.00000000E-01
  8.00000000E-01  1.50000000E+00  8.00000000E-01  8.00000000E-01  1.50000000E+00
  8.00000000E-01  8.00000000E-01  1.50000000E+00  8.00000000E-01  8.00000000E-01
  1.50000000E+00  8.00000000E-01  8.00000000E-01  1.50000000E+00  8.00000000E-01
  8.00000000E-01  1.50000000E+00  8.00000000E-01  8.00000000E-01  1.50000000E+00
  8.00000000E-01  8.00000000E-01  1.50000000E+00  8.00000000E-01  8.00000000E-01
  1.50000000E+00  8.00000000E-01  8.00000000E-01  1.50000000E+00  8.00000000E-01
  8.00000000E-01  1.50000000E+00  8.00000000E-01  8.00000000E-01  1.50000000E+00
  8.00000000E-01  8.00000000E-01  1.50000000E+00  8.00000000E-01  8.00000000E-01
  1.50000000E+00  8.00000000E-01  8.00000000E-01  1.50000000E+00  8.00000000E-01
  8.00000000E-01  1.50000000E+00  8.00000000E-01  8.00000000E-01  1.50000000E+00
  8.00000000E-01  8.00000000E-01  1.50000000E+00  8.00000000E-01  8.00000000E-01
  1.50000000E+00  8.00000000E-01  8.00000000E-01  1.50000000E+00  8.00000000E-01
  8.00000000E-01  1.50000000E+00  8.00000000E-01  8.00000000E-01  1.50000000E+00
  8.00000000E-01  8.00000000E-01  1.50000000E+00  8.00000000E-01  8.00000000E-01
  1.50000000E+00  8.00000000E-01  8.00000000E-01  1.50000000E+00  8.00000000E-01
  8.00000000E-01  1.50000000E+00  8.00000000E-01  8.00000000E-01  1.50000000E+00
  8.00000000E-01  8.00000000E-01  1.50000000E+00  8.00000000E-01  8.00000000E-01
  1.50000000E+00  8.00000000E-01  8.00000000E-01  1.50000000E+00  8.00000000E-01
  8.00000000E-01  1.50000000E+00  8.00000000E-01  8.00000000E-01  1.50000000E+00
  8.00000000E-01  8.00000000E-01  1.50000000E+00  8.00000000E-01  8.00000000E-01
  1.50000000E+00  8.00000000E-01  8.00000000E-01  1.50000000E+00  8.00000000E-01
  8.00000000E-01  1.50000000E+00  8.00000000E-01  8.00000000E-01  1.50000000E+00
  8.00000000E-01  8.00000000E-01  1.50000000E+00  8.00000000E-01  8.00000000E-01
  1.50000000E+00  8.00000000E-01  8.00000000E-01  1.50000000E+00  8.00000000E-01
  8.00000000E-01  1.50000000E+00  8.00000000E-01  8.00000000E-01  1.50000000E+00
  8.00000000E-01  8.00000000E-01  1.50000000E+00  8.00000000E-01  8.00000000E-01
  1.50000000E+00  8.00000000E-01  8.00000000E-01  1.50000000E+00  8.00000000E-01
  8.00000000E-01  1.50000000E+00  8.00000000E-01  8.00000000E-01  1.50000000E+00
  8.00000000E-01  8.00000000E-01  1.50000000E+00  8.00000000E-01  8.00000000E-01
  1.50000000E+00  8.00000000E-01  8.00000000E-01  1.50000000E+00  8.00000000E-01
  8.00000000E-01  1.50000000E+00  8.00000000E-01  8.00000000E-01  1.50000000E+00
  8.00000000E-01  8.00000000E-01  1.50000000E+00  8.00000000E-01  8.00000000E-01
  1.50000000E+00  8.00000000E-01  8.00000000E-01  1.50000000E+00  8.00000000E-01
  8.00000000E-01  1.50000000E+00  8.00000000E-01  8.00000000E-01  1.50000000E+00
  8.00000000E-01  8.00000000E-01  1.50000000E+00  8.00000000E-01  8.00000000E-01
  1.50000000E+00  8.00000000E-01  8.00000000E-01  1.50000000E+00  8.00000000E-01
  8.00000000E-01  1.50000000E+00  8.00000000E-01  8.00000000E-01  1.50000000E+00
  8.00000000E-01  8.00000000E-01  1.50000000E+00  8.00000000E-01  8.00000000E-01
  1.50000000E+00  8.00000000E-01  8.00000000E-01  1.50000000E+00  8.00000000E-01
  8.00000000E-01  1.50000000E+00  8.00000000E-01  8.00000000E-01  1.50000000E+00
  8.00000000E-01  8.00000000E-01  1.50000000E+00  8.00000000E-01  8.00000000E-01
  1.50000000E+00  8.00000000E-01  8.00000000E-01  1.50000000E+00  8.00000000E-01
  8.00000000E-01  1.50000000E+00  8.00000000E-01  8.00000000E-01  1.50000000E+00
  8.00000000E-01  8.00000000E-01  1.50000000E+00  8.00000000E-01  8.00000000E-01
  1.50000000E+00  8.00000000E-01  8.00000000E-01  1.50000000E+00  8.00000000E-01
  8.00000000E-01  1.50000000E+00  8.00000000E-01  8.00000000E-01  1.50000000E+00
  8.00000000E-01  8.00000000E-01  1.50000000E+00  8.00000000E-01  8.00000000E-01
  1.50000000E+00  8.00000000E-01  8.00000000E-01  1.50000000E+00  8.00000000E-01
  8.00000000E-01  1.50000000E+00  8.00000000E-01  8.00000000E-01  1.50000000E+00
  8.00000000E-01  8.00000000E-01  1.50000000E+00  8.00000000E-01  8.00000000E-01
  1.50000000E+00  8.00000000E-01  8.00000000E-01  1.50000000E+00  8.00000000E-01
  8.00000000E-01  1.50000000E+00  8.00000000E-01  8.00000000E-01  1.50000000E+00
  8.00000000E-01  8.00000000E-01  1.50000000E+00  8.00000000E-01  8.00000000E-01
  1.50000000E+00  8.00000000E-01  8.00000000E-01  1.50000000E+00  8.00000000E-01
  8.00000000E-01  1.50000000E+00  8.00000000E-01  8.00000000E-01  1.50000000E+00
  8.00000000E-01  8.00000000E-01  1.50000000E+00  8.00000000E-01  8.00000000E-01
  1.50000000E+00  8.00000000E-01  8.00000000E-01  1.50000000E+00  8.00000000E-01
  8.00000000E-01  1.50000000E+00  8.00000000E-01  8.00000000E-01  1.50000000E+00
  8.00000000E-01  8.00000000E-01  1.50000000E+00  8.00000000E-01  8.00000000E-01
  1.50000000E+00  8.00000000E-01  8.00000000E-01  1.50000000E+00  8.00000000E-01
  8.00000000E-01  1.50000000E+00  8.00000000E-01  8.00000000E-01  1.50000000E+00
  8.00000000E-01  8.00000000E-01  1.50000000E+00  8.00000000E-01  8.00000000E-01
  1.50000000E+00  8.00000000E-01  8.00000000E-01  1.50000000E+00  8.00000000E-01
  8.00000000E-01  1.50000000E+00  8.00000000E-01  8.00000000E-01  1.50000000E+00
  8.00000000E-01  8.00000000E-01  1.50000000E+00  8.00000000E-01  8.00000000E-01
  1.50000000E+00  8.00000000E-01  8.00000000E-01  1.50000000E+00  8.00000000E-01
  8.00000000E-01  1.50000000E+00  8.00000000E-01  8.00000000E-01  1.50000000E+00
  8.00000000E-01  8.00000000E-01  1.50000000E+00  8.00000000E-01  8.00000000E-01
  1.50000000E+00  8.00000000E-01  8.00000000E-01  1.50000000E+00  8.00000000E-01
  8.00000000E-01  1.50000000E+00  8.00000000E-01  8.00000000E-01  1.50000000E+00
  8.00000000E-01  8.00000000E-01  1.50000000E+00  8.00000000E-01  8.00000000E-01
  1.50000000E+00  8.00000000E-01  8.00000000E-01  1.50000000E+00  8.00000000E-01
  8.00000000E-01  1.50000000E+00  8.00000000E-01  8.00000000E-01  1.50000000E+00
  8.00000000E-01  8.00000000E-01  1.50000000E+00  8.00000000E-01  8.00000000E-01
  1.50000000E+00  8.00000000E-01  8.00000000E-01  1.50000000E+00  8.00000000E-01
  8.00000000E-01  1.50000000E+00  8.00000000E-01  8.00000000E-01  1.50000000E+00
  8.00000000E-01  8.00000000E-01  1.50000000E+00  8.00000000E-01  8.00000000E-01
  1.50000000E+00  8.00000000E-01  8.00000000E-01  1.50000000E+00  8.00000000E-01
  8.00000000E-01  1.50000000E+00  8.00000000E-01  8.00000000E-01  1.50000000E+00
  8.00000000E-01  8.00000000E-01  1.50000000E+00  8.00000000E-01  8.00000000E-01
  1.50000000E+00  8.00000000E-01  8.00000000E-01  1.50000000E+00  8.00000000E-01
  8.00000000E-01  1.50000000E+00  8.00000000E-01  8.00000000E-01  1.50000000E+00
  8.00000000E-01  8.00000000E-01  1.50000000E+00  8.00000000E-01  8.00000000E-01
  1.50000000E+00  8.00000000E-01  8.00000000E-01  1.50000000E+00  8.00000000E-01
  8.00000000E-01  1.50000000E+00  8.00000000E-01  8.00000000E-01  1.50000000E+00
  8.00000000E-01  8.00000000E-01  1.50000000E+00  8.00000000E-01  8.00000000E-01
  1.50000000E+00  8.00000000E-01  8.00000000E-01  1.50000000E+00  8.00000000E-01
  8.00000000E-01  1.50000000E+00  8.00000000E-01  8.00000000E-01  1.50000000E+00
  8.00000000E-01  8.00000000E-01  1.50000000E+00  8.00000000E-01  8.00000000E-01
  1.50000000E+00  8.00000000E-01  8.00000000E-01  1.50000000E+00  8.00000000E-01
  8.00000000E-01  1.50000000E+00  8.00000000E-01  8.00000000E-01  1.50000000E+00
  8.00000000E-01  8.00000000E-01  1.50000000E+00  8.00000000E-01  8.00000000E-01
  1.50000000E+00  8.00000000E-01  8.00000000E-01  1.50000000E+00  8.00000000E-01
  8.00000000E-01  1.50000000E+00  8.00000000E-01  8.00000000E-01  1.50000000E+00
  8.00000000E-01  8.00000000E-01  1.50000000E+00  8.00000000E-01  8.00000000E-01
  1.50000000E+00  8.00000000E-01  8.00000000E-01  1.50000000E+00  8.00000000E-01
  8.00000000E-01  1.50000000E+00  8.00000000E-01  8.00000000E-01  1.50000000E+00
  8.00000000E-01  8.00000000E-01  1.50000000E+00  8.00000000E-01  8.00000000E-01
  1.50000000E+00  8.00000000E-01  8.00000000E-01  1.50000000E+00  8.00000000E-01
  8.00000000E-01  1.50000000E+00  8.00000000E-01  8.00000000E-01  1.50000000E+00
  8.00000000E-01  8.00000000E-01  1.50000000E+00  8.00000000E-01  8.00000000E-01
  1.50000000E+00  8.00000000E-01  8.00000000E-01  1.50000000E+00  8.00000000E-01
  8.00000000E-01  1.50000000E+00  8.00000000E-01  8.00000000E-01  1.50000000E+00
  8.00000000E-01  8.00000000E-01  1.50000000E+00  8.00000000E-01  8.00000000E-01
  1.50000000E+00  8.00000000E-01  8.00000000E-01  1.50000000E+00  8.00000000E-01
  8.00000000E-01  1.50000000E+00  8.00000000E-01  8.00000000E-01  1.50000000E+00
  8.00000000E-01  8.00000000E-01  1.50000000E+00  8.00000000E-01  8.00000000E-01
  1.50000000E+00  8.00000000E-01  8.00000000E-01  1.50000000E+00  8.00000000E-01
  8.00000000E-01  1.50000000E+00  8.00000000E-01  8.00000000E-01  1.50000000E+00
  8.00000000E-01  8.00000000E-01  1.50000000E+00  8.00000000E-01  8.00000000E-01
  1.50000000E+00  8.00000000E-01  8.00000000E-01  1.50000000E+00  8.00000000E-01
  8.00000000E-01  1.50000000E+00  8.00000000E-01  8.00000000E-01  1.50000000E+00
  8.00000000E-01  8.00000000E-01  1.50000000E+00  8.00000000E-01  8.00000000E-01
  1.50000000E+00  8.00000000E-01  8.00000000E-01  1.50000000E+00  8.00000000E-01
  8.00000000E-01  1.50000000E+00  8.00000000E-01  8.00000000E-01  1.50000000E+00
  8.00000000E-01  8.00000000E-01  1.50000000E+00  8.00000000E-01  8.00000000E-01
  1.50000000E+00  8.00000000E-01  8.00000000E-01  1.50000000E+00  8.00000000E-01
  8.00000000E-01  1.50000000E+00  8.00000000E-01  8.00000000E-01  1.50000000E+00
  8.00000000E-01  8.00000000E-01  1.50000000E+00  8.00000000E-01  8.00000000E-01
  1.50000000E+00  8.00000000E-01  8.00000000E-01  1.50000000E+00  8.00000000E-01
  8.00000000E-01  1.50000000E+00  8.00000000E-01  8.00000000E-01  1.50000000E+00
  8.00000000E-01  8.00000000E-01  1.50000000E+00  8.00000000E-01  8.00000000E-01
  1.50000000E+00  8.00000000E-01  8.00000000E-01  1.50000000E+00  8.00000000E-01
  8.00000000E-01  1.50000000E+00  8.00000000E-01  8.00000000E-01  1.50000000E+00
  8.00000000E-01  8.00000000E-01  1.50000000E+00  8.00000000E-01  8.00000000E-01
  1.50000000E+00  8.00000000E-01  8.00000000E-01  1.50000000E+00  8.00000000E-01
  8.00000000E-01  1.50000000E+00  8.00000000E-01  8.00000000E-01  1.50000000E+00
  8.00000000E-01  8.00000000E-01  1.50000000E+00  8.00000000E-01  8.00000000E-01
  1.50000000E+00  8.00000000E-01  8.00000000E-01  1.50000000E+00  8.00000000E-01
  8.00000000E-01  1.50000000E+00  8.00000000E-01  8.00000000E-01  1.50000000E+00
  8.00000000E-01  8.00000000E-01  1.50000000E+00  8.00000000E-01  8.00000000E-01
  1.50000000E+00  8.00000000E-01  8.00000000E-01  1.50000000E+00  8.00000000E-01
  8.00000000E-01  1.50000000E+00  8.00000000E-01  8.00000000E-01  1.50000000E+00
  8.00000000E-01  8.00000000E-01  1.50000000E+00  8.00000000E-01  8.00000000E-01
  1.50000000E+00  8.00000000E-01  8.00000000E-01  1.50000000E+00  8.00000000E-01
  8.00000000E-01  1.50000000E+00  8.00000000E-01  8.00000000E-01  1.50000000E+00
  8.00000000E-01  8.00000000E-01  1.50000000E+00  8.00000000E-01  8.00000000E-01
  1.50000000E+00  8.00000000E-01  8.00000000E-01  1.50000000E+00  8.00000000E-01
  8.00000000E-01  1.50000000E+00  8.00000000E-01  8.00000000E-01  1.50000000E+00
  8.00000000E-01  8.00000000E-01  1.50000000E+00  8.00000000E-01  8.00000000E-01
  1.50000000E+00  8.00000000E-01  8.00000000E-01  1.50000000E+00  8.00000000E-01
  8.00000000E-01  1.50000000E+00  8.00000000E-01  8.00000000E-01  1.50000000E+00
  8.00000000E-01  8.00000000E-01  1.50000000E+00  8.00000000E-01  8.00000000E-01
  1.50000000E+00  8.00000000E-01  8.00000000E-01  1.50000000E+00  8.00000000E-01
  8.00000000E-01  1.50000000E+00  8.00000000E-01  8.00000000E-01  1.50000000E+00
  8.00000000E-01  8.00000000E-01  1.50000000E+00  8.00000000E-01  8.00000000E-01
  1.50000000E+00  8.00000000E-01  8.00000000E-01  1.50000000E+00  8.00000000E-01
  8.00000000E-01  1.50000000E+00  8.00000000E-01  8.00000000E-01  1.50000000E+00
  8.00000000E-01  8.00000000E-01  1.50000000E+00  8.00000000E-01  8.00000000E-01
  1.50000000E+00  8.00000000E-01  8.00000000E-01  1.50000000E+00  8.00000000E-01
  8.00000000E-01  1.50000000E+00  8.00000000E-01  8.00000000E-01  1.50000000E+00
  8.00000000E-01  8.00000000E-01  1.50000000E+00  8.00000000E-01  8.00000000E-01
  1.50000000E+00  8.00000000E-01  8.00000000E-01  1.50000000E+00  8.00000000E-01
  8.00000000E-01  1.50000000E+00  8.00000000E-01  8.00000000E-01  1.50000000E+00
  8.00000000E-01  8.00000000E-01  1.50000000E+00  8.00000000E-01  8.00000000E-01
  1.50000000E+00  8.00000000E-01  8.00000000E-01  1.50000000E+00  8.00000000E-01
  8.00000000E-01  1.50000000E+00  8.00000000E-01  8.00000000E-01  1.50000000E+00
  8.00000000E-01  8.00000000E-01  1.50000000E+00  8.00000000E-01  8.00000000E-01
  1.50000000E+00  8.00000000E-01  8.00000000E-01  1.50000000E+00  8.00000000E-01
  8.00000000E-01  1.50000000E+00  8.00000000E-01  8.00000000E-01  1.50000000E+00
  8.00000000E-01  8.00000000E-01  1.50000000E+00  8.00000000E-01  8.00000000E-01
  1.50000000E+00  8.00000000E-01  8.00000000E-01  1.50000000E+00  8.00000000E-01
  8.00000000E-01  1.50000000E+00  8.00000000E-01  8.00000000E-01  1.50000000E+00
  8.00000000E-01  8.00000000E-01  1.50000000E+00  8.00000000E-01  8.00000000E-01
  1.50000000E+00  8.00000000E-01  8.00000000E-01  1.50000000E+00  8.00000000E-01
  8.00000000E-01  1.50000000E+00  8.00000000E-01  8.00000000E-01  1.50000000E+00
  8.00000000E-01  8.00000000E-01  1.50000000E+00  8.00000000E-01  8.00000000E-01
  1.50000000E+00  8.00000000E-01  8.00000000E-01  1.50000000E+00  8.00000000E-01
  8.00000000E-01  1.50000000E+00  8.00000000E-01  8.00000000E-01  1.50000000E+00
  8.00000000E-01  8.00000000E-01  1.50000000E+00  8.00000000E-01  8.00000000E-01
  1.50000000E+00  8.00000000E-01  8.00000000E-01  1.50000000E+00  8.00000000E-01
  8.00000000E-01  1.50000000E+00  8.00000000E-01  8.00000000E-01  1.50000000E+00
  8.00000000E-01  8.00000000E-01  1.50000000E+00  8.00000000E-01  8.00000000E-01
  1.50000000E+00  8.00000000E-01  8.00000000E-01  1.50000000E+00  8.00000000E-01
  8.00000000E-01  1.50000000E+00  8.00000000E-01  8.00000000E-01  1.50000000E+00
  8.00000000E-01  8.00000000E-01  1.50000000E+00  8.00000000E-01  8.00000000E-01
  1.50000000E+00  8.00000000E-01  8.00000000E-01  1.50000000E+00  8.00000000E-01
  8.00000000E-01  1.50000000E+00  8.00000000E-01  8.00000000E-01  1.50000000E+00
  8.00000000E-01  8.00000000E-01  1.50000000E+00  8.00000000E-01  8.00000000E-01
  1.50000000E+00  8.00000000E-01  8.00000000E-01  1.50000000E+00  8.00000000E-01
  8.00000000E-01  1.50000000E+00  8.00000000E-01  8.00000000E-01  1.50000000E+00
  8.00000000E-01  8.00000000E-01  1.50000000E+00  8.00000000E-01  8.00000000E-01
  1.50000000E+00  8.00000000E-01  8.00000000E-01  1.50000000E+00  8.00000000E-01
  8.00000000E-01  1.50000000E+00  8.00000000E-01  8.00000000E-01  1.50000000E+00
  8.00000000E-01  8.00000000E-01  1.50000000E+00  8.00000000E-01  8.00000000E-01
  1.50000000E+00  8.00000000E-01  8.00000000E-01  1.50000000E+00  8.00000000E-01
  8.00000000E-01  1.50000000E+00  8.00000000E-01  8.00000000E-01  1.50000000E+00
  8.00000000E-01  8.00000000E-01  1.50000000E+00  8.00000000E-01  8.00000000E-01
  1.50000000E+00  8.00000000E-01  8.00000000E-01  1.50000000E+00  8.00000000E-01
  8.00000000E-01  1.50000000E+00  8.00000000E-01  8.00000000E-01  1.50000000E+00
  8.00000000E-01  8.00000000E-01  1.50000000E+00  8.00000000E-01  8.00000000E-01
  1.50000000E+00  8.00000000E-01  8.00000000E-01  1.50000000E+00  8.00000000E-01
  8.00000000E-01  1.50000000E+00  8.00000000E-01  8.00000000E-01  1.50000000E+00
  8.00000000E-01  8.00000000E-01  1.50000000E+00  8.00000000E-01  8.00000000E-01
  1.50000000E+00  8.00000000E-01  8.00000000E-01  1.50000000E+00  8.00000000E-01
  8.00000000E-01  1.50000000E+00  8.00000000E-01  8.00000000E-01  1.50000000E+00
  8.00000000E-01  8.00000000E-01  1.50000000E+00  8.00000000E-01  8.00000000E-01
  1.50000000E+00  8.00000000E-01  8.00000000E-01  1.50000000E+00  8.00000000E-01
  8.00000000E-01  1.50000000E+00  8.00000000E-01  8.00000000E-01  1.50000000E+00
  8.00000000E-01  8.00000000E-01  1.50000000E+00  8.00000000E-01  8.00000000E-01
  1.50000000E+00  8.00000000E-01  8.00000000E-01  1.50000000E+00  8.00000000E-01
  8.00000000E-01  1.50000000E+00  8.00000000E-01  8.00000000E-01  1.50000000E+00
  8.00000000E-01  8.00000000E-01  1.50000000E+00  8.00000000E-01  8.00000000E-01
  1.50000000E+00  8.00000000E-01  8.00000000E-01  1.50000000E+00  8.00000000E-01
  8.00000000E-01  1.50000000E+00  8.00000000E-01  8.00000000E-01  1.50000000E+00
  8.00000000E-01  8.00000000E-01  1.50000000E+00  8.00000000E-01  8.00000000E-01
  1.50000000E+00  8.00000000E-01  8.00000000E-01  1.50000000E+00  8.00000000E-01
  8.00000000E-01  1.50000000E+00  8.00000000E-01  8.00000000E-01  1.50000000E+00
  8.00000000E-01  8.00000000E-01  1.50000000E+00  8.00000000E-01  8.00000000E-01
  1.50000000E+00  8.00000000E-01  8.00000000E-01  1.50000000E+00  8.00000000E-01
  8.00000000E-01  1.50000000E+00  8.00000000E-01  8.00000000E-01  1.50000000E+00
  8.00000000E-01  8.00000000E-01  1.50000000E+00  8.00000000E-01  8.00000000E-01
  1.50000000E+00  8.00000000E-01  8.00000000E-01  1.50000000E+00  8.00000000E-01
  8.00000000E-01  1.50000000E+00  8.00000000E-01  8.00000000E-01  1.50000000E+00
  8.00000000E-01  8.00000000E-01  1.50000000E+00  8.00000000E-01  8.00000000E-01
  1.50000000E+00  8.00000000E-01  8.00000000E-01  1.50000000E+00  8.00000000E-01
  8.00000000E-01  1.50000000E+00  8.00000000E-01  8.00000000E-01  1.50000000E+00
  8.00000000E-01  8.00000000E-01  1.50000000E+00  8.00000000E-01  8.00000000E-01
  1.50000000E+00  8.00000000E-01  8.00000000E-01  1.50000000E+00  8.00000000E-01
  8.00000000E-01  1.50000000E+00  8.00000000E-01  8.00000000E-01  1.50000000E+00
  8.00000000E-01  8.00000000E-01  1.50000000E+00  8.00000000E-01  8.00000000E-01
  1.50000000E+00  8.00000000E-01  8.00000000E-01  1.50000000E+00  8.00000000E-01
  8.00000000E-01  1.50000000E+00  8.00000000E-01  8.00000000E-01  1.50000000E+00
  8.00000000E-01  8.00000000E-01  1.50000000E+00  8.00000000E-01  8.00000000E-01
  1.50000000E+00  8.00000000E-01  8.00000000E-01  1.50000000E+00  8.00000000E-01
  8.00000000E-01  1.50000000E+00  8.00000000E-01  8.00000000E-01  1.50000000E+00
  8.00000000E-01  8.00000000E-01  1.50000000E+00  8.00000000E-01  8.00000000E-01
  1.50000000E+00  8.00000000E-01  8.00000000E-01  1.50000000E+00  8.00000000E-01
  8.00000000E-01  1.50000000E+00  8.00000000E-01  8.00000000E-01  1.50000000E+00
  8.00000000E-01  8.00000000E-01  1.50000000E+00  8.00000000E-01  8.00000000E-01
  1.50000000E+00  8.00000000E-01  8.00000000E-01  1.50000000E+00  8.00000000E-01
  8.00000000E-01  1.50000000E+00  8.00000000E-01  8.00000000E-01  1.50000000E+00
  8.00000000E-01  8.00000000E-01  1.50000000E+00  8.00000000E-01  8.00000000E-01
  1.50000000E+00  8.00000000E-01  8.00000000E-01  1.50000000E+00  8.00000000E-01
  8.00000000E-01  1.50000000E+00  8.00000000E-01  8.00000000E-01  1.50000000E+00
  8.00000000E-01  8.00000000E-01  1.50000000E+00  8.00000000E-01  8.00000000E-01
  1.50000000E+00  8.00000000E-01  8.00000000E-01  1.50000000E+00  8.00000000E-01
  8.00000000E-01  1.50000000E+00  8.00000000E-01  8.00000000E-01  1.50000000E+00
  8.00000000E-01  8.00000000E-01  1.50000000E+00  8.00000000E-01  8.00000000E-01
  1.50000000E+00  8.00000000E-01  8.00000000E-01  1.50000000E+00  8.00000000E-01
  8.00000000E-01  1.50000000E+00  8.00000000E-01  8.00000000E-01  1.50000000E+00
  8.00000000E-01  8.00000000E-01  1.50000000E+00  8.00000000E-01  8.00000000E-01
  1.50000000E+00  8.00000000E-01  8.00000000E-01  1.50000000E+00  8.00000000E-01
  8.00000000E-01  1.50000000E+00  8.00000000E-01  8.00000000E-01  1.50000000E+00
  8.00000000E-01  8.00000000E-01  1.50000000E+00  8.00000000E-01  8.00000000E-01
  1.50000000E+00  8.00000000E-01  8.00000000E-01  1.50000000E+00  8.00000000E-01
  8.00000000E-01  1.50000000E+00  8.00000000E-01  8.00000000E-01  1.50000000E+00
  8.00000000E-01  8.00000000E-01  1.50000000E+00  8.00000000E-01  8.00000000E-01
  1.50000000E+00  8.00000000E-01  8.00000000E-01  1.50000000E+00  8.00000000E-01
  8.00000000E-01  1.50000000E+00  8.00000000E-01  8.00000000E-01  1.50000000E+00
  8.00000000E-01  8.00000000E-01  1.50000000E+00  8.00000000E-01  8.00000000E-01
  1.50000000E+00  8.00000000E-01  8.00000000E-01  1.50000000E+00  8.00000000E-01
  8.00000000E-01  1.50000000E+00  8.00000000E-01  8.00000000E-01  1.50000000E+00
  8.00000000E-01  8.00000000E-01  1.50000000E+00  8.00000000E-01  8.00000000E-01
  1.50000000E+00  8.00000000E-01  8.00000000E-01  1.50000000E+00  8.00000000E-01
  8.00000000E-01  1.50000000E+00  8.00000000E-01  8.00000000E-01  1.50000000E+00
  8.00000000E-01  8.00000000E-01  1.50000000E+00  8.00000000E-01  8.00000000E-01
  1.50000000E+00  8.00000000E-01  8.00000000E-01  1.50000000E+00  8.00000000E-01
  8.00000000E-01  1.50000000E+00  8.00000000E-01  8.00000000E-01  1.50000000E+00
  8.00000000E-01  8.00000000E-01  1.50000000E+00  8.00000000E-01  8.00000000E-01
  1.50000000E+00  8.00000000E-01  8.00000000E-01  1.50000000E+00  8.00000000E-01
  8.00000000E-01  1.50000000E+00  8.00000000E-01  8.00000000E-01  1.50000000E+00
  8.00000000E-01  8.00000000E-01  1.50000000E+00  8.00000000E-01  8.00000000E-01
  1.50000000E+00  8.00000000E-01  8.00000000E-01  1.50000000E+00  8.00000000E-01
  8.00000000E-01  1.50000000E+00  8.00000000E-01  8.00000000E-01  1.50000000E+00
  8.00000000E-01  8.00000000E-01  1.50000000E+00  8.00000000E-01  8.00000000E-01
  1.50000000E+00  8.00000000E-01  8.00000000E-01  1.50000000E+00  8.00000000E-01
  8.00000000E-01  1.50000000E+00  8.00000000E-01  8.00000000E-01  1.50000000E+00
  8.00000000E-01  8.00000000E-01  1.50000000E+00  8.00000000E-01  8.00000000E-01
  1.50000000E+00  8.00000000E-01  8.00000000E-01  1.50000000E+00  8.00000000E-01
  8.00000000E-01  1.50000000E+00  8.00000000E-01  8.00000000E-01  1.50000000E+00
  8.00000000E-01  8.00000000E-01  1.50000000E+00  8.00000000E-01  8.00000000E-01
  1.50000000E+00  8.00000000E-01  8.00000000E-01  1.50000000E+00  8.00000000E-01
  8.00000000E-01  1.50000000E+00  8.00000000E-01  8.00000000E-01  1.50000000E+00
  8.00000000E-01  8.00000000E-01  1.50000000E+00  8.00000000E-01  8.00000000E-01
  1.50000000E+00  8.00000000E-01  8.00000000E-01  1.50000000E+00  8.00000000E-01
  8.00000000E-01  1.50000000E+00  8.00000000E-01  8.00000000E-01  1.50000000E+00
  8.00000000E-01  8.00000000E-01  1.50000000E+00  8.00000000E-01  8.00000000E-01
  1.50000000E+00  8.00000000E-01  8.00000000E-01  1.50000000E+00  8.00000000E-01
  8.00000000E-01  1.50000000E+00  8.00000000E-01  8.00000000E-01  1.50000000E+00
  8.00000000E-01  8.00000000E-01  1.50000000E+00  8.00000000E-01  8.00000000E-01
  1.50000000E+00  8.00000000E-01  8.00000000E-01  1.50000000E+00  8.00000000E-01
  8.00000000E-01  1.50000000E+00  8.00000000E-01  8.00000000E-01  1.50000000E+00
  8.00000000E-01  8.00000000E-01  1.50000000E+00  8.00000000E-01  8.00000000E-01
  1.50000000E+00  8.00000000E-01  8.00000000E-01  1.50000000E+00  8.00000000E-01
  8.00000000E-01  1.50000000E+00  8.00000000E-01  8.00000000E-01  1.50000000E+00
  8.00000000E-01  8.00000000E-01  1.50000000E+00  8.00000000E-01  8.00000000E-01
  1.50000000E+00  8.00000000E-01  8.00000000E-01  1.50000000E+00  8.00000000E-01
  8.00000000E-01  1.50000000E+00  8.00000000E-01  8.00000000E-01  1.50000000E+00
  8.00000000E-01  8.00000000E-01  1.50000000E+00  8.00000000E-01  8.00000000E-01
  1.50000000E+00  8.00000000E-01  8.00000000E-01  1.50000000E+00  8.00000000E-01
  8.00000000E-01  1.50000000E+00  8.00000000E-01  8.00000000E-01  1.50000000E+00
  8.00000000E-01  8.00000000E-01  1.50000000E+00  8.00000000E-01  8.00000000E-01
  1.50000000E+00  8.00000000E-01  8.00000000E-01  1.50000000E+00  8.00000000E-01
  8.00000000E-01  1.50000000E+00  8.00000000E-01  8.00000000E-01  1.50000000E+00
  8.00000000E-01  8.00000000E-01  1.50000000E+00  8.00000000E-01  8.00000000E-01
  1.50000000E+00  8.00000000E-01  8.00000000E-01  1.50000000E+00  8.00000000E-01
  8.00000000E-01  1.50000000E+00  8.00000000E-01  8.00000000E-01  1.50000000E+00
  8.00000000E-01  8.00000000E-01  1.50000000E+00  8.00000000E-01  8.00000000E-01
  1.50000000E+00  8.00000000E-01  8.00000000E-01  1.50000000E+00  8.00000000E-01
  8.00000000E-01  1.50000000E+00  8.00000000E-01  8.00000000E-01  1.50000000E+00
  8.00000000E-01  8.00000000E-01  1.50000000E+00  8.00000000E-01  8.00000000E-01
  1.50000000E+00  8.00000000E-01  8.00000000E-01  1.50000000E+00  8.00000000E-01
  8.00000000E-01  1.50000000E+00  8.00000000E-01  8.00000000E-01  1.50000000E+00
  8.00000000E-01  8.00000000E-01  1.50000000E+00  8.00000000E-01  8.00000000E-01
  1.50000000E+00  8.00000000E-01  8.00000000E-01  1.50000000E+00  8.00000000E-01
  8.00000000E-01  1.50000000E+00  8.00000000E-01  8.00000000E-01  1.50000000E+00
  8.00000000E-01  8.00000000E-01  1.50000000E+00  8.00000000E-01  8.00000000E-01
  1.50000000E+00  8.00000000E-01  8.00000000E-01  1.50000000E+00  8.00000000E-01
  8.00000000E-01  1.50000000E+00  8.00000000E-01  8.00000000E-01  1.50000000E+00
  8.00000000E-01  8.00000000E-01  1.50000000E+00  8.00000000E-01  8.00000000E-01
  1.50000000E+00  8.00000000E-01  8.00000000E-01  1.50000000E+00  8.00000000E-01
  8.00000000E-01  1.50000000E+00  8.00000000E-01  8.00000000E-01  1.50000000E+00
  8.00000000E-01  8.00000000E-01  1.50000000E+00  8.00000000E-01  8.00000000E-01
  1.50000000E+00  8.00000000E-01  8.00000000E-01  1.50000000E+00  8.00000000E-01
  8.00000000E-01  1.50000000E+00  8.00000000E-01  8.00000000E-01  1.50000000E+00
  8.00000000E-01  8.00000000E-01  1.50000000E+00  8.00000000E-01  8.00000000E-01
  1.50000000E+00  8.00000000E-01  8.00000000E-01  1.50000000E+00  8.00000000E-01
  8.00000000E-01  1.50000000E+00  8.00000000E-01  8.00000000E-01  1.50000000E+00
  8.00000000E-01  8.00000000E-01  1.50000000E+00  8.00000000E-01  8.00000000E-01
  1.50000000E+00  8.00000000E-01  8.00000000E-01  1.50000000E+00  8.00000000E-01
  8.00000000E-01  1.50000000E+00  8.00000000E-01  8.00000000E-01  1.50000000E+00
  8.00000000E-01  8.00000000E-01  1.50000000E+00  8.00000000E-01  8.00000000E-01
  1.50000000E+00  8.00000000E-01  8.00000000E-01  1.50000000E+00  8.00000000E-01
  8.00000000E-01  1.50000000E+00  8.00000000E-01  8.00000000E-01  1.50000000E+00
  8.00000000E-01  8.00000000E-01  1.50000000E+00  8.00000000E-01  8.00000000E-01
  1.50000000E+00  8.00000000E-01  8.00000000E-01  1.50000000E+00  8.00000000E-01
  8.00000000E-01  1.50000000E+00  8.00000000E-01  8.00000000E-01  1.50000000E+00
  8.00000000E-01  8.00000000E-01  1.50000000E+00  8.00000000E-01  8.00000000E-01
  1.50000000E+00  8.00000000E-01  8.00000000E-01  1.50000000E+00  8.00000000E-01
  8.00000000E-01  1.50000000E+00  8.00000000E-01  8.00000000E-01  1.50000000E+00
  8.00000000E-01  8.00000000E-01  1.50000000E+00  8.00000000E-01  8.00000000E-01
  1.50000000E+00  8.00000000E-01  8.00000000E-01  1.50000000E+00  8.00000000E-01
  8.00000000E-01  1.50000000E+00  8.00000000E-01  8.00000000E-01  1.50000000E+00
  8.00000000E-01  8.00000000E-01  1.50000000E+00  8.00000000E-01  8.00000000E-01
  1.50000000E+00  8.00000000E-01  8.00000000E-01  1.50000000E+00  8.00000000E-01
  8.00000000E-01  1.50000000E+00  8.00000000E-01  8.00000000E-01  1.50000000E+00
  8.00000000E-01  8.00000000E-01  1.50000000E+00  8.00000000E-01  8.00000000E-01
  1.50000000E+00  8.00000000E-01  8.00000000E-01  1.50000000E+00  8.00000000E-01
  8.00000000E-01  1.50000000E+00  8.00000000E-01  8.00000000E-01  1.50000000E+00
  8.00000000E-01  8.00000000E-01  1.50000000E+00  8.00000000E-01  8.00000000E-01
  1.50000000E+00  8.00000000E-01  8.00000000E-01  1.50000000E+00  8.00000000E-01
  8.00000000E-01  1.50000000E+00  8.00000000E-01  8.00000000E-01  1.50000000E+00
  8.00000000E-01  8.00000000E-01  1.50000000E+00  8.00000000E-01  8.00000000E-01
  1.50000000E+00  8.00000000E-01  8.00000000E-01  1.50000000E+00  8.00000000E-01
  8.00000000E-01  1.50000000E+00  8.00000000E-01  8.00000000E-01  1.50000000E+00
  8.00000000E-01  8.00000000E-01  1.50000000E+00  8.00000000E-01  8.00000000E-01
  1.50000000E+00  8.00000000E-01  8.00000000E-01  1.50000000E+00  8.00000000E-01
  8.00000000E-01  1.50000000E+00  8.00000000E-01  8.00000000E-01  1.50000000E+00
  8.00000000E-01  8.00000000E-01  1.50000000E+00  8.00000000E-01  8.00000000E-01
  1.50000000E+00  8.00000000E-01  8.00000000E-01  1.50000000E+00  8.00000000E-01
  8.00000000E-01  1.50000000E+00  8.00000000E-01  8.00000000E-01  1.50000000E+00
  8.00000000E-01  8.00000000E-01  1.50000000E+00  8.00000000E-01  8.00000000E-01
  1.50000000E+00  8.00000000E-01  8.00000000E-01  1.50000000E+00  8.00000000E-01
  8.00000000E-01  1.50000000E+00  8.00000000E-01  8.00000000E-01  1.50000000E+00
  8.00000000E-01  8.00000000E-01  1.50000000E+00  8.00000000E-01  8.00000000E-01
  1.50000000E+00  8.00000000E-01  8.00000000E-01  1.50000000E+00  8.00000000E-01
  8.00000000E-01  1.50000000E+00  8.00000000E-01  8.00000000E-01  1.50000000E+00
  8.00000000E-01  8.00000000E-01  1.50000000E+00  8.00000000E-01  8.00000000E-01
  1.50000000E+00  8.00000000E-01  8.00000000E-01  1.50000000E+00  8.00000000E-01
  8.00000000E-01  1.50000000E+00  8.00000000E-01  8.00000000E-01  1.50000000E+00
  8.00000000E-01  8.00000000E-01  1.50000000E+00  8.00000000E-01  8.00000000E-01
  1.50000000E+00  8.00000000E-01  8.00000000E-01  1.50000000E+00  8.00000000E-01
  8.00000000E-01  1.50000000E+00  8.00000000E-01  8.00000000E-01  1.50000000E+00
  8.00000000E-01  8.00000000E-01  1.50000000E+00  8.00000000E-01  8.00000000E-01
  1.50000000E+00  8.00000000E-01  8.00000000E-01  1.50000000E+00  8.00000000E-01
  8.00000000E-01  1.50000000E+00  8.00000000E-01  8.00000000E-01  1.50000000E+00
  8.00000000E-01  8.00000000E-01  1.50000000E+00  8.00000000E-01  8.00000000E-01
  1.50000000E+00  8.00000000E-01  8.00000000E-01  1.50000000E+00  8.00000000E-01
  8.00000000E-01  1.50000000E+00  8.00000000E-01  8.00000000E-01  1.50000000E+00
  8.00000000E-01  8.00000000E-01  1.50000000E+00  8.00000000E-01  8.00000000E-01
  1.50000000E+00  8.00000000E-01  8.00000000E-01  1.50000000E+00  8.00000000E-01
  8.00000000E-01  1.50000000E+00  8.00000000E-01  8.00000000E-01  1.50000000E+00
  8.00000000E-01  8.00000000E-01  1.50000000E+00  8.00000000E-01  8.00000000E-01
  1.50000000E+00  8.00000000E-01  8.00000000E-01  1.50000000E+00  8.00000000E-01
  8.00000000E-01  1.50000000E+00  8.00000000E-01  8.00000000E-01  1.50000000E+00
  8.00000000E-01  8.00000000E-01  1.50000000E+00  8.00000000E-01  8.00000000E-01
  1.50000000E+00  8.00000000E-01  8.00000000E-01  1.50000000E+00  8.00000000E-01
  8.00000000E-01  1.50000000E+00  8.00000000E-01  8.00000000E-01  1.50000000E+00
  8.00000000E-01  8.00000000E-01  1.50000000E+00  8.00000000E-01  8.00000000E-01
  1.50000000E+00  8.00000000E-01  8.00000000E-01  1.50000000E+00  8.00000000E-01
  8.00000000E-01  1.50000000E+00  8.00000000E-01  8.00000000E-01  1.50000000E+00
  8.00000000E-01  8.00000000E-01  1.50000000E+00  8.00000000E-01  8.00000000E-01
  1.50000000E+00  8.00000000E-01  8.00000000E-01  1.50000000E+00  8.00000000E-01
  8.00000000E-01  1.50000000E+00  8.00000000E-01  8.00000000E-01  1.50000000E+00
  8.00000000E-01  8.00000000E-01  1.50000000E+00  8.00000000E-01  8.00000000E-01
  1.50000000E+00  8.00000000E-01  8.00000000E-01  1.50000000E+00  8.00000000E-01
  8.00000000E-01  1.50000000E+00  8.00000000E-01  8.00000000E-01  1.50000000E+00
  8.00000000E-01  8.00000000E-01  1.50000000E+00  8.00000000E-01  8.00000000E-01
  1.50000000E+00  8.00000000E-01  8.00000000E-01  1.50000000E+00  8.00000000E-01
  8.00000000E-01  1.50000000E+00  8.00000000E-01  8.00000000E-01  1.50000000E+00
  8.00000000E-01  8.00000000E-01  1.50000000E+00  8.00000000E-01  8.00000000E-01
  1.50000000E+00  8.00000000E-01  8.00000000E-01  1.50000000E+00  8.00000000E-01
  8.00000000E-01  1.50000000E+00  8.00000000E-01  8.00000000E-01  1.50000000E+00
  8.00000000E-01  8.00000000E-01  1.50000000E+00  8.00000000E-01  8.00000000E-01
  1.50000000E+00  8.00000000E-01  8.00000000E-01  1.50000000E+00  8.00000000E-01
  8.00000000E-01  1.50000000E+00  8.00000000E-01  8.00000000E-01  1.50000000E+00
  8.00000000E-01  8.00000000E-01  1.50000000E+00  8.00000000E-01  8.00000000E-01
  1.50000000E+00  8.00000000E-01  8.00000000E-01  1.50000000E+00  8.00000000E-01
  8.00000000E-01  1.50000000E+00  8.00000000E-01  8.00000000E-01  1.50000000E+00
  8.00000000E-01  8.00000000E-01  1.50000000E+00  8.00000000E-01  8.00000000E-01
  1.50000000E+00  8.00000000E-01  8.00000000E-01  1.50000000E+00  8.00000000E-01
  8.00000000E-01  1.50000000E+00  8.00000000E-01  8.00000000E-01  1.50000000E+00
  8.00000000E-01  8.00000000E-01  1.50000000E+00  8.00000000E-01  8.00000000E-01
  1.50000000E+00  8.00000000E-01  8.00000000E-01  1.50000000E+00  8.00000000E-01
  8.00000000E-01  1.50000000E+00  8.00000000E-01  8.00000000E-01  1.50000000E+00
  8.00000000E-01  8.00000000E-01  1.50000000E+00  8.00000000E-01  8.00000000E-01
  1.50000000E+00  8.00000000E-01  8.00000000E-01  1.50000000E+00  8.00000000E-01
  8.00000000E-01  1.50000000E+00  8.00000000E-01  8.00000000E-01  1.50000000E+00
  8.00000000E-01  8.00000000E-01  1.50000000E+00  8.00000000E-01  8.00000000E-01
  1.50000000E+00  8.00000000E-01  8.00000000E-01  1.50000000E+00  8.00000000E-01
  8.00000000E-01  1.50000000E+00  8.00000000E-01  8.00000000E-01  1.50000000E+00
  8.00000000E-01  8.00000000E-01  1.50000000E+00  8.00000000E-01  8.00000000E-01
  1.50000000E+00  8.00000000E-01  8.00000000E-01  1.50000000E+00  8.00000000E-01
  8.00000000E-01  1.50000000E+00  8.00000000E-01  8.00000000E-01  1.50000000E+00
  8.00000000E-01  8.00000000E-01  1.50000000E+00  8.00000000E-01  8.00000000E-01
  1.50000000E+00  8.00000000E-01  8.00000000E-01  1.50000000E+00  8.00000000E-01
  8.00000000E-01  1.50000000E+00  8.00000000E-01  8.00000000E-01  1.50000000E+00
  8.00000000E-01  8.00000000E-01  1.50000000E+00  8.00000000E-01  8.00000000E-01
  1.50000000E+00  8.00000000E-01  8.00000000E-01  1.50000000E+00  8.00000000E-01
  8.00000000E-01  1.50000000E+00  8.00000000E-01  8.00000000E-01  1.50000000E+00
  8.00000000E-01  8.00000000E-01  1.50000000E+00  8.00000000E-01  8.00000000E-01
  1.50000000E+00  8.00000000E-01  8.00000000E-01  1.50000000E+00  8.00000000E-01
  8.00000000E-01  1.50000000E+00  8.00000000E-01  8.00000000E-01  1.50000000E+00
  8.00000000E-01  8.00000000E-01  1.50000000E+00  8.00000000E-01  8.00000000E-01
  1.50000000E+00  8.00000000E-01  8.00000000E-01  1.50000000E+00  8.00000000E-01
  8.00000000E-01  1.50000000E+00  8.00000000E-01  8.00000000E-01  1.50000000E+00
  8.00000000E-01  8.00000000E-01  1.50000000E+00  8.00000000E-01  8.00000000E-01
  1.50000000E+00  8.00000000E-01  8.00000000E-01  1.50000000E+00  8.00000000E-01
  8.00000000E-01  1.50000000E+00  8.00000000E-01  8.00000000E-01  1.50000000E+00
  8.00000000E-01  8.00000000E-01  1.50000000E+00  8.00000000E-01  8.00000000E-01
  1.50000000E+00  8.00000000E-01  8.00000000E-01  1.50000000E+00  8.00000000E-01
  8.00000000E-01  1.50000000E+00  8.00000000E-01  8.00000000E-01  1.50000000E+00
  8.00000000E-01  8.00000000E-01  1.50000000E+00  8.00000000E-01  8.00000000E-01
  1.50000000E+00  8.00000000E-01  8.00000000E-01  1.50000000E+00  8.00000000E-01
  8.00000000E-01  1.50000000E+00  8.00000000E-01  8.00000000E-01  1.50000000E+00
  8.00000000E-01  8.00000000E-01  1.50000000E+00  8.00000000E-01  8.00000000E-01
  1.50000000E+00  8.00000000E-01  8.00000000E-01  1.50000000E+00  8.00000000E-01
  8.00000000E-01  1.50000000E+00  8.00000000E-01  8.00000000E-01  1.50000000E+00
  8.00000000E-01  8.00000000E-01  1.50000000E+00  8.00000000E-01  8.00000000E-01
  1.50000000E+00  8.00000000E-01  8.00000000E-01  1.50000000E+00  8.00000000E-01
  8.00000000E-01  1.50000000E+00  8.00000000E-01  8.00000000E-01  1.50000000E+00
  8.00000000E-01  8.00000000E-01  1.50000000E+00  8.00000000E-01  8.00000000E-01
  1.50000000E+00  8.00000000E-01  8.00000000E-01  1.50000000E+00  8.00000000E-01
  8.00000000E-01  1.50000000E+00  8.00000000E-01  8.00000000E-01  1.50000000E+00
  8.00000000E-01  8.00000000E-01  1.50000000E+00  8.00000000E-01  8.00000000E-01
  1.50000000E+00  8.00000000E-01  8.00000000E-01  1.50000000E+00  8.00000000E-01
  8.00000000E-01  1.50000000E+00  8.00000000E-01  8.00000000E-01  1.50000000E+00
  8.00000000E-01  8.00000000E-01  1.50000000E+00  8.00000000E-01  8.00000000E-01
  1.50000000E+00  8.00000000E-01  8.00000000E-01  1.50000000E+00  8.00000000E-01
  8.00000000E-01  1.50000000E+00  8.00000000E-01  8.00000000E-01  1.50000000E+00
  8.00000000E-01  8.00000000E-01  1.50000000E+00  8.00000000E-01  8.00000000E-01
  1.50000000E+00  8.00000000E-01  8.00000000E-01  1.50000000E+00  8.00000000E-01
  8.00000000E-01  1.50000000E+00  8.00000000E-01  8.00000000E-01  1.50000000E+00
  8.00000000E-01  8.00000000E-01  1.50000000E+00  8.00000000E-01  8.00000000E-01
  1.50000000E+00  8.00000000E-01  8.00000000E-01  1.50000000E+00  8.00000000E-01
  8.00000000E-01  1.50000000E+00  8.00000000E-01  8.00000000E-01  1.50000000E+00
  8.00000000E-01  8.00000000E-01  1.50000000E+00  8.00000000E-01  8.00000000E-01
  1.50000000E+00  8.00000000E-01  8.00000000E-01  1.50000000E+00  8.00000000E-01
  8.00000000E-01  1.50000000E+00  8.00000000E-01  8.00000000E-01  1.50000000E+00
  8.00000000E-01  8.00000000E-01  1.50000000E+00  8.00000000E-01  8.00000000E-01
  1.50000000E+00  8.00000000E-01  8.00000000E-01  1.50000000E+00  8.00000000E-01
  8.00000000E-01  1.50000000E+00  8.00000000E-01  8.00000000E-01  1.50000000E+00
  8.00000000E-01  8.00000000E-01  1.50000000E+00  8.00000000E-01  8.00000000E-01
  1.50000000E+00  8.00000000E-01  8.00000000E-01  1.50000000E+00  8.00000000E-01
  8.00000000E-01  1.50000000E+00  8.00000000E-01  8.00000000E-01  1.50000000E+00
  8.00000000E-01  8.00000000E-01  1.50000000E+00  8.00000000E-01  8.00000000E-01
  1.50000000E+00  8.00000000E-01  8.00000000E-01  1.50000000E+00  8.00000000E-01
  8.00000000E-01  1.50000000E+00  8.00000000E-01  8.00000000E-01  1.50000000E+00
  8.00000000E-01  8.00000000E-01  1.50000000E+00  8.00000000E-01  8.00000000E-01
  1.50000000E+00  8.00000000E-01  8.00000000E-01  1.50000000E+00  8.00000000E-01
  8.00000000E-01  1.50000000E+00  8.00000000E-01  8.00000000E-01  1.50000000E+00
  8.00000000E-01  8.00000000E-01  1.50000000E+00  8.00000000E-01  8.00000000E-01
  1.50000000E+00  8.00000000E-01  8.00000000E-01  1.50000000E+00  8.00000000E-01
  8.00000000E-01  1.50000000E+00  8.00000000E-01  8.00000000E-01  1.50000000E+00
  8.00000000E-01  8.00000000E-01  1.50000000E+00  8.00000000E-01  8.00000000E-01
  1.50000000E+00  8.00000000E-01  8.00000000E-01  1.50000000E+00  8.00000000E-01
  8.00000000E-01  1.50000000E+00  8.00000000E-01  8.00000000E-01  1.50000000E+00
  8.00000000E-01  8.00000000E-01  1.50000000E+00  8.00000000E-01  8.00000000E-01
  1.50000000E+00  8.00000000E-01  8.00000000E-01  1.50000000E+00  8.00000000E-01
  8.00000000E-01  1.50000000E+00  8.00000000E-01  8.00000000E-01  1.50000000E+00
  8.00000000E-01  8.00000000E-01  1.50000000E+00  8.00000000E-01  8.00000000E-01
  1.50000000E+00  8.00000000E-01  8.00000000E-01  1.50000000E+00  8.00000000E-01
  8.00000000E-01  1.50000000E+00  8.00000000E-01  8.00000000E-01  1.50000000E+00
  8.00000000E-01  8.00000000E-01  1.50000000E+00  8.00000000E-01  8.00000000E-01
  1.50000000E+00  8.00000000E-01  8.00000000E-01  1.50000000E+00  8.00000000E-01
  8.00000000E-01  1.50000000E+00  8.00000000E-01  8.00000000E-01  1.50000000E+00
  8.00000000E-01  8.00000000E-01  1.50000000E+00  8.00000000E-01  8.00000000E-01
  1.50000000E+00  8.00000000E-01  8.00000000E-01  1.50000000E+00  8.00000000E-01
  8.00000000E-01  1.50000000E+00  8.00000000E-01  8.00000000E-01  1.50000000E+00
  8.00000000E-01  8.00000000E-01  1.50000000E+00  8.00000000E-01  8.00000000E-01
  1.50000000E+00  8.00000000E-01  8.00000000E-01  1.50000000E+00  8.00000000E-01
  8.00000000E-01  1.50000000E+00  8.00000000E-01  8.00000000E-01  1.50000000E+00
  8.00000000E-01  8.00000000E-01  1.50000000E+00  8.00000000E-01  8.00000000E-01
  1.50000000E+00  8.00000000E-01  8.00000000E-01  1.50000000E+00  8.00000000E-01
  8.00000000E-01  1.50000000E+00  8.00000000E-01  8.00000000E-01  1.50000000E+00
  8.00000000E-01  8.00000000E-01  1.50000000E+00  8.00000000E-01  8.00000000E-01
  1.50000000E+00  8.00000000E-01  8.00000000E-01  1.50000000E+00  8.00000000E-01
  8.00000000E-01  1.50000000E+00  8.00000000E-01  8.00000000E-01  1.50000000E+00
  8.00000000E-01  8.00000000E-01  1.50000000E+00  8.00000000E-01  8.00000000E-01
  1.50000000E+00  8.00000000E-01  8.00000000E-01  1.50000000E+00  8.00000000E-01
  8.00000000E-01  1.50000000E+00  8.00000000E-01  8.00000000E-01  1.50000000E+00
  8.00000000E-01  8.00000000E-01  1.50000000E+00  8.00000000E-01  8.00000000E-01
  1.50000000E+00  8.00000000E-01  8.00000000E-01  1.50000000E+00  8.00000000E-01
  8.00000000E-01  1.50000000E+00  8.00000000E-01  8.00000000E-01  1.50000000E+00
  8.00000000E-01  8.00000000E-01  1.50000000E+00  8.00000000E-01  8.00000000E-01
  1.50000000E+00  8.00000000E-01  8.00000000E-01  1.50000000E+00  8.00000000E-01
  8.00000000E-01  1.50000000E+00  8.00000000E-01  8.00000000E-01  1.50000000E+00
  8.00000000E-01  8.00000000E-01  1.50000000E+00  8.00000000E-01  8.00000000E-01
  1.50000000E+00  8.00000000E-01  8.00000000E-01  1.50000000E+00  8.00000000E-01
  8.00000000E-01  1.50000000E+00  8.00000000E-01  8.00000000E-01  1.50000000E+00
  8.00000000E-01  8.00000000E-01  1.50000000E+00  8.00000000E-01  8.00000000E-01
  1.50000000E+00  8.00000000E-01  8.00000000E-01  1.50000000E+00  8.00000000E-01
  8.00000000E-01  1.50000000E+00  8.00000000E-01  8.00000000E-01  1.50000000E+00
  8.00000000E-01  8.00000000E-01  1.50000000E+00  8.00000000E-01  8.00000000E-01
  1.50000000E+00  8.00000000E-01  8.00000000E-01  1.50000000E+00  8.00000000E-01
  8.00000000E-01  1.50000000E+00  8.00000000E-01  8.00000000E-01  1.50000000E+00
  8.00000000E-01  8.00000000E-01  1.50000000E+00  8.00000000E-01  8.00000000E-01
  1.50000000E+00  8.00000000E-01  8.00000000E-01  1.50000000E+00  8.00000000E-01
  8.00000000E-01  1.50000000E+00  8.00000000E-01  8.00000000E-01  1.50000000E+00
  8.00000000E-01  8.00000000E-01  1.50000000E+00  8.00000000E-01  8.00000000E-01
  1.50000000E+00  8.00000000E-01  8.00000000E-01  1.50000000E+00  8.00000000E-01
  8.00000000E-01  1.50000000E+00  8.00000000E-01  8.00000000E-01  1.50000000E+00
  8.00000000E-01  8.00000000E-01  1.50000000E+00  8.00000000E-01  8.00000000E-01
  1.50000000E+00  8.00000000E-01  8.00000000E-01  1.50000000E+00  8.00000000E-01
  8.00000000E-01  1.50000000E+00  8.00000000E-01  8.00000000E-01  1.50000000E+00
  8.00000000E-01  8.00000000E-01  1.50000000E+00  8.00000000E-01  8.00000000E-01
  1.50000000E+00  8.00000000E-01  8.00000000E-01  1.50000000E+00  8.00000000E-01
  8.00000000E-01  1.50000000E+00  8.00000000E-01  8.00000000E-01  1.50000000E+00
  8.00000000E-01  8.00000000E-01  1.50000000E+00  8.00000000E-01  8.00000000E-01
  1.50000000E+00  8.00000000E-01  8.00000000E-01  1.50000000E+00  8.00000000E-01
  8.00000000E-01  1.50000000E+00  8.00000000E-01  8.00000000E-01  1.50000000E+00
  8.00000000E-01  8.00000000E-01  1.50000000E+00  8.00000000E-01  8.00000000E-01
  1.50000000E+00  8.00000000E-01  8.00000000E-01  1.50000000E+00  8.00000000E-01
  8.00000000E-01  1.50000000E+00  8.00000000E-01  8.00000000E-01  1.50000000E+00
  8.00000000E-01  8.00000000E-01  1.50000000E+00  8.00000000E-01  8.00000000E-01
  1.50000000E+00  8.00000000E-01  8.00000000E-01  1.50000000E+00  8.00000000E-01
  8.00000000E-01  1.50000000E+00  8.00000000E-01  8.00000000E-01  1.50000000E+00
  8.00000000E-01  8.00000000E-01  1.50000000E+00  8.00000000E-01  8.00000000E-01
  1.50000000E+00  8.00000000E-01  8.00000000E-01  1.50000000E+00  8.00000000E-01
  8.00000000E-01  1.50000000E+00  8.00000000E-01  8.00000000E-01  1.50000000E+00
  8.00000000E-01  8.00000000E-01  1.50000000E+00  8.00000000E-01  8.00000000E-01
  1.50000000E+00  8.00000000E-01  8.00000000E-01  1.50000000E+00  8.00000000E-01
  8.00000000E-01  1.50000000E+00  8.00000000E-01  8.00000000E-01  1.50000000E+00
  8.00000000E-01  8.00000000E-01  1.50000000E+00  8.00000000E-01  8.00000000E-01
  1.50000000E+00  8.00000000E-01  8.00000000E-01  1.50000000E+00  8.00000000E-01
  8.00000000E-01  1.50000000E+00  8.00000000E-01  8.00000000E-01  1.50000000E+00
  8.00000000E-01  8.00000000E-01  1.50000000E+00  8.00000000E-01  8.00000000E-01
  1.50000000E+00  8.00000000E-01  8.00000000E-01  1.50000000E+00  8.00000000E-01
  8.00000000E-01  1.50000000E+00  8.00000000E-01  8.00000000E-01  1.50000000E+00
  8.00000000E-01  8.00000000E-01  1.50000000E+00  8.00000000E-01  8.00000000E-01
  1.50000000E+00  8.00000000E-01  8.00000000E-01  1.50000000E+00  8.00000000E-01
  8.00000000E-01  1.50000000E+00  8.00000000E-01  8.00000000E-01  1.50000000E+00
  8.00000000E-01  8.00000000E-01  1.50000000E+00  8.00000000E-01  8.00000000E-01
  1.50000000E+00  8.00000000E-01  8.00000000E-01  1.50000000E+00  8.00000000E-01
  8.00000000E-01  1.50000000E+00  8.00000000E-01  8.00000000E-01  1.50000000E+00
  8.00000000E-01  8.00000000E-01  1.50000000E+00  8.00000000E-01  8.00000000E-01
  1.50000000E+00  8.00000000E-01  8.00000000E-01  1.50000000E+00  8.00000000E-01
  8.00000000E-01  1.50000000E+00  8.00000000E-01  8.00000000E-01  1.50000000E+00
  8.00000000E-01  8.00000000E-01  1.50000000E+00  8.00000000E-01  8.00000000E-01
  1.50000000E+00  8.00000000E-01  8.00000000E-01  1.50000000E+00  8.00000000E-01
  8.00000000E-01  1.50000000E+00  8.00000000E-01  8.00000000E-01  1.50000000E+00
  8.00000000E-01  8.00000000E-01  1.50000000E+00  8.00000000E-01  8.00000000E-01
  1.50000000E+00  8.00000000E-01  8.00000000E-01  1.50000000E+00  8.00000000E-01
  8.00000000E-01  1.50000000E+00  8.00000000E-01  8.00000000E-01  1.50000000E+00
  8.00000000E-01  8.00000000E-01  1.50000000E+00  8.00000000E-01  8.00000000E-01
  1.50000000E+00  8.00000000E-01  8.00000000E-01  1.50000000E+00  8.00000000E-01
  8.00000000E-01  1.50000000E+00  8.00000000E-01  8.00000000E-01  1.50000000E+00
  8.00000000E-01  8.00000000E-01  1.50000000E+00  8.00000000E-01  8.00000000E-01
  1.50000000E+00  8.00000000E-01  8.00000000E-01  1.50000000E+00  8.00000000E-01
  8.00000000E-01  1.50000000E+00  8.00000000E-01  8.00000000E-01  1.50000000E+00
  8.00000000E-01  8.00000000E-01  1.50000000E+00  8.00000000E-01  8.00000000E-01
  1.50000000E+00  8.00000000E-01  8.00000000E-01  1.50000000E+00  8.00000000E-01
  8.00000000E-01  1.50000000E+00  8.00000000E-01  8.00000000E-01  1.50000000E+00
  8.00000000E-01  8.00000000E-01  1.50000000E+00  8.00000000E-01  8.00000000E-01
  1.50000000E+00  8.00000000E-01  8.00000000E-01  1.50000000E+00  8.00000000E-01
  8.00000000E-01  1.50000000E+00  8.00000000E-01  8.00000000E-01  1.50000000E+00
  8.00000000E-01  8.00000000E-01  1.50000000E+00  8.00000000E-01  8.00000000E-01
  1.50000000E+00  8.00000000E-01  8.00000000E-01  1.50000000E+00  8.00000000E-01
  8.00000000E-01  1.50000000E+00  8.00000000E-01  8.00000000E-01  1.50000000E+00
  8.00000000E-01  8.00000000E-01  1.50000000E+00  8.00000000E-01  8.00000000E-01
  1.50000000E+00  8.00000000E-01  8.00000000E-01  1.50000000E+00  8.00000000E-01
  8.00000000E-01  1.50000000E+00  8.00000000E-01  8.00000000E-01  1.50000000E+00
  8.00000000E-01  8.00000000E-01  1.50000000E+00  8.00000000E-01  8.00000000E-01
  1.50000000E+00  8.00000000E-01  8.00000000E-01  1.50000000E+00  8.00000000E-01
  8.00000000E-01  1.50000000E+00  8.00000000E-01  8.00000000E-01  1.50000000E+00
  8.00000000E-01  8.00000000E-01  1.50000000E+00  8.00000000E-01  8.00000000E-01
  1.50000000E+00  8.00000000E-01  8.00000000E-01  1.50000000E+00  8.00000000E-01
  8.00000000E-01  1.50000000E+00  8.00000000E-01  8.00000000E-01  1.50000000E+00
  8.00000000E-01  8.00000000E-01  1.50000000E+00  8.00000000E-01  8.00000000E-01
  1.50000000E+00  8.00000000E-01  8.00000000E-01  1.50000000E+00  8.00000000E-01
  8.00000000E-01  1.50000000E+00  8.00000000E-01  8.00000000E-01  1.50000000E+00
  8.00000000E-01  8.00000000E-01  1.50000000E+00  8.00000000E-01  8.00000000E-01
  1.50000000E+00  8.00000000E-01  8.00000000E-01  1.50000000E+00  8.00000000E-01
  8.00000000E-01  1.50000000E+00  8.00000000E-01  8.00000000E-01  1.50000000E+00
  8.00000000E-01  8.00000000E-01  1.50000000E+00  8.00000000E-01  8.00000000E-01
  1.50000000E+00  8.00000000E-01  8.00000000E-01  1.50000000E+00  8.00000000E-01
  8.00000000E-01  1.50000000E+00  8.00000000E-01  8.00000000E-01  1.50000000E+00
  8.00000000E-01  8.00000000E-01  1.50000000E+00  8.00000000E-01  8.00000000E-01
  1.50000000E+00  8.00000000E-01  8.00000000E-01  1.50000000E+00  8.00000000E-01
  8.00000000E-01  1.50000000E+00  8.00000000E-01  8.00000000E-01  1.50000000E+00
  8.00000000E-01  8.00000000E-01  1.50000000E+00  8.00000000E-01  8.00000000E-01
  1.50000000E+00  8.00000000E-01  8.00000000E-01  1.50000000E+00  8.00000000E-01
  8.00000000E-01  1.50000000E+00  8.00000000E-01  8.00000000E-01  1.50000000E+00
  8.00000000E-01  8.00000000E-01  1.50000000E+00  8.00000000E-01  8.00000000E-01
  1.50000000E+00  8.00000000E-01  8.00000000E-01  1.50000000E+00  8.00000000E-01
  8.00000000E-01  1.50000000E+00  8.00000000E-01  8.00000000E-01  1.50000000E+00
  8.00000000E-01  8.00000000E-01  1.50000000E+00  8.00000000E-01  8.00000000E-01
  1.50000000E+00  8.00000000E-01  8.00000000E-01  1.50000000E+00  8.00000000E-01
  8.00000000E-01  1.50000000E+00  8.00000000E-01  8.00000000E-01  1.50000000E+00
  8.00000000E-01  8.00000000E-01  1.50000000E+00  8.00000000E-01  8.00000000E-01
  1.50000000E+00  8.00000000E-01  8.00000000E-01  1.50000000E+00  8.00000000E-01
  8.00000000E-01  1.50000000E+00  8.00000000E-01  8.00000000E-01  1.50000000E+00
  8.00000000E-01  8.00000000E-01  1.50000000E+00  8.00000000E-01  8.00000000E-01
  1.50000000E+00  8.00000000E-01  8.00000000E-01  1.50000000E+00  8.00000000E-01
  8.00000000E-01  1.50000000E+00  8.00000000E-01  8.00000000E-01  1.50000000E+00
  8.00000000E-01  8.00000000E-01  1.50000000E+00  8.00000000E-01  8.00000000E-01
  1.50000000E+00  8.00000000E-01  8.00000000E-01  1.50000000E+00  8.00000000E-01
  8.00000000E-01  1.50000000E+00  8.00000000E-01  8.00000000E-01  1.50000000E+00
  8.00000000E-01  8.00000000E-01  1.50000000E+00  8.00000000E-01  8.00000000E-01
  1.50000000E+00  8.00000000E-01  8.00000000E-01  1.50000000E+00  8.00000000E-01
  8.00000000E-01  1.50000000E+00  8.00000000E-01  8.00000000E-01  1.50000000E+00
  8.00000000E-01  8.00000000E-01  1.50000000E+00  8.00000000E-01  8.00000000E-01
  1.50000000E+00  8.00000000E-01  8.00000000E-01  1.50000000E+00  8.00000000E-01
  8.00000000E-01  1.50000000E+00  8.00000000E-01  8.00000000E-01  1.50000000E+00
  8.00000000E-01  8.00000000E-01  1.50000000E+00  8.00000000E-01  8.00000000E-01
  1.50000000E+00  8.00000000E-01  8.00000000E-01  1.50000000E+00  8.00000000E-01
  8.00000000E-01  1.50000000E+00  8.00000000E-01  8.00000000E-01  1.50000000E+00
  8.00000000E-01  8.00000000E-01  1.50000000E+00  8.00000000E-01  8.00000000E-01
  1.50000000E+00  8.00000000E-01  8.00000000E-01  1.50000000E+00  8.00000000E-01
  8.00000000E-01  1.50000000E+00  8.00000000E-01  8.00000000E-01  1.50000000E+00
  8.00000000E-01  8.00000000E-01  1.50000000E+00  8.00000000E-01  8.00000000E-01
  1.50000000E+00  8.00000000E-01  8.00000000E-01  1.50000000E+00  8.00000000E-01
  8.00000000E-01  1.50000000E+00  8.00000000E-01  8.00000000E-01  1.50000000E+00
  8.00000000E-01  8.00000000E-01  1.50000000E+00  8.00000000E-01  8.00000000E-01
  1.50000000E+00  8.00000000E-01  8.00000000E-01  1.50000000E+00  8.00000000E-01
  8.00000000E-01  1.50000000E+00  8.00000000E-01  8.00000000E-01  1.50000000E+00
  8.00000000E-01  8.00000000E-01  1.50000000E+00  8.00000000E-01  8.00000000E-01
  1.50000000E+00  8.00000000E-01  8.00000000E-01  1.50000000E+00  8.00000000E-01
  8.00000000E-01  1.50000000E+00  8.00000000E-01  8.00000000E-01  1.50000000E+00
  8.00000000E-01  8.00000000E-01  1.50000000E+00  8.00000000E-01  8.00000000E-01
  1.50000000E+00  8.00000000E-01  8.00000000E-01  1.50000000E+00  8.00000000E-01
  8.00000000E-01  1.50000000E+00  8.00000000E-01  8.00000000E-01  1.50000000E+00
  8.00000000E-01  8.00000000E-01  1.50000000E+00  8.00000000E-01  8.00000000E-01
  1.50000000E+00  8.00000000E-01  8.00000000E-01  1.50000000E+00  8.00000000E-01
  8.00000000E-01  1.50000000E+00  8.00000000E-01  8.00000000E-01  1.50000000E+00
  8.00000000E-01  8.00000000E-01  1.50000000E+00  8.00000000E-01  8.00000000E-01
  1.50000000E+00  8.00000000E-01  8.00000000E-01  1.50000000E+00  8.00000000E-01
  8.00000000E-01  1.50000000E+00  8.00000000E-01  8.00000000E-01  1.50000000E+00
  8.00000000E-01  8.00000000E-01  1.50000000E+00  8.00000000E-01  8.00000000E-01
  1.50000000E+00  8.00000000E-01  8.00000000E-01  1.50000000E+00  8.00000000E-01
  8.00000000E-01  1.50000000E+00  8.00000000E-01  8.00000000E-01  1.50000000E+00
  8.00000000E-01  8.00000000E-01  1.50000000E+00  8.00000000E-01  8.00000000E-01
  1.50000000E+00  8.00000000E-01  8.00000000E-01  1.50000000E+00  8.00000000E-01
  8.00000000E-01  1.50000000E+00  8.00000000E-01  8.00000000E-01  1.50000000E+00
  8.00000000E-01  8.00000000E-01  1.50000000E+00  8.00000000E-01  8.00000000E-01
  1.50000000E+00  8.00000000E-01  8.00000000E-01  1.50000000E+00  8.00000000E-01
  8.00000000E-01  1.50000000E+00  8.00000000E-01  8.00000000E-01  1.50000000E+00
  8.00000000E-01  8.00000000E-01  1.50000000E+00  8.00000000E-01  8.00000000E-01
  1.50000000E+00  8.00000000E-01  8.00000000E-01  1.50000000E+00  8.00000000E-01
  8.00000000E-01  1.50000000E+00  8.00000000E-01  8.00000000E-01  1.50000000E+00
  8.00000000E-01  8.00000000E-01  1.50000000E+00  8.00000000E-01  8.00000000E-01
  1.50000000E+00  8.00000000E-01  8.00000000E-01  1.50000000E+00  8.00000000E-01
  8.00000000E-01  1.50000000E+00  8.00000000E-01  8.00000000E-01  1.50000000E+00
  8.00000000E-01  8.00000000E-01  1.50000000E+00  8.00000000E-01  8.00000000E-01
  1.50000000E+00  8.00000000E-01  8.00000000E-01  1.50000000E+00  8.00000000E-01
  8.00000000E-01  1.50000000E+00  8.00000000E-01  8.00000000E-01  1.50000000E+00
  8.00000000E-01  8.00000000E-01  1.50000000E+00  8.00000000E-01  8.00000000E-01
  1.50000000E+00  8.00000000E-01  8.00000000E-01  1.50000000E+00  8.00000000E-01
  8.00000000E-01  1.50000000E+00  8.00000000E-01  8.00000000E-01  1.50000000E+00
  8.00000000E-01  8.00000000E-01  1.50000000E+00  8.00000000E-01  8.00000000E-01
  1.50000000E+00  8.00000000E-01  8.00000000E-01  1.50000000E+00  8.00000000E-01
  8.00000000E-01  1.50000000E+00  8.00000000E-01  8.00000000E-01  1.50000000E+00
  8.00000000E-01  8.00000000E-01  1.50000000E+00  8.00000000E-01  8.00000000E-01
  1.50000000E+00  8.00000000E-01  8.00000000E-01  1.50000000E+00  8.00000000E-01
  8.00000000E-01  1.50000000E+00  8.00000000E-01  8.00000000E-01  1.50000000E+00
  8.00000000E-01  8.00000000E-01  1.50000000E+00  8.00000000E-01  8.00000000E-01
  1.50000000E+00  8.00000000E-01  8.00000000E-01  1.50000000E+00  8.00000000E-01
  8.00000000E-01  1.50000000E+00  8.00000000E-01  8.00000000E-01  1.50000000E+00
  8.00000000E-01  8.00000000E-01  1.50000000E+00  8.00000000E-01  8.00000000E-01
  1.50000000E+00  8.00000000E-01  8.00000000E-01  1.50000000E+00  8.00000000E-01
  8.00000000E-01  1.50000000E+00  8.00000000E-01  8.00000000E-01  1.50000000E+00
  8.00000000E-01  8.00000000E-01  1.50000000E+00  8.00000000E-01  8.00000000E-01
  1.50000000E+00  8.00000000E-01  8.00000000E-01  1.50000000E+00  8.00000000E-01
  8.00000000E-01  1.50000000E+00  8.00000000E-01  8.00000000E-01  1.50000000E+00
  8.00000000E-01  8.00000000E-01  1.50000000E+00  8.00000000E-01  8.00000000E-01
  1.50000000E+00  8.00000000E-01  8.00000000E-01  1.50000000E+00  8.00000000E-01
  8.00000000E-01  1.50000000E+00  8.00000000E-01  8.00000000E-01  1.50000000E+00
  8.00000000E-01  8.00000000E-01  1.50000000E+00  8.00000000E-01  8.00000000E-01
  1.50000000E+00  8.00000000E-01  8.00000000E-01  1.50000000E+00  8.00000000E-01
  8.00000000E-01  1.50000000E+00  8.00000000E-01  8.00000000E-01  1.50000000E+00
  8.00000000E-01  8.00000000E-01  1.50000000E+00  8.00000000E-01  8.00000000E-01
  1.50000000E+00  8.00000000E-01  8.00000000E-01  1.50000000E+00  8.00000000E-01
  8.00000000E-01  1.50000000E+00  8.00000000E-01  8.00000000E-01  1.50000000E+00
  8.00000000E-01  8.00000000E-01  1.50000000E+00  8.00000000E-01  8.00000000E-01
  1.50000000E+00  8.00000000E-01  8.00000000E-01  1.50000000E+00  8.00000000E-01
  8.00000000E-01  1.50000000E+00  8.00000000E-01  8.00000000E-01  1.50000000E+00
  8.00000000E-01  8.00000000E-01  1.50000000E+00  8.00000000E-01  8.00000000E-01
  1.50000000E+00  8.00000000E-01  8.00000000E-01  1.50000000E+00  8.00000000E-01
  8.00000000E-01  1.50000000E+00  8.00000000E-01  8.00000000E-01  1.50000000E+00
  8.00000000E-01  8.00000000E-01  1.50000000E+00  8.00000000E-01  8.00000000E-01
  1.50000000E+00  8.00000000E-01  8.00000000E-01  1.50000000E+00  8.00000000E-01
  8.00000000E-01  1.50000000E+00  8.00000000E-01  8.00000000E-01  1.50000000E+00
  8.00000000E-01  8.00000000E-01  1.50000000E+00  8.00000000E-01  8.00000000E-01
  1.50000000E+00  8.00000000E-01  8.00000000E-01  1.50000000E+00  8.00000000E-01
  8.00000000E-01  1.50000000E+00  8.00000000E-01  8.00000000E-01  1.50000000E+00
  8.00000000E-01  8.00000000E-01  1.50000000E+00  8.00000000E-01  8.00000000E-01
  1.50000000E+00  8.00000000E-01  8.00000000E-01  1.50000000E+00  8.00000000E-01
  8.00000000E-01  1.50000000E+00  8.00000000E-01  8.00000000E-01  1.50000000E+00
  8.00000000E-01  8.00000000E-01  1.50000000E+00  8.00000000E-01  8.00000000E-01
  1.50000000E+00  8.00000000E-01  8.00000000E-01  1.50000000E+00  8.00000000E-01
  8.00000000E-01  1.50000000E+00  8.00000000E-01  8.00000000E-01  1.50000000E+00
  8.00000000E-01  8.00000000E-01  1.50000000E+00  8.00000000E-01  8.00000000E-01
  1.50000000E+00  8.00000000E-01  8.00000000E-01  1.50000000E+00  8.00000000E-01
  8.00000000E-01  1.50000000E+00  8.00000000E-01  8.00000000E-01  1.50000000E+00
  8.00000000E-01  8.00000000E-01  1.50000000E+00  8.00000000E-01  8.00000000E-01
  1.50000000E+00  8.00000000E-01  8.00000000E-01  1.50000000E+00  8.00000000E-01
  8.00000000E-01  1.50000000E+00  8.00000000E-01  8.00000000E-01  1.50000000E+00
  8.00000000E-01  8.00000000E-01  1.50000000E+00  8.00000000E-01  8.00000000E-01
  1.50000000E+00  8.00000000E-01  8.00000000E-01  1.50000000E+00  8.00000000E-01
  8.00000000E-01  1.50000000E+00  8.00000000E-01  8.00000000E-01  1.50000000E+00
  8.00000000E-01  8.00000000E-01  1.50000000E+00  8.00000000E-01  8.00000000E-01
  1.50000000E+00  8.00000000E-01  8.00000000E-01  1.50000000E+00  8.00000000E-01
  8.00000000E-01  1.50000000E+00  8.00000000E-01  8.00000000E-01  1.50000000E+00
  8.00000000E-01  8.00000000E-01  1.50000000E+00  8.00000000E-01  8.00000000E-01
  1.50000000E+00  8.00000000E-01  8.00000000E-01  1.50000000E+00  8.00000000E-01
  8.00000000E-01  1.50000000E+00  8.00000000E-01  8.00000000E-01  1.50000000E+00
  8.00000000E-01  8.00000000E-01  1.50000000E+00  8.00000000E-01  8.00000000E-01
  1.50000000E+00  8.00000000E-01  8.00000000E-01  1.50000000E+00  8.00000000E-01
  8.00000000E-01  1.50000000E+00  8.00000000E-01  8.00000000E-01  1.50000000E+00
  8.00000000E-01  8.00000000E-01  1.50000000E+00  8.00000000E-01  8.00000000E-01
  1.50000000E+00  8.00000000E-01  8.00000000E-01  1.50000000E+00  8.00000000E-01
  8.00000000E-01  1.50000000E+00  8.00000000E-01  8.00000000E-01  1.50000000E+00
  8.00000000E-01  8.00000000E-01  1.50000000E+00  8.00000000E-01  8.00000000E-01
  1.50000000E+00  8.00000000E-01  8.00000000E-01  1.50000000E+00  8.00000000E-01
  8.00000000E-01  1.50000000E+00  8.00000000E-01  8.00000000E-01  1.50000000E+00
  8.00000000E-01  8.00000000E-01  1.50000000E+00  8.00000000E-01  8.00000000E-01
  1.50000000E+00  8.00000000E-01  8.00000000E-01  1.50000000E+00  8.00000000E-01
  8.00000000E-01  1.50000000E+00  8.00000000E-01  8.00000000E-01  1.50000000E+00
  8.00000000E-01  8.00000000E-01  1.50000000E+00  8.00000000E-01  8.00000000E-01
  1.50000000E+00  8.00000000E-01  8.00000000E-01  1.50000000E+00  8.00000000E-01
  8.00000000E-01  1.50000000E+00  8.00000000E-01  8.00000000E-01  1.50000000E+00
  8.00000000E-01  8.00000000E-01  1.50000000E+00  8.00000000E-01  8.00000000E-01
  1.50000000E+00  8.00000000E-01  8.00000000E-01  1.50000000E+00  8.00000000E-01
  8.00000000E-01  1.50000000E+00  8.00000000E-01  8.00000000E-01  1.50000000E+00
  8.00000000E-01  8.00000000E-01  1.50000000E+00  8.00000000E-01  8.00000000E-01
  1.50000000E+00  8.00000000E-01  8.00000000E-01  1.50000000E+00  8.00000000E-01
  8.00000000E-01  1.50000000E+00  8.00000000E-01  8.00000000E-01  1.50000000E+00
  8.00000000E-01  8.00000000E-01  1.50000000E+00  8.00000000E-01  8.00000000E-01
  1.50000000E+00  8.00000000E-01  8.00000000E-01  1.50000000E+00  8.00000000E-01
  8.00000000E-01  1.50000000E+00  8.00000000E-01  8.00000000E-01  1.50000000E+00
  8.00000000E-01  8.00000000E-01  1.50000000E+00  8.00000000E-01  8.00000000E-01
  1.50000000E+00  8.00000000E-01  8.00000000E-01  1.50000000E+00  8.00000000E-01
  8.00000000E-01  1.50000000E+00  8.00000000E-01  8.00000000E-01  1.50000000E+00
  8.00000000E-01  8.00000000E-01  1.50000000E+00  8.00000000E-01  8.00000000E-01
  1.50000000E+00  8.00000000E-01  8.00000000E-01  1.50000000E+00  8.00000000E-01
  8.00000000E-01  1.50000000E+00  8.00000000E-01  8.00000000E-01  1.50000000E+00
  8.00000000E-01  8.00000000E-01  1.50000000E+00  8.00000000E-01  8.00000000E-01
  1.50000000E+00  8.00000000E-01  8.00000000E-01  1.50000000E+00  8.00000000E-01
  8.00000000E-01  1.50000000E+00  8.00000000E-01  8.00000000E-01  1.50000000E+00
  8.00000000E-01  8.00000000E-01  1.50000000E+00  8.00000000E-01  8.00000000E-01
  1.50000000E+00  8.00000000E-01  8.00000000E-01  1.50000000E+00  8.00000000E-01
  8.00000000E-01  1.50000000E+00  8.00000000E-01  8.00000000E-01  1.50000000E+00
  8.00000000E-01  8.00000000E-01  1.50000000E+00  8.00000000E-01  8.00000000E-01
  1.50000000E+00  8.00000000E-01  8.00000000E-01  1.50000000E+00  8.00000000E-01
  8.00000000E-01  1.50000000E+00  8.00000000E-01  8.00000000E-01  1.50000000E+00
  8.00000000E-01  8.00000000E-01  1.50000000E+00  8.00000000E-01  8.00000000E-01
  1.50000000E+00  8.00000000E-01  8.00000000E-01  1.50000000E+00  8.00000000E-01
  8.00000000E-01  1.50000000E+00  8.00000000E-01  8.00000000E-01  1.50000000E+00
  8.00000000E-01  8.00000000E-01  1.50000000E+00  8.00000000E-01  8.00000000E-01
  1.50000000E+00  8.00000000E-01  8.00000000E-01  1.50000000E+00  8.00000000E-01
  8.00000000E-01  1.50000000E+00  8.00000000E-01  8.00000000E-01  1.50000000E+00
  8.00000000E-01  8.00000000E-01  1.50000000E+00  8.00000000E-01  8.00000000E-01
  1.50000000E+00  8.00000000E-01  8.00000000E-01  1.50000000E+00  8.00000000E-01
  8.00000000E-01  1.50000000E+00  8.00000000E-01  8.00000000E-01  1.50000000E+00
  8.00000000E-01  8.00000000E-01  1.50000000E+00  8.00000000E-01  8.00000000E-01
  1.50000000E+00  8.00000000E-01  8.00000000E-01  1.50000000E+00  8.00000000E-01
  8.00000000E-01  1.50000000E+00  8.00000000E-01  8.00000000E-01  1.50000000E+00
  8.00000000E-01  8.00000000E-01  1.50000000E+00  8.00000000E-01  8.00000000E-01
  1.50000000E+00  8.00000000E-01  8.00000000E-01  1.50000000E+00  8.00000000E-01
  8.00000000E-01  1.50000000E+00  8.00000000E-01  8.00000000E-01  1.50000000E+00
  8.00000000E-01  8.00000000E-01  1.50000000E+00  8.00000000E-01  8.00000000E-01
  1.50000000E+00  8.00000000E-01  8.00000000E-01  1.50000000E+00  8.00000000E-01
  8.00000000E-01  1.50000000E+00  8.00000000E-01  8.00000000E-01  1.50000000E+00
  8.00000000E-01  8.00000000E-01  1.50000000E+00  8.00000000E-01  8.00000000E-01
  1.50000000E+00  8.00000000E-01  8.00000000E-01  1.50000000E+00  8.00000000E-01
  8.00000000E-01  1.50000000E+00  8.00000000E-01  8.00000000E-01  1.50000000E+00
  8.00000000E-01  8.00000000E-01  1.50000000E+00  8.00000000E-01  8.00000000E-01
  1.50000000E+00  8.00000000E-01  8.00000000E-01  1.50000000E+00  8.00000000E-01
  8.00000000E-01  1.50000000E+00  8.00000000E-01  8.00000000E-01  1.50000000E+00
  8.00000000E-01  8.00000000E-01  1.50000000E+00  8.00000000E-01  8.00000000E-01
  1.50000000E+00  8.00000000E-01  8.00000000E-01  1.50000000E+00  8.00000000E-01
  8.00000000E-01  1.50000000E+00  8.00000000E-01  8.00000000E-01  1.50000000E+00
  8.00000000E-01  8.00000000E-01  1.50000000E+00  8.00000000E-01  8.00000000E-01
  1.50000000E+00  8.00000000E-01  8.00000000E-01  1.50000000E+00  8.00000000E-01
  8.00000000E-01  1.50000000E+00  8.00000000E-01  8.00000000E-01  1.50000000E+00
  8.00000000E-01  8.00000000E-01  1.50000000E+00  8.00000000E-01  8.00000000E-01
  1.50000000E+00  8.00000000E-01  8.00000000E-01  1.50000000E+00  8.00000000E-01
  8.00000000E-01  1.50000000E+00  8.00000000E-01  8.00000000E-01  1.50000000E+00
  8.00000000E-01  8.00000000E-01  1.50000000E+00  8.00000000E-01  8.00000000E-01
  1.50000000E+00  8.00000000E-01  8.00000000E-01  1.50000000E+00  8.00000000E-01
  8.00000000E-01  1.50000000E+00  8.00000000E-01  8.00000000E-01  1.50000000E+00
  8.00000000E-01  8.00000000E-01  1.50000000E+00  8.00000000E-01  8.00000000E-01
  1.50000000E+00  8.00000000E-01  8.00000000E-01  1.50000000E+00  8.00000000E-01
  8.00000000E-01  1.50000000E+00  8.00000000E-01  8.00000000E-01  1.50000000E+00
  8.00000000E-01  8.00000000E-01  1.50000000E+00  8.00000000E-01  8.00000000E-01
  1.50000000E+00  8.00000000E-01  8.00000000E-01  1.50000000E+00  8.00000000E-01
  8.00000000E-01  1.50000000E+00  8.00000000E-01  8.00000000E-01  1.50000000E+00
  8.00000000E-01  8.00000000E-01  1.50000000E+00  8.00000000E-01  8.00000000E-01
  1.50000000E+00  8.00000000E-01  8.00000000E-01  1.50000000E+00  8.00000000E-01
  8.00000000E-01  1.50000000E+00  8.00000000E-01  8.00000000E-01  1.50000000E+00
  8.00000000E-01  8.00000000E-01  1.50000000E+00  8.00000000E-01  8.00000000E-01
  1.50000000E+00  8.00000000E-01  8.00000000E-01  1.50000000E+00  8.00000000E-01
  8.00000000E-01  1.50000000E+00  8.00000000E-01  8.00000000E-01  1.50000000E+00
  8.00000000E-01  8.00000000E-01  1.50000000E+00  8.00000000E-01  8.00000000E-01
  1.50000000E+00  8.00000000E-01  8.00000000E-01  1.50000000E+00  8.00000000E-01
  8.00000000E-01  1.50000000E+00  8.00000000E-01  8.00000000E-01  1.50000000E+00
  8.00000000E-01  8.00000000E-01  1.50000000E+00  8.00000000E-01  8.00000000E-01
  1.50000000E+00  8.00000000E-01  8.00000000E-01  1.50000000E+00  8.00000000E-01
  8.00000000E-01  1.50000000E+00  8.00000000E-01  8.00000000E-01  1.50000000E+00
  8.00000000E-01  8.00000000E-01  1.50000000E+00  8.00000000E-01  8.00000000E-01
  1.50000000E+00  8.00000000E-01  8.00000000E-01  1.50000000E+00  8.00000000E-01
  8.00000000E-01  1.50000000E+00  8.00000000E-01  8.00000000E-01  1.50000000E+00
  8.00000000E-01  8.00000000E-01  1.50000000E+00  8.00000000E-01  8.00000000E-01
  1.50000000E+00  8.00000000E-01  8.00000000E-01  1.50000000E+00  8.00000000E-01
  8.00000000E-01  1.50000000E+00  8.00000000E-01  8.00000000E-01  1.50000000E+00
  8.00000000E-01  8.00000000E-01  1.50000000E+00  8.00000000E-01  8.00000000E-01
  1.50000000E+00  8.00000000E-01  8.00000000E-01  1.50000000E+00  8.00000000E-01
  8.00000000E-01  1.50000000E+00  8.00000000E-01  8.00000000E-01  1.50000000E+00
  8.00000000E-01  8.00000000E-01  1.50000000E+00  8.00000000E-01  8.00000000E-01
  1.50000000E+00  8.00000000E-01  8.00000000E-01  1.50000000E+00  8.00000000E-01
  8.00000000E-01  1.50000000E+00  8.00000000E-01  8.00000000E-01  1.50000000E+00
  8.00000000E-01  8.00000000E-01  1.50000000E+00  8.00000000E-01  8.00000000E-01
  1.50000000E+00  8.00000000E-01  8.00000000E-01  1.50000000E+00  8.00000000E-01
  8.00000000E-01  1.50000000E+00  8.00000000E-01  8.00000000E-01  1.50000000E+00
  8.00000000E-01  8.00000000E-01  1.50000000E+00  8.00000000E-01  8.00000000E-01
  1.50000000E+00  8.00000000E-01  8.00000000E-01  1.50000000E+00  8.00000000E-01
  8.00000000E-01  1.50000000E+00  8.00000000E-01  8.00000000E-01  1.50000000E+00
  8.00000000E-01  8.00000000E-01  1.50000000E+00  8.00000000E-01  8.00000000E-01
  1.50000000E+00  8.00000000E-01  8.00000000E-01  1.50000000E+00  8.00000000E-01
  8.00000000E-01  1.50000000E+00  8.00000000E-01  8.00000000E-01  1.50000000E+00
  8.00000000E-01  8.00000000E-01  1.50000000E+00  8.00000000E-01  8.00000000E-01
  1.50000000E+00  8.00000000E-01  8.00000000E-01  1.50000000E+00  8.00000000E-01
  8.00000000E-01  1.50000000E+00  8.00000000E-01  8.00000000E-01  1.50000000E+00
  8.00000000E-01  8.00000000E-01  1.50000000E+00  8.00000000E-01  8.00000000E-01
  1.50000000E+00  8.00000000E-01  8.00000000E-01  1.50000000E+00  8.00000000E-01
  8.00000000E-01  1.50000000E+00  8.00000000E-01  8.00000000E-01  1.50000000E+00
  8.00000000E-01  8.00000000E-01  1.50000000E+00  8.00000000E-01  8.00000000E-01
  1.50000000E+00  8.00000000E-01  8.00000000E-01  1.50000000E+00  8.00000000E-01
  8.00000000E-01  1.50000000E+00  8.00000000E-01  8.00000000E-01  1.50000000E+00
  8.00000000E-01  8.00000000E-01  1.50000000E+00  8.00000000E-01  8.00000000E-01
  1.50000000E+00  8.00000000E-01  8.00000000E-01  1.50000000E+00  8.00000000E-01
  8.00000000E-01  1.50000000E+00  8.00000000E-01  8.00000000E-01  1.50000000E+00
  8.00000000E-01  8.00000000E-01  1.50000000E+00  8.00000000E-01  8.00000000E-01
  1.50000000E+00  8.00000000E-01  8.00000000E-01  1.50000000E+00  8.00000000E-01
  8.00000000E-01  1.50000000E+00  8.00000000E-01  8.00000000E-01  1.50000000E+00
  8.00000000E-01  8.00000000E-01  1.50000000E+00  8.00000000E-01  8.00000000E-01
  1.50000000E+00  8.00000000E-01  8.00000000E-01  1.50000000E+00  8.00000000E-01
  8.00000000E-01  1.50000000E+00  8.00000000E-01  8.00000000E-01  1.50000000E+00
  8.00000000E-01  8.00000000E-01  1.50000000E+00  8.00000000E-01  8.00000000E-01
  1.50000000E+00  8.00000000E-01  8.00000000E-01  1.50000000E+00  8.00000000E-01
  8.00000000E-01  1.50000000E+00  8.00000000E-01  8.00000000E-01  1.50000000E+00
  8.00000000E-01  8.00000000E-01  1.50000000E+00  8.00000000E-01  8.00000000E-01
  1.50000000E+00  8.00000000E-01  8.00000000E-01  1.50000000E+00  8.00000000E-01
  8.00000000E-01  1.50000000E+00  8.00000000E-01  8.00000000E-01  1.50000000E+00
  8.00000000E-01  8.00000000E-01  1.50000000E+00  8.00000000E-01  8.00000000E-01
  1.50000000E+00  8.00000000E-01  8.00000000E-01  1.50000000E+00  8.00000000E-01
  8.00000000E-01  1.50000000E+00  8.00000000E-01  8.00000000E-01  1.50000000E+00
  8.00000000E-01  8.00000000E-01  1.50000000E+00  8.00000000E-01  8.00000000E-01
  1.50000000E+00  8.00000000E-01  8.00000000E-01  1.50000000E+00  8.00000000E-01
  8.00000000E-01  1.50000000E+00  8.00000000E-01  8.00000000E-01  1.50000000E+00
  8.00000000E-01  8.00000000E-01  1.50000000E+00  8.00000000E-01  8.00000000E-01
  1.50000000E+00  8.00000000E-01  8.00000000E-01  1.50000000E+00  8.00000000E-01
  8.00000000E-01  1.50000000E+00  8.00000000E-01  8.00000000E-01  1.50000000E+00
  8.00000000E-01  8.00000000E-01  1.50000000E+00  8.00000000E-01  8.00000000E-01
  1.50000000E+00  8.00000000E-01  8.00000000E-01  1.50000000E+00  8.00000000E-01
  8.00000000E-01  1.50000000E+00  8.00000000E-01  8.00000000E-01  1.50000000E+00
  8.00000000E-01  8.00000000E-01  1.50000000E+00  8.00000000E-01  8.00000000E-01
  1.50000000E+00  8.00000000E-01  8.00000000E-01  1.50000000E+00  8.00000000E-01
  8.00000000E-01  1.50000000E+00  8.00000000E-01  8.00000000E-01  1.50000000E+00
  8.00000000E-01  8.00000000E-01  1.50000000E+00  8.00000000E-01  8.00000000E-01
  1.50000000E+00  8.00000000E-01  8.00000000E-01  1.50000000E+00  8.00000000E-01
  8.00000000E-01  1.50000000E+00  8.00000000E-01  8.00000000E-01  1.50000000E+00
  8.00000000E-01  8.00000000E-01  1.50000000E+00  8.00000000E-01  8.00000000E-01
  1.50000000E+00  8.00000000E-01  8.00000000E-01  1.50000000E+00  8.00000000E-01
  8.00000000E-01  1.50000000E+00  8.00000000E-01  8.00000000E-01  1.50000000E+00
  8.00000000E-01  8.00000000E-01  1.50000000E+00  8.00000000E-01  8.00000000E-01
  1.50000000E+00  8.00000000E-01  8.00000000E-01  1.50000000E+00  8.00000000E-01
  8.00000000E-01  1.50000000E+00  8.00000000E-01  8.00000000E-01  1.50000000E+00
  8.00000000E-01  8.00000000E-01  1.50000000E+00  8.00000000E-01  8.00000000E-01
  1.50000000E+00  8.00000000E-01  8.00000000E-01  1.50000000E+00  8.00000000E-01
  8.00000000E-01  1.50000000E+00  8.00000000E-01  8.00000000E-01  1.50000000E+00
  8.00000000E-01  8.00000000E-01  1.50000000E+00  8.00000000E-01  8.00000000E-01
  1.50000000E+00  8.00000000E-01  8.00000000E-01  1.50000000E+00  8.00000000E-01
  8.00000000E-01  1.50000000E+00  8.00000000E-01  8.00000000E-01  1.50000000E+00
  8.00000000E-01  8.00000000E-01  1.50000000E+00  8.00000000E-01  8.00000000E-01
  1.50000000E+00  8.00000000E-01  8.00000000E-01  1.50000000E+00  8.00000000E-01
  8.00000000E-01  1.50000000E+00  8.00000000E-01  8.00000000E-01  1.50000000E+00
  8.00000000E-01  8.00000000E-01  1.50000000E+00  8.00000000E-01  8.00000000E-01
  1.50000000E+00  8.00000000E-01  8.00000000E-01  1.50000000E+00  8.00000000E-01
  8.00000000E-01  1.50000000E+00  8.00000000E-01  8.00000000E-01  1.50000000E+00
  8.00000000E-01  8.00000000E-01  1.50000000E+00  8.00000000E-01  8.00000000E-01
  1.50000000E+00  8.00000000E-01  8.00000000E-01  1.50000000E+00  8.00000000E-01
  8.00000000E-01  1.50000000E+00  8.00000000E-01  8.00000000E-01  1.50000000E+00
  8.00000000E-01  8.00000000E-01  1.50000000E+00  8.00000000E-01  8.00000000E-01
  1.50000000E+00  8.00000000E-01  8.00000000E-01  1.50000000E+00  8.00000000E-01
  8.00000000E-01  1.50000000E+00  8.00000000E-01  8.00000000E-01  1.50000000E+00
  8.00000000E-01  8.00000000E-01  1.50000000E+00  8.00000000E-01  8.00000000E-01
  1.50000000E+00  8.00000000E-01  8.00000000E-01  1.50000000E+00  8.00000000E-01
  8.00000000E-01  1.50000000E+00  8.00000000E-01  8.00000000E-01  1.50000000E+00
  8.00000000E-01  8.00000000E-01  1.50000000E+00  8.00000000E-01  8.00000000E-01
  1.50000000E+00  8.00000000E-01  8.00000000E-01  1.50000000E+00  8.00000000E-01
  8.00000000E-01  1.50000000E+00  8.00000000E-01  8.00000000E-01  1.50000000E+00
  8.00000000E-01  8.00000000E-01  1.50000000E+00  8.00000000E-01  8.00000000E-01
  1.50000000E+00  8.00000000E-01  8.00000000E-01  1.50000000E+00  8.00000000E-01
  8.00000000E-01  1.50000000E+00  8.00000000E-01  8.00000000E-01  1.50000000E+00
  8.00000000E-01  8.00000000E-01  1.50000000E+00  8.00000000E-01  8.00000000E-01
  1.50000000E+00  8.00000000E-01  8.00000000E-01  1.50000000E+00  8.00000000E-01
  8.00000000E-01  1.50000000E+00  8.00000000E-01  8.00000000E-01  1.50000000E+00
  8.00000000E-01  8.00000000E-01  1.50000000E+00  8.00000000E-01  8.00000000E-01
  1.50000000E+00  8.00000000E-01  8.00000000E-01  1.50000000E+00  8.00000000E-01
  8.00000000E-01  1.50000000E+00  8.00000000E-01  8.00000000E-01  1.50000000E+00
  8.00000000E-01  8.00000000E-01  1.50000000E+00  8.00000000E-01  8.00000000E-01
  1.50000000E+00  8.00000000E-01  8.00000000E-01  1.50000000E+00  8.00000000E-01
  8.00000000E-01  1.50000000E+00  8.00000000E-01  8.00000000E-01  1.50000000E+00
  8.00000000E-01  8.00000000E-01  1.50000000E+00  8.00000000E-01  8.00000000E-01
  1.50000000E+00  8.00000000E-01  8.00000000E-01  1.50000000E+00  8.00000000E-01
  8.00000000E-01  1.50000000E+00  8.00000000E-01  8.00000000E-01  1.50000000E+00
  8.00000000E-01  8.00000000E-01  1.50000000E+00  8.00000000E-01  8.00000000E-01
  1.50000000E+00  8.00000000E-01  8.00000000E-01  1.50000000E+00  8.00000000E-01
  8.00000000E-01  1.50000000E+00  8.00000000E-01  8.00000000E-01  1.50000000E+00
  8.00000000E-01  8.00000000E-01  1.50000000E+00  8.00000000E-01  8.00000000E-01
  1.50000000E+00  8.00000000E-01  8.00000000E-01  1.50000000E+00  8.00000000E-01
  8.00000000E-01  1.50000000E+00  8.00000000E-01  8.00000000E-01  1.50000000E+00
  8.00000000E-01  8.00000000E-01  1.50000000E+00  8.00000000E-01  8.00000000E-01
  1.50000000E+00  8.00000000E-01  8.00000000E-01  1.50000000E+00  8.00000000E-01
  8.00000000E-01  1.50000000E+00  8.00000000E-01  8.00000000E-01  1.50000000E+00
  8.00000000E-01  8.00000000E-01  1.50000000E+00  8.00000000E-01  8.00000000E-01
  1.50000000E+00  8.00000000E-01  8.00000000E-01  1.50000000E+00  8.00000000E-01
  8.00000000E-01  1.50000000E+00  8.00000000E-01  8.00000000E-01  1.50000000E+00
  8.00000000E-01  8.00000000E-01  1.50000000E+00  8.00000000E-01  8.00000000E-01
  1.50000000E+00  8.00000000E-01  8.00000000E-01  1.50000000E+00  8.00000000E-01
  8.00000000E-01  1.50000000E+00  8.00000000E-01  8.00000000E-01  1.50000000E+00
  8.00000000E-01  8.00000000E-01  1.50000000E+00  8.00000000E-01  8.00000000E-01
  1.50000000E+00  8.00000000E-01  8.00000000E-01  1.50000000E+00  8.00000000E-01
  8.00000000E-01  1.50000000E+00  8.00000000E-01  8.00000000E-01  1.50000000E+00
  8.00000000E-01  8.00000000E-01  1.50000000E+00  8.00000000E-01  8.00000000E-01
  1.50000000E+00  8.00000000E-01  8.00000000E-01  1.50000000E+00  8.00000000E-01
  8.00000000E-01  1.50000000E+00  8.00000000E-01  8.00000000E-01  1.50000000E+00
  8.00000000E-01  8.00000000E-01  1.50000000E+00  8.00000000E-01  8.00000000E-01
  1.50000000E+00  8.00000000E-01  8.00000000E-01  1.50000000E+00  8.00000000E-01
  8.00000000E-01  1.50000000E+00  8.00000000E-01  8.00000000E-01  1.50000000E+00
  8.00000000E-01  8.00000000E-01  1.50000000E+00  8.00000000E-01  8.00000000E-01
  1.50000000E+00  8.00000000E-01  8.00000000E-01  1.50000000E+00  8.00000000E-01
  8.00000000E-01  1.50000000E+00  8.00000000E-01  8.00000000E-01  1.50000000E+00
  8.00000000E-01  8.00000000E-01  1.50000000E+00  8.00000000E-01  8.00000000E-01
  1.50000000E+00  8.00000000E-01  8.00000000E-01  1.50000000E+00  8.00000000E-01
  8.00000000E-01  1.50000000E+00  8.00000000E-01  8.00000000E-01  1.50000000E+00
  8.00000000E-01  8.00000000E-01  1.50000000E+00  8.00000000E-01  8.00000000E-01
  1.50000000E+00  8.00000000E-01  8.00000000E-01  1.50000000E+00  8.00000000E-01
  8.00000000E-01  1.50000000E+00  8.00000000E-01  8.00000000E-01  1.50000000E+00
  8.00000000E-01  8.00000000E-01  1.50000000E+00  8.00000000E-01  8.00000000E-01
  1.50000000E+00  8.00000000E-01  8.00000000E-01  1.50000000E+00  8.00000000E-01
  8.00000000E-01  1.50000000E+00  8.00000000E-01  8.00000000E-01  1.50000000E+00
  8.00000000E-01  8.00000000E-01  1.50000000E+00  8.00000000E-01  8.00000000E-01
  1.50000000E+00  8.00000000E-01  8.00000000E-01  1.50000000E+00  8.00000000E-01
  8.00000000E-01  1.50000000E+00  8.00000000E-01  8.00000000E-01  1.50000000E+00
  8.00000000E-01  8.00000000E-01  1.50000000E+00  8.00000000E-01  8.00000000E-01
  1.50000000E+00  8.00000000E-01  8.00000000E-01  1.50000000E+00  8.00000000E-01
  8.00000000E-01  1.50000000E+00  8.00000000E-01  8.00000000E-01  1.50000000E+00
  8.00000000E-01  8.00000000E-01  1.50000000E+00  8.00000000E-01  8.00000000E-01
  1.50000000E+00  8.00000000E-01  8.00000000E-01  1.50000000E+00  8.00000000E-01
  8.00000000E-01  1.50000000E+00  8.00000000E-01  8.00000000E-01  1.50000000E+00
  8.00000000E-01  8.00000000E-01  1.50000000E+00  8.00000000E-01  8.00000000E-01
  1.50000000E+00  8.00000000E-01  8.00000000E-01  1.50000000E+00  8.00000000E-01
  8.00000000E-01  1.50000000E+00  8.00000000E-01  8.00000000E-01  1.50000000E+00
  8.00000000E-01  8.00000000E-01  1.50000000E+00  8.00000000E-01  8.00000000E-01
  1.50000000E+00  8.00000000E-01  8.00000000E-01  1.50000000E+00  8.00000000E-01
  8.00000000E-01  1.50000000E+00  8.00000000E-01  8.00000000E-01  1.50000000E+00
  8.00000000E-01  8.00000000E-01  1.50000000E+00  8.00000000E-01  8.00000000E-01
  1.50000000E+00  8.00000000E-01  8.00000000E-01  1.50000000E+00  8.00000000E-01
  8.00000000E-01  1.50000000E+00  8.00000000E-01  8.00000000E-01  1.50000000E+00
  8.00000000E-01  8.00000000E-01  1.50000000E+00  8.00000000E-01  8.00000000E-01
  1.50000000E+00  8.00000000E-01  8.00000000E-01  1.50000000E+00  8.00000000E-01
  8.00000000E-01  1.50000000E+00  8.00000000E-01  8.00000000E-01  1.50000000E+00
  8.00000000E-01  8.00000000E-01  1.50000000E+00  8.00000000E-01  8.00000000E-01
  1.50000000E+00  8.00000000E-01  8.00000000E-01  1.50000000E+00  8.00000000E-01
  8.00000000E-01  1.50000000E+00  8.00000000E-01  8.00000000E-01  1.50000000E+00
  8.00000000E-01  8.00000000E-01  1.50000000E+00  8.00000000E-01  8.00000000E-01
  1.50000000E+00  8.00000000E-01  8.00000000E-01  1.50000000E+00  8.00000000E-01
  8.00000000E-01  1.50000000E+00  8.00000000E-01  8.00000000E-01  1.50000000E+00
  8.00000000E-01  8.00000000E-01  1.50000000E+00  8.00000000E-01  8.00000000E-01
  1.50000000E+00  8.00000000E-01  8.00000000E-01  1.50000000E+00  8.00000000E-01
  8.00000000E-01  1.50000000E+00  8.00000000E-01  8.00000000E-01  1.50000000E+00
  8.00000000E-01  8.00000000E-01  1.50000000E+00  8.00000000E-01  8.00000000E-01
  1.50000000E+00  8.00000000E-01  8.00000000E-01  1.50000000E+00  8.00000000E-01
  8.00000000E-01  1.50000000E+00  8.00000000E-01  8.00000000E-01  1.50000000E+00
  8.00000000E-01  8.00000000E-01  1.50000000E+00  8.00000000E-01  8.00000000E-01
  1.50000000E+00  8.00000000E-01  8.00000000E-01  1.50000000E+00  8.00000000E-01
  8.00000000E-01  1.50000000E+00  8.00000000E-01  8.00000000E-01  1.50000000E+00
  8.00000000E-01  8.00000000E-01  1.50000000E+00  8.00000000E-01  8.00000000E-01
  1.50000000E+00  8.00000000E-01  8.00000000E-01  1.50000000E+00  8.00000000E-01
  8.00000000E-01  1.50000000E+00  8.00000000E-01  8.00000000E-01  1.50000000E+00
  8.00000000E-01  8.00000000E-01  1.50000000E+00  8.00000000E-01  8.00000000E-01
  1.50000000E+00  8.00000000E-01  8.00000000E-01  1.50000000E+00  8.00000000E-01
  8.00000000E-01  1.50000000E+00  8.00000000E-01  8.00000000E-01  1.50000000E+00
  8.00000000E-01  8.00000000E-01  1.50000000E+00  8.00000000E-01  8.00000000E-01
  1.50000000E+00  8.00000000E-01  8.00000000E-01  1.50000000E+00  8.00000000E-01
  8.00000000E-01  1.50000000E+00  8.00000000E-01  8.00000000E-01  1.50000000E+00
  8.00000000E-01  8.00000000E-01  1.50000000E+00  8.00000000E-01  8.00000000E-01
  1.50000000E+00  8.00000000E-01  8.00000000E-01  1.50000000E+00  8.00000000E-01
  8.00000000E-01  1.50000000E+00  8.00000000E-01  8.00000000E-01  1.50000000E+00
  8.00000000E-01  8.00000000E-01  1.50000000E+00  8.00000000E-01  8.00000000E-01
  1.50000000E+00  8.00000000E-01  8.00000000E-01  1.50000000E+00  8.00000000E-01
  8.00000000E-01  1.50000000E+00  8.00000000E-01  8.00000000E-01  1.50000000E+00
  8.00000000E-01  8.00000000E-01  1.50000000E+00  8.00000000E-01  8.00000000E-01
  1.50000000E+00  8.00000000E-01  8.00000000E-01  1.50000000E+00  8.00000000E-01
  8.00000000E-01  1.50000000E+00  8.00000000E-01  8.00000000E-01  1.50000000E+00
  8.00000000E-01  8.00000000E-01  1.50000000E+00  8.00000000E-01  8.00000000E-01
  1.50000000E+00  8.00000000E-01  8.00000000E-01  1.50000000E+00  8.00000000E-01
  8.00000000E-01  1.50000000E+00  8.00000000E-01  8.00000000E-01  1.50000000E+00
  8.00000000E-01  8.00000000E-01  1.50000000E+00  8.00000000E-01  8.00000000E-01
  1.50000000E+00  8.00000000E-01  8.00000000E-01  1.50000000E+00  8.00000000E-01
  8.00000000E-01  1.50000000E+00  8.00000000E-01  8.00000000E-01  1.50000000E+00
  8.00000000E-01  8.00000000E-01  1.50000000E+00  8.00000000E-01  8.00000000E-01
  1.50000000E+00  8.00000000E-01  8.00000000E-01  1.50000000E+00  8.00000000E-01
  8.00000000E-01  1.50000000E+00  8.00000000E-01  8.00000000E-01  1.50000000E+00
  8.00000000E-01  8.00000000E-01  1.50000000E+00  8.00000000E-01  8.00000000E-01
  1.50000000E+00  8.00000000E-01  8.00000000E-01  1.50000000E+00  8.00000000E-01
  8.00000000E-01  1.50000000E+00  8.00000000E-01  8.00000000E-01  1.50000000E+00
  8.00000000E-01  8.00000000E-01  1.50000000E+00  8.00000000E-01  8.00000000E-01
  1.50000000E+00  8.00000000E-01  8.00000000E-01  1.50000000E+00  8.00000000E-01
  8.00000000E-01  1.50000000E+00  8.00000000E-01  8.00000000E-01  1.50000000E+00
  8.00000000E-01  8.00000000E-01  1.50000000E+00  8.00000000E-01  8.00000000E-01
  1.50000000E+00  8.00000000E-01  8.00000000E-01  1.50000000E+00  8.00000000E-01
  8.00000000E-01  1.50000000E+00  8.00000000E-01  8.00000000E-01  1.50000000E+00
  8.00000000E-01  8.00000000E-01  1.50000000E+00  8.00000000E-01  8.00000000E-01
  1.50000000E+00  8.00000000E-01  8.00000000E-01  1.50000000E+00  8.00000000E-01
  8.00000000E-01  1.50000000E+00  8.00000000E-01  8.00000000E-01  1.50000000E+00
  8.00000000E-01  8.00000000E-01  1.50000000E+00  8.00000000E-01  8.00000000E-01
  1.50000000E+00  8.00000000E-01  8.00000000E-01  1.50000000E+00  8.00000000E-01
  8.00000000E-01  1.50000000E+00  8.00000000E-01  8.00000000E-01  1.50000000E+00
  8.00000000E-01  8.00000000E-01  1.50000000E+00  8.00000000E-01  8.00000000E-01
  1.50000000E+00  8.00000000E-01  8.00000000E-01  1.50000000E+00  8.00000000E-01
  8.00000000E-01  1.50000000E+00  8.00000000E-01  8.00000000E-01  1.50000000E+00
  8.00000000E-01  8.00000000E-01  1.50000000E+00  8.00000000E-01  8.00000000E-01
  1.50000000E+00  8.00000000E-01  8.00000000E-01  1.50000000E+00  8.00000000E-01
  8.00000000E-01  1.50000000E+00  8.00000000E-01  8.00000000E-01  1.50000000E+00
  8.00000000E-01  8.00000000E-01  1.50000000E+00  8.00000000E-01  8.00000000E-01
  1.50000000E+00  8.00000000E-01  8.00000000E-01  1.50000000E+00  8.00000000E-01
  8.00000000E-01  1.50000000E+00  8.00000000E-01  8.00000000E-01  1.50000000E+00
  8.00000000E-01  8.00000000E-01  1.50000000E+00  8.00000000E-01  8.00000000E-01
  1.50000000E+00  8.00000000E-01  8.00000000E-01  1.50000000E+00  8.00000000E-01
  8.00000000E-01  1.50000000E+00  8.00000000E-01  8.00000000E-01  1.50000000E+00
  8.00000000E-01  8.00000000E-01  1.50000000E+00  8.00000000E-01  8.00000000E-01
  1.50000000E+00  8.00000000E-01  8.00000000E-01  1.50000000E+00  8.00000000E-01
  8.00000000E-01  1.50000000E+00  8.00000000E-01  8.00000000E-01  1.50000000E+00
  8.00000000E-01  8.00000000E-01  1.50000000E+00  8.00000000E-01  8.00000000E-01
  1.50000000E+00  8.00000000E-01  8.00000000E-01  1.50000000E+00  8.00000000E-01
  8.00000000E-01  1.50000000E+00  8.00000000E-01  8.00000000E-01  1.50000000E+00
  8.00000000E-01  8.00000000E-01  1.50000000E+00  8.00000000E-01  8.00000000E-01
  1.50000000E+00  8.00000000E-01  8.00000000E-01  1.50000000E+00  8.00000000E-01
  8.00000000E-01  1.50000000E+00  8.00000000E-01  8.00000000E-01  1.50000000E+00
  8.00000000E-01  8.00000000E-01  1.50000000E+00  8.00000000E-01  8.00000000E-01
  1.50000000E+00  8.00000000E-01  8.00000000E-01  1.50000000E+00  8.00000000E-01
  8.00000000E-01  1.50000000E+00  8.00000000E-01  8.00000000E-01  1.50000000E+00
  8.00000000E-01  8.00000000E-01  1.50000000E+00  8.00000000E-01  8.00000000E-01
  1.50000000E+00  8.00000000E-01  8.00000000E-01  1.50000000E+00  8.00000000E-01
  8.00000000E-01  1.50000000E+00  8.00000000E-01  8.00000000E-01  1.50000000E+00
  8.00000000E-01  8.00000000E-01  1.50000000E+00  8.00000000E-01  8.00000000E-01
  1.50000000E+00  8.00000000E-01  8.00000000E-01  1.50000000E+00  8.00000000E-01
  8.00000000E-01  1.50000000E+00  8.00000000E-01  8.00000000E-01  1.50000000E+00
  8.00000000E-01  8.00000000E-01  1.50000000E+00  8.00000000E-01  8.00000000E-01
  1.50000000E+00  8.00000000E-01  8.00000000E-01  1.50000000E+00  8.00000000E-01
  8.00000000E-01  1.50000000E+00  8.00000000E-01  8.00000000E-01  1.50000000E+00
  8.00000000E-01  8.00000000E-01  1.50000000E+00  8.00000000E-01  8.00000000E-01
  1.50000000E+00  8.00000000E-01  8.00000000E-01  1.50000000E+00  8.00000000E-01
  8.00000000E-01  1.50000000E+00  8.00000000E-01  8.00000000E-01  1.50000000E+00
  8.00000000E-01  8.00000000E-01  1.50000000E+00  8.00000000E-01  8.00000000E-01
  1.50000000E+00  8.00000000E-01  8.00000000E-01  1.50000000E+00  8.00000000E-01
  8.00000000E-01  1.50000000E+00  8.00000000E-01  8.00000000E-01  1.50000000E+00
  8.00000000E-01  8.00000000E-01  1.50000000E+00  8.00000000E-01  8.00000000E-01
  1.50000000E+00  8.00000000E-01  8.00000000E-01  1.50000000E+00  8.00000000E-01
  8.00000000E-01  1.50000000E+00  8.00000000E-01  8.00000000E-01  1.50000000E+00
  8.00000000E-01  8.00000000E-01  1.50000000E+00  8.00000000E-01  8.00000000E-01
  1.50000000E+00  8.00000000E-01  8.00000000E-01  1.50000000E+00  8.00000000E-01
  8.00000000E-01  1.50000000E+00  8.00000000E-01  8.00000000E-01  1.50000000E+00
  8.00000000E-01  8.00000000E-01  1.50000000E+00  8.00000000E-01  8.00000000E-01
  1.50000000E+00  8.00000000E-01  8.00000000E-01  1.50000000E+00  8.00000000E-01
  8.00000000E-01  1.50000000E+00  8.00000000E-01  8.00000000E-01  1.50000000E+00
  8.00000000E-01  8.00000000E-01  1.50000000E+00  8.00000000E-01  8.00000000E-01
  1.50000000E+00  8.00000000E-01  8.00000000E-01  1.50000000E+00  8.00000000E-01
  8.00000000E-01  1.50000000E+00  8.00000000E-01  8.00000000E-01  1.50000000E+00
  8.00000000E-01  8.00000000E-01  1.50000000E+00  8.00000000E-01  8.00000000E-01
  1.50000000E+00  8.00000000E-01  8.00000000E-01  1.50000000E+00  8.00000000E-01
  8.00000000E-01  1.50000000E+00  8.00000000E-01  8.00000000E-01  1.50000000E+00
  8.00000000E-01  8.00000000E-01  1.50000000E+00  8.00000000E-01  8.00000000E-01
  1.50000000E+00  8.00000000E-01  8.00000000E-01  1.50000000E+00  8.00000000E-01
  8.00000000E-01  1.50000000E+00  8.00000000E-01  8.00000000E-01  1.50000000E+00
  8.00000000E-01  8.00000000E-01  1.50000000E+00  8.00000000E-01  8.00000000E-01
  1.50000000E+00  8.00000000E-01  8.00000000E-01  1.50000000E+00  8.00000000E-01
  8.00000000E-01  1.50000000E+00  8.00000000E-01  8.00000000E-01  1.50000000E+00
  8.00000000E-01  8.00000000E-01  1.50000000E+00  8.00000000E-01  8.00000000E-01
  1.50000000E+00  8.00000000E-01  8.00000000E-01  1.50000000E+00  8.00000000E-01
  8.00000000E-01  1.50000000E+00  8.00000000E-01  8.00000000E-01  1.50000000E+00
  8.00000000E-01  8.00000000E-01  1.50000000E+00  8.00000000E-01  8.00000000E-01
  1.50000000E+00  8.00000000E-01  8.00000000E-01  1.50000000E+00  8.00000000E-01
  8.00000000E-01  1.50000000E+00  8.00000000E-01  8.00000000E-01  1.50000000E+00
  8.00000000E-01  8.00000000E-01  1.50000000E+00  8.00000000E-01  8.00000000E-01
  1.50000000E+00  8.00000000E-01  8.00000000E-01  1.50000000E+00  8.00000000E-01
  8.00000000E-01  1.50000000E+00  8.00000000E-01  8.00000000E-01  1.50000000E+00
  8.00000000E-01  8.00000000E-01  1.50000000E+00  8.00000000E-01  8.00000000E-01
  1.50000000E+00  8.00000000E-01  8.00000000E-01  1.50000000E+00  8.00000000E-01
  8.00000000E-01  1.50000000E+00  8.00000000E-01  8.00000000E-01  1.50000000E+00
  8.00000000E-01  8.00000000E-01  1.50000000E+00  8.00000000E-01  8.00000000E-01
  1.50000000E+00  8.00000000E-01  8.00000000E-01  1.50000000E+00  8.00000000E-01
  8.00000000E-01  1.50000000E+00  8.00000000E-01  8.00000000E-01  1.50000000E+00
  8.00000000E-01  8.00000000E-01  1.50000000E+00  8.00000000E-01  8.00000000E-01
  1.50000000E+00  8.00000000E-01  8.00000000E-01  1.50000000E+00  8.00000000E-01
  8.00000000E-01  1.50000000E+00  8.00000000E-01  8.00000000E-01  1.50000000E+00
  8.00000000E-01  8.00000000E-01  1.50000000E+00  8.00000000E-01  8.00000000E-01
  1.50000000E+00  8.00000000E-01  8.00000000E-01  1.50000000E+00  8.00000000E-01
  8.00000000E-01  1.50000000E+00  8.00000000E-01  8.00000000E-01  1.50000000E+00
  8.00000000E-01  8.00000000E-01  1.50000000E+00  8.00000000E-01  8.00000000E-01
  1.50000000E+00  8.00000000E-01  8.00000000E-01  1.50000000E+00  8.00000000E-01
  8.00000000E-01  1.50000000E+00  8.00000000E-01  8.00000000E-01  1.50000000E+00
  8.00000000E-01  8.00000000E-01  1.50000000E+00  8.00000000E-01  8.00000000E-01
  1.50000000E+00  8.00000000E-01  8.00000000E-01  1.50000000E+00  8.00000000E-01
  8.00000000E-01  1.50000000E+00  8.00000000E-01  8.00000000E-01  1.50000000E+00
  8.00000000E-01  8.00000000E-01  1.50000000E+00  8.00000000E-01  8.00000000E-01
  1.50000000E+00  8.00000000E-01  8.00000000E-01  1.50000000E+00  8.00000000E-01
  8.00000000E-01  1.50000000E+00  8.00000000E-01  8.00000000E-01  1.50000000E+00
  8.00000000E-01  8.00000000E-01  1.50000000E+00  8.00000000E-01  8.00000000E-01
  1.50000000E+00  8.00000000E-01  8.00000000E-01  1.50000000E+00  8.00000000E-01
  8.00000000E-01  1.50000000E+00  8.00000000E-01  8.00000000E-01  1.50000000E+00
  8.00000000E-01  8.00000000E-01  1.50000000E+00  8.00000000E-01  8.00000000E-01
  1.50000000E+00  8.00000000E-01  8.00000000E-01  1.50000000E+00  8.00000000E-01
  8.00000000E-01  1.50000000E+00  8.00000000E-01  8.00000000E-01  1.50000000E+00
  8.00000000E-01  8.00000000E-01  1.50000000E+00  8.00000000E-01  8.00000000E-01
  1.50000000E+00  8.00000000E-01  8.00000000E-01  1.50000000E+00  8.00000000E-01
  8.00000000E-01  1.50000000E+00  8.00000000E-01  8.00000000E-01  1.50000000E+00
  8.00000000E-01  8.00000000E-01  1.50000000E+00  8.00000000E-01  8.00000000E-01
  1.50000000E+00  8.00000000E-01  8.00000000E-01  1.50000000E+00  8.00000000E-01
  8.00000000E-01  1.50000000E+00  8.00000000E-01  8.00000000E-01  1.50000000E+00
  8.00000000E-01  8.00000000E-01  1.50000000E+00  8.00000000E-01  8.00000000E-01
  1.50000000E+00  8.00000000E-01  8.00000000E-01  1.50000000E+00  8.00000000E-01
  8.00000000E-01  1.50000000E+00  8.00000000E-01  8.00000000E-01  1.50000000E+00
  8.00000000E-01  8.00000000E-01  1.50000000E+00  8.00000000E-01  8.00000000E-01
  1.50000000E+00  8.00000000E-01  8.00000000E-01  1.50000000E+00  8.00000000E-01
  8.00000000E-01  1.50000000E+00  8.00000000E-01  8.00000000E-01  1.50000000E+00
  8.00000000E-01  8.00000000E-01  1.50000000E+00  8.00000000E-01  8.00000000E-01
  1.50000000E+00  8.00000000E-01  8.00000000E-01  1.50000000E+00  8.00000000E-01
  8.00000000E-01  1.50000000E+00  8.00000000E-01  8.00000000E-01  1.50000000E+00
  8.00000000E-01  8.00000000E-01  1.50000000E+00  8.00000000E-01  8.00000000E-01
  1.50000000E+00  8.00000000E-01  8.00000000E-01  1.50000000E+00  8.00000000E-01
  8.00000000E-01  1.50000000E+00  8.00000000E-01  8.00000000E-01  1.50000000E+00
  8.00000000E-01  8.00000000E-01  1.50000000E+00  8.00000000E-01  8.00000000E-01
  1.50000000E+00  8.00000000E-01  8.00000000E-01  1.50000000E+00  8.00000000E-01
  8.00000000E-01  1.50000000E+00  8.00000000E-01  8.00000000E-01  1.50000000E+00
  8.00000000E-01  8.00000000E-01  1.50000000E+00  8.00000000E-01  8.00000000E-01
  1.50000000E+00  8.00000000E-01  8.00000000E-01  1.50000000E+00  8.00000000E-01
  8.00000000E-01  1.50000000E+00  8.00000000E-01  8.00000000E-01  1.50000000E+00
  8.00000000E-01  8.00000000E-01  1.50000000E+00  8.00000000E-01  8.00000000E-01
  1.50000000E+00  8.00000000E-01  8.00000000E-01  1.50000000E+00  8.00000000E-01
  8.00000000E-01  1.50000000E+00  8.00000000E-01  8.00000000E-01  1.50000000E+00
  8.00000000E-01  8.00000000E-01  1.50000000E+00  8.00000000E-01  8.00000000E-01
  1.50000000E+00  8.00000000E-01  8.00000000E-01  1.50000000E+00  8.00000000E-01
  8.00000000E-01  1.50000000E+00  8.00000000E-01  8.00000000E-01  1.50000000E+00
  8.00000000E-01  8.00000000E-01  1.50000000E+00  8.00000000E-01  8.00000000E-01
  1.50000000E+00  8.00000000E-01  8.00000000E-01  1.50000000E+00  8.00000000E-01
  8.00000000E-01  1.50000000E+00  8.00000000E-01  8.00000000E-01  1.50000000E+00
  8.00000000E-01  8.00000000E-01  1.50000000E+00  8.00000000E-01  8.00000000E-01
  1.50000000E+00  8.00000000E-01  8.00000000E-01  1.50000000E+00  8.00000000E-01
  8.00000000E-01  1.50000000E+00  8.00000000E-01  8.00000000E-01  1.50000000E+00
  8.00000000E-01  8.00000000E-01  1.50000000E+00  8.00000000E-01  8.00000000E-01
  1.50000000E+00  8.00000000E-01  8.00000000E-01  1.50000000E+00  8.00000000E-01
  8.00000000E-01  1.50000000E+00  8.00000000E-01  8.00000000E-01  1.50000000E+00
  8.00000000E-01  8.00000000E-01  1.50000000E+00  8.00000000E-01  8.00000000E-01
  1.50000000E+00  8.00000000E-01  8.00000000E-01  1.50000000E+00  8.00000000E-01
  8.00000000E-01  1.50000000E+00  8.00000000E-01  8.00000000E-01  1.50000000E+00
  8.00000000E-01  8.00000000E-01  1.50000000E+00  8.00000000E-01  8.00000000E-01
  1.50000000E+00  8.00000000E-01  8.00000000E-01  1.50000000E+00  8.00000000E-01
  8.00000000E-01  1.50000000E+00  8.00000000E-01  8.00000000E-01  1.50000000E+00
  8.00000000E-01  8.00000000E-01  1.50000000E+00  8.00000000E-01  8.00000000E-01
  1.50000000E+00  8.00000000E-01  8.00000000E-01  1.50000000E+00  8.00000000E-01
  8.00000000E-01  1.50000000E+00  8.00000000E-01  8.00000000E-01  1.50000000E+00
  8.00000000E-01  8.00000000E-01  1.50000000E+00  8.00000000E-01  8.00000000E-01
  1.50000000E+00  8.00000000E-01  8.00000000E-01  1.50000000E+00  8.00000000E-01
  8.00000000E-01  1.50000000E+00  8.00000000E-01  8.00000000E-01  1.50000000E+00
  8.00000000E-01  8.00000000E-01  1.50000000E+00  8.00000000E-01  8.00000000E-01
  1.50000000E+00  8.00000000E-01  8.00000000E-01  1.50000000E+00  8.00000000E-01
  8.00000000E-01  1.50000000E+00  8.00000000E-01  8.00000000E-01  1.50000000E+00
  8.00000000E-01  8.00000000E-01  1.50000000E+00  8.00000000E-01  8.00000000E-01
  1.50000000E+00  8.00000000E-01  8.00000000E-01  1.50000000E+00  8.00000000E-01
  8.00000000E-01  1.50000000E+00  8.00000000E-01  8.00000000E-01  1.50000000E+00
  8.00000000E-01  8.00000000E-01  1.50000000E+00  8.00000000E-01  8.00000000E-01
  1.50000000E+00  8.00000000E-01  8.00000000E-01  1.50000000E+00  8.00000000E-01
  8.00000000E-01  1.50000000E+00  8.00000000E-01  8.00000000E-01  1.50000000E+00
  8.00000000E-01  8.00000000E-01  1.50000000E+00  8.00000000E-01  8.00000000E-01
  1.50000000E+00  8.00000000E-01  8.00000000E-01  1.50000000E+00  8.00000000E-01
  8.00000000E-01  1.50000000E+00  8.00000000E-01  8.00000000E-01  1.50000000E+00
  8.00000000E-01  8.00000000E-01  1.50000000E+00  8.00000000E-01  8.00000000E-01
  1.50000000E+00  8.00000000E-01  8.00000000E-01  1.50000000E+00  8.00000000E-01
  8.00000000E-01  1.50000000E+00  8.00000000E-01  8.00000000E-01  1.50000000E+00
  8.00000000E-01  8.00000000E-01  1.50000000E+00  8.00000000E-01  8.00000000E-01
  1.50000000E+00  8.00000000E-01  8.00000000E-01  1.50000000E+00  8.00000000E-01
  8.00000000E-01  1.50000000E+00  8.00000000E-01  8.00000000E-01  1.50000000E+00
  8.00000000E-01  8.00000000E-01  1.50000000E+00  8.00000000E-01  8.00000000E-01
  1.50000000E+00  8.00000000E-01  8.00000000E-01  1.50000000E+00  8.00000000E-01
  8.00000000E-01  1.50000000E+00  8.00000000E-01  8.00000000E-01  1.50000000E+00
  8.00000000E-01  8.00000000E-01  1.50000000E+00  8.00000000E-01  8.00000000E-01
  1.50000000E+00  8.00000000E-01  8.00000000E-01  1.50000000E+00  8.00000000E-01
  8.00000000E-01  1.50000000E+00  8.00000000E-01  8.00000000E-01  1.50000000E+00
  8.00000000E-01  8.00000000E-01  1.50000000E+00  8.00000000E-01  8.00000000E-01
  1.50000000E+00  8.00000000E-01  8.00000000E-01  1.50000000E+00  8.00000000E-01
  8.00000000E-01  1.50000000E+00  8.00000000E-01  8.00000000E-01  1.50000000E+00
  8.00000000E-01  8.00000000E-01  1.50000000E+00  8.00000000E-01  8.00000000E-01
  1.50000000E+00  8.00000000E-01  8.00000000E-01  1.50000000E+00  8.00000000E-01
  8.00000000E-01  1.50000000E+00  8.00000000E-01  8.00000000E-01  1.50000000E+00
  8.00000000E-01  8.00000000E-01  1.50000000E+00  8.00000000E-01  8.00000000E-01
  1.50000000E+00  8.00000000E-01  8.00000000E-01  1.50000000E+00  8.00000000E-01
  8.00000000E-01  1.50000000E+00  8.00000000E-01  8.00000000E-01  1.50000000E+00
  8.00000000E-01  8.00000000E-01  1.50000000E+00  8.00000000E-01  8.00000000E-01
  1.50000000E+00  8.00000000E-01  8.00000000E-01  1.50000000E+00  8.00000000E-01
  8.00000000E-01  1.50000000E+00  8.00000000E-01  8.00000000E-01  1.50000000E+00
  8.00000000E-01  8.00000000E-01  1.50000000E+00  8.00000000E-01  8.00000000E-01
  1.50000000E+00  8.00000000E-01  8.00000000E-01  1.50000000E+00  8.00000000E-01
  8.00000000E-01  1.50000000E+00  8.00000000E-01  8.00000000E-01  1.50000000E+00
  8.00000000E-01  8.00000000E-01  1.50000000E+00  8.00000000E-01  8.00000000E-01
  1.50000000E+00  8.00000000E-01  8.00000000E-01  1.50000000E+00  8.00000000E-01
  8.00000000E-01  1.50000000E+00  8.00000000E-01  8.00000000E-01  1.50000000E+00
  8.00000000E-01  8.00000000E-01  1.50000000E+00  8.00000000E-01  8.00000000E-01
  1.50000000E+00  8.00000000E-01  8.00000000E-01  1.50000000E+00  8.00000000E-01
  8.00000000E-01  1.50000000E+00  8.00000000E-01  8.00000000E-01  1.50000000E+00
  8.00000000E-01  8.00000000E-01  1.50000000E+00  8.00000000E-01  8.00000000E-01
  1.50000000E+00  8.00000000E-01  8.00000000E-01  1.50000000E+00  8.00000000E-01
  8.00000000E-01  1.50000000E+00  8.00000000E-01  8.00000000E-01  1.50000000E+00
  8.00000000E-01  8.00000000E-01  1.50000000E+00  8.00000000E-01  8.00000000E-01
  1.50000000E+00  8.00000000E-01  8.00000000E-01  1.50000000E+00  8.00000000E-01
  8.00000000E-01  1.50000000E+00  8.00000000E-01  8.00000000E-01  1.50000000E+00
  8.00000000E-01  8.00000000E-01  1.50000000E+00  8.00000000E-01  8.00000000E-01
  1.50000000E+00  8.00000000E-01  8.00000000E-01  1.50000000E+00  8.00000000E-01
  8.00000000E-01  1.50000000E+00  8.00000000E-01  8.00000000E-01  1.50000000E+00
  8.00000000E-01  8.00000000E-01  1.50000000E+00  8.00000000E-01  8.00000000E-01
  1.50000000E+00  8.00000000E-01  8.00000000E-01  1.50000000E+00  8.00000000E-01
  8.00000000E-01  1.50000000E+00  8.00000000E-01  8.00000000E-01  1.50000000E+00
  8.00000000E-01  8.00000000E-01  1.50000000E+00  8.00000000E-01  8.00000000E-01
  1.50000000E+00  8.00000000E-01  8.00000000E-01  1.50000000E+00  8.00000000E-01
  8.00000000E-01  1.50000000E+00  8.00000000E-01  8.00000000E-01  1.50000000E+00
  8.00000000E-01  8.00000000E-01  1.50000000E+00  8.00000000E-01  8.00000000E-01
  1.50000000E+00  8.00000000E-01  8.00000000E-01  1.50000000E+00  8.00000000E-01
  8.00000000E-01  1.50000000E+00  8.00000000E-01  8.00000000E-01  1.50000000E+00
  8.00000000E-01  8.00000000E-01  1.50000000E+00  8.00000000E-01  8.00000000E-01
  1.50000000E+00  8.00000000E-01  8.00000000E-01  1.50000000E+00  8.00000000E-01
  8.00000000E-01  1.50000000E+00  8.00000000E-01  8.00000000E-01  1.50000000E+00
  8.00000000E-01  8.00000000E-01  1.50000000E+00  8.00000000E-01  8.00000000E-01
  1.50000000E+00  8.00000000E-01  8.00000000E-01  1.50000000E+00  8.00000000E-01
  8.00000000E-01  1.50000000E+00  8.00000000E-01  8.00000000E-01  1.50000000E+00
  8.00000000E-01  8.00000000E-01  1.50000000E+00  8.00000000E-01  8.00000000E-01
  1.50000000E+00  8.00000000E-01  8.00000000E-01  1.50000000E+00  8.00000000E-01
  8.00000000E-01  1.50000000E+00  8.00000000E-01  8.00000000E-01  1.50000000E+00
  8.00000000E-01  8.00000000E-01  1.50000000E+00  8.00000000E-01  8.00000000E-01
  1.50000000E+00  8.00000000E-01  8.00000000E-01  1.50000000E+00  8.00000000E-01
  8.00000000E-01  1.50000000E+00  8.00000000E-01  8.00000000E-01  1.50000000E+00
  8.00000000E-01  8.00000000E-01  1.50000000E+00  8.00000000E-01  8.00000000E-01
  1.50000000E+00  8.00000000E-01  8.00000000E-01  1.50000000E+00  8.00000000E-01
  8.00000000E-01  1.50000000E+00  8.00000000E-01  8.00000000E-01  1.50000000E+00
  8.00000000E-01  8.00000000E-01  1.50000000E+00  8.00000000E-01  8.00000000E-01
  1.50000000E+00  8.00000000E-01  8.00000000E-01  1.50000000E+00  8.00000000E-01
  8.00000000E-01  1.50000000E+00  8.00000000E-01  8.00000000E-01  1.50000000E+00
  8.00000000E-01  8.00000000E-01  1.50000000E+00  8.00000000E-01  8.00000000E-01
  1.50000000E+00  8.00000000E-01  8.00000000E-01  1.50000000E+00  8.00000000E-01
  8.00000000E-01  1.50000000E+00  8.00000000E-01  8.00000000E-01  1.50000000E+00
  8.00000000E-01  8.00000000E-01  1.50000000E+00  8.00000000E-01  8.00000000E-01
  1.50000000E+00  8.00000000E-01  8.00000000E-01  1.50000000E+00  8.00000000E-01
  8.00000000E-01  1.50000000E+00  8.00000000E-01  8.00000000E-01  1.50000000E+00
  8.00000000E-01  8.00000000E-01  1.50000000E+00  8.00000000E-01  8.00000000E-01
  1.50000000E+00  8.00000000E-01  8.00000000E-01  1.50000000E+00  8.00000000E-01
  8.00000000E-01  1.50000000E+00  8.00000000E-01  8.00000000E-01  1.50000000E+00
  8.00000000E-01  8.00000000E-01  1.50000000E+00  8.00000000E-01  8.00000000E-01
  1.50000000E+00  8.00000000E-01  8.00000000E-01  1.50000000E+00  8.00000000E-01
  8.00000000E-01  1.50000000E+00  8.00000000E-01  8.00000000E-01  1.50000000E+00
  8.00000000E-01  8.00000000E-01  1.50000000E+00  8.00000000E-01  8.00000000E-01
  1.50000000E+00  8.00000000E-01  8.00000000E-01  1.50000000E+00  8.00000000E-01
  8.00000000E-01  1.50000000E+00  8.00000000E-01  8.00000000E-01  1.50000000E+00
  8.00000000E-01  8.00000000E-01  1.50000000E+00  8.00000000E-01  8.00000000E-01
  1.50000000E+00  8.00000000E-01  8.00000000E-01  1.50000000E+00  8.00000000E-01
  8.00000000E-01  1.50000000E+00  8.00000000E-01  8.00000000E-01  1.50000000E+00
  8.00000000E-01  8.00000000E-01  1.50000000E+00  8.00000000E-01  8.00000000E-01
  1.50000000E+00  8.00000000E-01  8.00000000E-01  1.50000000E+00  8.00000000E-01
  8.00000000E-01  1.50000000E+00  8.00000000E-01  8.00000000E-01  1.50000000E+00
  8.00000000E-01  8.00000000E-01  1.50000000E+00  8.00000000E-01  8.00000000E-01
  1.50000000E+00  8.00000000E-01  8.00000000E-01  1.50000000E+00  8.00000000E-01
  8.00000000E-01  1.50000000E+00  8.00000000E-01  8.00000000E-01  1.50000000E+00
  8.00000000E-01  8.00000000E-01  1.50000000E+00  8.00000000E-01  8.00000000E-01
  1.50000000E+00  8.00000000E-01  8.00000000E-01  1.50000000E+00  8.00000000E-01
  8.00000000E-01  1.50000000E+00  8.00000000E-01  8.00000000E-01  1.50000000E+00
  8.00000000E-01  8.00000000E-01  1.50000000E+00  8.00000000E-01  8.00000000E-01
  1.50000000E+00  8.00000000E-01  8.00000000E-01  1.50000000E+00  8.00000000E-01
  8.00000000E-01  1.50000000E+00  8.00000000E-01  8.00000000E-01  1.50000000E+00
  8.00000000E-01  8.00000000E-01  1.50000000E+00  8.00000000E-01  8.00000000E-01
  1.50000000E+00  8.00000000E-01  8.00000000E-01  1.50000000E+00  8.00000000E-01
  8.00000000E-01  1.50000000E+00  8.00000000E-01  8.00000000E-01  1.50000000E+00
  8.00000000E-01  8.00000000E-01  1.50000000E+00  8.00000000E-01  8.00000000E-01
  1.50000000E+00  8.00000000E-01  8.00000000E-01  1.50000000E+00  8.00000000E-01
  8.00000000E-01  1.50000000E+00  8.00000000E-01  8.00000000E-01  1.50000000E+00
  8.00000000E-01  8.00000000E-01  1.50000000E+00  8.00000000E-01  8.00000000E-01
  1.50000000E+00  8.00000000E-01  8.00000000E-01  1.50000000E+00  8.00000000E-01
  8.00000000E-01  1.50000000E+00  8.00000000E-01  8.00000000E-01  1.50000000E+00
  8.00000000E-01  8.00000000E-01  1.50000000E+00  8.00000000E-01  8.00000000E-01
  1.50000000E+00  8.00000000E-01  8.00000000E-01  1.50000000E+00  8.00000000E-01
  8.00000000E-01  1.50000000E+00  8.00000000E-01  8.00000000E-01  1.50000000E+00
  8.00000000E-01  8.00000000E-01  1.50000000E+00  8.00000000E-01  8.00000000E-01
  1.50000000E+00  8.00000000E-01  8.00000000E-01  1.50000000E+00  8.00000000E-01
  8.00000000E-01  1.50000000E+00  8.00000000E-01  8.00000000E-01  1.50000000E+00
  8.00000000E-01  8.00000000E-01  1.50000000E+00  8.00000000E-01  8.00000000E-01
  1.50000000E+00  8.00000000E-01  8.00000000E-01  1.50000000E+00  8.00000000E-01
  8.00000000E-01  1.50000000E+00  8.00000000E-01  8.00000000E-01  1.50000000E+00
  8.00000000E-01  8.00000000E-01  1.50000000E+00  8.00000000E-01  8.00000000E-01
  1.50000000E+00  8.00000000E-01  8.00000000E-01  1.50000000E+00  8.00000000E-01
  8.00000000E-01  1.50000000E+00  8.00000000E-01  8.00000000E-01  1.50000000E+00
  8.00000000E-01  8.00000000E-01  1.50000000E+00  8.00000000E-01  8.00000000E-01
  1.50000000E+00  8.00000000E-01  8.00000000E-01  1.50000000E+00  8.00000000E-01
  8.00000000E-01  1.50000000E+00  8.00000000E-01  8.00000000E-01  1.50000000E+00
  8.00000000E-01  8.00000000E-01  1.50000000E+00  8.00000000E-01  8.00000000E-01
  1.50000000E+00  8.00000000E-01  8.00000000E-01  1.50000000E+00  8.00000000E-01
  8.00000000E-01  1.50000000E+00  8.00000000E-01  8.00000000E-01  1.50000000E+00
  8.00000000E-01  8.00000000E-01  1.50000000E+00  8.00000000E-01  8.00000000E-01
  1.50000000E+00  8.00000000E-01  8.00000000E-01  1.50000000E+00  8.00000000E-01
  8.00000000E-01  1.50000000E+00  8.00000000E-01  8.00000000E-01  1.50000000E+00
  8.00000000E-01  8.00000000E-01  1.50000000E+00  8.00000000E-01  8.00000000E-01
  1.50000000E+00  8.00000000E-01  8.00000000E-01  1.50000000E+00  8.00000000E-01
  8.00000000E-01  1.50000000E+00  8.00000000E-01  8.00000000E-01  1.50000000E+00
  8.00000000E-01  8.00000000E-01  1.50000000E+00  8.00000000E-01  8.00000000E-01
  1.50000000E+00  8.00000000E-01  8.00000000E-01  1.50000000E+00  8.00000000E-01
  8.00000000E-01  1.50000000E+00  8.00000000E-01  8.00000000E-01  1.50000000E+00
  8.00000000E-01  8.00000000E-01  1.50000000E+00  8.00000000E-01  8.00000000E-01
  1.50000000E+00  8.00000000E-01  8.00000000E-01  1.50000000E+00  8.00000000E-01
  8.00000000E-01  1.50000000E+00  8.00000000E-01  8.00000000E-01  1.50000000E+00
  8.00000000E-01  8.00000000E-01  1.50000000E+00  8.00000000E-01  8.00000000E-01
  1.50000000E+00  8.00000000E-01  8.00000000E-01  1.50000000E+00  8.00000000E-01
  8.00000000E-01  1.50000000E+00  8.00000000E-01  8.00000000E-01  1.50000000E+00
  8.00000000E-01  8.00000000E-01  1.50000000E+00  8.00000000E-01  8.00000000E-01
  1.50000000E+00  8.00000000E-01  8.00000000E-01  1.50000000E+00  8.00000000E-01
  8.00000000E-01  1.50000000E+00  8.00000000E-01  8.00000000E-01  1.50000000E+00
  8.00000000E-01  8.00000000E-01  1.50000000E+00  8.00000000E-01  8.00000000E-01
  1.50000000E+00  8.00000000E-01  8.00000000E-01  1.50000000E+00  8.00000000E-01
  8.00000000E-01  1.50000000E+00  8.00000000E-01  8.00000000E-01  1.50000000E+00
  8.00000000E-01  8.00000000E-01  1.50000000E+00  8.00000000E-01  8.00000000E-01
  1.50000000E+00  8.00000000E-01  8.00000000E-01  1.50000000E+00  8.00000000E-01
  8.00000000E-01  1.50000000E+00  8.00000000E-01  8.00000000E-01  1.50000000E+00
  8.00000000E-01  8.00000000E-01  1.50000000E+00  8.00000000E-01  8.00000000E-01
  1.50000000E+00  8.00000000E-01  8.00000000E-01  1.50000000E+00  8.00000000E-01
  8.00000000E-01  1.50000000E+00  8.00000000E-01  8.00000000E-01  1.50000000E+00
  8.00000000E-01  8.00000000E-01  1.50000000E+00  8.00000000E-01  8.00000000E-01
  1.50000000E+00  8.00000000E-01  8.00000000E-01  1.50000000E+00  8.00000000E-01
  8.00000000E-01  1.50000000E+00  8.00000000E-01  8.00000000E-01  1.50000000E+00
  8.00000000E-01  8.00000000E-01  1.50000000E+00  8.00000000E-01  8.00000000E-01
  1.50000000E+00  8.00000000E-01  8.00000000E-01  1.50000000E+00  8.00000000E-01
  8.00000000E-01  1.50000000E+00  8.00000000E-01  8.00000000E-01  1.50000000E+00
  8.00000000E-01  8.00000000E-01  1.50000000E+00  8.00000000E-01  8.00000000E-01
  1.50000000E+00  8.00000000E-01  8.00000000E-01  1.50000000E+00  8.00000000E-01
  8.00000000E-01  1.50000000E+00  8.00000000E-01  8.00000000E-01  1.50000000E+00
  8.00000000E-01  8.00000000E-01  1.50000000E+00  8.00000000E-01  8.00000000E-01
  1.50000000E+00  8.00000000E-01  8.00000000E-01  1.50000000E+00  8.00000000E-01
  8.00000000E-01  1.50000000E+00  8.00000000E-01  8.00000000E-01  1.50000000E+00
  8.00000000E-01  8.00000000E-01  1.50000000E+00  8.00000000E-01  8.00000000E-01
  1.50000000E+00  8.00000000E-01  8.00000000E-01  1.50000000E+00  8.00000000E-01
  8.00000000E-01  1.50000000E+00  8.00000000E-01  8.00000000E-01  1.50000000E+00
  8.00000000E-01  8.00000000E-01  1.50000000E+00  8.00000000E-01  8.00000000E-01
  1.50000000E+00  8.00000000E-01  8.00000000E-01  1.50000000E+00  8.00000000E-01
  8.00000000E-01  1.50000000E+00  8.00000000E-01  8.00000000E-01  1.50000000E+00
  8.00000000E-01  8.00000000E-01  1.50000000E+00  8.00000000E-01  8.00000000E-01
  1.50000000E+00  8.00000000E-01  8.00000000E-01  1.50000000E+00  8.00000000E-01
  8.00000000E-01  1.50000000E+00  8.00000000E-01  8.00000000E-01  1.50000000E+00
  8.00000000E-01  8.00000000E-01  1.50000000E+00  8.00000000E-01  8.00000000E-01
  1.50000000E+00  8.00000000E-01  8.00000000E-01  1.50000000E+00  8.00000000E-01
  8.00000000E-01  1.50000000E+00  8.00000000E-01  8.00000000E-01  1.50000000E+00
  8.00000000E-01  8.00000000E-01  1.50000000E+00  8.00000000E-01  8.00000000E-01
  1.50000000E+00  8.00000000E-01  8.00000000E-01  1.50000000E+00  8.00000000E-01
  8.00000000E-01  1.50000000E+00  8.00000000E-01  8.00000000E-01  1.50000000E+00
  8.00000000E-01  8.00000000E-01  1.50000000E+00  8.00000000E-01  8.00000000E-01
  1.50000000E+00  8.00000000E-01  8.00000000E-01  1.50000000E+00  8.00000000E-01
  8.00000000E-01  1.50000000E+00  8.00000000E-01  8.00000000E-01  1.50000000E+00
  8.00000000E-01  8.00000000E-01  1.50000000E+00  8.00000000E-01  8.00000000E-01
  1.50000000E+00  8.00000000E-01  8.00000000E-01  1.50000000E+00  8.00000000E-01
  8.00000000E-01  1.50000000E+00  8.00000000E-01  8.00000000E-01  1.50000000E+00
  8.00000000E-01  8.00000000E-01  1.50000000E+00  8.00000000E-01  8.00000000E-01
  1.50000000E+00  8.00000000E-01  8.00000000E-01  1.50000000E+00  8.00000000E-01
  8.00000000E-01  1.50000000E+00  8.00000000E-01  8.00000000E-01  1.50000000E+00
  8.00000000E-01  8.00000000E-01  1.50000000E+00  8.00000000E-01  8.00000000E-01
  1.50000000E+00  8.00000000E-01  8.00000000E-01  1.50000000E+00  8.00000000E-01
  8.00000000E-01  1.50000000E+00  8.00000000E-01  8.00000000E-01  1.50000000E+00
  8.00000000E-01  8.00000000E-01  1.50000000E+00  8.00000000E-01  8.00000000E-01
  1.50000000E+00  8.00000000E-01  8.00000000E-01  1.50000000E+00  8.00000000E-01
  8.00000000E-01  1.50000000E+00  8.00000000E-01  8.00000000E-01  1.50000000E+00
  8.00000000E-01  8.00000000E-01  1.50000000E+00  8.00000000E-01  8.00000000E-01
  1.50000000E+00  8.00000000E-01  8.00000000E-01  1.50000000E+00  8.00000000E-01
  8.00000000E-01  1.50000000E+00  8.00000000E-01  8.00000000E-01  1.50000000E+00
  8.00000000E-01  8.00000000E-01  1.50000000E+00  8.00000000E-01  8.00000000E-01
  1.50000000E+00  8.00000000E-01  8.00000000E-01  1.50000000E+00  8.00000000E-01
  8.00000000E-01  1.50000000E+00  8.00000000E-01  8.00000000E-01  1.50000000E+00
  8.00000000E-01  8.00000000E-01  1.50000000E+00  8.00000000E-01  8.00000000E-01
  1.50000000E+00  8.00000000E-01  8.00000000E-01  1.50000000E+00  8.00000000E-01
  8.00000000E-01  1.50000000E+00  8.00000000E-01  8.00000000E-01  1.50000000E+00
  8.00000000E-01  8.00000000E-01  1.50000000E+00  8.00000000E-01  8.00000000E-01
  1.50000000E+00  8.00000000E-01  8.00000000E-01  1.50000000E+00  8.00000000E-01
  8.00000000E-01  1.50000000E+00  8.00000000E-01  8.00000000E-01  1.50000000E+00
  8.00000000E-01  8.00000000E-01  1.50000000E+00  8.00000000E-01  8.00000000E-01
  1.50000000E+00  8.00000000E-01  8.00000000E-01  1.50000000E+00  8.00000000E-01
  8.00000000E-01  1.50000000E+00  8.00000000E-01  8.00000000E-01  1.50000000E+00
  8.00000000E-01  8.00000000E-01  1.50000000E+00  8.00000000E-01  8.00000000E-01
  1.50000000E+00  8.00000000E-01  8.00000000E-01  1.50000000E+00  8.00000000E-01
  8.00000000E-01  1.50000000E+00  8.00000000E-01  8.00000000E-01  1.50000000E+00
  8.00000000E-01  8.00000000E-01  1.50000000E+00  8.00000000E-01  8.00000000E-01
  1.50000000E+00  8.00000000E-01  8.00000000E-01  1.50000000E+00  8.00000000E-01
  8.00000000E-01  1.50000000E+00  8.00000000E-01  8.00000000E-01  1.50000000E+00
  8.00000000E-01  8.00000000E-01  1.50000000E+00  8.00000000E-01  8.00000000E-01
  1.50000000E+00  8.00000000E-01  8.00000000E-01  1.50000000E+00  8.00000000E-01
  8.00000000E-01  1.50000000E+00  8.00000000E-01  8.00000000E-01  1.50000000E+00
  8.00000000E-01  8.00000000E-01  1.50000000E+00  8.00000000E-01  8.00000000E-01
  1.50000000E+00  8.00000000E-01  8.00000000E-01  1.50000000E+00  8.00000000E-01
  8.00000000E-01  1.50000000E+00  8.00000000E-01  8.00000000E-01  1.50000000E+00
  8.00000000E-01  8.00000000E-01  1.50000000E+00  8.00000000E-01  8.00000000E-01
  1.50000000E+00  8.00000000E-01  8.00000000E-01  1.50000000E+00  8.00000000E-01
  8.00000000E-01  1.50000000E+00  8.00000000E-01  8.00000000E-01  1.50000000E+00
  8.00000000E-01  8.00000000E-01  1.50000000E+00  8.00000000E-01  8.00000000E-01
  1.50000000E+00  8.00000000E-01  8.00000000E-01  1.50000000E+00  8.00000000E-01
  8.00000000E-01  1.50000000E+00  8.00000000E-01  8.00000000E-01  1.50000000E+00
  8.00000000E-01  8.00000000E-01  1.50000000E+00  8.00000000E-01  8.00000000E-01
  1.50000000E+00  8.00000000E-01  8.00000000E-01  1.50000000E+00  8.00000000E-01
  8.00000000E-01  1.50000000E+00  8.00000000E-01  8.00000000E-01  1.50000000E+00
  8.00000000E-01  8.00000000E-01  1.50000000E+00  8.00000000E-01  8.00000000E-01
  1.50000000E+00  8.00000000E-01  8.00000000E-01  1.50000000E+00  8.00000000E-01
  8.00000000E-01  1.50000000E+00  8.00000000E-01  8.00000000E-01  1.50000000E+00
  8.00000000E-01  8.00000000E-01  1.50000000E+00  8.00000000E-01  8.00000000E-01
  1.50000000E+00  8.00000000E-01  8.00000000E-01  1.50000000E+00  8.00000000E-01
  8.00000000E-01  1.50000000E+00  8.00000000E-01  8.00000000E-01  1.50000000E+00
  8.00000000E-01  8.00000000E-01  1.50000000E+00  8.00000000E-01  8.00000000E-01
  1.50000000E+00  8.00000000E-01  8.00000000E-01  1.50000000E+00  8.00000000E-01
  8.00000000E-01  1.50000000E+00  8.00000000E-01  8.00000000E-01  1.50000000E+00
  8.00000000E-01  8.00000000E-01  1.50000000E+00  8.00000000E-01  8.00000000E-01
  1.50000000E+00  8.00000000E-01  8.00000000E-01  1.50000000E+00  8.00000000E-01
  8.00000000E-01  1.50000000E+00  8.00000000E-01  8.00000000E-01  1.50000000E+00
  8.00000000E-01  8.00000000E-01  1.50000000E+00  8.00000000E-01  8.00000000E-01
  1.50000000E+00  8.00000000E-01  8.00000000E-01  1.50000000E+00  8.00000000E-01
  8.00000000E-01  1.50000000E+00  8.00000000E-01  8.00000000E-01  1.50000000E+00
  8.00000000E-01  8.00000000E-01  1.50000000E+00  8.00000000E-01  8.00000000E-01
  1.50000000E+00  8.00000000E-01  8.00000000E-01  1.50000000E+00  8.00000000E-01
  8.00000000E-01  1.50000000E+00  8.00000000E-01  8.00000000E-01  1.50000000E+00
  8.00000000E-01  8.00000000E-01  1.50000000E+00  8.00000000E-01  8.00000000E-01
  1.50000000E+00  8.00000000E-01  8.00000000E-01  1.50000000E+00  8.00000000E-01
  8.00000000E-01  1.50000000E+00  8.00000000E-01  8.00000000E-01  1.50000000E+00
  8.00000000E-01  8.00000000E-01  1.50000000E+00  8.00000000E-01  8.00000000E-01
  1.50000000E+00  8.00000000E-01  8.00000000E-01  1.50000000E+00  8.00000000E-01
  8.00000000E-01  1.50000000E+00  8.00000000E-01  8.00000000E-01  1.50000000E+00
  8.00000000E-01  8.00000000E-01  1.50000000E+00  8.00000000E-01  8.00000000E-01
  1.50000000E+00  8.00000000E-01  8.00000000E-01  1.50000000E+00  8.00000000E-01
  8.00000000E-01  1.50000000E+00  8.00000000E-01  8.00000000E-01  1.50000000E+00
  8.00000000E-01  8.00000000E-01  1.50000000E+00  8.00000000E-01  8.00000000E-01
  1.50000000E+00  8.00000000E-01  8.00000000E-01  1.50000000E+00  8.00000000E-01
  8.00000000E-01  1.50000000E+00  8.00000000E-01  8.00000000E-01  1.50000000E+00
  8.00000000E-01  8.00000000E-01  1.50000000E+00  8.00000000E-01  8.00000000E-01
  1.50000000E+00  8.00000000E-01  8.00000000E-01  1.50000000E+00  8.00000000E-01
  8.00000000E-01  1.50000000E+00  8.00000000E-01  8.00000000E-01  1.50000000E+00
  8.00000000E-01  8.00000000E-01  1.50000000E+00  8.00000000E-01  8.00000000E-01
  1.50000000E+00  8.00000000E-01  8.00000000E-01  1.50000000E+00  8.00000000E-01
  8.00000000E-01  1.50000000E+00  8.00000000E-01  8.00000000E-01  1.50000000E+00
  8.00000000E-01  8.00000000E-01  1.50000000E+00  8.00000000E-01  8.00000000E-01
  1.50000000E+00  8.00000000E-01  8.00000000E-01  1.50000000E+00  8.00000000E-01
  8.00000000E-01  1.50000000E+00  8.00000000E-01  8.00000000E-01  1.50000000E+00
  8.00000000E-01  8.00000000E-01  1.50000000E+00  8.00000000E-01  8.00000000E-01
  1.50000000E+00  8.00000000E-01  8.00000000E-01  1.50000000E+00  8.00000000E-01
  8.00000000E-01  1.50000000E+00  8.00000000E-01  8.00000000E-01  1.50000000E+00
  8.00000000E-01  8.00000000E-01  1.50000000E+00  8.00000000E-01  8.00000000E-01
  1.50000000E+00  8.00000000E-01  8.00000000E-01  1.50000000E+00  8.00000000E-01
  8.00000000E-01  1.50000000E+00  8.00000000E-01  8.00000000E-01  1.50000000E+00
  8.00000000E-01  8.00000000E-01  1.50000000E+00  8.00000000E-01  8.00000000E-01
  1.50000000E+00  8.00000000E-01  8.00000000E-01  1.50000000E+00  8.00000000E-01
  8.00000000E-01  1.50000000E+00  8.00000000E-01  8.00000000E-01  1.50000000E+00
  8.00000000E-01  8.00000000E-01  1.50000000E+00  8.00000000E-01  8.00000000E-01
  1.50000000E+00  8.00000000E-01  8.00000000E-01  1.50000000E+00  8.00000000E-01
  8.00000000E-01  1.50000000E+00  8.00000000E-01  8.00000000E-01  1.50000000E+00
  8.00000000E-01  8.00000000E-01  1.50000000E+00  8.00000000E-01  8.00000000E-01
  1.50000000E+00  8.00000000E-01  8.00000000E-01  1.50000000E+00  8.00000000E-01
  8.00000000E-01  1.50000000E+00  8.00000000E-01  8.00000000E-01  1.50000000E+00
  8.00000000E-01  8.00000000E-01  1.50000000E+00  8.00000000E-01  8.00000000E-01
  1.50000000E+00  8.00000000E-01  8.00000000E-01  1.50000000E+00  8.00000000E-01
  8.00000000E-01  1.50000000E+00  8.00000000E-01  8.00000000E-01  1.50000000E+00
  8.00000000E-01  8.00000000E-01  1.50000000E+00  8.00000000E-01  8.00000000E-01
  1.50000000E+00  8.00000000E-01  8.00000000E-01  1.50000000E+00  8.00000000E-01
  8.00000000E-01  1.50000000E+00  8.00000000E-01  8.00000000E-01  1.50000000E+00
  8.00000000E-01  8.00000000E-01  1.50000000E+00  8.00000000E-01  8.00000000E-01
  1.50000000E+00  8.00000000E-01  8.00000000E-01  1.50000000E+00  8.00000000E-01
  8.00000000E-01  1.50000000E+00  8.00000000E-01  8.00000000E-01  1.50000000E+00
  8.00000000E-01  8.00000000E-01  1.50000000E+00  8.00000000E-01  8.00000000E-01
  1.50000000E+00  8.00000000E-01  8.00000000E-01  1.50000000E+00  8.00000000E-01
  8.00000000E-01  1.50000000E+00  8.00000000E-01  8.00000000E-01  1.50000000E+00
  8.00000000E-01  8.00000000E-01  1.50000000E+00  8.00000000E-01  8.00000000E-01
  1.50000000E+00  8.00000000E-01  8.00000000E-01  1.50000000E+00  8.00000000E-01
  8.00000000E-01  1.50000000E+00  8.00000000E-01  8.00000000E-01  1.50000000E+00
  8.00000000E-01  8.00000000E-01  1.50000000E+00  8.00000000E-01  8.00000000E-01
  1.50000000E+00  8.00000000E-01  8.00000000E-01  1.50000000E+00  8.00000000E-01
  8.00000000E-01  1.50000000E+00  8.00000000E-01  8.00000000E-01  1.50000000E+00
  8.00000000E-01  8.00000000E-01  1.50000000E+00  8.00000000E-01  8.00000000E-01
  1.50000000E+00  8.00000000E-01  8.00000000E-01  1.50000000E+00  8.00000000E-01
  8.00000000E-01  1.50000000E+00  8.00000000E-01  8.00000000E-01  1.50000000E+00
  8.00000000E-01  8.00000000E-01  1.50000000E+00  8.00000000E-01  8.00000000E-01
  1.50000000E+00  8.00000000E-01  8.00000000E-01  1.50000000E+00  8.00000000E-01
  8.00000000E-01  1.50000000E+00  8.00000000E-01  8.00000000E-01  1.50000000E+00
  8.00000000E-01  8.00000000E-01  1.50000000E+00  8.00000000E-01  8.00000000E-01
  1.50000000E+00  8.00000000E-01  8.00000000E-01  1.50000000E+00  8.00000000E-01
  8.00000000E-01  1.50000000E+00  8.00000000E-01  8.00000000E-01  1.50000000E+00
  8.00000000E-01  8.00000000E-01  1.50000000E+00  8.00000000E-01  8.00000000E-01
  1.50000000E+00  8.00000000E-01  8.00000000E-01  1.50000000E+00  8.00000000E-01
  8.00000000E-01  1.50000000E+00  8.00000000E-01  8.00000000E-01  1.50000000E+00
  8.00000000E-01  8.00000000E-01  1.50000000E+00  8.00000000E-01  8.00000000E-01
  1.50000000E+00  8.00000000E-01  8.00000000E-01  1.50000000E+00  8.00000000E-01
  8.00000000E-01  1.50000000E+00  8.00000000E-01  8.00000000E-01  1.50000000E+00
  8.00000000E-01  8.00000000E-01  1.50000000E+00  8.00000000E-01  8.00000000E-01
  1.50000000E+00  8.00000000E-01  8.00000000E-01  1.50000000E+00  8.00000000E-01
  8.00000000E-01  1.50000000E+00  8.00000000E-01  8.00000000E-01  1.50000000E+00
  8.00000000E-01  8.00000000E-01  1.50000000E+00  8.00000000E-01  8.00000000E-01
  1.50000000E+00  8.00000000E-01  8.00000000E-01  1.50000000E+00  8.00000000E-01
  8.00000000E-01  1.50000000E+00  8.00000000E-01  8.00000000E-01  1.50000000E+00
  8.00000000E-01  8.00000000E-01  1.50000000E+00  8.00000000E-01  8.00000000E-01
  1.50000000E+00  8.00000000E-01  8.00000000E-01  1.50000000E+00  8.00000000E-01
  8.00000000E-01  1.50000000E+00  8.00000000E-01  8.00000000E-01  1.50000000E+00
  8.00000000E-01  8.00000000E-01  1.50000000E+00  8.00000000E-01  8.00000000E-01
  1.50000000E+00  8.00000000E-01  8.00000000E-01  1.50000000E+00  8.00000000E-01
  8.00000000E-01  1.50000000E+00  8.00000000E-01  8.00000000E-01  1.50000000E+00
  8.00000000E-01  8.00000000E-01  1.50000000E+00  8.00000000E-01  8.00000000E-01
  1.50000000E+00  8.00000000E-01  8.00000000E-01  1.50000000E+00  8.00000000E-01
  8.00000000E-01  1.50000000E+00  8.00000000E-01  8.00000000E-01  1.50000000E+00
  8.00000000E-01  8.00000000E-01  1.50000000E+00  8.00000000E-01  8.00000000E-01
  1.50000000E+00  8.00000000E-01  8.00000000E-01  1.50000000E+00  8.00000000E-01
  8.00000000E-01  1.50000000E+00  8.00000000E-01  8.00000000E-01  1.50000000E+00
  8.00000000E-01  8.00000000E-01  1.50000000E+00  8.00000000E-01  8.00000000E-01
  1.50000000E+00  8.00000000E-01  8.00000000E-01  1.50000000E+00  8.00000000E-01
  8.00000000E-01  1.50000000E+00  8.00000000E-01  8.00000000E-01  1.50000000E+00
  8.00000000E-01  8.00000000E-01  1.50000000E+00  8.00000000E-01  8.00000000E-01
  1.50000000E+00  8.00000000E-01  8.00000000E-01  1.50000000E+00  8.00000000E-01
  8.00000000E-01  1.50000000E+00  8.00000000E-01  8.00000000E-01  1.50000000E+00
  8.00000000E-01  8.00000000E-01  1.50000000E+00  8.00000000E-01  8.00000000E-01
  1.50000000E+00  8.00000000E-01  8.00000000E-01  1.50000000E+00  8.00000000E-01
  8.00000000E-01  1.50000000E+00  8.00000000E-01  8.00000000E-01  1.50000000E+00
  8.00000000E-01  8.00000000E-01  1.50000000E+00  8.00000000E-01  8.00000000E-01
  1.50000000E+00  8.00000000E-01  8.00000000E-01  1.50000000E+00  8.00000000E-01
  8.00000000E-01  1.50000000E+00  8.00000000E-01  8.00000000E-01  1.50000000E+00
  8.00000000E-01  8.00000000E-01  1.50000000E+00  8.00000000E-01  8.00000000E-01
  1.50000000E+00  8.00000000E-01  8.00000000E-01  1.50000000E+00  8.00000000E-01
  8.00000000E-01  1.50000000E+00  8.00000000E-01  8.00000000E-01  1.50000000E+00
  8.00000000E-01  8.00000000E-01  1.50000000E+00  8.00000000E-01  8.00000000E-01
  1.50000000E+00  8.00000000E-01  8.00000000E-01  1.50000000E+00  8.00000000E-01
  8.00000000E-01  1.50000000E+00  8.00000000E-01  8.00000000E-01  1.50000000E+00
  8.00000000E-01  8.00000000E-01  1.50000000E+00  8.00000000E-01  8.00000000E-01
  1.50000000E+00  8.00000000E-01  8.00000000E-01  1.50000000E+00  8.00000000E-01
  8.00000000E-01  1.50000000E+00  8.00000000E-01  8.00000000E-01  1.50000000E+00
  8.00000000E-01  8.00000000E-01  1.50000000E+00  8.00000000E-01  8.00000000E-01
  1.50000000E+00  8.00000000E-01  8.00000000E-01  1.50000000E+00  8.00000000E-01
  8.00000000E-01  1.50000000E+00  8.00000000E-01  8.00000000E-01  1.50000000E+00
  8.00000000E-01  8.00000000E-01  1.50000000E+00  8.00000000E-01  8.00000000E-01
  1.50000000E+00  8.00000000E-01  8.00000000E-01  1.50000000E+00  8.00000000E-01
  8.00000000E-01  1.50000000E+00  8.00000000E-01  8.00000000E-01  1.50000000E+00
  8.00000000E-01  8.00000000E-01  1.50000000E+00  8.00000000E-01  8.00000000E-01
  1.50000000E+00  8.00000000E-01  8.00000000E-01  1.50000000E+00  8.00000000E-01
  8.00000000E-01  1.50000000E+00  8.00000000E-01  8.00000000E-01  1.50000000E+00
  8.00000000E-01  8.00000000E-01  1.50000000E+00  8.00000000E-01  8.00000000E-01
  1.50000000E+00  8.00000000E-01  8.00000000E-01  1.50000000E+00  8.00000000E-01
  8.00000000E-01  1.50000000E+00  8.00000000E-01  8.00000000E-01  1.50000000E+00
  8.00000000E-01  8.00000000E-01  1.50000000E+00  8.00000000E-01  8.00000000E-01
  1.50000000E+00  8.00000000E-01  8.00000000E-01  1.50000000E+00  8.00000000E-01
  8.00000000E-01  1.50000000E+00  8.00000000E-01  8.00000000E-01  1.50000000E+00
  8.00000000E-01  8.00000000E-01  1.50000000E+00  8.00000000E-01  8.00000000E-01
  1.50000000E+00  8.00000000E-01  8.00000000E-01  1.50000000E+00  8.00000000E-01
  8.00000000E-01  1.50000000E+00  8.00000000E-01  8.00000000E-01  1.50000000E+00
  8.00000000E-01  8.00000000E-01  1.50000000E+00  8.00000000E-01  8.00000000E-01
  1.50000000E+00  8.00000000E-01  8.00000000E-01  1.50000000E+00  8.00000000E-01
  8.00000000E-01  1.50000000E+00  8.00000000E-01  8.00000000E-01  1.50000000E+00
  8.00000000E-01  8.00000000E-01  1.50000000E+00  8.00000000E-01  8.00000000E-01
  1.50000000E+00  8.00000000E-01  8.00000000E-01  1.50000000E+00  8.00000000E-01
  8.00000000E-01  1.50000000E+00  8.00000000E-01  8.00000000E-01  1.50000000E+00
  8.00000000E-01  8.00000000E-01  1.50000000E+00  8.00000000E-01  8.00000000E-01
  1.50000000E+00  8.00000000E-01  8.00000000E-01  1.50000000E+00  8.00000000E-01
  8.00000000E-01  1.50000000E+00  8.00000000E-01  8.00000000E-01  1.50000000E+00
  8.00000000E-01  8.00000000E-01  1.50000000E+00  8.00000000E-01  8.00000000E-01
  1.50000000E+00  8.00000000E-01  8.00000000E-01  1.50000000E+00  8.00000000E-01
  8.00000000E-01  1.50000000E+00  8.00000000E-01  8.00000000E-01  1.50000000E+00
  8.00000000E-01  8.00000000E-01  1.50000000E+00  8.00000000E-01  8.00000000E-01
  1.50000000E+00  8.00000000E-01  8.00000000E-01  1.50000000E+00  8.00000000E-01
  8.00000000E-01  1.50000000E+00  8.00000000E-01  8.00000000E-01  1.50000000E+00
  8.00000000E-01  8.00000000E-01  1.50000000E+00  8.00000000E-01  8.00000000E-01
  1.50000000E+00  8.00000000E-01  8.00000000E-01  1.50000000E+00  8.00000000E-01
  8.00000000E-01  1.50000000E+00  8.00000000E-01  8.00000000E-01  1.50000000E+00
  8.00000000E-01  8.00000000E-01  1.50000000E+00  8.00000000E-01  8.00000000E-01
  1.50000000E+00  8.00000000E-01  8.00000000E-01  1.50000000E+00  8.00000000E-01
  8.00000000E-01  1.50000000E+00  8.00000000E-01  8.00000000E-01  1.50000000E+00
  8.00000000E-01  8.00000000E-01  1.50000000E+00  8.00000000E-01  8.00000000E-01
  1.50000000E+00  8.00000000E-01  8.00000000E-01  1.50000000E+00  8.00000000E-01
  8.00000000E-01  1.50000000E+00  8.00000000E-01  8.00000000E-01  1.50000000E+00
  8.00000000E-01  8.00000000E-01  1.50000000E+00  8.00000000E-01  8.00000000E-01
  1.50000000E+00  8.00000000E-01  8.00000000E-01  1.50000000E+00  8.00000000E-01
  8.00000000E-01  1.50000000E+00  8.00000000E-01  8.00000000E-01  1.50000000E+00
  8.00000000E-01  8.00000000E-01  1.50000000E+00  8.00000000E-01  8.00000000E-01
  1.50000000E+00  8.00000000E-01  8.00000000E-01  1.50000000E+00  8.00000000E-01
  8.00000000E-01  1.50000000E+00  8.00000000E-01  8.00000000E-01  1.50000000E+00
  8.00000000E-01  8.00000000E-01  1.50000000E+00  8.00000000E-01  8.00000000E-01
  1.50000000E+00  8.00000000E-01  8.00000000E-01  1.50000000E+00  8.00000000E-01
  8.00000000E-01  1.50000000E+00  8.00000000E-01  8.00000000E-01  1.50000000E+00
  8.00000000E-01  8.00000000E-01  1.50000000E+00  8.00000000E-01  8.00000000E-01
  1.50000000E+00  8.00000000E-01  8.00000000E-01  1.50000000E+00  8.00000000E-01
  8.00000000E-01  1.50000000E+00  8.00000000E-01  8.00000000E-01  1.50000000E+00
  8.00000000E-01  8.00000000E-01  1.50000000E+00  8.00000000E-01  8.00000000E-01
  1.50000000E+00  8.00000000E-01  8.00000000E-01  1.50000000E+00  8.00000000E-01
  8.00000000E-01  1.50000000E+00  8.00000000E-01  8.00000000E-01  1.50000000E+00
  8.00000000E-01  8.00000000E-01  1.50000000E+00  8.00000000E-01  8.00000000E-01
  1.50000000E+00  8.00000000E-01  8.00000000E-01  1.50000000E+00  8.00000000E-01
  8.00000000E-01  1.50000000E+00  8.00000000E-01  8.00000000E-01  1.50000000E+00
  8.00000000E-01  8.00000000E-01  1.50000000E+00  8.00000000E-01  8.00000000E-01
  1.50000000E+00  8.00000000E-01  8.00000000E-01  1.50000000E+00  8.00000000E-01
  8.00000000E-01  1.50000000E+00  8.00000000E-01  8.00000000E-01  1.50000000E+00
  8.00000000E-01  8.00000000E-01  1.50000000E+00  8.00000000E-01  8.00000000E-01
  1.50000000E+00  8.00000000E-01  8.00000000E-01  1.50000000E+00  8.00000000E-01
  8.00000000E-01  1.50000000E+00  8.00000000E-01  8.00000000E-01  1.50000000E+00
  8.00000000E-01  8.00000000E-01  1.50000000E+00  8.00000000E-01  8.00000000E-01
  1.50000000E+00  8.00000000E-01  8.00000000E-01  1.50000000E+00  8.00000000E-01
  8.00000000E-01  1.50000000E+00  8.00000000E-01  8.00000000E-01  1.50000000E+00
  8.00000000E-01  8.00000000E-01  1.50000000E+00  8.00000000E-01  8.00000000E-01
  1.50000000E+00  8.00000000E-01  8.00000000E-01  1.50000000E+00  8.00000000E-01
  8.00000000E-01  1.50000000E+00  8.00000000E-01  8.00000000E-01  1.50000000E+00
  8.00000000E-01  8.00000000E-01  1.50000000E+00  8.00000000E-01  8.00000000E-01
  1.50000000E+00  8.00000000E-01  8.00000000E-01  1.50000000E+00  8.00000000E-01
  8.00000000E-01  1.50000000E+00  8.00000000E-01  8.00000000E-01  1.50000000E+00
  8.00000000E-01  8.00000000E-01  1.50000000E+00  8.00000000E-01  8.00000000E-01
  1.50000000E+00  8.00000000E-01  8.00000000E-01  1.50000000E+00  8.00000000E-01
  8.00000000E-01  1.50000000E+00  8.00000000E-01  8.00000000E-01  1.50000000E+00
  8.00000000E-01  8.00000000E-01  1.50000000E+00  8.00000000E-01  8.00000000E-01
  1.50000000E+00  8.00000000E-01  8.00000000E-01  1.50000000E+00  8.00000000E-01
  8.00000000E-01  1.50000000E+00  8.00000000E-01  8.00000000E-01  1.50000000E+00
  8.00000000E-01  8.00000000E-01  1.50000000E+00  8.00000000E-01  8.00000000E-01
  1.50000000E+00  8.00000000E-01  8.00000000E-01  1.50000000E+00  8.00000000E-01
  8.00000000E-01  1.50000000E+00  8.00000000E-01  8.00000000E-01  1.50000000E+00
  8.00000000E-01  8.00000000E-01  1.50000000E+00  8.00000000E-01  8.00000000E-01
  1.50000000E+00  8.00000000E-01  8.00000000E-01  1.50000000E+00  8.00000000E-01
  8.00000000E-01  1.50000000E+00  8.00000000E-01  8.00000000E-01  1.50000000E+00
  8.00000000E-01  8.00000000E-01  1.50000000E+00  8.00000000E-01  8.00000000E-01
  1.50000000E+00  8.00000000E-01  8.00000000E-01  1.50000000E+00  8.00000000E-01
  8.00000000E-01  1.50000000E+00  8.00000000E-01  8.00000000E-01  1.50000000E+00
  8.00000000E-01  8.00000000E-01  1.50000000E+00  8.00000000E-01  8.00000000E-01
  1.50000000E+00  8.00000000E-01  8.00000000E-01  1.50000000E+00  8.00000000E-01
  8.00000000E-01  1.50000000E+00  8.00000000E-01  8.00000000E-01  1.50000000E+00
  8.00000000E-01  8.00000000E-01  1.50000000E+00  8.00000000E-01  8.00000000E-01
  1.50000000E+00  8.00000000E-01  8.00000000E-01  1.50000000E+00  8.00000000E-01
  8.00000000E-01  1.50000000E+00  8.00000000E-01  8.00000000E-01  1.50000000E+00
  8.00000000E-01  8.00000000E-01  1.50000000E+00  8.00000000E-01  8.00000000E-01
  1.50000000E+00  8.00000000E-01  8.00000000E-01  1.50000000E+00  8.00000000E-01
  8.00000000E-01  1.50000000E+00  8.00000000E-01  8.00000000E-01  1.50000000E+00
  8.00000000E-01  8.00000000E-01  1.50000000E+00  8.00000000E-01  8.00000000E-01
  1.50000000E+00  8.00000000E-01  8.00000000E-01  1.50000000E+00  8.00000000E-01
  8.00000000E-01  1.50000000E+00  8.00000000E-01  8.00000000E-01  1.50000000E+00
  8.00000000E-01  8.00000000E-01  1.50000000E+00  8.00000000E-01  8.00000000E-01
  1.50000000E+00  8.00000000E-01  8.00000000E-01  1.50000000E+00  8.00000000E-01
  8.00000000E-01  1.50000000E+00  8.00000000E-01  8.00000000E-01  1.50000000E+00
  8.00000000E-01  8.00000000E-01  1.50000000E+00  8.00000000E-01  8.00000000E-01
  1.50000000E+00  8.00000000E-01  8.00000000E-01  1.50000000E+00  8.00000000E-01
  8.00000000E-01  1.50000000E+00  8.00000000E-01  8.00000000E-01  1.50000000E+00
  8.00000000E-01  8.00000000E-01  1.50000000E+00  8.00000000E-01  8.00000000E-01
  1.50000000E+00  8.00000000E-01  8.00000000E-01  1.50000000E+00  8.00000000E-01
  8.00000000E-01  1.50000000E+00  8.00000000E-01  8.00000000E-01  1.50000000E+00
  8.00000000E-01  8.00000000E-01  1.50000000E+00  8.00000000E-01  8.00000000E-01
  1.50000000E+00  8.00000000E-01  8.00000000E-01  1.50000000E+00  8.00000000E-01
  8.00000000E-01  1.50000000E+00  8.00000000E-01  8.00000000E-01  1.50000000E+00
  8.00000000E-01  8.00000000E-01  1.50000000E+00  8.00000000E-01  8.00000000E-01
  1.50000000E+00  8.00000000E-01  8.00000000E-01  1.50000000E+00  8.00000000E-01
  8.00000000E-01  1.50000000E+00  8.00000000E-01  8.00000000E-01  1.50000000E+00
  8.00000000E-01  8.00000000E-01  1.50000000E+00  8.00000000E-01  8.00000000E-01
  1.50000000E+00  8.00000000E-01  8.00000000E-01  1.50000000E+00  8.00000000E-01
  8.00000000E-01  1.50000000E+00  8.00000000E-01  8.00000000E-01  1.50000000E+00
  8.00000000E-01  8.00000000E-01  1.50000000E+00  8.00000000E-01  8.00000000E-01
  1.50000000E+00  8.00000000E-01  8.00000000E-01  1.50000000E+00  8.00000000E-01
  8.00000000E-01  1.50000000E+00  8.00000000E-01  8.00000000E-01  1.50000000E+00
  8.00000000E-01  8.00000000E-01  1.50000000E+00  8.00000000E-01  8.00000000E-01
  1.50000000E+00  8.00000000E-01  8.00000000E-01  1.50000000E+00  8.00000000E-01
  8.00000000E-01  1.50000000E+00  8.00000000E-01  8.00000000E-01  1.50000000E+00
  8.00000000E-01  8.00000000E-01  1.50000000E+00  8.00000000E-01  8.00000000E-01
  1.50000000E+00  8.00000000E-01  8.00000000E-01  1.50000000E+00  8.00000000E-01
  8.00000000E-01  1.50000000E+00  8.00000000E-01  8.00000000E-01  1.50000000E+00
  8.00000000E-01  8.00000000E-01  1.50000000E+00  8.00000000E-01  8.00000000E-01
  1.50000000E+00  8.00000000E-01  8.00000000E-01  1.50000000E+00  8.00000000E-01
  8.00000000E-01  1.50000000E+00  8.00000000E-01  8.00000000E-01  1.50000000E+00
  8.00000000E-01  8.00000000E-01  1.50000000E+00  8.00000000E-01  8.00000000E-01
  1.50000000E+00  8.00000000E-01  8.00000000E-01  1.50000000E+00  8.00000000E-01
  8.00000000E-01  1.50000000E+00  8.00000000E-01  8.00000000E-01  1.50000000E+00
  8.00000000E-01  8.00000000E-01  1.50000000E+00  8.00000000E-01  8.00000000E-01
  1.50000000E+00  8.00000000E-01  8.00000000E-01  1.50000000E+00  8.00000000E-01
  8.00000000E-01  1.50000000E+00  8.00000000E-01  8.00000000E-01  1.50000000E+00
  8.00000000E-01  8.00000000E-01  1.50000000E+00  8.00000000E-01  8.00000000E-01
  1.50000000E+00  8.00000000E-01  8.00000000E-01  1.50000000E+00  8.00000000E-01
  8.00000000E-01  1.50000000E+00  8.00000000E-01  8.00000000E-01  1.50000000E+00
  8.00000000E-01  8.00000000E-01  1.50000000E+00  8.00000000E-01  8.00000000E-01
  1.50000000E+00  8.00000000E-01  8.00000000E-01  1.50000000E+00  8.00000000E-01
  8.00000000E-01  1.50000000E+00  8.00000000E-01  8.00000000E-01  1.50000000E+00
  8.00000000E-01  8.00000000E-01  1.50000000E+00  8.00000000E-01  8.00000000E-01
  1.50000000E+00  8.00000000E-01  8.00000000E-01  1.50000000E+00  8.00000000E-01
  8.00000000E-01  1.50000000E+00  8.00000000E-01  8.00000000E-01  1.50000000E+00
  8.00000000E-01  8.00000000E-01  1.50000000E+00  8.00000000E-01  8.00000000E-01
  1.50000000E+00  8.00000000E-01  8.00000000E-01  1.50000000E+00  8.00000000E-01
  8.00000000E-01  1.50000000E+00  8.00000000E-01  8.00000000E-01  1.50000000E+00
  8.00000000E-01  8.00000000E-01  1.50000000E+00  8.00000000E-01  8.00000000E-01
  1.50000000E+00  8.00000000E-01  8.00000000E-01  1.50000000E+00  8.00000000E-01
  8.00000000E-01  1.50000000E+00  8.00000000E-01  8.00000000E-01  1.50000000E+00
  8.00000000E-01  8.00000000E-01  1.50000000E+00  8.00000000E-01  8.00000000E-01
  1.50000000E+00  8.00000000E-01  8.00000000E-01  1.50000000E+00  8.00000000E-01
  8.00000000E-01  1.50000000E+00  8.00000000E-01  8.00000000E-01  1.50000000E+00
  8.00000000E-01  8.00000000E-01  1.50000000E+00  8.00000000E-01  8.00000000E-01
  1.50000000E+00  8.00000000E-01  8.00000000E-01  1.50000000E+00  8.00000000E-01
  8.00000000E-01  1.50000000E+00  8.00000000E-01  8.00000000E-01  1.50000000E+00
  8.00000000E-01  8.00000000E-01  1.50000000E+00  8.00000000E-01  8.00000000E-01
  1.50000000E+00  8.00000000E-01  8.00000000E-01  1.50000000E+00  8.00000000E-01
  8.00000000E-01  1.50000000E+00  8.00000000E-01  8.00000000E-01  1.50000000E+00
  8.00000000E-01  8.00000000E-01  1.50000000E+00  8.00000000E-01  8.00000000E-01
  1.50000000E+00  8.00000000E-01  8.00000000E-01  1.50000000E+00  8.00000000E-01
  8.00000000E-01  1.50000000E+00  8.00000000E-01  8.00000000E-01  1.50000000E+00
  8.00000000E-01  8.00000000E-01  1.50000000E+00  8.00000000E-01  8.00000000E-01
  1.50000000E+00  8.00000000E-01  8.00000000E-01  1.50000000E+00  8.00000000E-01
  8.00000000E-01  1.50000000E+00  8.00000000E-01  8.00000000E-01  1.50000000E+00
  8.00000000E-01  8.00000000E-01  1.50000000E+00  8.00000000E-01  8.00000000E-01
  1.50000000E+00  8.00000000E-01  8.00000000E-01  1.50000000E+00  8.00000000E-01
  8.00000000E-01  1.50000000E+00  8.00000000E-01  8.00000000E-01  1.50000000E+00
  8.00000000E-01  8.00000000E-01  1.50000000E+00  8.00000000E-01  8.00000000E-01
  1.50000000E+00  8.00000000E-01  8.00000000E-01  1.50000000E+00  8.00000000E-01
  8.00000000E-01  1.50000000E+00  8.00000000E-01  8.00000000E-01  1.50000000E+00
  8.00000000E-01  8.00000000E-01  1.50000000E+00  8.00000000E-01  8.00000000E-01
  1.50000000E+00  8.00000000E-01  8.00000000E-01  1.50000000E+00  8.00000000E-01
  8.00000000E-01  1.50000000E+00  8.00000000E-01  8.00000000E-01  1.50000000E+00
  8.00000000E-01  8.00000000E-01  1.50000000E+00  8.00000000E-01  8.00000000E-01
  1.50000000E+00  8.00000000E-01  8.00000000E-01  1.50000000E+00  8.00000000E-01
  8.00000000E-01  1.50000000E+00  8.00000000E-01  8.00000000E-01  1.50000000E+00
  8.00000000E-01  8.00000000E-01  1.50000000E+00  8.00000000E-01  8.00000000E-01
  1.50000000E+00  8.00000000E-01  8.00000000E-01  1.50000000E+00  8.00000000E-01
  8.00000000E-01  1.50000000E+00  8.00000000E-01  8.00000000E-01  1.50000000E+00
  8.00000000E-01  8.00000000E-01  1.50000000E+00  8.00000000E-01  8.00000000E-01
  1.50000000E+00  8.00000000E-01  8.00000000E-01  1.50000000E+00  8.00000000E-01
  8.00000000E-01  1.50000000E+00  8.00000000E-01  8.00000000E-01  1.50000000E+00
  8.00000000E-01  8.00000000E-01  1.50000000E+00  8.00000000E-01  8.00000000E-01
  1.50000000E+00  8.00000000E-01  8.00000000E-01  1.50000000E+00  8.00000000E-01
  8.00000000E-01  1.50000000E+00  8.00000000E-01  8.00000000E-01  1.50000000E+00
  8.00000000E-01  8.00000000E-01  1.50000000E+00  8.00000000E-01  8.00000000E-01
  1.50000000E+00  8.00000000E-01  8.00000000E-01  1.50000000E+00  8.00000000E-01
  8.00000000E-01  1.50000000E+00  8.00000000E-01  8.00000000E-01  1.50000000E+00
  8.00000000E-01  8.00000000E-01  1.50000000E+00  8.00000000E-01  8.00000000E-01
  1.50000000E+00  8.00000000E-01  8.00000000E-01  1.50000000E+00  8.00000000E-01
  8.00000000E-01  1.50000000E+00  8.00000000E-01  8.00000000E-01  1.50000000E+00
  8.00000000E-01  8.00000000E-01  1.50000000E+00  8.00000000E-01  8.00000000E-01
  1.50000000E+00  8.00000000E-01  8.00000000E-01  1.50000000E+00  8.00000000E-01
  8.00000000E-01  1.50000000E+00  8.00000000E-01  8.00000000E-01  1.50000000E+00
  8.00000000E-01  8.00000000E-01  1.50000000E+00  8.00000000E-01  8.00000000E-01
  1.50000000E+00  8.00000000E-01  8.00000000E-01  1.50000000E+00  8.00000000E-01
  8.00000000E-01  1.50000000E+00  8.00000000E-01  8.00000000E-01  1.50000000E+00
  8.00000000E-01  8.00000000E-01  1.50000000E+00  8.00000000E-01  8.00000000E-01
  1.50000000E+00  8.00000000E-01  8.00000000E-01  1.50000000E+00  8.00000000E-01
  8.00000000E-01  1.50000000E+00  8.00000000E-01  8.00000000E-01  1.50000000E+00
  8.00000000E-01  8.00000000E-01  1.50000000E+00  8.00000000E-01  8.00000000E-01
  1.50000000E+00  8.00000000E-01  8.00000000E-01  1.50000000E+00  8.00000000E-01
  8.00000000E-01  1.50000000E+00  8.00000000E-01  8.00000000E-01  1.50000000E+00
  8.00000000E-01  8.00000000E-01  1.50000000E+00  8.00000000E-01  8.00000000E-01
  1.50000000E+00  8.00000000E-01  8.00000000E-01  1.50000000E+00  8.00000000E-01
  8.00000000E-01  1.50000000E+00  8.00000000E-01  8.00000000E-01  1.50000000E+00
  8.00000000E-01  8.00000000E-01  1.50000000E+00  8.00000000E-01  8.00000000E-01
  1.50000000E+00  8.00000000E-01  8.00000000E-01  1.50000000E+00  8.00000000E-01
  8.00000000E-01  1.50000000E+00  8.00000000E-01  8.00000000E-01  1.50000000E+00
  8.00000000E-01  8.00000000E-01  1.50000000E+00  8.00000000E-01  8.00000000E-01
  1.50000000E+00  8.00000000E-01  8.00000000E-01  1.50000000E+00  8.00000000E-01
  8.00000000E-01  1.50000000E+00  8.00000000E-01  8.00000000E-01  1.50000000E+00
  8.00000000E-01  8.00000000E-01  1.50000000E+00  8.00000000E-01  8.00000000E-01
  1.50000000E+00  8.00000000E-01  8.00000000E-01  1.50000000E+00  8.00000000E-01
  8.00000000E-01  1.50000000E+00  8.00000000E-01  8.00000000E-01  1.50000000E+00
  8.00000000E-01  8.00000000E-01  1.50000000E+00  8.00000000E-01  8.00000000E-01
  1.50000000E+00  8.00000000E-01  8.00000000E-01  1.50000000E+00  8.00000000E-01
  8.00000000E-01  1.50000000E+00  8.00000000E-01  8.00000000E-01  1.50000000E+00
  8.00000000E-01  8.00000000E-01  1.50000000E+00  8.00000000E-01  8.00000000E-01
  1.50000000E+00  8.00000000E-01  8.00000000E-01  1.50000000E+00  8.00000000E-01
  8.00000000E-01  1.50000000E+00  8.00000000E-01  8.00000000E-01  1.50000000E+00
  8.00000000E-01  8.00000000E-01  1.50000000E+00  8.00000000E-01  8.00000000E-01
  1.50000000E+00  8.00000000E-01  8.00000000E-01  1.50000000E+00  8.00000000E-01
  8.00000000E-01  1.50000000E+00  8.00000000E-01  8.00000000E-01  1.50000000E+00
  8.00000000E-01  8.00000000E-01  1.50000000E+00  8.00000000E-01  8.00000000E-01
  1.50000000E+00  8.00000000E-01  8.00000000E-01  1.50000000E+00  8.00000000E-01
  8.00000000E-01  1.50000000E+00  8.00000000E-01  8.00000000E-01  1.50000000E+00
  8.00000000E-01  8.00000000E-01  1.50000000E+00  8.00000000E-01  8.00000000E-01
  1.50000000E+00  8.00000000E-01  8.00000000E-01  1.50000000E+00  8.00000000E-01
  8.00000000E-01  1.50000000E+00  8.00000000E-01  8.00000000E-01  1.50000000E+00
  8.00000000E-01  8.00000000E-01  1.50000000E+00  8.00000000E-01  8.00000000E-01
  1.50000000E+00  8.00000000E-01  8.00000000E-01  1.50000000E+00  8.00000000E-01
  8.00000000E-01  1.50000000E+00  8.00000000E-01  8.00000000E-01  1.50000000E+00
  8.00000000E-01  8.00000000E-01  1.50000000E+00  8.00000000E-01  8.00000000E-01
  1.50000000E+00  8.00000000E-01  8.00000000E-01  1.50000000E+00  8.00000000E-01
  8.00000000E-01  1.50000000E+00  8.00000000E-01  8.00000000E-01  1.50000000E+00
  8.00000000E-01  8.00000000E-01  1.50000000E+00  8.00000000E-01  8.00000000E-01
  1.50000000E+00  8.00000000E-01  8.00000000E-01  1.50000000E+00  8.00000000E-01
  8.00000000E-01  1.50000000E+00  8.00000000E-01  8.00000000E-01  1.50000000E+00
  8.00000000E-01  8.00000000E-01  1.50000000E+00  8.00000000E-01  8.00000000E-01
  1.50000000E+00  8.00000000E-01  8.00000000E-01  1.50000000E+00  8.00000000E-01
  8.00000000E-01  1.50000000E+00  8.00000000E-01  8.00000000E-01  1.50000000E+00
  8.00000000E-01  8.00000000E-01  1.50000000E+00  8.00000000E-01  8.00000000E-01
  1.50000000E+00  8.00000000E-01  8.00000000E-01  1.50000000E+00  8.00000000E-01
  8.00000000E-01  1.50000000E+00  8.00000000E-01  8.00000000E-01  1.50000000E+00
  8.00000000E-01  8.00000000E-01  1.50000000E+00  8.00000000E-01  8.00000000E-01
  1.50000000E+00  8.00000000E-01  8.00000000E-01  1.50000000E+00  8.00000000E-01
  8.00000000E-01  1.50000000E+00  8.00000000E-01  8.00000000E-01  1.50000000E+00
  8.00000000E-01  8.00000000E-01  1.50000000E+00  8.00000000E-01  8.00000000E-01
  1.50000000E+00  8.00000000E-01  8.00000000E-01  1.50000000E+00  8.00000000E-01
  8.00000000E-01  1.50000000E+00  8.00000000E-01  8.00000000E-01  1.50000000E+00
  8.00000000E-01  8.00000000E-01  1.50000000E+00  8.00000000E-01  8.00000000E-01
  1.50000000E+00  8.00000000E-01  8.00000000E-01  1.50000000E+00  8.00000000E-01
  8.00000000E-01  1.50000000E+00  8.00000000E-01  8.00000000E-01  1.50000000E+00
  8.00000000E-01  8.00000000E-01  1.50000000E+00  8.00000000E-01  8.00000000E-01
  1.50000000E+00  8.00000000E-01  8.00000000E-01  1.50000000E+00  8.00000000E-01
  8.00000000E-01  1.50000000E+00  8.00000000E-01  8.00000000E-01  1.50000000E+00
  8.00000000E-01  8.00000000E-01  1.50000000E+00  8.00000000E-01  8.00000000E-01
  1.50000000E+00  8.00000000E-01  8.00000000E-01  1.50000000E+00  8.00000000E-01
  8.00000000E-01  1.50000000E+00  8.00000000E-01  8.00000000E-01  1.50000000E+00
  8.00000000E-01  8.00000000E-01  1.50000000E+00  8.00000000E-01  8.00000000E-01
  1.50000000E+00  8.00000000E-01  8.00000000E-01  1.50000000E+00  8.00000000E-01
  8.00000000E-01  1.50000000E+00  8.00000000E-01  8.00000000E-01  1.50000000E+00
  8.00000000E-01  8.00000000E-01  1.50000000E+00  8.00000000E-01  8.00000000E-01
  1.50000000E+00  8.00000000E-01  8.00000000E-01  1.50000000E+00  8.00000000E-01
  8.00000000E-01  1.50000000E+00  8.00000000E-01  8.00000000E-01  1.50000000E+00
  8.00000000E-01  8.00000000E-01  1.50000000E+00  8.00000000E-01  8.00000000E-01
  1.50000000E+00  8.00000000E-01  8.00000000E-01  1.50000000E+00  8.00000000E-01
  8.00000000E-01  1.50000000E+00  8.00000000E-01  8.00000000E-01  1.50000000E+00
  8.00000000E-01  8.00000000E-01  1.50000000E+00  8.00000000E-01  8.00000000E-01
  1.50000000E+00  8.00000000E-01  8.00000000E-01  1.50000000E+00  8.00000000E-01
  8.00000000E-01  1.50000000E+00  8.00000000E-01  8.00000000E-01  1.50000000E+00
  8.00000000E-01  8.00000000E-01  1.50000000E+00  8.00000000E-01  8.00000000E-01
  1.50000000E+00  8.00000000E-01  8.00000000E-01  1.50000000E+00  8.00000000E-01
  8.00000000E-01  1.50000000E+00  8.00000000E-01  8.00000000E-01  1.50000000E+00
  8.00000000E-01  8.00000000E-01  1.50000000E+00  8.00000000E-01  8.00000000E-01
  1.50000000E+00  8.00000000E-01  8.00000000E-01  1.50000000E+00  8.00000000E-01
  8.00000000E-01  1.50000000E+00  8.00000000E-01  8.00000000E-01  1.50000000E+00
  8.00000000E-01  8.00000000E-01  1.50000000E+00  8.00000000E-01  8.00000000E-01
  1.50000000E+00  8.00000000E-01  8.00000000E-01  1.50000000E+00  8.00000000E-01
  8.00000000E-01  1.50000000E+00  8.00000000E-01  8.00000000E-01  1.50000000E+00
  8.00000000E-01  8.00000000E-01  1.50000000E+00  8.00000000E-01  8.00000000E-01
  1.50000000E+00  8.00000000E-01  8.00000000E-01  1.50000000E+00  8.00000000E-01
  8.00000000E-01  1.50000000E+00  8.00000000E-01  8.00000000E-01  1.50000000E+00
  8.00000000E-01  8.00000000E-01  1.50000000E+00  8.00000000E-01  8.00000000E-01
  1.50000000E+00  8.00000000E-01  8.00000000E-01  1.50000000E+00  8.00000000E-01
  8.00000000E-01  1.50000000E+00  8.00000000E-01  8.00000000E-01  1.50000000E+00
  8.00000000E-01  8.00000000E-01  1.50000000E+00  8.00000000E-01  8.00000000E-01
  1.50000000E+00  8.00000000E-01  8.00000000E-01  1.50000000E+00  8.00000000E-01
  8.00000000E-01  1.50000000E+00  8.00000000E-01  8.00000000E-01  1.50000000E+00
  8.00000000E-01  8.00000000E-01  1.50000000E+00  8.00000000E-01  8.00000000E-01
  1.50000000E+00  8.00000000E-01  8.00000000E-01  1.50000000E+00  8.00000000E-01
  8.00000000E-01  1.50000000E+00  8.00000000E-01  8.00000000E-01  1.50000000E+00
  8.00000000E-01  8.00000000E-01  1.50000000E+00  8.00000000E-01  8.00000000E-01
  1.50000000E+00  8.00000000E-01  8.00000000E-01  1.50000000E+00  8.00000000E-01
  8.00000000E-01  1.50000000E+00  8.00000000E-01  8.00000000E-01  1.50000000E+00
  8.00000000E-01  8.00000000E-01  1.50000000E+00  8.00000000E-01  8.00000000E-01
  1.50000000E+00  8.00000000E-01  8.00000000E-01  1.50000000E+00  8.00000000E-01
  8.00000000E-01  1.50000000E+00  8.00000000E-01  8.00000000E-01  1.50000000E+00
  8.00000000E-01  8.00000000E-01  1.50000000E+00  8.00000000E-01  8.00000000E-01
  1.50000000E+00  8.00000000E-01  8.00000000E-01  1.50000000E+00  8.00000000E-01
  8.00000000E-01  1.50000000E+00  8.00000000E-01  8.00000000E-01  1.50000000E+00
  8.00000000E-01  8.00000000E-01  1.50000000E+00  8.00000000E-01  8.00000000E-01
  1.50000000E+00  8.00000000E-01  8.00000000E-01  1.50000000E+00  8.00000000E-01
  8.00000000E-01  1.50000000E+00  8.00000000E-01  8.00000000E-01  1.50000000E+00
  8.00000000E-01  8.00000000E-01  1.50000000E+00  8.00000000E-01  8.00000000E-01
  1.50000000E+00  8.00000000E-01  8.00000000E-01  1.50000000E+00  8.00000000E-01
  8.00000000E-01  1.50000000E+00  8.00000000E-01  8.00000000E-01  1.50000000E+00
  8.00000000E-01  8.00000000E-01  1.50000000E+00  8.00000000E-01  8.00000000E-01
  1.50000000E+00  8.00000000E-01  8.00000000E-01  1.50000000E+00  8.00000000E-01
  8.00000000E-01  1.50000000E+00  8.00000000E-01  8.00000000E-01  1.50000000E+00
  8.00000000E-01  8.00000000E-01  1.50000000E+00  8.00000000E-01  8.00000000E-01
  1.50000000E+00  8.00000000E-01  8.00000000E-01  1.50000000E+00  8.00000000E-01
  8.00000000E-01  1.50000000E+00  8.00000000E-01  8.00000000E-01  1.50000000E+00
  8.00000000E-01  8.00000000E-01  1.50000000E+00  8.00000000E-01  8.00000000E-01
  1.50000000E+00  8.00000000E-01  8.00000000E-01  1.50000000E+00  8.00000000E-01
  8.00000000E-01  1.50000000E+00  8.00000000E-01  8.00000000E-01  1.50000000E+00
  8.00000000E-01  8.00000000E-01  1.50000000E+00  8.00000000E-01  8.00000000E-01
  1.50000000E+00  8.00000000E-01  8.00000000E-01  1.50000000E+00  8.00000000E-01
  8.00000000E-01  1.50000000E+00  8.00000000E-01  8.00000000E-01  1.50000000E+00
  8.00000000E-01  8.00000000E-01  1.50000000E+00  8.00000000E-01  8.00000000E-01
  1.50000000E+00  8.00000000E-01  8.00000000E-01  1.50000000E+00  8.00000000E-01
  8.00000000E-01  1.50000000E+00  8.00000000E-01  8.00000000E-01  1.50000000E+00
  8.00000000E-01  8.00000000E-01  1.50000000E+00  8.00000000E-01  8.00000000E-01
  1.50000000E+00  8.00000000E-01  8.00000000E-01  1.50000000E+00  8.00000000E-01
  8.00000000E-01  1.50000000E+00  8.00000000E-01  8.00000000E-01  1.50000000E+00
  8.00000000E-01  8.00000000E-01  1.50000000E+00  8.00000000E-01  8.00000000E-01
  1.50000000E+00  8.00000000E-01  8.00000000E-01  1.50000000E+00  8.00000000E-01
  8.00000000E-01  1.50000000E+00  8.00000000E-01  8.00000000E-01  1.50000000E+00
  8.00000000E-01  8.00000000E-01  1.50000000E+00  8.00000000E-01  8.00000000E-01
  1.50000000E+00  8.00000000E-01  8.00000000E-01  1.50000000E+00  8.00000000E-01
  8.00000000E-01  1.50000000E+00  8.00000000E-01  8.00000000E-01  1.50000000E+00
  8.00000000E-01  8.00000000E-01  1.50000000E+00  8.00000000E-01  8.00000000E-01
  1.50000000E+00  8.00000000E-01  8.00000000E-01  1.50000000E+00  8.00000000E-01
  8.00000000E-01  1.50000000E+00  8.00000000E-01  8.00000000E-01  1.50000000E+00
  8.00000000E-01  8.00000000E-01  1.50000000E+00  8.00000000E-01  8.00000000E-01
  1.50000000E+00  8.00000000E-01  8.00000000E-01  1.50000000E+00  8.00000000E-01
  8.00000000E-01  1.50000000E+00  8.00000000E-01  8.00000000E-01  1.50000000E+00
  8.00000000E-01  8.00000000E-01  1.50000000E+00  8.00000000E-01  8.00000000E-01
  1.50000000E+00  8.00000000E-01  8.00000000E-01  1.50000000E+00  8.00000000E-01
  8.00000000E-01  1.50000000E+00  8.00000000E-01  8.00000000E-01  1.50000000E+00
  8.00000000E-01  8.00000000E-01  1.50000000E+00  8.00000000E-01  8.00000000E-01
  1.50000000E+00  8.00000000E-01  8.00000000E-01  1.50000000E+00  8.00000000E-01
  8.00000000E-01  1.50000000E+00  8.00000000E-01  8.00000000E-01  1.50000000E+00
  8.00000000E-01  8.00000000E-01  1.50000000E+00  8.00000000E-01  8.00000000E-01
  1.50000000E+00  8.00000000E-01  8.00000000E-01  1.50000000E+00  8.00000000E-01
  8.00000000E-01  1.50000000E+00  8.00000000E-01  8.00000000E-01  1.50000000E+00
  8.00000000E-01  8.00000000E-01  1.50000000E+00  8.00000000E-01  8.00000000E-01
  1.50000000E+00  8.00000000E-01  8.00000000E-01  1.50000000E+00  8.00000000E-01
  8.00000000E-01  1.50000000E+00  8.00000000E-01  8.00000000E-01  1.50000000E+00
  8.00000000E-01  8.00000000E-01  1.50000000E+00  8.00000000E-01  8.00000000E-01
  1.50000000E+00  8.00000000E-01  8.00000000E-01  1.50000000E+00  8.00000000E-01
  8.00000000E-01  1.50000000E+00  8.00000000E-01  8.00000000E-01  1.50000000E+00
  8.00000000E-01  8.00000000E-01  1.50000000E+00  8.00000000E-01  8.00000000E-01
  1.50000000E+00  8.00000000E-01  8.00000000E-01  1.50000000E+00  8.00000000E-01
  8.00000000E-01  1.50000000E+00  8.00000000E-01  8.00000000E-01  1.50000000E+00
  8.00000000E-01  8.00000000E-01  1.50000000E+00  8.00000000E-01  8.00000000E-01
  1.50000000E+00  8.00000000E-01  8.00000000E-01  1.50000000E+00  8.00000000E-01
  8.00000000E-01  1.50000000E+00  8.00000000E-01  8.00000000E-01  1.50000000E+00
  8.00000000E-01  8.00000000E-01  1.50000000E+00  8.00000000E-01  8.00000000E-01
  1.50000000E+00  8.00000000E-01  8.00000000E-01  1.50000000E+00  8.00000000E-01
  8.00000000E-01  1.50000000E+00  8.00000000E-01  8.00000000E-01  1.50000000E+00
  8.00000000E-01  8.00000000E-01  1.50000000E+00  8.00000000E-01  8.00000000E-01
  1.50000000E+00  8.00000000E-01  8.00000000E-01  1.50000000E+00  8.00000000E-01
  8.00000000E-01  1.50000000E+00  8.00000000E-01  8.00000000E-01  1.50000000E+00
  8.00000000E-01  8.00000000E-01  1.50000000E+00  8.00000000E-01  8.00000000E-01
  1.50000000E+00  8.00000000E-01  8.00000000E-01  1.50000000E+00  8.00000000E-01
  8.00000000E-01  1.50000000E+00  8.00000000E-01  8.00000000E-01  1.50000000E+00
  8.00000000E-01  8.00000000E-01  1.50000000E+00  8.00000000E-01  8.00000000E-01
  1.50000000E+00  8.00000000E-01  8.00000000E-01  1.50000000E+00  8.00000000E-01
  8.00000000E-01  1.50000000E+00  8.00000000E-01  8.00000000E-01  1.50000000E+00
  8.00000000E-01  8.00000000E-01  1.50000000E+00  8.00000000E-01  8.00000000E-01
  1.50000000E+00  8.00000000E-01  8.00000000E-01  1.50000000E+00  8.00000000E-01
  8.00000000E-01  1.50000000E+00  8.00000000E-01  8.00000000E-01  1.50000000E+00
  8.00000000E-01  8.00000000E-01  1.50000000E+00  8.00000000E-01  8.00000000E-01
  1.50000000E+00  8.00000000E-01  8.00000000E-01  1.50000000E+00  8.00000000E-01
  8.00000000E-01  1.50000000E+00  8.00000000E-01  8.00000000E-01  1.50000000E+00
  8.00000000E-01  8.00000000E-01  1.50000000E+00  8.00000000E-01  8.00000000E-01
  1.50000000E+00  8.00000000E-01  8.00000000E-01  1.50000000E+00  8.00000000E-01
  8.00000000E-01  1.50000000E+00  8.00000000E-01  8.00000000E-01  1.50000000E+00
  8.00000000E-01  8.00000000E-01  1.50000000E+00  8.00000000E-01  8.00000000E-01
  1.50000000E+00  8.00000000E-01  8.00000000E-01  1.50000000E+00  8.00000000E-01
  8.00000000E-01  1.50000000E+00  8.00000000E-01  8.00000000E-01  1.50000000E+00
  8.00000000E-01  8.00000000E-01  1.50000000E+00  8.00000000E-01  8.00000000E-01
  1.50000000E+00  8.00000000E-01  8.00000000E-01  1.50000000E+00  8.00000000E-01
  8.00000000E-01  1.50000000E+00  8.00000000E-01  8.00000000E-01  1.50000000E+00
  8.00000000E-01  8.00000000E-01  1.50000000E+00  8.00000000E-01  8.00000000E-01
  1.50000000E+00  8.00000000E-01  8.00000000E-01  1.50000000E+00  8.00000000E-01
  8.00000000E-01  1.50000000E+00  8.00000000E-01  8.00000000E-01  1.50000000E+00
  8.00000000E-01  8.00000000E-01  1.50000000E+00  8.00000000E-01  8.00000000E-01
  1.50000000E+00  8.00000000E-01  8.00000000E-01  1.50000000E+00  8.00000000E-01
  8.00000000E-01  1.50000000E+00  8.00000000E-01  8.00000000E-01  1.50000000E+00
  8.00000000E-01  8.00000000E-01  1.50000000E+00  8.00000000E-01  8.00000000E-01
  1.50000000E+00  8.00000000E-01  8.00000000E-01  1.50000000E+00  8.00000000E-01
  8.00000000E-01  1.50000000E+00  8.00000000E-01  8.00000000E-01  1.50000000E+00
  8.00000000E-01  8.00000000E-01  1.50000000E+00  8.00000000E-01  8.00000000E-01
  1.50000000E+00  8.00000000E-01  8.00000000E-01  1.50000000E+00  8.00000000E-01
  8.00000000E-01  1.50000000E+00  8.00000000E-01  8.00000000E-01  1.50000000E+00
  8.00000000E-01  8.00000000E-01  1.50000000E+00  8.00000000E-01  8.00000000E-01
  1.50000000E+00  8.00000000E-01  8.00000000E-01  1.50000000E+00  8.00000000E-01
  8.00000000E-01  1.50000000E+00  8.00000000E-01  8.00000000E-01  1.50000000E+00
  8.00000000E-01  8.00000000E-01  1.50000000E+00  8.00000000E-01  8.00000000E-01
  1.50000000E+00  8.00000000E-01  8.00000000E-01  1.50000000E+00  8.00000000E-01
  8.00000000E-01  1.50000000E+00  8.00000000E-01  8.00000000E-01  1.50000000E+00
  8.00000000E-01  8.00000000E-01  1.50000000E+00  8.00000000E-01  8.00000000E-01
  1.50000000E+00  8.00000000E-01  8.00000000E-01  1.50000000E+00  8.00000000E-01
  8.00000000E-01  1.50000000E+00  8.00000000E-01  8.00000000E-01  1.50000000E+00
  8.00000000E-01  8.00000000E-01  1.50000000E+00  8.00000000E-01  8.00000000E-01
  1.50000000E+00  8.00000000E-01  8.00000000E-01  1.50000000E+00  8.00000000E-01
  8.00000000E-01  1.50000000E+00  8.00000000E-01  8.00000000E-01  1.50000000E+00
  8.00000000E-01  8.00000000E-01  1.50000000E+00  8.00000000E-01  8.00000000E-01
  1.50000000E+00  8.00000000E-01  8.00000000E-01  1.50000000E+00  8.00000000E-01
  8.00000000E-01  1.50000000E+00  8.00000000E-01  8.00000000E-01  1.50000000E+00
  8.00000000E-01  8.00000000E-01  1.50000000E+00  8.00000000E-01  8.00000000E-01
  1.50000000E+00  8.00000000E-01  8.00000000E-01  1.50000000E+00  8.00000000E-01
  8.00000000E-01  1.50000000E+00  8.00000000E-01  8.00000000E-01  1.50000000E+00
  8.00000000E-01  8.00000000E-01  1.50000000E+00  8.00000000E-01  8.00000000E-01
  1.50000000E+00  8.00000000E-01  8.00000000E-01  1.50000000E+00  8.00000000E-01
  8.00000000E-01  1.50000000E+00  8.00000000E-01  8.00000000E-01  1.50000000E+00
  8.00000000E-01  8.00000000E-01  1.50000000E+00  8.00000000E-01  8.00000000E-01
  1.50000000E+00  8.00000000E-01  8.00000000E-01  1.50000000E+00  8.00000000E-01
  8.00000000E-01  1.50000000E+00  8.00000000E-01  8.00000000E-01  1.50000000E+00
  8.00000000E-01  8.00000000E-01  1.50000000E+00  8.00000000E-01  8.00000000E-01
  1.50000000E+00  8.00000000E-01  8.00000000E-01  1.50000000E+00  8.00000000E-01
  8.00000000E-01  1.50000000E+00  8.00000000E-01  8.00000000E-01  1.50000000E+00
  8.00000000E-01  8.00000000E-01  1.50000000E+00  8.00000000E-01  8.00000000E-01
  1.50000000E+00  8.00000000E-01  8.00000000E-01  1.50000000E+00  8.00000000E-01
  8.00000000E-01  1.50000000E+00  8.00000000E-01  8.00000000E-01  1.50000000E+00
  8.00000000E-01  8.00000000E-01  1.50000000E+00  8.00000000E-01  8.00000000E-01
  1.50000000E+00  8.00000000E-01  8.00000000E-01  1.50000000E+00  8.00000000E-01
  8.00000000E-01  1.50000000E+00  8.00000000E-01  8.00000000E-01  1.50000000E+00
  8.00000000E-01  8.00000000E-01  1.50000000E+00  8.00000000E-01  8.00000000E-01
  1.50000000E+00  8.00000000E-01  8.00000000E-01  1.50000000E+00  8.00000000E-01
  8.00000000E-01  1.50000000E+00  8.00000000E-01  8.00000000E-01  1.50000000E+00
  8.00000000E-01  8.00000000E-01  1.50000000E+00  8.00000000E-01  8.00000000E-01
  1.50000000E+00  8.00000000E-01  8.00000000E-01  1.50000000E+00  8.00000000E-01
  8.00000000E-01  1.50000000E+00  8.00000000E-01  8.00000000E-01  1.50000000E+00
  8.00000000E-01  8.00000000E-01  1.50000000E+00  8.00000000E-01  8.00000000E-01
  1.50000000E+00  8.00000000E-01  8.00000000E-01  1.50000000E+00  8.00000000E-01
  8.00000000E-01  1.50000000E+00  8.00000000E-01  8.00000000E-01  1.50000000E+00
  8.00000000E-01  8.00000000E-01  1.50000000E+00  8.00000000E-01  8.00000000E-01
  1.50000000E+00  8.00000000E-01  8.00000000E-01  1.50000000E+00  8.00000000E-01
  8.00000000E-01  1.50000000E+00  8.00000000E-01  8.00000000E-01  1.50000000E+00
  8.00000000E-01  8.00000000E-01  1.50000000E+00  8.00000000E-01  8.00000000E-01
  1.50000000E+00  8.00000000E-01  8.00000000E-01  1.50000000E+00  8.00000000E-01
  8.00000000E-01  1.50000000E+00  8.00000000E-01  8.00000000E-01  1.50000000E+00
  8.00000000E-01  8.00000000E-01  1.50000000E+00  8.00000000E-01  8.00000000E-01
  1.50000000E+00  8.00000000E-01  8.00000000E-01  1.50000000E+00  8.00000000E-01
  8.00000000E-01  1.50000000E+00  8.00000000E-01  8.00000000E-01  1.50000000E+00
  8.00000000E-01  8.00000000E-01  1.50000000E+00  8.00000000E-01  8.00000000E-01
  1.50000000E+00  8.00000000E-01  8.00000000E-01  1.50000000E+00  8.00000000E-01
  8.00000000E-01  1.50000000E+00  8.00000000E-01  8.00000000E-01  1.50000000E+00
  8.00000000E-01  8.00000000E-01  1.50000000E+00  8.00000000E-01  8.00000000E-01
  1.50000000E+00  8.00000000E-01  8.00000000E-01  1.50000000E+00  8.00000000E-01
  8.00000000E-01  1.50000000E+00  8.00000000E-01  8.00000000E-01  1.50000000E+00
  8.00000000E-01  8.00000000E-01  1.50000000E+00  8.00000000E-01  8.00000000E-01
  1.50000000E+00  8.00000000E-01  8.00000000E-01  1.50000000E+00  8.00000000E-01
  8.00000000E-01  1.50000000E+00  8.00000000E-01  8.00000000E-01  1.50000000E+00
  8.00000000E-01  8.00000000E-01  1.50000000E+00  8.00000000E-01  8.00000000E-01
  1.50000000E+00  8.00000000E-01  8.00000000E-01  1.50000000E+00  8.00000000E-01
  8.00000000E-01  1.50000000E+00  8.00000000E-01  8.00000000E-01  1.50000000E+00
  8.00000000E-01  8.00000000E-01  1.50000000E+00  8.00000000E-01  8.00000000E-01
  1.50000000E+00  8.00000000E-01  8.00000000E-01  1.50000000E+00  8.00000000E-01
  8.00000000E-01  1.50000000E+00  8.00000000E-01  8.00000000E-01  1.50000000E+00
  8.00000000E-01  8.00000000E-01  1.50000000E+00  8.00000000E-01  8.00000000E-01
  1.50000000E+00  8.00000000E-01  8.00000000E-01  1.50000000E+00  8.00000000E-01
  8.00000000E-01  1.50000000E+00  8.00000000E-01  8.00000000E-01  1.50000000E+00
  8.00000000E-01  8.00000000E-01  1.50000000E+00  8.00000000E-01  8.00000000E-01
  1.50000000E+00  8.00000000E-01  8.00000000E-01  1.50000000E+00  8.00000000E-01
  8.00000000E-01  1.50000000E+00  8.00000000E-01  8.00000000E-01  1.50000000E+00
  8.00000000E-01  8.00000000E-01  1.50000000E+00  8.00000000E-01  8.00000000E-01
  1.50000000E+00  8.00000000E-01  8.00000000E-01  1.50000000E+00  8.00000000E-01
  8.00000000E-01  1.50000000E+00  8.00000000E-01  8.00000000E-01  1.50000000E+00
  8.00000000E-01  8.00000000E-01  1.50000000E+00  8.00000000E-01  8.00000000E-01
  1.50000000E+00  8.00000000E-01  8.00000000E-01  1.50000000E+00  8.00000000E-01
  8.00000000E-01  1.50000000E+00  8.00000000E-01  8.00000000E-01  1.50000000E+00
  8.00000000E-01  8.00000000E-01  1.50000000E+00  8.00000000E-01  8.00000000E-01
  1.50000000E+00  8.00000000E-01  8.00000000E-01  1.50000000E+00  8.00000000E-01
  8.00000000E-01  1.50000000E+00  8.00000000E-01  8.00000000E-01  1.50000000E+00
  8.00000000E-01  8.00000000E-01  1.50000000E+00  8.00000000E-01  8.00000000E-01
  1.50000000E+00  8.00000000E-01  8.00000000E-01  1.50000000E+00  8.00000000E-01
  8.00000000E-01  1.50000000E+00  8.00000000E-01  8.00000000E-01  1.50000000E+00
  8.00000000E-01  8.00000000E-01  1.50000000E+00  8.00000000E-01  8.00000000E-01
  1.50000000E+00  8.00000000E-01  8.00000000E-01  1.50000000E+00  8.00000000E-01
  8.00000000E-01  1.50000000E+00  8.00000000E-01  8.00000000E-01  1.50000000E+00
  8.00000000E-01  8.00000000E-01  1.50000000E+00  8.00000000E-01  8.00000000E-01
  1.50000000E+00  8.00000000E-01  8.00000000E-01  1.50000000E+00  8.00000000E-01
  8.00000000E-01  1.50000000E+00  8.00000000E-01  8.00000000E-01  1.50000000E+00
  8.00000000E-01  8.00000000E-01  1.50000000E+00  8.00000000E-01  8.00000000E-01
  1.50000000E+00  8.00000000E-01  8.00000000E-01  1.50000000E+00  8.00000000E-01
  8.00000000E-01  1.50000000E+00  8.00000000E-01  8.00000000E-01  1.50000000E+00
  8.00000000E-01  8.00000000E-01  1.50000000E+00  8.00000000E-01  8.00000000E-01
  1.50000000E+00  8.00000000E-01  8.00000000E-01  1.50000000E+00  8.00000000E-01
  8.00000000E-01  1.50000000E+00  8.00000000E-01  8.00000000E-01  1.50000000E+00
  8.00000000E-01  8.00000000E-01  1.50000000E+00  8.00000000E-01  8.00000000E-01
  1.50000000E+00  8.00000000E-01  8.00000000E-01  1.50000000E+00  8.00000000E-01
  8.00000000E-01  1.50000000E+00  8.00000000E-01  8.00000000E-01  1.50000000E+00
  8.00000000E-01  8.00000000E-01  1.50000000E+00  8.00000000E-01  8.00000000E-01
  1.50000000E+00  8.00000000E-01  8.00000000E-01  1.50000000E+00  8.00000000E-01
  8.00000000E-01  1.50000000E+00  8.00000000E-01  8.00000000E-01  1.50000000E+00
  8.00000000E-01  8.00000000E-01  1.50000000E+00  8.00000000E-01  8.00000000E-01
  1.50000000E+00  8.00000000E-01  8.00000000E-01  1.50000000E+00  8.00000000E-01
  8.00000000E-01  1.50000000E+00  8.00000000E-01  8.00000000E-01  1.50000000E+00
  8.00000000E-01  8.00000000E-01  1.50000000E+00  8.00000000E-01  8.00000000E-01
  1.50000000E+00  8.00000000E-01  8.00000000E-01  1.50000000E+00  8.00000000E-01
  8.00000000E-01  1.50000000E+00  8.00000000E-01  8.00000000E-01  1.50000000E+00
  8.00000000E-01  8.00000000E-01  1.50000000E+00  8.00000000E-01  8.00000000E-01
  1.50000000E+00  8.00000000E-01  8.00000000E-01  1.50000000E+00  8.00000000E-01
  8.00000000E-01  1.50000000E+00  8.00000000E-01  8.00000000E-01  1.50000000E+00
  8.00000000E-01  8.00000000E-01  1.50000000E+00  8.00000000E-01  8.00000000E-01
  1.50000000E+00  8.00000000E-01  8.00000000E-01  1.50000000E+00  8.00000000E-01
  8.00000000E-01  1.50000000E+00  8.00000000E-01  8.00000000E-01  1.50000000E+00
  8.00000000E-01  8.00000000E-01  1.50000000E+00  8.00000000E-01  8.00000000E-01
  1.50000000E+00  8.00000000E-01  8.00000000E-01  1.50000000E+00  8.00000000E-01
  8.00000000E-01  1.50000000E+00  8.00000000E-01  8.00000000E-01  1.50000000E+00
  8.00000000E-01  8.00000000E-01  1.50000000E+00  8.00000000E-01  8.00000000E-01
  1.50000000E+00  8.00000000E-01  8.00000000E-01  1.50000000E+00  8.00000000E-01
  8.00000000E-01  1.50000000E+00  8.00000000E-01  8.00000000E-01  1.50000000E+00
  8.00000000E-01  8.00000000E-01  1.50000000E+00  8.00000000E-01  8.00000000E-01
  1.50000000E+00  8.00000000E-01  8.00000000E-01  1.50000000E+00  8.00000000E-01
  8.00000000E-01  1.50000000E+00  8.00000000E-01  8.00000000E-01  1.50000000E+00
  8.00000000E-01  8.00000000E-01  1.50000000E+00  8.00000000E-01  8.00000000E-01
  1.50000000E+00  8.00000000E-01  8.00000000E-01  1.50000000E+00  8.00000000E-01
  8.00000000E-01  1.50000000E+00  8.00000000E-01  8.00000000E-01  1.50000000E+00
  8.00000000E-01  8.00000000E-01  1.50000000E+00  8.00000000E-01  8.00000000E-01
  1.50000000E+00  8.00000000E-01  8.00000000E-01  1.50000000E+00  8.00000000E-01
  8.00000000E-01  1.50000000E+00  8.00000000E-01  8.00000000E-01  1.50000000E+00
  8.00000000E-01  8.00000000E-01  1.50000000E+00  8.00000000E-01  8.00000000E-01
  1.50000000E+00  8.00000000E-01  8.00000000E-01  1.50000000E+00  8.00000000E-01
  8.00000000E-01  1.50000000E+00  8.00000000E-01  8.00000000E-01  1.50000000E+00
  8.00000000E-01  8.00000000E-01  1.50000000E+00  8.00000000E-01  8.00000000E-01
  1.50000000E+00  8.00000000E-01  8.00000000E-01  1.50000000E+00  8.00000000E-01
  8.00000000E-01  1.50000000E+00  8.00000000E-01  8.00000000E-01  1.50000000E+00
  8.00000000E-01  8.00000000E-01  1.50000000E+00  8.00000000E-01  8.00000000E-01
  1.50000000E+00  8.00000000E-01  8.00000000E-01  1.50000000E+00  8.00000000E-01
  8.00000000E-01  1.50000000E+00  8.00000000E-01  8.00000000E-01  1.50000000E+00
  8.00000000E-01  8.00000000E-01  1.50000000E+00  8.00000000E-01  8.00000000E-01
  1.50000000E+00  8.00000000E-01  8.00000000E-01  1.50000000E+00  8.00000000E-01
  8.00000000E-01  1.50000000E+00  8.00000000E-01  8.00000000E-01  1.50000000E+00
  8.00000000E-01  8.00000000E-01  1.50000000E+00  8.00000000E-01  8.00000000E-01
  1.50000000E+00  8.00000000E-01  8.00000000E-01  1.50000000E+00  8.00000000E-01
  8.00000000E-01  1.50000000E+00  8.00000000E-01  8.00000000E-01  1.50000000E+00
  8.00000000E-01  8.00000000E-01  1.50000000E+00  8.00000000E-01  8.00000000E-01
  1.50000000E+00  8.00000000E-01  8.00000000E-01  1.50000000E+00  8.00000000E-01
  8.00000000E-01  1.50000000E+00  8.00000000E-01  8.00000000E-01  1.50000000E+00
  8.00000000E-01  8.00000000E-01  1.50000000E+00  8.00000000E-01  8.00000000E-01
  1.50000000E+00  8.00000000E-01  8.00000000E-01  1.50000000E+00  8.00000000E-01
  8.00000000E-01  1.50000000E+00  8.00000000E-01  8.00000000E-01  1.50000000E+00
  8.00000000E-01  8.00000000E-01  1.50000000E+00  8.00000000E-01  8.00000000E-01
  1.50000000E+00  8.00000000E-01  8.00000000E-01  1.50000000E+00  8.00000000E-01
  8.00000000E-01  1.50000000E+00  8.00000000E-01  8.00000000E-01  1.50000000E+00
  8.00000000E-01  8.00000000E-01  1.50000000E+00  8.00000000E-01  8.00000000E-01
  1.50000000E+00  8.00000000E-01  8.00000000E-01  1.50000000E+00  8.00000000E-01
  8.00000000E-01  1.50000000E+00  8.00000000E-01  8.00000000E-01  1.50000000E+00
  8.00000000E-01  8.00000000E-01  1.50000000E+00  8.00000000E-01  8.00000000E-01
  1.50000000E+00  8.00000000E-01  8.00000000E-01  1.50000000E+00  8.00000000E-01
  8.00000000E-01  1.50000000E+00  8.00000000E-01  8.00000000E-01  1.50000000E+00
  8.00000000E-01  8.00000000E-01  1.50000000E+00  8.00000000E-01  8.00000000E-01
  1.50000000E+00  8.00000000E-01  8.00000000E-01  1.50000000E+00  8.00000000E-01
  8.00000000E-01  1.50000000E+00  8.00000000E-01  8.00000000E-01  1.50000000E+00
  8.00000000E-01  8.00000000E-01  1.50000000E+00  8.00000000E-01  8.00000000E-01
  1.50000000E+00  8.00000000E-01  8.00000000E-01  1.50000000E+00  8.00000000E-01
  8.00000000E-01  1.50000000E+00  8.00000000E-01  8.00000000E-01  1.50000000E+00
  8.00000000E-01  8.00000000E-01  1.50000000E+00  8.00000000E-01  8.00000000E-01
  1.50000000E+00  8.00000000E-01  8.00000000E-01  1.50000000E+00  8.00000000E-01
  8.00000000E-01  1.50000000E+00  8.00000000E-01  8.00000000E-01  1.50000000E+00
  8.00000000E-01  8.00000000E-01  1.50000000E+00  8.00000000E-01  8.00000000E-01
  1.50000000E+00  8.00000000E-01  8.00000000E-01  1.50000000E+00  8.00000000E-01
  8.00000000E-01  1.50000000E+00  8.00000000E-01  8.00000000E-01  1.50000000E+00
  8.00000000E-01  8.00000000E-01  1.50000000E+00  8.00000000E-01  8.00000000E-01
  1.50000000E+00  8.00000000E-01  8.00000000E-01  1.50000000E+00  8.00000000E-01
  8.00000000E-01  1.50000000E+00  8.00000000E-01  8.00000000E-01  1.50000000E+00
  8.00000000E-01  8.00000000E-01  1.50000000E+00  8.00000000E-01  8.00000000E-01
  1.50000000E+00  8.00000000E-01  8.00000000E-01  1.50000000E+00  8.00000000E-01
  8.00000000E-01  1.50000000E+00  8.00000000E-01  8.00000000E-01  1.50000000E+00
  8.00000000E-01  8.00000000E-01  1.50000000E+00  8.00000000E-01  8.00000000E-01
  1.50000000E+00  8.00000000E-01  8.00000000E-01  1.50000000E+00  8.00000000E-01
  8.00000000E-01  1.50000000E+00  8.00000000E-01  8.00000000E-01  1.50000000E+00
  8.00000000E-01  8.00000000E-01  1.50000000E+00  8.00000000E-01  8.00000000E-01
  1.50000000E+00  8.00000000E-01  8.00000000E-01  1.50000000E+00  8.00000000E-01
  8.00000000E-01  1.50000000E+00  8.00000000E-01  8.00000000E-01  1.50000000E+00
  8.00000000E-01  8.00000000E-01  1.50000000E+00  8.00000000E-01  8.00000000E-01
  1.50000000E+00  8.00000000E-01  8.00000000E-01  1.50000000E+00  8.00000000E-01
  8.00000000E-01  1.50000000E+00  8.00000000E-01  8.00000000E-01  1.50000000E+00
  8.00000000E-01  8.00000000E-01  1.50000000E+00  8.00000000E-01  8.00000000E-01
  1.50000000E+00  8.00000000E-01  8.00000000E-01  1.50000000E+00  8.00000000E-01
  8.00000000E-01  1.50000000E+00  8.00000000E-01  8.00000000E-01  1.50000000E+00
  8.00000000E-01  8.00000000E-01  1.50000000E+00  8.00000000E-01  8.00000000E-01
  1.50000000E+00  8.00000000E-01  8.00000000E-01  1.50000000E+00  8.00000000E-01
  8.00000000E-01  1.50000000E+00  8.00000000E-01  8.00000000E-01  1.50000000E+00
  8.00000000E-01  8.00000000E-01  1.50000000E+00  8.00000000E-01  8.00000000E-01
  1.50000000E+00  8.00000000E-01  8.00000000E-01  1.50000000E+00  8.00000000E-01
  8.00000000E-01  1.50000000E+00  8.00000000E-01  8.00000000E-01  1.50000000E+00
  8.00000000E-01  8.00000000E-01  1.50000000E+00  8.00000000E-01  8.00000000E-01
  1.50000000E+00  8.00000000E-01  8.00000000E-01  1.50000000E+00  8.00000000E-01
  8.00000000E-01  1.50000000E+00  8.00000000E-01  8.00000000E-01  1.50000000E+00
  8.00000000E-01  8.00000000E-01  1.50000000E+00  8.00000000E-01  8.00000000E-01
  1.50000000E+00  8.00000000E-01  8.00000000E-01  1.50000000E+00  8.00000000E-01
  8.00000000E-01  1.50000000E+00  8.00000000E-01  8.00000000E-01  1.50000000E+00
  8.00000000E-01  8.00000000E-01  1.50000000E+00  8.00000000E-01  8.00000000E-01
  1.50000000E+00  8.00000000E-01  8.00000000E-01  1.50000000E+00  8.00000000E-01
  8.00000000E-01  1.50000000E+00  8.00000000E-01  8.00000000E-01  1.50000000E+00
  8.00000000E-01  8.00000000E-01  1.50000000E+00  8.00000000E-01  8.00000000E-01
  1.50000000E+00  8.00000000E-01  8.00000000E-01  1.50000000E+00  8.00000000E-01
  8.00000000E-01  1.50000000E+00  8.00000000E-01  8.00000000E-01  1.50000000E+00
  8.00000000E-01  8.00000000E-01  1.50000000E+00  8.00000000E-01  8.00000000E-01
  1.50000000E+00  8.00000000E-01  8.00000000E-01  1.50000000E+00  8.00000000E-01
  8.00000000E-01  1.50000000E+00  8.00000000E-01  8.00000000E-01  1.50000000E+00
  8.00000000E-01  8.00000000E-01  1.50000000E+00  8.00000000E-01  8.00000000E-01
  1.50000000E+00  8.00000000E-01  8.00000000E-01  1.50000000E+00  8.00000000E-01
  8.00000000E-01  1.50000000E+00  8.00000000E-01  8.00000000E-01  1.50000000E+00
  8.00000000E-01  8.00000000E-01  1.50000000E+00  8.00000000E-01  8.00000000E-01
  1.50000000E+00  8.00000000E-01  8.00000000E-01  1.50000000E+00  8.00000000E-01
  8.00000000E-01  1.50000000E+00  8.00000000E-01  8.00000000E-01  1.50000000E+00
  8.00000000E-01  8.00000000E-01  1.50000000E+00  8.00000000E-01  8.00000000E-01
  1.50000000E+00  8.00000000E-01  8.00000000E-01  1.50000000E+00  8.00000000E-01
  8.00000000E-01  1.50000000E+00  8.00000000E-01  8.00000000E-01  1.50000000E+00
  8.00000000E-01  8.00000000E-01  1.50000000E+00  8.00000000E-01  8.00000000E-01
  1.50000000E+00  8.00000000E-01  8.00000000E-01  1.50000000E+00  8.00000000E-01
  8.00000000E-01  1.50000000E+00  8.00000000E-01  8.00000000E-01  1.50000000E+00
  8.00000000E-01  8.00000000E-01  1.50000000E+00  8.00000000E-01  8.00000000E-01
  1.50000000E+00  8.00000000E-01  8.00000000E-01  1.50000000E+00  8.00000000E-01
  8.00000000E-01  1.50000000E+00  8.00000000E-01  8.00000000E-01  1.50000000E+00
  8.00000000E-01  8.00000000E-01  1.50000000E+00  8.00000000E-01  8.00000000E-01
  1.50000000E+00  8.00000000E-01  8.00000000E-01  1.50000000E+00  8.00000000E-01
  8.00000000E-01  1.50000000E+00  8.00000000E-01  8.00000000E-01  1.50000000E+00
  8.00000000E-01  8.00000000E-01  1.50000000E+00  8.00000000E-01  8.00000000E-01
  1.50000000E+00  8.00000000E-01  8.00000000E-01  1.50000000E+00  8.00000000E-01
  8.00000000E-01  1.50000000E+00  8.00000000E-01  8.00000000E-01  1.50000000E+00
  8.00000000E-01  8.00000000E-01  1.50000000E+00  8.00000000E-01  8.00000000E-01
  1.50000000E+00  8.00000000E-01  8.00000000E-01  1.50000000E+00  8.00000000E-01
  8.00000000E-01  1.50000000E+00  8.00000000E-01  8.00000000E-01  1.50000000E+00
  8.00000000E-01  8.00000000E-01  1.50000000E+00  8.00000000E-01  8.00000000E-01
  1.50000000E+00  8.00000000E-01  8.00000000E-01  1.50000000E+00  8.00000000E-01
  8.00000000E-01  1.50000000E+00  8.00000000E-01  8.00000000E-01  1.50000000E+00
  8.00000000E-01  8.00000000E-01  1.50000000E+00  8.00000000E-01  8.00000000E-01
  1.50000000E+00  8.00000000E-01  8.00000000E-01  1.50000000E+00  8.00000000E-01
  8.00000000E-01  1.50000000E+00  8.00000000E-01  8.00000000E-01  1.50000000E+00
  8.00000000E-01  8.00000000E-01  1.50000000E+00  8.00000000E-01  8.00000000E-01
  1.50000000E+00  8.00000000E-01  8.00000000E-01  1.50000000E+00  8.00000000E-01
  8.00000000E-01  1.50000000E+00  8.00000000E-01  8.00000000E-01  1.50000000E+00
  8.00000000E-01  8.00000000E-01  1.50000000E+00  8.00000000E-01  8.00000000E-01
  1.50000000E+00  8.00000000E-01  8.00000000E-01  1.50000000E+00  8.00000000E-01
  8.00000000E-01  1.50000000E+00  8.00000000E-01  8.00000000E-01  1.50000000E+00
  8.00000000E-01  8.00000000E-01  1.50000000E+00  8.00000000E-01  8.00000000E-01
  1.50000000E+00  8.00000000E-01  8.00000000E-01  1.50000000E+00  8.00000000E-01
  8.00000000E-01  1.50000000E+00  8.00000000E-01  8.00000000E-01  1.50000000E+00
  8.00000000E-01  8.00000000E-01  1.50000000E+00  8.00000000E-01  8.00000000E-01
  1.50000000E+00  8.00000000E-01  8.00000000E-01  1.50000000E+00  8.00000000E-01
  8.00000000E-01  1.50000000E+00  8.00000000E-01  8.00000000E-01  1.50000000E+00
  8.00000000E-01  8.00000000E-01  1.50000000E+00  8.00000000E-01  8.00000000E-01
  1.50000000E+00  8.00000000E-01  8.00000000E-01  1.50000000E+00  8.00000000E-01
  8.00000000E-01  1.50000000E+00  8.00000000E-01  8.00000000E-01  1.50000000E+00
  8.00000000E-01  8.00000000E-01  1.50000000E+00  8.00000000E-01  8.00000000E-01
  1.50000000E+00  8.00000000E-01  8.00000000E-01  1.50000000E+00  8.00000000E-01
  8.00000000E-01  1.50000000E+00  8.00000000E-01  8.00000000E-01  1.50000000E+00
  8.00000000E-01  8.00000000E-01  1.50000000E+00  8.00000000E-01  8.00000000E-01
  1.50000000E+00  8.00000000E-01  8.00000000E-01  1.50000000E+00  8.00000000E-01
  8.00000000E-01  1.50000000E+00  8.00000000E-01  8.00000000E-01  1.50000000E+00
  8.00000000E-01  8.00000000E-01  1.50000000E+00  8.00000000E-01  8.00000000E-01
  1.50000000E+00  8.00000000E-01  8.00000000E-01  1.50000000E+00  8.00000000E-01
  8.00000000E-01  1.50000000E+00  8.00000000E-01  8.00000000E-01  1.50000000E+00
  8.00000000E-01  8.00000000E-01  1.50000000E+00  8.00000000E-01  8.00000000E-01
  1.50000000E+00  8.00000000E-01  8.00000000E-01  1.50000000E+00  8.00000000E-01
  8.00000000E-01  1.50000000E+00  8.00000000E-01  8.00000000E-01  1.50000000E+00
  8.00000000E-01  8.00000000E-01  1.50000000E+00  8.00000000E-01  8.00000000E-01
  1.50000000E+00  8.00000000E-01  8.00000000E-01  1.50000000E+00  8.00000000E-01
  8.00000000E-01  1.50000000E+00  8.00000000E-01  8.00000000E-01  1.50000000E+00
  8.00000000E-01  8.00000000E-01  1.50000000E+00  8.00000000E-01  8.00000000E-01
  1.50000000E+00  8.00000000E-01  8.00000000E-01  1.50000000E+00  8.00000000E-01
  8.00000000E-01  1.50000000E+00  8.00000000E-01  8.00000000E-01  1.50000000E+00
  8.00000000E-01  8.00000000E-01  1.50000000E+00  8.00000000E-01  8.00000000E-01
  1.50000000E+00  8.00000000E-01  8.00000000E-01  1.50000000E+00  8.00000000E-01
  8.00000000E-01  1.50000000E+00  8.00000000E-01  8.00000000E-01  1.50000000E+00
  8.00000000E-01  8.00000000E-01  1.50000000E+00  8.00000000E-01  8.00000000E-01
  1.50000000E+00  8.00000000E-01  8.00000000E-01  1.50000000E+00  8.00000000E-01
  8.00000000E-01  1.50000000E+00  8.00000000E-01  8.00000000E-01  1.50000000E+00
  8.00000000E-01  8.00000000E-01  1.50000000E+00  8.00000000E-01  8.00000000E-01
  1.50000000E+00  8.00000000E-01  8.00000000E-01  1.50000000E+00  8.00000000E-01
  8.00000000E-01  1.50000000E+00  8.00000000E-01  8.00000000E-01  1.50000000E+00
  8.00000000E-01  8.00000000E-01  1.50000000E+00  8.00000000E-01  8.00000000E-01
  1.50000000E+00  8.00000000E-01  8.00000000E-01  1.50000000E+00  8.00000000E-01
  8.00000000E-01  1.50000000E+00  8.00000000E-01  8.00000000E-01  1.50000000E+00
  8.00000000E-01  8.00000000E-01  1.50000000E+00  8.00000000E-01  8.00000000E-01
  1.50000000E+00  8.00000000E-01  8.00000000E-01  1.50000000E+00  8.00000000E-01
  8.00000000E-01  1.50000000E+00  8.00000000E-01  8.00000000E-01  1.50000000E+00
  8.00000000E-01  8.00000000E-01  1.50000000E+00  8.00000000E-01  8.00000000E-01
  1.50000000E+00  8.00000000E-01  8.00000000E-01  1.50000000E+00  8.00000000E-01
  8.00000000E-01  1.50000000E+00  8.00000000E-01  8.00000000E-01  1.50000000E+00
  8.00000000E-01  8.00000000E-01  1.50000000E+00  8.00000000E-01  8.00000000E-01
  1.50000000E+00  8.00000000E-01  8.00000000E-01  1.50000000E+00  8.00000000E-01
  8.00000000E-01  1.50000000E+00  8.00000000E-01  8.00000000E-01  1.50000000E+00
  8.00000000E-01  8.00000000E-01  1.50000000E+00  8.00000000E-01  8.00000000E-01
  1.50000000E+00  8.00000000E-01  8.00000000E-01  1.50000000E+00  8.00000000E-01
  8.00000000E-01  1.50000000E+00  8.00000000E-01  8.00000000E-01  1.50000000E+00
  8.00000000E-01  8.00000000E-01  1.50000000E+00  8.00000000E-01  8.00000000E-01
  1.50000000E+00  8.00000000E-01  8.00000000E-01  1.50000000E+00  8.00000000E-01
  8.00000000E-01  1.50000000E+00  8.00000000E-01  8.00000000E-01  1.50000000E+00
  8.00000000E-01  8.00000000E-01  1.50000000E+00  8.00000000E-01  8.00000000E-01
  1.50000000E+00  8.00000000E-01  8.00000000E-01  1.50000000E+00  8.00000000E-01
  8.00000000E-01  1.50000000E+00  8.00000000E-01  8.00000000E-01  1.50000000E+00
  8.00000000E-01  8.00000000E-01  1.50000000E+00  8.00000000E-01  8.00000000E-01
  1.50000000E+00  8.00000000E-01  8.00000000E-01  1.50000000E+00  8.00000000E-01
  8.00000000E-01  1.50000000E+00  8.00000000E-01  8.00000000E-01  1.50000000E+00
  8.00000000E-01  8.00000000E-01  1.50000000E+00  8.00000000E-01  8.00000000E-01
  1.50000000E+00  8.00000000E-01  8.00000000E-01  1.50000000E+00  8.00000000E-01
  8.00000000E-01  1.50000000E+00  8.00000000E-01  8.00000000E-01  1.50000000E+00
  8.00000000E-01  8.00000000E-01  1.50000000E+00  8.00000000E-01  8.00000000E-01
  1.50000000E+00  8.00000000E-01  8.00000000E-01  1.50000000E+00  8.00000000E-01
  8.00000000E-01  1.50000000E+00  8.00000000E-01  8.00000000E-01  1.50000000E+00
  8.00000000E-01  8.00000000E-01  1.50000000E+00  8.00000000E-01  8.00000000E-01
  1.50000000E+00  8.00000000E-01  8.00000000E-01  1.50000000E+00  8.00000000E-01
  8.00000000E-01  1.50000000E+00  8.00000000E-01  8.00000000E-01  1.50000000E+00
  8.00000000E-01  8.00000000E-01  1.50000000E+00  8.00000000E-01  8.00000000E-01
  1.50000000E+00  8.00000000E-01  8.00000000E-01  1.50000000E+00  8.00000000E-01
  8.00000000E-01  1.50000000E+00  8.00000000E-01  8.00000000E-01  1.50000000E+00
  8.00000000E-01  8.00000000E-01  1.50000000E+00  8.00000000E-01  8.00000000E-01
  1.50000000E+00  8.00000000E-01  8.00000000E-01  1.50000000E+00  8.00000000E-01
  8.00000000E-01  1.50000000E+00  8.00000000E-01  8.00000000E-01  1.50000000E+00
  8.00000000E-01  8.00000000E-01  1.50000000E+00  8.00000000E-01  8.00000000E-01
  1.50000000E+00  8.00000000E-01  8.00000000E-01  1.50000000E+00  8.00000000E-01
  8.00000000E-01  1.50000000E+00  8.00000000E-01  8.00000000E-01  1.50000000E+00
  8.00000000E-01  8.00000000E-01  1.50000000E+00  8.00000000E-01  8.00000000E-01
  1.50000000E+00  8.00000000E-01  8.00000000E-01  1.50000000E+00  8.00000000E-01
  8.00000000E-01  1.50000000E+00  8.00000000E-01  8.00000000E-01  1.50000000E+00
  8.00000000E-01  8.00000000E-01  1.50000000E+00  8.00000000E-01  8.00000000E-01
  1.50000000E+00  8.00000000E-01  8.00000000E-01  1.50000000E+00  8.00000000E-01
  8.00000000E-01  1.50000000E+00  8.00000000E-01  8.00000000E-01  1.50000000E+00
  8.00000000E-01  8.00000000E-01  1.50000000E+00  8.00000000E-01  8.00000000E-01
  1.50000000E+00  8.00000000E-01  8.00000000E-01  1.50000000E+00  8.00000000E-01
  8.00000000E-01  1.50000000E+00  8.00000000E-01  8.00000000E-01  1.50000000E+00
  8.00000000E-01  8.00000000E-01  1.50000000E+00  8.00000000E-01  8.00000000E-01
  1.50000000E+00  8.00000000E-01  8.00000000E-01  1.50000000E+00  8.00000000E-01
  8.00000000E-01  1.50000000E+00  8.00000000E-01  8.00000000E-01  1.50000000E+00
  8.00000000E-01  8.00000000E-01  1.50000000E+00  8.00000000E-01  8.00000000E-01
  1.50000000E+00  8.00000000E-01  8.00000000E-01  1.50000000E+00  8.00000000E-01
  8.00000000E-01  1.50000000E+00  8.00000000E-01  8.00000000E-01  1.50000000E+00
  8.00000000E-01  8.00000000E-01  1.50000000E+00  8.00000000E-01  8.00000000E-01
  1.50000000E+00  8.00000000E-01  8.00000000E-01  1.50000000E+00  8.00000000E-01
  8.00000000E-01  1.50000000E+00  8.00000000E-01  8.00000000E-01  1.50000000E+00
  8.00000000E-01  8.00000000E-01  1.50000000E+00  8.00000000E-01  8.00000000E-01
  1.50000000E+00  8.00000000E-01  8.00000000E-01  1.50000000E+00  8.00000000E-01
  8.00000000E-01  1.50000000E+00  8.00000000E-01  8.00000000E-01  1.50000000E+00
  8.00000000E-01  8.00000000E-01  1.50000000E+00  8.00000000E-01  8.00000000E-01
  1.50000000E+00  8.00000000E-01  8.00000000E-01  1.50000000E+00  8.00000000E-01
  8.00000000E-01  1.50000000E+00  8.00000000E-01  8.00000000E-01  1.50000000E+00
  8.00000000E-01  8.00000000E-01  1.50000000E+00  8.00000000E-01  8.00000000E-01
  1.50000000E+00  8.00000000E-01  8.00000000E-01  1.50000000E+00  8.00000000E-01
  8.00000000E-01  1.50000000E+00  8.00000000E-01  8.00000000E-01  1.50000000E+00
  8.00000000E-01  8.00000000E-01  1.50000000E+00  8.00000000E-01  8.00000000E-01
  1.50000000E+00  8.00000000E-01  8.00000000E-01  1.50000000E+00  8.00000000E-01
  8.00000000E-01  1.50000000E+00  8.00000000E-01  8.00000000E-01  1.50000000E+00
  8.00000000E-01  8.00000000E-01  1.50000000E+00  8.00000000E-01  8.00000000E-01
  1.50000000E+00  8.00000000E-01  8.00000000E-01  1.50000000E+00  8.00000000E-01
  8.00000000E-01  1.50000000E+00  8.00000000E-01  8.00000000E-01  1.50000000E+00
  8.00000000E-01  8.00000000E-01  1.50000000E+00  8.00000000E-01  8.00000000E-01
  1.50000000E+00  8.00000000E-01  8.00000000E-01  1.50000000E+00  8.00000000E-01
  8.00000000E-01  1.50000000E+00  8.00000000E-01  8.00000000E-01  1.50000000E+00
  8.00000000E-01  8.00000000E-01  1.50000000E+00  8.00000000E-01  8.00000000E-01
  1.50000000E+00  8.00000000E-01  8.00000000E-01  1.50000000E+00  8.00000000E-01
  8.00000000E-01  1.50000000E+00  8.00000000E-01  8.00000000E-01  1.50000000E+00
  8.00000000E-01  8.00000000E-01  1.50000000E+00  8.00000000E-01  8.00000000E-01
  1.50000000E+00  8.00000000E-01  8.00000000E-01  1.50000000E+00  8.00000000E-01
  8.00000000E-01  1.50000000E+00  8.00000000E-01  8.00000000E-01  1.50000000E+00
  8.00000000E-01  8.00000000E-01  1.50000000E+00  8.00000000E-01  8.00000000E-01
  1.50000000E+00  8.00000000E-01  8.00000000E-01  1.50000000E+00  8.00000000E-01
  8.00000000E-01  1.50000000E+00  8.00000000E-01  8.00000000E-01  1.50000000E+00
  8.00000000E-01  8.00000000E-01  1.50000000E+00  8.00000000E-01  8.00000000E-01
  1.50000000E+00  8.00000000E-01  8.00000000E-01  1.50000000E+00  8.00000000E-01
  8.00000000E-01  1.50000000E+00  8.00000000E-01  8.00000000E-01  1.50000000E+00
  8.00000000E-01  8.00000000E-01  1.50000000E+00  8.00000000E-01  8.00000000E-01
  1.50000000E+00  8.00000000E-01  8.00000000E-01  1.50000000E+00  8.00000000E-01
  8.00000000E-01  1.50000000E+00  8.00000000E-01  8.00000000E-01  1.50000000E+00
  8.00000000E-01  8.00000000E-01  1.50000000E+00  8.00000000E-01  8.00000000E-01
  1.50000000E+00  8.00000000E-01  8.00000000E-01  1.50000000E+00  8.00000000E-01
  8.00000000E-01  1.50000000E+00  8.00000000E-01  8.00000000E-01  1.50000000E+00
  8.00000000E-01  8.00000000E-01  1.50000000E+00  8.00000000E-01  8.00000000E-01
  1.50000000E+00  8.00000000E-01  8.00000000E-01  1.50000000E+00  8.00000000E-01
  8.00000000E-01  1.50000000E+00  8.00000000E-01  8.00000000E-01  1.50000000E+00
  8.00000000E-01  8.00000000E-01  1.50000000E+00  8.00000000E-01  8.00000000E-01
  1.50000000E+00  8.00000000E-01  8.00000000E-01  1.50000000E+00  8.00000000E-01
  8.00000000E-01  1.50000000E+00  8.00000000E-01  8.00000000E-01  1.50000000E+00
  8.00000000E-01  8.00000000E-01  1.50000000E+00  8.00000000E-01  8.00000000E-01
  1.50000000E+00  8.00000000E-01  8.00000000E-01  1.50000000E+00  8.00000000E-01
  8.00000000E-01  1.50000000E+00  8.00000000E-01  8.00000000E-01  1.50000000E+00
  8.00000000E-01  8.00000000E-01  1.50000000E+00  8.00000000E-01  8.00000000E-01
  1.50000000E+00  8.00000000E-01  8.00000000E-01  1.50000000E+00  8.00000000E-01
  8.00000000E-01  1.50000000E+00  8.00000000E-01  8.00000000E-01  1.50000000E+00
  8.00000000E-01  8.00000000E-01  1.50000000E+00  8.00000000E-01  8.00000000E-01
  1.50000000E+00  8.00000000E-01  8.00000000E-01  1.50000000E+00  8.00000000E-01
  8.00000000E-01  1.50000000E+00  8.00000000E-01  8.00000000E-01  1.50000000E+00
  8.00000000E-01  8.00000000E-01  1.50000000E+00  8.00000000E-01  8.00000000E-01
  1.50000000E+00  8.00000000E-01  8.00000000E-01  1.50000000E+00  8.00000000E-01
  8.00000000E-01  1.50000000E+00  8.00000000E-01  8.00000000E-01  1.50000000E+00
  8.00000000E-01  8.00000000E-01  1.50000000E+00  8.00000000E-01  8.00000000E-01
  1.50000000E+00  8.00000000E-01  8.00000000E-01  1.50000000E+00  8.00000000E-01
  8.00000000E-01  1.50000000E+00  8.00000000E-01  8.00000000E-01  1.50000000E+00
  8.00000000E-01  8.00000000E-01  1.50000000E+00  8.00000000E-01  8.00000000E-01
  1.50000000E+00  8.00000000E-01  8.00000000E-01  1.50000000E+00  8.00000000E-01
  8.00000000E-01  1.50000000E+00  8.00000000E-01  8.00000000E-01  1.50000000E+00
  8.00000000E-01  8.00000000E-01  1.50000000E+00  8.00000000E-01  8.00000000E-01
  1.50000000E+00  8.00000000E-01  8.00000000E-01  1.50000000E+00  8.00000000E-01
  8.00000000E-01  1.50000000E+00  8.00000000E-01  8.00000000E-01  1.50000000E+00
  8.00000000E-01  8.00000000E-01  1.50000000E+00  8.00000000E-01  8.00000000E-01
  1.50000000E+00  8.00000000E-01  8.00000000E-01  1.50000000E+00  8.00000000E-01
  8.00000000E-01  1.50000000E+00  8.00000000E-01  8.00000000E-01  1.50000000E+00
  8.00000000E-01  8.00000000E-01  1.50000000E+00  8.00000000E-01  8.00000000E-01
  1.50000000E+00  8.00000000E-01  8.00000000E-01  1.50000000E+00  8.00000000E-01
  8.00000000E-01  1.50000000E+00  8.00000000E-01  8.00000000E-01  1.50000000E+00
  8.00000000E-01  8.00000000E-01  1.50000000E+00  8.00000000E-01  8.00000000E-01
  1.50000000E+00  8.00000000E-01  8.00000000E-01  1.50000000E+00  8.00000000E-01
  8.00000000E-01  1.50000000E+00  8.00000000E-01  8.00000000E-01  1.50000000E+00
  8.00000000E-01  8.00000000E-01  1.50000000E+00  8.00000000E-01  8.00000000E-01
  1.50000000E+00  8.00000000E-01  8.00000000E-01  1.50000000E+00  8.00000000E-01
  8.00000000E-01  1.50000000E+00  8.00000000E-01  8.00000000E-01  1.50000000E+00
  8.00000000E-01  8.00000000E-01  1.50000000E+00  8.00000000E-01  8.00000000E-01
  1.50000000E+00  8.00000000E-01  8.00000000E-01  1.50000000E+00  8.00000000E-01
  8.00000000E-01  1.50000000E+00  8.00000000E-01  8.00000000E-01  1.50000000E+00
  8.00000000E-01  8.00000000E-01  1.50000000E+00  8.00000000E-01  8.00000000E-01
  1.50000000E+00  8.00000000E-01  8.00000000E-01  1.50000000E+00  8.00000000E-01
  8.00000000E-01  1.50000000E+00  8.00000000E-01  8.00000000E-01  1.50000000E+00
  8.00000000E-01  8.00000000E-01  1.50000000E+00  8.00000000E-01  8.00000000E-01
  1.50000000E+00  8.00000000E-01  8.00000000E-01  1.50000000E+00  8.00000000E-01
  8.00000000E-01  1.50000000E+00  8.00000000E-01  8.00000000E-01  1.50000000E+00
  8.00000000E-01  8.00000000E-01  1.50000000E+00  8.00000000E-01  8.00000000E-01
  1.50000000E+00  8.00000000E-01  8.00000000E-01  1.50000000E+00  8.00000000E-01
  8.00000000E-01  1.50000000E+00  8.00000000E-01  8.00000000E-01  1.50000000E+00
  8.00000000E-01  8.00000000E-01  1.50000000E+00  8.00000000E-01  8.00000000E-01
  1.50000000E+00  8.00000000E-01  8.00000000E-01  1.50000000E+00  8.00000000E-01
  8.00000000E-01  1.50000000E+00  8.00000000E-01  8.00000000E-01  1.50000000E+00
  8.00000000E-01  8.00000000E-01  1.50000000E+00  8.00000000E-01  8.00000000E-01
  1.50000000E+00  8.00000000E-01  8.00000000E-01  1.50000000E+00  8.00000000E-01
  8.00000000E-01  1.50000000E+00  8.00000000E-01  8.00000000E-01  1.50000000E+00
  8.00000000E-01  8.00000000E-01  1.50000000E+00  8.00000000E-01  8.00000000E-01
  1.50000000E+00  8.00000000E-01  8.00000000E-01  1.50000000E+00  8.00000000E-01
  8.00000000E-01  1.50000000E+00  8.00000000E-01  8.00000000E-01  1.50000000E+00
  8.00000000E-01  8.00000000E-01  1.50000000E+00  8.00000000E-01  8.00000000E-01
  1.50000000E+00  8.00000000E-01  8.00000000E-01  1.50000000E+00  8.00000000E-01
  8.00000000E-01  1.50000000E+00  8.00000000E-01  8.00000000E-01  1.50000000E+00
  8.00000000E-01  8.00000000E-01  1.50000000E+00  8.00000000E-01  8.00000000E-01
  1.50000000E+00  8.00000000E-01  8.00000000E-01  1.50000000E+00  8.00000000E-01
  8.00000000E-01  1.50000000E+00  8.00000000E-01  8.00000000E-01  1.50000000E+00
  8.00000000E-01  8.00000000E-01  1.50000000E+00  8.00000000E-01  8.00000000E-01
  1.50000000E+00  8.00000000E-01  8.00000000E-01  1.50000000E+00  8.00000000E-01
  8.00000000E-01  1.50000000E+00  8.00000000E-01  8.00000000E-01  1.50000000E+00
  8.00000000E-01  8.00000000E-01  1.50000000E+00  8.00000000E-01  8.00000000E-01
  1.50000000E+00  8.00000000E-01  8.00000000E-01  1.50000000E+00  8.00000000E-01
  8.00000000E-01  1.50000000E+00  8.00000000E-01  8.00000000E-01  1.50000000E+00
  8.00000000E-01  8.00000000E-01  1.50000000E+00  8.00000000E-01  8.00000000E-01
  1.50000000E+00  8.00000000E-01  8.00000000E-01  1.50000000E+00  8.00000000E-01
  8.00000000E-01  1.50000000E+00  8.00000000E-01  8.00000000E-01  1.50000000E+00
  8.00000000E-01  8.00000000E-01  1.50000000E+00  8.00000000E-01  8.00000000E-01
  1.50000000E+00  8.00000000E-01  8.00000000E-01  1.50000000E+00  8.00000000E-01
  8.00000000E-01  1.50000000E+00  8.00000000E-01  8.00000000E-01  1.50000000E+00
  8.00000000E-01  8.00000000E-01  1.50000000E+00  8.00000000E-01  8.00000000E-01
  1.50000000E+00  8.00000000E-01  8.00000000E-01  1.50000000E+00  8.00000000E-01
  8.00000000E-01  1.50000000E+00  8.00000000E-01  8.00000000E-01  1.50000000E+00
  8.00000000E-01  8.00000000E-01  1.50000000E+00  8.00000000E-01  8.00000000E-01
  1.50000000E+00  8.00000000E-01  8.00000000E-01  1.50000000E+00  8.00000000E-01
  8.00000000E-01  1.50000000E+00  8.00000000E-01  8.00000000E-01  1.50000000E+00
  8.00000000E-01  8.00000000E-01  1.50000000E+00  8.00000000E-01  8.00000000E-01
  1.50000000E+00  8.00000000E-01  8.00000000E-01  1.50000000E+00  8.00000000E-01
  8.00000000E-01  1.50000000E+00  8.00000000E-01  8.00000000E-01  1.50000000E+00
  8.00000000E-01  8.00000000E-01  1.50000000E+00  8.00000000E-01  8.00000000E-01
  1.50000000E+00  8.00000000E-01  8.00000000E-01  1.50000000E+00  8.00000000E-01
  8.00000000E-01  1.50000000E+00  8.00000000E-01  8.00000000E-01  1.50000000E+00
  8.00000000E-01  8.00000000E-01  1.50000000E+00  8.00000000E-01  8.00000000E-01
  1.50000000E+00  8.00000000E-01  8.00000000E-01  1.50000000E+00  8.00000000E-01
  8.00000000E-01  1.50000000E+00  8.00000000E-01  8.00000000E-01  1.50000000E+00
  8.00000000E-01  8.00000000E-01  1.50000000E+00  8.00000000E-01  8.00000000E-01
  1.50000000E+00  8.00000000E-01  8.00000000E-01  1.50000000E+00  8.00000000E-01
  8.00000000E-01  1.50000000E+00  8.00000000E-01  8.00000000E-01  1.50000000E+00
  8.00000000E-01  8.00000000E-01  1.50000000E+00  8.00000000E-01  8.00000000E-01
  1.50000000E+00  8.00000000E-01  8.00000000E-01  1.50000000E+00  8.00000000E-01
  8.00000000E-01  1.50000000E+00  8.00000000E-01  8.00000000E-01  1.50000000E+00
  8.00000000E-01  8.00000000E-01  1.50000000E+00  8.00000000E-01  8.00000000E-01
  1.50000000E+00  8.00000000E-01  8.00000000E-01  1.50000000E+00  8.00000000E-01
  8.00000000E-01  1.50000000E+00  8.00000000E-01  8.00000000E-01  1.50000000E+00
  8.00000000E-01  8.00000000E-01  1.50000000E+00  8.00000000E-01  8.00000000E-01
  1.50000000E+00  8.00000000E-01  8.00000000E-01  1.50000000E+00  8.00000000E-01
  8.00000000E-01  1.50000000E+00  8.00000000E-01  8.00000000E-01  1.50000000E+00
  8.00000000E-01  8.00000000E-01  1.50000000E+00  8.00000000E-01  8.00000000E-01
  1.50000000E+00  8.00000000E-01  8.00000000E-01  1.50000000E+00  8.00000000E-01
  8.00000000E-01  1.50000000E+00  8.00000000E-01  8.00000000E-01  1.50000000E+00
  8.00000000E-01  8.00000000E-01  1.50000000E+00  8.00000000E-01  8.00000000E-01
  1.50000000E+00  8.00000000E-01  8.00000000E-01  1.50000000E+00  8.00000000E-01
  8.00000000E-01  1.50000000E+00  8.00000000E-01  8.00000000E-01  1.50000000E+00
  8.00000000E-01  8.00000000E-01  1.50000000E+00  8.00000000E-01  8.00000000E-01
  1.50000000E+00  8.00000000E-01  8.00000000E-01  1.50000000E+00  8.00000000E-01
  8.00000000E-01  1.50000000E+00  8.00000000E-01  8.00000000E-01  1.50000000E+00
  8.00000000E-01  8.00000000E-01  1.50000000E+00  8.00000000E-01  8.00000000E-01
  1.50000000E+00  8.00000000E-01  8.00000000E-01  1.50000000E+00  8.00000000E-01
  8.00000000E-01  1.50000000E+00  8.00000000E-01  8.00000000E-01  1.50000000E+00
  8.00000000E-01  8.00000000E-01  1.50000000E+00  8.00000000E-01  8.00000000E-01
  1.50000000E+00  8.00000000E-01  8.00000000E-01  1.50000000E+00  8.00000000E-01
  8.00000000E-01  1.50000000E+00  8.00000000E-01  8.00000000E-01  1.50000000E+00
  8.00000000E-01  8.00000000E-01  1.50000000E+00  8.00000000E-01  8.00000000E-01
  1.50000000E+00  8.00000000E-01  8.00000000E-01  1.50000000E+00  8.00000000E-01
  8.00000000E-01  1.50000000E+00  8.00000000E-01  8.00000000E-01  1.50000000E+00
  8.00000000E-01  8.00000000E-01  1.50000000E+00  8.00000000E-01  8.00000000E-01
  1.50000000E+00  8.00000000E-01  8.00000000E-01  1.50000000E+00  8.00000000E-01
  8.00000000E-01  1.50000000E+00  8.00000000E-01  8.00000000E-01  1.50000000E+00
  8.00000000E-01  8.00000000E-01  1.50000000E+00  8.00000000E-01  8.00000000E-01
  1.50000000E+00  8.00000000E-01  8.00000000E-01  1.50000000E+00  8.00000000E-01
  8.00000000E-01  1.50000000E+00  8.00000000E-01  8.00000000E-01  1.50000000E+00
  8.00000000E-01  8.00000000E-01  1.50000000E+00  8.00000000E-01  8.00000000E-01
  1.50000000E+00  8.00000000E-01  8.00000000E-01  1.50000000E+00  8.00000000E-01
  8.00000000E-01  1.50000000E+00  8.00000000E-01  8.00000000E-01  1.50000000E+00
  8.00000000E-01  8.00000000E-01  1.50000000E+00  8.00000000E-01  8.00000000E-01
  1.50000000E+00  8.00000000E-01  8.00000000E-01  1.50000000E+00  8.00000000E-01
  8.00000000E-01  1.50000000E+00  8.00000000E-01  8.00000000E-01  1.50000000E+00
  8.00000000E-01  8.00000000E-01  1.50000000E+00  8.00000000E-01  8.00000000E-01
  1.50000000E+00  8.00000000E-01  8.00000000E-01  1.50000000E+00  8.00000000E-01
  8.00000000E-01  1.50000000E+00  8.00000000E-01  8.00000000E-01  1.50000000E+00
  8.00000000E-01  8.00000000E-01  1.50000000E+00  8.00000000E-01  8.00000000E-01
  1.50000000E+00  8.00000000E-01  8.00000000E-01  1.50000000E+00  8.00000000E-01
  8.00000000E-01  1.50000000E+00  8.00000000E-01  8.00000000E-01  1.50000000E+00
  8.00000000E-01  8.00000000E-01  1.50000000E+00  8.00000000E-01  8.00000000E-01
  1.50000000E+00  8.00000000E-01  8.00000000E-01  1.50000000E+00  8.00000000E-01
  8.00000000E-01  1.50000000E+00  8.00000000E-01  8.00000000E-01  1.50000000E+00
  8.00000000E-01  8.00000000E-01  1.50000000E+00  8.00000000E-01  8.00000000E-01
  1.50000000E+00  8.00000000E-01  8.00000000E-01  1.50000000E+00  8.00000000E-01
  8.00000000E-01  1.50000000E+00  8.00000000E-01  8.00000000E-01  1.50000000E+00
  8.00000000E-01  8.00000000E-01  1.50000000E+00  8.00000000E-01  8.00000000E-01
  1.50000000E+00  8.00000000E-01  8.00000000E-01  1.50000000E+00  8.00000000E-01
  8.00000000E-01  1.50000000E+00  8.00000000E-01  8.00000000E-01  1.50000000E+00
  8.00000000E-01  8.00000000E-01  1.50000000E+00  8.00000000E-01  8.00000000E-01
  1.50000000E+00  8.00000000E-01  8.00000000E-01  1.50000000E+00  8.00000000E-01
  8.00000000E-01  1.50000000E+00  8.00000000E-01  8.00000000E-01  1.50000000E+00
  8.00000000E-01  8.00000000E-01  1.50000000E+00  8.00000000E-01  8.00000000E-01
  1.50000000E+00  8.00000000E-01  8.00000000E-01  1.50000000E+00  8.00000000E-01
  8.00000000E-01  1.50000000E+00  8.00000000E-01  8.00000000E-01  1.50000000E+00
  8.00000000E-01  8.00000000E-01  1.50000000E+00  8.00000000E-01  8.00000000E-01
  1.50000000E+00  8.00000000E-01  8.00000000E-01  1.50000000E+00  8.00000000E-01
  8.00000000E-01  1.50000000E+00  8.00000000E-01  8.00000000E-01  1.50000000E+00
  8.00000000E-01  8.00000000E-01  1.50000000E+00  8.00000000E-01  8.00000000E-01
  1.50000000E+00  8.00000000E-01  8.00000000E-01  1.50000000E+00  8.00000000E-01
  8.00000000E-01  1.50000000E+00  8.00000000E-01  8.00000000E-01  1.50000000E+00
  8.00000000E-01  8.00000000E-01  1.50000000E+00  8.00000000E-01  8.00000000E-01
  1.50000000E+00  8.00000000E-01  8.00000000E-01  1.50000000E+00  8.00000000E-01
  8.00000000E-01  1.50000000E+00  8.00000000E-01  8.00000000E-01  1.50000000E+00
  8.00000000E-01  8.00000000E-01  1.50000000E+00  8.00000000E-01  8.00000000E-01
  1.50000000E+00  8.00000000E-01  8.00000000E-01  1.50000000E+00  8.00000000E-01
  8.00000000E-01  1.50000000E+00  8.00000000E-01  8.00000000E-01  1.50000000E+00
  8.00000000E-01  8.00000000E-01  1.50000000E+00  8.00000000E-01  8.00000000E-01
  1.50000000E+00  8.00000000E-01  8.00000000E-01  1.50000000E+00  8.00000000E-01
  8.00000000E-01  1.50000000E+00  8.00000000E-01  8.00000000E-01  1.50000000E+00
  8.00000000E-01  8.00000000E-01  1.50000000E+00  8.00000000E-01  8.00000000E-01
  1.50000000E+00  8.00000000E-01  8.00000000E-01  1.50000000E+00  8.00000000E-01
  8.00000000E-01  1.50000000E+00  8.00000000E-01  8.00000000E-01  1.50000000E+00
  8.00000000E-01  8.00000000E-01  1.50000000E+00  8.00000000E-01  8.00000000E-01
  1.50000000E+00  8.00000000E-01  8.00000000E-01  1.50000000E+00  8.00000000E-01
  8.00000000E-01  1.50000000E+00  8.00000000E-01  8.00000000E-01  1.50000000E+00
  8.00000000E-01  8.00000000E-01  1.50000000E+00  8.00000000E-01  8.00000000E-01
  1.50000000E+00  8.00000000E-01  8.00000000E-01  1.50000000E+00  8.00000000E-01
  8.00000000E-01  1.50000000E+00  8.00000000E-01  8.00000000E-01  1.50000000E+00
  8.00000000E-01  8.00000000E-01  1.50000000E+00  8.00000000E-01  8.00000000E-01
  1.50000000E+00  8.00000000E-01  8.00000000E-01  1.50000000E+00  8.00000000E-01
  8.00000000E-01  1.50000000E+00  8.00000000E-01  8.00000000E-01  1.50000000E+00
  8.00000000E-01  8.00000000E-01  1.50000000E+00  8.00000000E-01  8.00000000E-01
  1.50000000E+00  8.00000000E-01  8.00000000E-01  1.50000000E+00  8.00000000E-01
  8.00000000E-01  1.50000000E+00  8.00000000E-01  8.00000000E-01  1.50000000E+00
  8.00000000E-01  8.00000000E-01  1.50000000E+00  8.00000000E-01  8.00000000E-01
  1.50000000E+00  8.00000000E-01  8.00000000E-01  1.50000000E+00  8.00000000E-01
  8.00000000E-01  1.50000000E+00  8.00000000E-01  8.00000000E-01  1.50000000E+00
  8.00000000E-01  8.00000000E-01  1.50000000E+00  8.00000000E-01  8.00000000E-01
  1.50000000E+00  8.00000000E-01  8.00000000E-01  1.50000000E+00  8.00000000E-01
  8.00000000E-01  1.50000000E+00  8.00000000E-01  8.00000000E-01  1.50000000E+00
  8.00000000E-01  8.00000000E-01  1.50000000E+00  8.00000000E-01  8.00000000E-01
  1.50000000E+00  8.00000000E-01  8.00000000E-01  1.50000000E+00  8.00000000E-01
  8.00000000E-01  1.50000000E+00  8.00000000E-01  8.00000000E-01  1.50000000E+00
  8.00000000E-01  8.00000000E-01  1.50000000E+00  8.00000000E-01  8.00000000E-01
  1.50000000E+00  8.00000000E-01  8.00000000E-01  1.50000000E+00  8.00000000E-01
  8.00000000E-01  1.50000000E+00  8.00000000E-01  8.00000000E-01  1.50000000E+00
  8.00000000E-01  8.00000000E-01  1.50000000E+00  8.00000000E-01  8.00000000E-01
  1.50000000E+00  8.00000000E-01  8.00000000E-01  1.50000000E+00  8.00000000E-01
  8.00000000E-01  1.50000000E+00  8.00000000E-01  8.00000000E-01  1.50000000E+00
  8.00000000E-01  8.00000000E-01  1.50000000E+00  8.00000000E-01  8.00000000E-01
  1.50000000E+00  8.00000000E-01  8.00000000E-01  1.50000000E+00  8.00000000E-01
  8.00000000E-01  1.50000000E+00  8.00000000E-01  8.00000000E-01  1.50000000E+00
  8.00000000E-01  8.00000000E-01  1.50000000E+00  8.00000000E-01  8.00000000E-01
  1.50000000E+00  8.00000000E-01  8.00000000E-01  1.50000000E+00  8.00000000E-01
  8.00000000E-01  1.50000000E+00  8.00000000E-01  8.00000000E-01  1.50000000E+00
  8.00000000E-01  8.00000000E-01  1.50000000E+00  8.00000000E-01  8.00000000E-01
  1.50000000E+00  8.00000000E-01  8.00000000E-01  1.50000000E+00  8.00000000E-01
  8.00000000E-01  1.50000000E+00  8.00000000E-01  8.00000000E-01  1.50000000E+00
  8.00000000E-01  8.00000000E-01  1.50000000E+00  8.00000000E-01  8.00000000E-01
  1.50000000E+00  8.00000000E-01  8.00000000E-01  1.50000000E+00  8.00000000E-01
  8.00000000E-01  1.50000000E+00  8.00000000E-01  8.00000000E-01  1.50000000E+00
  8.00000000E-01  8.00000000E-01  1.50000000E+00  8.00000000E-01  8.00000000E-01
  1.50000000E+00  8.00000000E-01  8.00000000E-01  1.50000000E+00  8.00000000E-01
  8.00000000E-01  1.50000000E+00  8.00000000E-01  8.00000000E-01  1.50000000E+00
  8.00000000E-01  8.00000000E-01  1.50000000E+00  8.00000000E-01  8.00000000E-01
  1.50000000E+00  8.00000000E-01  8.00000000E-01  1.50000000E+00  8.00000000E-01
  8.00000000E-01  1.50000000E+00  8.00000000E-01  8.00000000E-01  1.50000000E+00
  8.00000000E-01  8.00000000E-01  1.50000000E+00  8.00000000E-01  8.00000000E-01
  1.50000000E+00  8.00000000E-01  8.00000000E-01  1.50000000E+00  8.00000000E-01
  8.00000000E-01  1.50000000E+00  8.00000000E-01  8.00000000E-01  1.50000000E+00
  8.00000000E-01  8.00000000E-01  1.50000000E+00  8.00000000E-01  8.00000000E-01
  1.50000000E+00  8.00000000E-01  8.00000000E-01  1.50000000E+00  8.00000000E-01
  8.00000000E-01  1.50000000E+00  8.00000000E-01  8.00000000E-01  1.50000000E+00
  8.00000000E-01  8.00000000E-01  1.50000000E+00  8.00000000E-01  8.00000000E-01
  1.50000000E+00  8.00000000E-01  8.00000000E-01  1.50000000E+00  8.00000000E-01
  8.00000000E-01  1.50000000E+00  8.00000000E-01  8.00000000E-01  1.50000000E+00
  8.00000000E-01  8.00000000E-01  1.50000000E+00  8.00000000E-01  8.00000000E-01
  1.50000000E+00  8.00000000E-01  8.00000000E-01  1.50000000E+00  8.00000000E-01
  8.00000000E-01  1.50000000E+00  8.00000000E-01  8.00000000E-01  1.50000000E+00
  8.00000000E-01  8.00000000E-01  1.50000000E+00  8.00000000E-01  8.00000000E-01
  1.50000000E+00  8.00000000E-01  8.00000000E-01  1.50000000E+00  8.00000000E-01
  8.00000000E-01  1.50000000E+00  8.00000000E-01  8.00000000E-01  1.50000000E+00
  8.00000000E-01  8.00000000E-01  1.50000000E+00  8.00000000E-01  8.00000000E-01
  1.50000000E+00  8.00000000E-01  8.00000000E-01  1.50000000E+00  8.00000000E-01
  8.00000000E-01  1.50000000E+00  8.00000000E-01  8.00000000E-01  1.50000000E+00
  8.00000000E-01  8.00000000E-01  1.50000000E+00  8.00000000E-01  8.00000000E-01
  1.50000000E+00  8.00000000E-01  8.00000000E-01  1.50000000E+00  8.00000000E-01
  8.00000000E-01  1.50000000E+00  8.00000000E-01  8.00000000E-01  1.50000000E+00
  8.00000000E-01  8.00000000E-01  1.50000000E+00  8.00000000E-01  8.00000000E-01
  1.50000000E+00  8.00000000E-01  8.00000000E-01  1.50000000E+00  8.00000000E-01
  8.00000000E-01  1.50000000E+00  8.00000000E-01  8.00000000E-01  1.50000000E+00
  8.00000000E-01  8.00000000E-01  1.50000000E+00  8.00000000E-01  8.00000000E-01
  1.50000000E+00  8.00000000E-01  8.00000000E-01  1.50000000E+00  8.00000000E-01
  8.00000000E-01  1.50000000E+00  8.00000000E-01  8.00000000E-01  1.50000000E+00
  8.00000000E-01  8.00000000E-01  1.50000000E+00  8.00000000E-01  8.00000000E-01
  1.50000000E+00  8.00000000E-01  8.00000000E-01  1.50000000E+00  8.00000000E-01
  8.00000000E-01  1.50000000E+00  8.00000000E-01  8.00000000E-01  1.50000000E+00
  8.00000000E-01  8.00000000E-01  1.50000000E+00  8.00000000E-01  8.00000000E-01
  1.50000000E+00  8.00000000E-01  8.00000000E-01  1.50000000E+00  8.00000000E-01
  8.00000000E-01  1.50000000E+00  8.00000000E-01  8.00000000E-01  1.50000000E+00
  8.00000000E-01  8.00000000E-01  1.50000000E+00  8.00000000E-01  8.00000000E-01
  1.50000000E+00  8.00000000E-01  8.00000000E-01  1.50000000E+00  8.00000000E-01
  8.00000000E-01  1.50000000E+00  8.00000000E-01  8.00000000E-01  1.50000000E+00
  8.00000000E-01  8.00000000E-01  1.50000000E+00  8.00000000E-01  8.00000000E-01
  1.50000000E+00  8.00000000E-01  8.00000000E-01  1.50000000E+00  8.00000000E-01
  8.00000000E-01  1.50000000E+00  8.00000000E-01  8.00000000E-01  1.50000000E+00
  8.00000000E-01  8.00000000E-01  1.50000000E+00  8.00000000E-01  8.00000000E-01
  1.50000000E+00  8.00000000E-01  8.00000000E-01  1.50000000E+00  8.00000000E-01
  8.00000000E-01  1.50000000E+00  8.00000000E-01  8.00000000E-01  1.50000000E+00
  8.00000000E-01  8.00000000E-01  1.50000000E+00  8.00000000E-01  8.00000000E-01
  1.50000000E+00  8.00000000E-01  8.00000000E-01  1.50000000E+00  8.00000000E-01
  8.00000000E-01  1.50000000E+00  8.00000000E-01  8.00000000E-01  1.50000000E+00
  8.00000000E-01  8.00000000E-01  1.50000000E+00  8.00000000E-01  8.00000000E-01
  1.50000000E+00  8.00000000E-01  8.00000000E-01  1.50000000E+00  8.00000000E-01
  8.00000000E-01  1.50000000E+00  8.00000000E-01  8.00000000E-01  1.50000000E+00
  8.00000000E-01  8.00000000E-01  1.50000000E+00  8.00000000E-01  8.00000000E-01
  1.50000000E+00  8.00000000E-01  8.00000000E-01  1.50000000E+00  8.00000000E-01
  8.00000000E-01  1.50000000E+00  8.00000000E-01  8.00000000E-01  1.50000000E+00
  8.00000000E-01  8.00000000E-01  1.50000000E+00  8.00000000E-01  8.00000000E-01
  1.50000000E+00  8.00000000E-01  8.00000000E-01  1.50000000E+00  8.00000000E-01
  8.00000000E-01  1.50000000E+00  8.00000000E-01  8.00000000E-01  1.50000000E+00
  8.00000000E-01  8.00000000E-01  1.50000000E+00  8.00000000E-01  8.00000000E-01
  1.50000000E+00  8.00000000E-01  8.00000000E-01  1.50000000E+00  8.00000000E-01
  8.00000000E-01  1.50000000E+00  8.00000000E-01  8.00000000E-01  1.50000000E+00
  8.00000000E-01  8.00000000E-01  1.50000000E+00  8.00000000E-01  8.00000000E-01
  1.50000000E+00  8.00000000E-01  8.00000000E-01  1.50000000E+00  8.00000000E-01
  8.00000000E-01  1.50000000E+00  8.00000000E-01  8.00000000E-01  1.50000000E+00
  8.00000000E-01  8.00000000E-01  1.50000000E+00  8.00000000E-01  8.00000000E-01
  1.50000000E+00  8.00000000E-01  8.00000000E-01  1.50000000E+00  8.00000000E-01
  8.00000000E-01  1.50000000E+00  8.00000000E-01  8.00000000E-01  1.50000000E+00
  8.00000000E-01  8.00000000E-01  1.50000000E+00  8.00000000E-01  8.00000000E-01
  1.50000000E+00  8.00000000E-01  8.00000000E-01  1.50000000E+00  8.00000000E-01
  8.00000000E-01  1.50000000E+00  8.00000000E-01  8.00000000E-01  1.50000000E+00
  8.00000000E-01  8.00000000E-01  1.50000000E+00  8.00000000E-01  8.00000000E-01
  1.50000000E+00  8.00000000E-01  8.00000000E-01  1.50000000E+00  8.00000000E-01
  8.00000000E-01  1.50000000E+00  8.00000000E-01  8.00000000E-01  1.50000000E+00
  8.00000000E-01  8.00000000E-01  1.50000000E+00  8.00000000E-01  8.00000000E-01
  1.50000000E+00  8.00000000E-01  8.00000000E-01  1.50000000E+00  8.00000000E-01
  8.00000000E-01  1.50000000E+00  8.00000000E-01  8.00000000E-01  1.50000000E+00
  8.00000000E-01  8.00000000E-01  1.50000000E+00  8.00000000E-01  8.00000000E-01
  1.50000000E+00  8.00000000E-01  8.00000000E-01  1.50000000E+00  8.00000000E-01
  8.00000000E-01  1.50000000E+00  8.00000000E-01  8.00000000E-01  1.50000000E+00
  8.00000000E-01  8.00000000E-01  1.50000000E+00  8.00000000E-01  8.00000000E-01
  1.50000000E+00  8.00000000E-01  8.00000000E-01  1.50000000E+00  8.00000000E-01
  8.00000000E-01  1.50000000E+00  8.00000000E-01  8.00000000E-01  1.50000000E+00
  8.00000000E-01  8.00000000E-01  1.50000000E+00  8.00000000E-01  8.00000000E-01
  1.50000000E+00  8.00000000E-01  8.00000000E-01  1.50000000E+00  8.00000000E-01
  8.00000000E-01  1.50000000E+00  8.00000000E-01  8.00000000E-01  1.50000000E+00
  8.00000000E-01  8.00000000E-01  1.50000000E+00  8.00000000E-01  8.00000000E-01
  1.50000000E+00  8.00000000E-01  8.00000000E-01  1.50000000E+00  8.00000000E-01
  8.00000000E-01  1.50000000E+00  8.00000000E-01  8.00000000E-01  1.50000000E+00
  8.00000000E-01  8.00000000E-01  1.50000000E+00  8.00000000E-01  8.00000000E-01
  1.50000000E+00  8.00000000E-01  8.00000000E-01  1.50000000E+00  8.00000000E-01
  8.00000000E-01  1.50000000E+00  8.00000000E-01  8.00000000E-01  1.50000000E+00
  8.00000000E-01  8.00000000E-01  1.50000000E+00  8.00000000E-01  8.00000000E-01
  1.50000000E+00  8.00000000E-01  8.00000000E-01  1.50000000E+00  8.00000000E-01
  8.00000000E-01  1.50000000E+00  8.00000000E-01  8.00000000E-01  1.50000000E+00
  8.00000000E-01  8.00000000E-01  1.50000000E+00  8.00000000E-01  8.00000000E-01
  1.50000000E+00  8.00000000E-01  8.00000000E-01  1.50000000E+00  8.00000000E-01
  8.00000000E-01  1.50000000E+00  8.00000000E-01  8.00000000E-01  1.50000000E+00
  8.00000000E-01  8.00000000E-01  1.50000000E+00  8.00000000E-01  8.00000000E-01
  1.50000000E+00  8.00000000E-01  8.00000000E-01  1.50000000E+00  8.00000000E-01
  8.00000000E-01  1.50000000E+00  8.00000000E-01  8.00000000E-01  1.50000000E+00
  8.00000000E-01  8.00000000E-01  1.50000000E+00  8.00000000E-01  8.00000000E-01
  1.50000000E+00  8.00000000E-01  8.00000000E-01  1.50000000E+00  8.00000000E-01
  8.00000000E-01  1.50000000E+00  8.00000000E-01  8.00000000E-01  1.50000000E+00
  8.00000000E-01  8.00000000E-01  1.50000000E+00  8.00000000E-01  8.00000000E-01
  1.50000000E+00  8.00000000E-01  8.00000000E-01  1.50000000E+00  8.00000000E-01
  8.00000000E-01  1.50000000E+00  8.00000000E-01  8.00000000E-01  1.50000000E+00
  8.00000000E-01  8.00000000E-01  1.50000000E+00  8.00000000E-01  8.00000000E-01
  1.50000000E+00  8.00000000E-01  8.00000000E-01  1.50000000E+00  8.00000000E-01
  8.00000000E-01  1.50000000E+00  8.00000000E-01  8.00000000E-01  1.50000000E+00
  8.00000000E-01  8.00000000E-01  1.50000000E+00  8.00000000E-01  8.00000000E-01
  1.50000000E+00  8.00000000E-01  8.00000000E-01  1.50000000E+00  8.00000000E-01
  8.00000000E-01  1.50000000E+00  8.00000000E-01  8.00000000E-01  1.50000000E+00
  8.00000000E-01  8.00000000E-01  1.50000000E+00  8.00000000E-01  8.00000000E-01
  1.50000000E+00  8.00000000E-01  8.00000000E-01  1.50000000E+00  8.00000000E-01
  8.00000000E-01  1.50000000E+00  8.00000000E-01  8.00000000E-01  1.50000000E+00
  8.00000000E-01  8.00000000E-01  1.50000000E+00  8.00000000E-01  8.00000000E-01
  1.50000000E+00  8.00000000E-01  8.00000000E-01  1.50000000E+00  8.00000000E-01
  8.00000000E-01  1.50000000E+00  8.00000000E-01  8.00000000E-01  1.50000000E+00
  8.00000000E-01  8.00000000E-01  1.50000000E+00  8.00000000E-01  8.00000000E-01
  1.50000000E+00  8.00000000E-01  8.00000000E-01  1.50000000E+00  8.00000000E-01
  8.00000000E-01  1.50000000E+00  8.00000000E-01  8.00000000E-01  1.50000000E+00
  8.00000000E-01  8.00000000E-01  1.50000000E+00  8.00000000E-01  8.00000000E-01
  1.50000000E+00  8.00000000E-01  8.00000000E-01  1.50000000E+00  8.00000000E-01
  8.00000000E-01  1.50000000E+00  8.00000000E-01  8.00000000E-01  1.50000000E+00
  8.00000000E-01  8.00000000E-01  1.50000000E+00  8.00000000E-01  8.00000000E-01
  1.50000000E+00  8.00000000E-01  8.00000000E-01  1.50000000E+00  8.00000000E-01
  8.00000000E-01  1.50000000E+00  8.00000000E-01  8.00000000E-01  1.50000000E+00
  8.00000000E-01  8.00000000E-01  1.50000000E+00  8.00000000E-01  8.00000000E-01
  1.50000000E+00  8.00000000E-01  8.00000000E-01  1.50000000E+00  8.00000000E-01
  8.00000000E-01  1.50000000E+00  8.00000000E-01  8.00000000E-01  1.50000000E+00
  8.00000000E-01  8.00000000E-01  1.50000000E+00  8.00000000E-01  8.00000000E-01
  1.50000000E+00  8.00000000E-01  8.00000000E-01  1.50000000E+00  8.00000000E-01
  8.00000000E-01  1.50000000E+00  8.00000000E-01  8.00000000E-01  1.50000000E+00
  8.00000000E-01  8.00000000E-01  1.50000000E+00  8.00000000E-01  8.00000000E-01
  1.50000000E+00  8.00000000E-01  8.00000000E-01  1.50000000E+00  8.00000000E-01
  8.00000000E-01  1.50000000E+00  8.00000000E-01  8.00000000E-01  1.50000000E+00
  8.00000000E-01  8.00000000E-01  1.50000000E+00  8.00000000E-01  8.00000000E-01
  1.50000000E+00  8.00000000E-01  8.00000000E-01  1.50000000E+00  8.00000000E-01
  8.00000000E-01  1.50000000E+00  8.00000000E-01  8.00000000E-01  1.50000000E+00
  8.00000000E-01  8.00000000E-01  1.50000000E+00  8.00000000E-01  8.00000000E-01
  1.50000000E+00  8.00000000E-01  8.00000000E-01  1.50000000E+00  8.00000000E-01
  8.00000000E-01  1.50000000E+00  8.00000000E-01  8.00000000E-01  1.50000000E+00
  8.00000000E-01  8.00000000E-01  1.50000000E+00  8.00000000E-01  8.00000000E-01
  1.50000000E+00  8.00000000E-01  8.00000000E-01  1.50000000E+00  8.00000000E-01
  8.00000000E-01  1.50000000E+00  8.00000000E-01  8.00000000E-01  1.50000000E+00
  8.00000000E-01  8.00000000E-01  1.50000000E+00  8.00000000E-01  8.00000000E-01
  1.50000000E+00  8.00000000E-01  8.00000000E-01  1.50000000E+00  8.00000000E-01
  8.00000000E-01  1.50000000E+00  8.00000000E-01  8.00000000E-01  1.50000000E+00
  8.00000000E-01  8.00000000E-01  1.50000000E+00  8.00000000E-01  8.00000000E-01
  1.50000000E+00  8.00000000E-01  8.00000000E-01  1.50000000E+00  8.00000000E-01
  8.00000000E-01  1.50000000E+00  8.00000000E-01  8.00000000E-01  1.50000000E+00
  8.00000000E-01  8.00000000E-01  1.50000000E+00  8.00000000E-01  8.00000000E-01
  1.50000000E+00  8.00000000E-01  8.00000000E-01  1.50000000E+00  8.00000000E-01
  8.00000000E-01  1.50000000E+00  8.00000000E-01  8.00000000E-01  1.50000000E+00
  8.00000000E-01  8.00000000E-01  1.50000000E+00  8.00000000E-01  8.00000000E-01
  1.50000000E+00  8.00000000E-01  8.00000000E-01  1.50000000E+00  8.00000000E-01
  8.00000000E-01  1.50000000E+00  8.00000000E-01  8.00000000E-01  1.50000000E+00
  8.00000000E-01  8.00000000E-01  1.50000000E+00  8.00000000E-01  8.00000000E-01
  1.50000000E+00  8.00000000E-01  8.00000000E-01  1.50000000E+00  8.00000000E-01
  8.00000000E-01  1.50000000E+00  8.00000000E-01  8.00000000E-01  1.50000000E+00
  8.00000000E-01  8.00000000E-01  1.50000000E+00  8.00000000E-01  8.00000000E-01
  1.50000000E+00  8.00000000E-01  8.00000000E-01  1.50000000E+00  8.00000000E-01
  8.00000000E-01  1.50000000E+00  8.00000000E-01  8.00000000E-01  1.50000000E+00
  8.00000000E-01  8.00000000E-01  1.50000000E+00  8.00000000E-01  8.00000000E-01
  1.50000000E+00  8.00000000E-01  8.00000000E-01  1.50000000E+00  8.00000000E-01
  8.00000000E-01  1.50000000E+00  8.00000000E-01  8.00000000E-01  1.50000000E+00
  8.00000000E-01  8.00000000E-01  1.50000000E+00  8.00000000E-01  8.00000000E-01
  1.50000000E+00  8.00000000E-01  8.00000000E-01  1.50000000E+00  8.00000000E-01
  8.00000000E-01  1.50000000E+00  8.00000000E-01  8.00000000E-01  1.50000000E+00
  8.00000000E-01  8.00000000E-01  1.50000000E+00  8.00000000E-01  8.00000000E-01
  1.50000000E+00  8.00000000E-01  8.00000000E-01  1.50000000E+00  8.00000000E-01
  8.00000000E-01  1.50000000E+00  8.00000000E-01  8.00000000E-01  1.50000000E+00
  8.00000000E-01  8.00000000E-01  1.50000000E+00  8.00000000E-01  8.00000000E-01
  1.50000000E+00  8.00000000E-01  8.00000000E-01  1.50000000E+00  8.00000000E-01
  8.00000000E-01  1.50000000E+00  8.00000000E-01  8.00000000E-01  1.50000000E+00
  8.00000000E-01  8.00000000E-01  1.50000000E+00  8.00000000E-01  8.00000000E-01
  1.50000000E+00  8.00000000E-01  8.00000000E-01  1.50000000E+00  8.00000000E-01
  8.00000000E-01  1.50000000E+00  8.00000000E-01  8.00000000E-01  1.50000000E+00
  8.00000000E-01  8.00000000E-01  1.50000000E+00  8.00000000E-01  8.00000000E-01
  1.50000000E+00  8.00000000E-01  8.00000000E-01  1.50000000E+00  8.00000000E-01
  8.00000000E-01  1.50000000E+00  8.00000000E-01  8.00000000E-01  1.50000000E+00
  8.00000000E-01  8.00000000E-01  1.50000000E+00  8.00000000E-01  8.00000000E-01
  1.50000000E+00  8.00000000E-01  8.00000000E-01  1.50000000E+00  8.00000000E-01
  8.00000000E-01  1.50000000E+00  8.00000000E-01  8.00000000E-01  1.50000000E+00
  8.00000000E-01  8.00000000E-01  1.50000000E+00  8.00000000E-01  8.00000000E-01
  1.50000000E+00  8.00000000E-01  8.00000000E-01  1.50000000E+00  8.00000000E-01
  8.00000000E-01  1.50000000E+00  8.00000000E-01  8.00000000E-01  1.50000000E+00
  8.00000000E-01  8.00000000E-01  1.50000000E+00  8.00000000E-01  8.00000000E-01
  1.50000000E+00  8.00000000E-01  8.00000000E-01  1.50000000E+00  8.00000000E-01
  8.00000000E-01  1.50000000E+00  8.00000000E-01  8.00000000E-01  1.50000000E+00
  8.00000000E-01  8.00000000E-01  1.50000000E+00  8.00000000E-01  8.00000000E-01
  1.50000000E+00  8.00000000E-01  8.00000000E-01  1.50000000E+00  8.00000000E-01
  8.00000000E-01  1.50000000E+00  8.00000000E-01  8.00000000E-01  1.50000000E+00
  8.00000000E-01  8.00000000E-01  1.50000000E+00  8.00000000E-01  8.00000000E-01
  1.50000000E+00  8.00000000E-01  8.00000000E-01  1.50000000E+00  8.00000000E-01
  8.00000000E-01  1.50000000E+00  8.00000000E-01  8.00000000E-01  1.50000000E+00
  8.00000000E-01  8.00000000E-01  1.50000000E+00  8.00000000E-01  8.00000000E-01
  1.50000000E+00  8.00000000E-01  8.00000000E-01  1.50000000E+00  8.00000000E-01
  8.00000000E-01  1.50000000E+00  8.00000000E-01  8.00000000E-01  1.50000000E+00
  8.00000000E-01  8.00000000E-01  1.50000000E+00  8.00000000E-01  8.00000000E-01
  1.50000000E+00  8.00000000E-01  8.00000000E-01  1.50000000E+00  8.00000000E-01
  8.00000000E-01  1.50000000E+00  8.00000000E-01  8.00000000E-01  1.50000000E+00
  8.00000000E-01  8.00000000E-01  1.50000000E+00  8.00000000E-01  8.00000000E-01
  1.50000000E+00  8.00000000E-01  8.00000000E-01  1.50000000E+00  8.00000000E-01
  8.00000000E-01  1.50000000E+00  8.00000000E-01  8.00000000E-01  1.50000000E+00
  8.00000000E-01  8.00000000E-01  1.50000000E+00  8.00000000E-01  8.00000000E-01
  1.50000000E+00  8.00000000E-01  8.00000000E-01  1.50000000E+00  8.00000000E-01
  8.00000000E-01  1.50000000E+00  8.00000000E-01  8.00000000E-01  1.50000000E+00
  8.00000000E-01  8.00000000E-01  1.50000000E+00  8.00000000E-01  8.00000000E-01
  1.50000000E+00  8.00000000E-01  8.00000000E-01  1.50000000E+00  8.00000000E-01
  8.00000000E-01  1.50000000E+00  8.00000000E-01  8.00000000E-01  1.50000000E+00
  8.00000000E-01  8.00000000E-01  1.50000000E+00  8.00000000E-01  8.00000000E-01
  1.50000000E+00  8.00000000E-01  8.00000000E-01  1.50000000E+00  8.00000000E-01
  8.00000000E-01  1.50000000E+00  8.00000000E-01  8.00000000E-01  1.50000000E+00
  8.00000000E-01  8.00000000E-01  1.50000000E+00  8.00000000E-01  8.00000000E-01
  1.50000000E+00  8.00000000E-01  8.00000000E-01  1.50000000E+00  8.00000000E-01
  8.00000000E-01  1.50000000E+00  8.00000000E-01  8.00000000E-01  1.50000000E+00
  8.00000000E-01  8.00000000E-01  1.50000000E+00  8.00000000E-01  8.00000000E-01
  1.50000000E+00  8.00000000E-01  8.00000000E-01  1.50000000E+00  8.00000000E-01
  8.00000000E-01  1.50000000E+00  8.00000000E-01  8.00000000E-01  1.50000000E+00
  8.00000000E-01  8.00000000E-01  1.50000000E+00  8.00000000E-01  8.00000000E-01
  1.50000000E+00  8.00000000E-01  8.00000000E-01  1.50000000E+00  8.00000000E-01
  8.00000000E-01  1.50000000E+00  8.00000000E-01  8.00000000E-01  1.50000000E+00
  8.00000000E-01  8.00000000E-01  1.50000000E+00  8.00000000E-01  8.00000000E-01
  1.50000000E+00  8.00000000E-01  8.00000000E-01  1.50000000E+00  8.00000000E-01
  8.00000000E-01  1.50000000E+00  8.00000000E-01  8.00000000E-01  1.50000000E+00
  8.00000000E-01  8.00000000E-01  1.50000000E+00  8.00000000E-01  8.00000000E-01
  1.50000000E+00  8.00000000E-01  8.00000000E-01  1.50000000E+00  8.00000000E-01
  8.00000000E-01  1.50000000E+00  8.00000000E-01  8.00000000E-01  1.50000000E+00
  8.00000000E-01  8.00000000E-01  1.50000000E+00  8.00000000E-01  8.00000000E-01
  1.50000000E+00  8.00000000E-01  8.00000000E-01  1.50000000E+00  8.00000000E-01
  8.00000000E-01  1.50000000E+00  8.00000000E-01  8.00000000E-01  1.50000000E+00
  8.00000000E-01  8.00000000E-01  1.50000000E+00  8.00000000E-01  8.00000000E-01
  1.50000000E+00  8.00000000E-01  8.00000000E-01  1.50000000E+00  8.00000000E-01
  8.00000000E-01  1.50000000E+00  8.00000000E-01  8.00000000E-01  1.50000000E+00
  8.00000000E-01  8.00000000E-01  1.50000000E+00  8.00000000E-01  8.00000000E-01
  1.50000000E+00  8.00000000E-01  8.00000000E-01  1.50000000E+00  8.00000000E-01
  8.00000000E-01  1.50000000E+00  8.00000000E-01  8.00000000E-01  1.50000000E+00
  8.00000000E-01  8.00000000E-01  1.50000000E+00  8.00000000E-01  8.00000000E-01
  1.50000000E+00  8.00000000E-01  8.00000000E-01  1.50000000E+00  8.00000000E-01
  8.00000000E-01  1.50000000E+00  8.00000000E-01  8.00000000E-01  1.50000000E+00
  8.00000000E-01  8.00000000E-01  1.50000000E+00  8.00000000E-01  8.00000000E-01
  1.50000000E+00  8.00000000E-01  8.00000000E-01  1.50000000E+00  8.00000000E-01
  8.00000000E-01  1.50000000E+00  8.00000000E-01  8.00000000E-01  1.50000000E+00
  8.00000000E-01  8.00000000E-01  1.50000000E+00  8.00000000E-01  8.00000000E-01
  1.50000000E+00  8.00000000E-01  8.00000000E-01  1.50000000E+00  8.00000000E-01
  8.00000000E-01  1.50000000E+00  8.00000000E-01  8.00000000E-01  1.50000000E+00
  8.00000000E-01  8.00000000E-01  1.50000000E+00  8.00000000E-01  8.00000000E-01
  1.50000000E+00  8.00000000E-01  8.00000000E-01  1.50000000E+00  8.00000000E-01
  8.00000000E-01  1.50000000E+00  8.00000000E-01  8.00000000E-01  1.50000000E+00
  8.00000000E-01  8.00000000E-01  1.50000000E+00  8.00000000E-01  8.00000000E-01
  1.50000000E+00  8.00000000E-01  8.00000000E-01  1.50000000E+00  8.00000000E-01
  8.00000000E-01  1.50000000E+00  8.00000000E-01  8.00000000E-01  1.50000000E+00
  8.00000000E-01  8.00000000E-01  1.50000000E+00  8.00000000E-01  8.00000000E-01
  1.50000000E+00  8.00000000E-01  8.00000000E-01  1.50000000E+00  8.00000000E-01
  8.00000000E-01  1.50000000E+00  8.00000000E-01  8.00000000E-01  1.50000000E+00
  8.00000000E-01  8.00000000E-01  1.50000000E+00  8.00000000E-01  8.00000000E-01
  1.50000000E+00  8.00000000E-01  8.00000000E-01  1.50000000E+00  8.00000000E-01
  8.00000000E-01  1.50000000E+00  8.00000000E-01  8.00000000E-01  1.50000000E+00
  8.00000000E-01  8.00000000E-01  1.50000000E+00  8.00000000E-01  8.00000000E-01
  1.50000000E+00  8.00000000E-01  8.00000000E-01  1.50000000E+00  8.00000000E-01
  8.00000000E-01  1.50000000E+00  8.00000000E-01  8.00000000E-01  1.50000000E+00
  8.00000000E-01  8.00000000E-01  1.50000000E+00  8.00000000E-01  8.00000000E-01
  1.50000000E+00  8.00000000E-01  8.00000000E-01  1.50000000E+00  8.00000000E-01
  8.00000000E-01  1.50000000E+00  8.00000000E-01  8.00000000E-01  1.50000000E+00
  8.00000000E-01  8.00000000E-01  1.50000000E+00  8.00000000E-01  8.00000000E-01
  1.50000000E+00  8.00000000E-01  8.00000000E-01  1.50000000E+00  8.00000000E-01
  8.00000000E-01  1.50000000E+00  8.00000000E-01  8.00000000E-01  1.50000000E+00
  8.00000000E-01  8.00000000E-01  1.50000000E+00  8.00000000E-01  8.00000000E-01
  1.50000000E+00  8.00000000E-01  8.00000000E-01  1.50000000E+00  8.00000000E-01
  8.00000000E-01  1.50000000E+00  8.00000000E-01  8.00000000E-01  1.50000000E+00
  8.00000000E-01  8.00000000E-01  1.50000000E+00  8.00000000E-01  8.00000000E-01
  1.50000000E+00  8.00000000E-01  8.00000000E-01  1.50000000E+00  8.00000000E-01
  8.00000000E-01  1.50000000E+00  8.00000000E-01  8.00000000E-01  1.50000000E+00
  8.00000000E-01  8.00000000E-01  1.50000000E+00  8.00000000E-01  8.00000000E-01
  1.50000000E+00  8.00000000E-01  8.00000000E-01  1.50000000E+00  8.00000000E-01
  8.00000000E-01  1.50000000E+00  8.00000000E-01  8.00000000E-01  1.50000000E+00
  8.00000000E-01  8.00000000E-01  1.50000000E+00  8.00000000E-01  8.00000000E-01
  1.50000000E+00  8.00000000E-01  8.00000000E-01  1.50000000E+00  8.00000000E-01
  8.00000000E-01  1.50000000E+00  8.00000000E-01  8.00000000E-01  1.50000000E+00
  8.00000000E-01  8.00000000E-01  1.50000000E+00  8.00000000E-01  8.00000000E-01
  1.50000000E+00  8.00000000E-01  8.00000000E-01  1.50000000E+00  8.00000000E-01
  8.00000000E-01  1.50000000E+00  8.00000000E-01  8.00000000E-01  1.50000000E+00
  8.00000000E-01  8.00000000E-01  1.50000000E+00  8.00000000E-01  8.00000000E-01
  1.50000000E+00  8.00000000E-01  8.00000000E-01  1.50000000E+00  8.00000000E-01
  8.00000000E-01  1.50000000E+00  8.00000000E-01  8.00000000E-01  1.50000000E+00
  8.00000000E-01  8.00000000E-01  1.50000000E+00  8.00000000E-01  8.00000000E-01
  1.50000000E+00  8.00000000E-01  8.00000000E-01  1.50000000E+00  8.00000000E-01
  8.00000000E-01  1.50000000E+00  8.00000000E-01  8.00000000E-01  1.50000000E+00
  8.00000000E-01  8.00000000E-01  1.50000000E+00  8.00000000E-01  8.00000000E-01
  1.50000000E+00  8.00000000E-01  8.00000000E-01  1.50000000E+00  8.00000000E-01
  8.00000000E-01  1.50000000E+00  8.00000000E-01  8.00000000E-01  1.50000000E+00
  8.00000000E-01  8.00000000E-01  1.50000000E+00  8.00000000E-01  8.00000000E-01
  1.50000000E+00  8.00000000E-01  8.00000000E-01  1.50000000E+00  8.00000000E-01
  8.00000000E-01  1.50000000E+00  8.00000000E-01  8.00000000E-01  1.50000000E+00
  8.00000000E-01  8.00000000E-01  1.50000000E+00  8.00000000E-01  8.00000000E-01
  1.50000000E+00  8.00000000E-01  8.00000000E-01  1.50000000E+00  8.00000000E-01
  8.00000000E-01  1.50000000E+00  8.00000000E-01  8.00000000E-01  1.50000000E+00
  8.00000000E-01  8.00000000E-01  1.50000000E+00  8.00000000E-01  8.00000000E-01
  1.50000000E+00  8.00000000E-01  8.00000000E-01  1.50000000E+00  8.00000000E-01
  8.00000000E-01  1.50000000E+00  8.00000000E-01  8.00000000E-01  1.50000000E+00
  8.00000000E-01  8.00000000E-01  1.50000000E+00  8.00000000E-01  8.00000000E-01
  1.50000000E+00  8.00000000E-01  8.00000000E-01  1.50000000E+00  8.00000000E-01
  8.00000000E-01  1.50000000E+00  8.00000000E-01  8.00000000E-01  1.50000000E+00
  8.00000000E-01  8.00000000E-01  1.50000000E+00  8.00000000E-01  8.00000000E-01
  1.50000000E+00  8.00000000E-01  8.00000000E-01  1.50000000E+00  8.00000000E-01
  8.00000000E-01  1.50000000E+00  8.00000000E-01  8.00000000E-01  1.50000000E+00
  8.00000000E-01  8.00000000E-01  1.50000000E+00  8.00000000E-01  8.00000000E-01
  1.50000000E+00  8.00000000E-01  8.00000000E-01  1.50000000E+00  8.00000000E-01
  8.00000000E-01  1.50000000E+00  8.00000000E-01  8.00000000E-01  1.50000000E+00
  8.00000000E-01  8.00000000E-01  1.50000000E+00  8.00000000E-01  8.00000000E-01
  1.50000000E+00  8.00000000E-01  8.00000000E-01  1.50000000E+00  8.00000000E-01
  8.00000000E-01  1.50000000E+00  8.00000000E-01  8.00000000E-01  1.50000000E+00
  8.00000000E-01  8.00000000E-01  1.50000000E+00  8.00000000E-01  8.00000000E-01
  1.50000000E+00  8.00000000E-01  8.00000000E-01  1.50000000E+00  8.00000000E-01
  8.00000000E-01  1.50000000E+00  8.00000000E-01  8.00000000E-01  1.50000000E+00
  8.00000000E-01  8.00000000E-01  1.50000000E+00  8.00000000E-01  8.00000000E-01
  1.50000000E+00  8.00000000E-01  8.00000000E-01  1.50000000E+00  8.00000000E-01
  8.00000000E-01  1.50000000E+00  8.00000000E-01  8.00000000E-01  1.50000000E+00
  8.00000000E-01  8.00000000E-01  1.50000000E+00  8.00000000E-01  8.00000000E-01
  1.50000000E+00  8.00000000E-01  8.00000000E-01  1.50000000E+00  8.00000000E-01
  8.00000000E-01  1.50000000E+00  8.00000000E-01  8.00000000E-01  1.50000000E+00
  8.00000000E-01  8.00000000E-01  1.50000000E+00  8.00000000E-01  8.00000000E-01
  1.50000000E+00  8.00000000E-01  8.00000000E-01  1.50000000E+00  8.00000000E-01
  8.00000000E-01  1.50000000E+00  8.00000000E-01  8.00000000E-01  1.50000000E+00
  8.00000000E-01  8.00000000E-01  1.50000000E+00  8.00000000E-01  8.00000000E-01
  1.50000000E+00  8.00000000E-01  8.00000000E-01  1.50000000E+00  8.00000000E-01
  8.00000000E-01  1.50000000E+00  8.00000000E-01  8.00000000E-01  1.50000000E+00
  8.00000000E-01  8.00000000E-01  1.50000000E+00  8.00000000E-01  8.00000000E-01
  1.50000000E+00  8.00000000E-01  8.00000000E-01  1.50000000E+00  8.00000000E-01
  8.00000000E-01  1.50000000E+00  8.00000000E-01  8.00000000E-01  1.50000000E+00
  8.00000000E-01  8.00000000E-01  1.50000000E+00  8.00000000E-01  8.00000000E-01
  1.50000000E+00  8.00000000E-01  8.00000000E-01  1.50000000E+00  8.00000000E-01
  8.00000000E-01  1.50000000E+00  8.00000000E-01  8.00000000E-01  1.50000000E+00
  8.00000000E-01  8.00000000E-01  1.50000000E+00  8.00000000E-01  8.00000000E-01
  1.50000000E+00  8.00000000E-01  8.00000000E-01  1.50000000E+00  8.00000000E-01
  8.00000000E-01  1.50000000E+00  8.00000000E-01  8.00000000E-01  1.50000000E+00
  8.00000000E-01  8.00000000E-01  1.50000000E+00  8.00000000E-01  8.00000000E-01
  1.50000000E+00  8.00000000E-01  8.00000000E-01  1.50000000E+00  8.00000000E-01
  8.00000000E-01  1.50000000E+00  8.00000000E-01  8.00000000E-01  1.50000000E+00
  8.00000000E-01  8.00000000E-01  1.50000000E+00  8.00000000E-01  8.00000000E-01
  1.50000000E+00  8.00000000E-01  8.00000000E-01  1.50000000E+00  8.00000000E-01
  8.00000000E-01  1.50000000E+00  8.00000000E-01  8.00000000E-01  1.50000000E+00
  8.00000000E-01  8.00000000E-01  1.50000000E+00  8.00000000E-01  8.00000000E-01
  1.50000000E+00  8.00000000E-01  8.00000000E-01  1.50000000E+00  8.00000000E-01
  8.00000000E-01  1.50000000E+00  8.00000000E-01  8.00000000E-01  1.50000000E+00
  8.00000000E-01  8.00000000E-01  1.50000000E+00  8.00000000E-01  8.00000000E-01
  1.50000000E+00  8.00000000E-01  8.00000000E-01  1.50000000E+00  8.00000000E-01
  8.00000000E-01  1.50000000E+00  8.00000000E-01  8.00000000E-01  1.50000000E+00
  8.00000000E-01  8.00000000E-01  1.50000000E+00  8.00000000E-01  8.00000000E-01
  1.50000000E+00  8.00000000E-01  8.00000000E-01  1.50000000E+00  8.00000000E-01
  8.00000000E-01  1.50000000E+00  8.00000000E-01  8.00000000E-01  1.50000000E+00
  8.00000000E-01  8.00000000E-01  1.50000000E+00  8.00000000E-01  8.00000000E-01
  1.50000000E+00  8.00000000E-01  8.00000000E-01  1.50000000E+00  8.00000000E-01
  8.00000000E-01  1.50000000E+00  8.00000000E-01  8.00000000E-01  1.50000000E+00
  8.00000000E-01  8.00000000E-01  1.50000000E+00  8.00000000E-01  8.00000000E-01
  1.50000000E+00  8.00000000E-01  8.00000000E-01  1.50000000E+00  8.00000000E-01
  8.00000000E-01  1.50000000E+00  8.00000000E-01  8.00000000E-01  1.50000000E+00
  8.00000000E-01  8.00000000E-01  1.50000000E+00  8.00000000E-01  8.00000000E-01
  1.50000000E+00  8.00000000E-01  8.00000000E-01  1.50000000E+00  8.00000000E-01
  8.00000000E-01  1.50000000E+00  8.00000000E-01  8.00000000E-01  1.50000000E+00
  8.00000000E-01  8.00000000E-01  1.50000000E+00  8.00000000E-01  8.00000000E-01
  1.50000000E+00  8.00000000E-01  8.00000000E-01  1.50000000E+00  8.00000000E-01
  8.00000000E-01  1.50000000E+00  8.00000000E-01  8.00000000E-01  1.50000000E+00
  8.00000000E-01  8.00000000E-01  1.50000000E+00  8.00000000E-01  8.00000000E-01
  1.50000000E+00  8.00000000E-01  8.00000000E-01  1.50000000E+00  8.00000000E-01
  8.00000000E-01  1.50000000E+00  8.00000000E-01  8.00000000E-01  1.50000000E+00
  8.00000000E-01  8.00000000E-01  1.50000000E+00  8.00000000E-01  8.00000000E-01
  1.50000000E+00  8.00000000E-01  8.00000000E-01  1.50000000E+00  8.00000000E-01
  8.00000000E-01  1.50000000E+00  8.00000000E-01  8.00000000E-01  1.50000000E+00
  8.00000000E-01  8.00000000E-01  1.50000000E+00  8.00000000E-01  8.00000000E-01
  1.50000000E+00  8.00000000E-01  8.00000000E-01  1.50000000E+00  8.00000000E-01
  8.00000000E-01  1.50000000E+00  8.00000000E-01  8.00000000E-01  1.50000000E+00
  8.00000000E-01  8.00000000E-01  1.50000000E+00  8.00000000E-01  8.00000000E-01
  1.50000000E+00  8.00000000E-01  8.00000000E-01  1.50000000E+00  8.00000000E-01
  8.00000000E-01  1.50000000E+00  8.00000000E-01  8.00000000E-01  1.50000000E+00
  8.00000000E-01  8.00000000E-01  1.50000000E+00  8.00000000E-01  8.00000000E-01
  1.50000000E+00  8.00000000E-01  8.00000000E-01  1.50000000E+00  8.00000000E-01
  8.00000000E-01  1.50000000E+00  8.00000000E-01  8.00000000E-01  1.50000000E+00
  8.00000000E-01  8.00000000E-01  1.50000000E+00  8.00000000E-01  8.00000000E-01
  1.50000000E+00  8.00000000E-01  8.00000000E-01  1.50000000E+00  8.00000000E-01
  8.00000000E-01  1.50000000E+00  8.00000000E-01  8.00000000E-01  1.50000000E+00
  8.00000000E-01  8.00000000E-01  1.50000000E+00  8.00000000E-01  8.00000000E-01
  1.50000000E+00  8.00000000E-01  8.00000000E-01  1.50000000E+00  8.00000000E-01
  8.00000000E-01  1.50000000E+00  8.00000000E-01  8.00000000E-01  1.50000000E+00
  8.00000000E-01  8.00000000E-01  1.50000000E+00  8.00000000E-01  8.00000000E-01
  1.50000000E+00  8.00000000E-01  8.00000000E-01  1.50000000E+00  8.00000000E-01
  8.00000000E-01  1.50000000E+00  8.00000000E-01  8.00000000E-01  1.50000000E+00
  8.00000000E-01  8.00000000E-01  1.50000000E+00  8.00000000E-01  8.00000000E-01
  1.50000000E+00  8.00000000E-01  8.00000000E-01  1.50000000E+00  8.00000000E-01
  8.00000000E-01  1.50000000E+00  8.00000000E-01  8.00000000E-01  1.50000000E+00
  8.00000000E-01  8.00000000E-01  1.50000000E+00  8.00000000E-01  8.00000000E-01
  1.50000000E+00  8.00000000E-01  8.00000000E-01  1.50000000E+00  8.00000000E-01
  8.00000000E-01  1.50000000E+00  8.00000000E-01  8.00000000E-01  1.50000000E+00
  8.00000000E-01  8.00000000E-01  1.50000000E+00  8.00000000E-01  8.00000000E-01
  1.50000000E+00  8.00000000E-01  8.00000000E-01  1.50000000E+00  8.00000000E-01
  8.00000000E-01  1.50000000E+00  8.00000000E-01  8.00000000E-01  1.50000000E+00
  8.00000000E-01  8.00000000E-01  1.50000000E+00  8.00000000E-01  8.00000000E-01
  1.50000000E+00  8.00000000E-01  8.00000000E-01  1.50000000E+00  8.00000000E-01
  8.00000000E-01  1.50000000E+00  8.00000000E-01  8.00000000E-01  1.50000000E+00
  8.00000000E-01  8.00000000E-01  1.50000000E+00  8.00000000E-01  8.00000000E-01
  1.50000000E+00  8.00000000E-01  8.00000000E-01  1.50000000E+00  8.00000000E-01
  8.00000000E-01  1.50000000E+00  8.00000000E-01  8.00000000E-01  1.50000000E+00
  8.00000000E-01  8.00000000E-01  1.50000000E+00  8.00000000E-01  8.00000000E-01
  1.50000000E+00  8.00000000E-01  8.00000000E-01  1.50000000E+00  8.00000000E-01
  8.00000000E-01  1.50000000E+00  8.00000000E-01  8.00000000E-01  1.50000000E+00
  8.00000000E-01  8.00000000E-01  1.50000000E+00  8.00000000E-01  8.00000000E-01
  1.50000000E+00  8.00000000E-01  8.00000000E-01  1.50000000E+00  8.00000000E-01
  8.00000000E-01  1.50000000E+00  8.00000000E-01  8.00000000E-01  1.50000000E+00
  8.00000000E-01  8.00000000E-01  1.50000000E+00  8.00000000E-01  8.00000000E-01
  1.50000000E+00  8.00000000E-01  8.00000000E-01  1.50000000E+00  8.00000000E-01
  8.00000000E-01  1.50000000E+00  8.00000000E-01  8.00000000E-01  1.50000000E+00
  8.00000000E-01  8.00000000E-01  1.50000000E+00  8.00000000E-01  8.00000000E-01
  1.50000000E+00  8.00000000E-01  8.00000000E-01  1.50000000E+00  8.00000000E-01
  8.00000000E-01  1.50000000E+00  8.00000000E-01  8.00000000E-01  1.50000000E+00
  8.00000000E-01  8.00000000E-01  1.50000000E+00  8.00000000E-01  8.00000000E-01
  1.50000000E+00  8.00000000E-01  8.00000000E-01  1.50000000E+00  8.00000000E-01
  8.00000000E-01  1.50000000E+00  8.00000000E-01  8.00000000E-01  1.50000000E+00
  8.00000000E-01  8.00000000E-01  1.50000000E+00  8.00000000E-01  8.00000000E-01
  1.50000000E+00  8.00000000E-01  8.00000000E-01  1.50000000E+00  8.00000000E-01
  8.00000000E-01  1.50000000E+00  8.00000000E-01  8.00000000E-01  1.50000000E+00
  8.00000000E-01  8.00000000E-01  1.50000000E+00  8.00000000E-01  8.00000000E-01
  1.50000000E+00  8.00000000E-01  8.00000000E-01  1.50000000E+00  8.00000000E-01
  8.00000000E-01  1.50000000E+00  8.00000000E-01  8.00000000E-01  1.50000000E+00
  8.00000000E-01  8.00000000E-01  1.50000000E+00  8.00000000E-01  8.00000000E-01
  1.50000000E+00  8.00000000E-01  8.00000000E-01  1.50000000E+00  8.00000000E-01
  8.00000000E-01  1.50000000E+00  8.00000000E-01  8.00000000E-01  1.50000000E+00
  8.00000000E-01  8.00000000E-01  1.50000000E+00  8.00000000E-01  8.00000000E-01
  1.50000000E+00  8.00000000E-01  8.00000000E-01  1.50000000E+00  8.00000000E-01
  8.00000000E-01  1.50000000E+00  8.00000000E-01  8.00000000E-01  1.50000000E+00
  8.00000000E-01  8.00000000E-01  1.50000000E+00  8.00000000E-01  8.00000000E-01
  1.50000000E+00  8.00000000E-01  8.00000000E-01  1.50000000E+00  8.00000000E-01
  8.00000000E-01  1.50000000E+00  8.00000000E-01  8.00000000E-01  1.50000000E+00
  8.00000000E-01  8.00000000E-01  1.50000000E+00  8.00000000E-01  8.00000000E-01
  1.50000000E+00  8.00000000E-01  8.00000000E-01  1.50000000E+00  8.00000000E-01
  8.00000000E-01  1.50000000E+00  8.00000000E-01  8.00000000E-01  1.50000000E+00
  8.00000000E-01  8.00000000E-01  1.50000000E+00  8.00000000E-01  8.00000000E-01
  1.50000000E+00  8.00000000E-01  8.00000000E-01  1.50000000E+00  8.00000000E-01
  8.00000000E-01  1.50000000E+00  8.00000000E-01  8.00000000E-01  1.50000000E+00
  8.00000000E-01  8.00000000E-01  1.50000000E+00  8.00000000E-01  8.00000000E-01
  1.50000000E+00  8.00000000E-01  8.00000000E-01  1.50000000E+00  8.00000000E-01
  8.00000000E-01  1.50000000E+00  8.00000000E-01  8.00000000E-01  1.50000000E+00
  8.00000000E-01  8.00000000E-01  1.50000000E+00  8.00000000E-01  8.00000000E-01
  1.50000000E+00  8.00000000E-01  8.00000000E-01  1.50000000E+00  8.00000000E-01
  8.00000000E-01  1.50000000E+00  8.00000000E-01  8.00000000E-01  1.50000000E+00
  8.00000000E-01  8.00000000E-01  1.50000000E+00  8.00000000E-01  8.00000000E-01
  1.50000000E+00  8.00000000E-01  8.00000000E-01  1.50000000E+00  8.00000000E-01
  8.00000000E-01  1.50000000E+00  8.00000000E-01  8.00000000E-01  1.50000000E+00
  8.00000000E-01  8.00000000E-01  1.50000000E+00  8.00000000E-01  8.00000000E-01
  1.50000000E+00  8.00000000E-01  8.00000000E-01  1.50000000E+00  8.00000000E-01
  8.00000000E-01  1.50000000E+00  8.00000000E-01  8.00000000E-01  1.50000000E+00
  8.00000000E-01  8.00000000E-01  1.50000000E+00  8.00000000E-01  8.00000000E-01
  1.50000000E+00  8.00000000E-01  8.00000000E-01  1.50000000E+00  8.00000000E-01
  8.00000000E-01  1.50000000E+00  8.00000000E-01  8.00000000E-01  1.50000000E+00
  8.00000000E-01  8.00000000E-01  1.50000000E+00  8.00000000E-01  8.00000000E-01
  1.50000000E+00  8.00000000E-01  8.00000000E-01  1.50000000E+00  8.00000000E-01
  8.00000000E-01  1.50000000E+00  8.00000000E-01  8.00000000E-01  1.50000000E+00
  8.00000000E-01  8.00000000E-01  1.50000000E+00  8.00000000E-01  8.00000000E-01
  1.50000000E+00  8.00000000E-01  8.00000000E-01  1.50000000E+00  8.00000000E-01
  8.00000000E-01  1.50000000E+00  8.00000000E-01  8.00000000E-01  1.50000000E+00
  8.00000000E-01  8.00000000E-01  1.50000000E+00  8.00000000E-01  8.00000000E-01
  1.50000000E+00  8.00000000E-01  8.00000000E-01  1.50000000E+00  8.00000000E-01
  8.00000000E-01  1.50000000E+00  8.00000000E-01  8.00000000E-01  1.50000000E+00
  8.00000000E-01  8.00000000E-01  1.50000000E+00  8.00000000E-01  8.00000000E-01
  1.50000000E+00  8.00000000E-01  8.00000000E-01  1.50000000E+00  8.00000000E-01
  8.00000000E-01  1.50000000E+00  8.00000000E-01  8.00000000E-01  1.50000000E+00
  8.00000000E-01  8.00000000E-01  1.50000000E+00  8.00000000E-01  8.00000000E-01
  1.50000000E+00  8.00000000E-01  8.00000000E-01  1.50000000E+00  8.00000000E-01
  8.00000000E-01  1.50000000E+00  8.00000000E-01  8.00000000E-01  1.50000000E+00
  8.00000000E-01  8.00000000E-01  1.50000000E+00  8.00000000E-01  8.00000000E-01
  1.50000000E+00  8.00000000E-01  8.00000000E-01  1.50000000E+00  8.00000000E-01
  8.00000000E-01  1.50000000E+00  8.00000000E-01  8.00000000E-01  1.50000000E+00
  8.00000000E-01  8.00000000E-01  1.50000000E+00  8.00000000E-01  8.00000000E-01
  1.50000000E+00  8.00000000E-01  8.00000000E-01  1.50000000E+00  8.00000000E-01
  8.00000000E-01  1.50000000E+00  8.00000000E-01  8.00000000E-01  1.50000000E+00
  8.00000000E-01  8.00000000E-01  1.50000000E+00  8.00000000E-01  8.00000000E-01
  1.50000000E+00  8.00000000E-01  8.00000000E-01  1.50000000E+00  8.00000000E-01
  8.00000000E-01  1.50000000E+00  8.00000000E-01  8.00000000E-01  1.50000000E+00
  8.00000000E-01  8.00000000E-01  1.50000000E+00  8.00000000E-01  8.00000000E-01
  1.50000000E+00  8.00000000E-01  8.00000000E-01  1.50000000E+00  8.00000000E-01
  8.00000000E-01  1.50000000E+00  8.00000000E-01  8.00000000E-01  1.50000000E+00
  8.00000000E-01  8.00000000E-01  1.50000000E+00  8.00000000E-01  8.00000000E-01
  1.50000000E+00  8.00000000E-01  8.00000000E-01  1.50000000E+00  8.00000000E-01
  8.00000000E-01  1.50000000E+00  8.00000000E-01  8.00000000E-01  1.50000000E+00
  8.00000000E-01  8.00000000E-01  1.50000000E+00  8.00000000E-01  8.00000000E-01
  1.50000000E+00  8.00000000E-01  8.00000000E-01  1.50000000E+00  8.00000000E-01
  8.00000000E-01  1.50000000E+00  8.00000000E-01  8.00000000E-01  1.50000000E+00
  8.00000000E-01  8.00000000E-01  1.50000000E+00  8.00000000E-01  8.00000000E-01
  1.50000000E+00  8.00000000E-01  8.00000000E-01  1.50000000E+00  8.00000000E-01
  8.00000000E-01  1.50000000E+00  8.00000000E-01  8.00000000E-01  1.50000000E+00
  8.00000000E-01  8.00000000E-01  1.50000000E+00  8.00000000E-01  8.00000000E-01
  1.50000000E+00  8.00000000E-01  8.00000000E-01  1.50000000E+00  8.00000000E-01
  8.00000000E-01  1.50000000E+00  8.00000000E-01  8.00000000E-01  1.50000000E+00
  8.00000000E-01  8.00000000E-01  1.50000000E+00  8.00000000E-01  8.00000000E-01
  1.50000000E+00  8.00000000E-01  8.00000000E-01  1.50000000E+00  8.00000000E-01
  8.00000000E-01  1.50000000E+00  8.00000000E-01  8.00000000E-01  1.50000000E+00
  8.00000000E-01  8.00000000E-01  1.50000000E+00  8.00000000E-01  8.00000000E-01
  1.50000000E+00  8.00000000E-01  8.00000000E-01  1.50000000E+00  8.00000000E-01
  8.00000000E-01  1.50000000E+00  8.00000000E-01  8.00000000E-01  1.50000000E+00
  8.00000000E-01  8.00000000E-01  1.50000000E+00  8.00000000E-01  8.00000000E-01
  1.50000000E+00  8.00000000E-01  8.00000000E-01  1.50000000E+00  8.00000000E-01
  8.00000000E-01  1.50000000E+00  8.00000000E-01  8.00000000E-01  1.50000000E+00
  8.00000000E-01  8.00000000E-01  1.50000000E+00  8.00000000E-01  8.00000000E-01
  1.50000000E+00  8.00000000E-01  8.00000000E-01  1.50000000E+00  8.00000000E-01
  8.00000000E-01  1.50000000E+00  8.00000000E-01  8.00000000E-01  1.50000000E+00
  8.00000000E-01  8.00000000E-01  1.50000000E+00  8.00000000E-01  8.00000000E-01
  1.50000000E+00  8.00000000E-01  8.00000000E-01  1.50000000E+00  8.00000000E-01
  8.00000000E-01  1.50000000E+00  8.00000000E-01  8.00000000E-01  1.50000000E+00
  8.00000000E-01  8.00000000E-01  1.50000000E+00  8.00000000E-01  8.00000000E-01
  1.50000000E+00  8.00000000E-01  8.00000000E-01  1.50000000E+00  8.00000000E-01
  8.00000000E-01  1.50000000E+00  8.00000000E-01  8.00000000E-01  1.50000000E+00
  8.00000000E-01  8.00000000E-01  1.50000000E+00  8.00000000E-01  8.00000000E-01
  1.50000000E+00  8.00000000E-01  8.00000000E-01  1.50000000E+00  8.00000000E-01
  8.00000000E-01  1.50000000E+00  8.00000000E-01  8.00000000E-01  1.50000000E+00
  8.00000000E-01  8.00000000E-01  1.50000000E+00  8.00000000E-01  8.00000000E-01
  1.50000000E+00  8.00000000E-01  8.00000000E-01  1.50000000E+00  8.00000000E-01
  8.00000000E-01  1.50000000E+00  8.00000000E-01  8.00000000E-01  1.50000000E+00
  8.00000000E-01  8.00000000E-01  1.50000000E+00  8.00000000E-01  8.00000000E-01
  1.50000000E+00  8.00000000E-01  8.00000000E-01  1.50000000E+00  8.00000000E-01
  8.00000000E-01  1.50000000E+00  8.00000000E-01  8.00000000E-01  1.50000000E+00
  8.00000000E-01  8.00000000E-01  1.50000000E+00  8.00000000E-01  8.00000000E-01
  1.50000000E+00  8.00000000E-01  8.00000000E-01  1.50000000E+00  8.00000000E-01
  8.00000000E-01  1.50000000E+00  8.00000000E-01  8.00000000E-01  1.50000000E+00
  8.00000000E-01  8.00000000E-01  1.50000000E+00  8.00000000E-01  8.00000000E-01
  1.50000000E+00  8.00000000E-01  8.00000000E-01  1.50000000E+00  8.00000000E-01
  8.00000000E-01  1.50000000E+00  8.00000000E-01  8.00000000E-01  1.50000000E+00
  8.00000000E-01  8.00000000E-01  1.50000000E+00  8.00000000E-01  8.00000000E-01
  1.50000000E+00  8.00000000E-01  8.00000000E-01  1.50000000E+00  8.00000000E-01
  8.00000000E-01  1.50000000E+00  8.00000000E-01  8.00000000E-01  1.50000000E+00
  8.00000000E-01  8.00000000E-01  1.50000000E+00  8.00000000E-01  8.00000000E-01
  1.50000000E+00  8.00000000E-01  8.00000000E-01  1.50000000E+00  8.00000000E-01
  8.00000000E-01  1.50000000E+00  8.00000000E-01  8.00000000E-01  1.50000000E+00
  8.00000000E-01  8.00000000E-01  1.50000000E+00  8.00000000E-01  8.00000000E-01
  1.50000000E+00  8.00000000E-01  8.00000000E-01  1.50000000E+00  8.00000000E-01
  8.00000000E-01  1.50000000E+00  8.00000000E-01  8.00000000E-01  1.50000000E+00
  8.00000000E-01  8.00000000E-01  1.50000000E+00  8.00000000E-01  8.00000000E-01
  1.50000000E+00  8.00000000E-01  8.00000000E-01  1.50000000E+00  8.00000000E-01
  8.00000000E-01  1.50000000E+00  8.00000000E-01  8.00000000E-01  1.50000000E+00
  8.00000000E-01  8.00000000E-01  1.50000000E+00  8.00000000E-01  8.00000000E-01
  1.50000000E+00  8.00000000E-01  8.00000000E-01  1.50000000E+00  8.00000000E-01
  8.00000000E-01  1.50000000E+00  8.00000000E-01  8.00000000E-01  1.50000000E+00
  8.00000000E-01  8.00000000E-01  1.50000000E+00  8.00000000E-01  8.00000000E-01
  1.50000000E+00  8.00000000E-01  8.00000000E-01  1.50000000E+00  8.00000000E-01
  8.00000000E-01  1.50000000E+00  8.00000000E-01  8.00000000E-01  1.50000000E+00
  8.00000000E-01  8.00000000E-01  1.50000000E+00  8.00000000E-01  8.00000000E-01
  1.50000000E+00  8.00000000E-01  8.00000000E-01  1.50000000E+00  8.00000000E-01
  8.00000000E-01  1.50000000E+00  8.00000000E-01  8.00000000E-01  1.50000000E+00
  8.00000000E-01  8.00000000E-01  1.50000000E+00  8.00000000E-01  8.00000000E-01
  1.50000000E+00  8.00000000E-01  8.00000000E-01  1.50000000E+00  8.00000000E-01
  8.00000000E-01  1.50000000E+00  8.00000000E-01  8.00000000E-01  1.50000000E+00
  8.00000000E-01  8.00000000E-01  1.50000000E+00  8.00000000E-01  8.00000000E-01
  1.50000000E+00  8.00000000E-01  8.00000000E-01  1.50000000E+00  8.00000000E-01
  8.00000000E-01  1.50000000E+00  8.00000000E-01  8.00000000E-01  1.50000000E+00
  8.00000000E-01  8.00000000E-01  1.50000000E+00  8.00000000E-01  8.00000000E-01
  1.50000000E+00  8.00000000E-01  8.00000000E-01  1.50000000E+00  8.00000000E-01
  8.00000000E-01  1.50000000E+00  8.00000000E-01  8.00000000E-01  1.50000000E+00
  8.00000000E-01  8.00000000E-01  1.50000000E+00  8.00000000E-01  8.00000000E-01
  1.50000000E+00  8.00000000E-01  8.00000000E-01  1.50000000E+00  8.00000000E-01
  8.00000000E-01  1.50000000E+00  8.00000000E-01  8.00000000E-01  1.50000000E+00
  8.00000000E-01  8.00000000E-01  1.50000000E+00  8.00000000E-01  8.00000000E-01
  1.50000000E+00  8.00000000E-01  8.00000000E-01  1.50000000E+00  8.00000000E-01
  8.00000000E-01  1.50000000E+00  8.00000000E-01  8.00000000E-01  1.50000000E+00
  8.00000000E-01  8.00000000E-01  1.50000000E+00  8.00000000E-01  8.00000000E-01
  1.50000000E+00  8.00000000E-01  8.00000000E-01  1.50000000E+00  8.00000000E-01
  8.00000000E-01  1.50000000E+00  8.00000000E-01  8.00000000E-01  1.50000000E+00
  8.00000000E-01  8.00000000E-01  1.50000000E+00  8.00000000E-01  8.00000000E-01
  1.50000000E+00  8.00000000E-01  8.00000000E-01  1.50000000E+00  8.00000000E-01
  8.00000000E-01  1.50000000E+00  8.00000000E-01  8.00000000E-01  1.50000000E+00
  8.00000000E-01  8.00000000E-01  1.50000000E+00  8.00000000E-01  8.00000000E-01
  1.50000000E+00  8.00000000E-01  8.00000000E-01  1.50000000E+00  8.00000000E-01
  8.00000000E-01  1.50000000E+00  8.00000000E-01  8.00000000E-01  1.50000000E+00
  8.00000000E-01  8.00000000E-01  1.50000000E+00  8.00000000E-01  8.00000000E-01
  1.50000000E+00  8.00000000E-01  8.00000000E-01  1.50000000E+00  8.00000000E-01
  8.00000000E-01  1.50000000E+00  8.00000000E-01  8.00000000E-01  1.50000000E+00
  8.00000000E-01  8.00000000E-01  1.50000000E+00  8.00000000E-01  8.00000000E-01
  1.50000000E+00  8.00000000E-01  8.00000000E-01  1.50000000E+00  8.00000000E-01
  8.00000000E-01  1.50000000E+00  8.00000000E-01  8.00000000E-01  1.50000000E+00
  8.00000000E-01  8.00000000E-01  1.50000000E+00  8.00000000E-01  8.00000000E-01
  1.50000000E+00  8.00000000E-01  8.00000000E-01  1.50000000E+00  8.00000000E-01
  8.00000000E-01  1.50000000E+00  8.00000000E-01  8.00000000E-01  1.50000000E+00
  8.00000000E-01  8.00000000E-01  1.50000000E+00  8.00000000E-01  8.00000000E-01
  1.50000000E+00  8.00000000E-01  8.00000000E-01  1.50000000E+00  8.00000000E-01
  8.00000000E-01  1.50000000E+00  8.00000000E-01  8.00000000E-01  1.50000000E+00
  8.00000000E-01  8.00000000E-01  1.50000000E+00  8.00000000E-01  8.00000000E-01
  1.50000000E+00  8.00000000E-01  8.00000000E-01  1.50000000E+00  8.00000000E-01
  8.00000000E-01  1.50000000E+00  8.00000000E-01  8.00000000E-01  1.50000000E+00
  8.00000000E-01  8.00000000E-01  1.50000000E+00  8.00000000E-01  8.00000000E-01
  1.50000000E+00  8.00000000E-01  8.00000000E-01  1.50000000E+00  8.00000000E-01
  8.00000000E-01  1.50000000E+00  8.00000000E-01  8.00000000E-01  1.50000000E+00
  8.00000000E-01  8.00000000E-01  1.50000000E+00  8.00000000E-01  8.00000000E-01
  1.50000000E+00  8.00000000E-01  8.00000000E-01  1.50000000E+00  8.00000000E-01
  8.00000000E-01  1.50000000E+00  8.00000000E-01  8.00000000E-01  1.50000000E+00
  8.00000000E-01  8.00000000E-01  1.50000000E+00  8.00000000E-01  8.00000000E-01
  1.50000000E+00  8.00000000E-01  8.00000000E-01  1.50000000E+00  8.00000000E-01
  8.00000000E-01  1.50000000E+00  8.00000000E-01  8.00000000E-01  1.50000000E+00
  8.00000000E-01  8.00000000E-01  1.50000000E+00  8.00000000E-01  8.00000000E-01
  1.50000000E+00  8.00000000E-01  8.00000000E-01  1.50000000E+00  8.00000000E-01
  8.00000000E-01  1.50000000E+00  8.00000000E-01  8.00000000E-01  1.50000000E+00
  8.00000000E-01  8.00000000E-01  1.50000000E+00  8.00000000E-01  8.00000000E-01
  1.50000000E+00  8.00000000E-01  8.00000000E-01  1.50000000E+00  8.00000000E-01
  8.00000000E-01  1.50000000E+00  8.00000000E-01  8.00000000E-01  1.50000000E+00
  8.00000000E-01  8.00000000E-01  1.50000000E+00  8.00000000E-01  8.00000000E-01
  1.50000000E+00  8.00000000E-01  8.00000000E-01  1.50000000E+00  8.00000000E-01
  8.00000000E-01  1.50000000E+00  8.00000000E-01  8.00000000E-01  1.50000000E+00
  8.00000000E-01  8.00000000E-01  1.50000000E+00  8.00000000E-01  8.00000000E-01
  1.50000000E+00  8.00000000E-01  8.00000000E-01  1.50000000E+00  8.00000000E-01
  8.00000000E-01  1.50000000E+00  8.00000000E-01  8.00000000E-01  1.50000000E+00
  8.00000000E-01  8.00000000E-01  1.50000000E+00  8.00000000E-01  8.00000000E-01
  1.50000000E+00  8.00000000E-01  8.00000000E-01  1.50000000E+00  8.00000000E-01
  8.00000000E-01  1.50000000E+00  8.00000000E-01  8.00000000E-01  1.50000000E+00
  8.00000000E-01  8.00000000E-01  1.50000000E+00  8.00000000E-01  8.00000000E-01
  1.50000000E+00  8.00000000E-01  8.00000000E-01  1.50000000E+00  8.00000000E-01
  8.00000000E-01  1.50000000E+00  8.00000000E-01  8.00000000E-01  1.50000000E+00
  8.00000000E-01  8.00000000E-01  1.50000000E+00  8.00000000E-01  8.00000000E-01
  1.50000000E+00  8.00000000E-01  8.00000000E-01  1.50000000E+00  8.00000000E-01
  8.00000000E-01  1.50000000E+00  8.00000000E-01  8.00000000E-01  1.50000000E+00
  8.00000000E-01  8.00000000E-01  1.50000000E+00  8.00000000E-01  8.00000000E-01
  1.50000000E+00  8.00000000E-01  8.00000000E-01  1.50000000E+00  8.00000000E-01
  8.00000000E-01  1.50000000E+00  8.00000000E-01  8.00000000E-01  1.50000000E+00
  8.00000000E-01  8.00000000E-01  1.50000000E+00  8.00000000E-01  8.00000000E-01
  1.50000000E+00  8.00000000E-01  8.00000000E-01  1.50000000E+00  8.00000000E-01
  8.00000000E-01  1.50000000E+00  8.00000000E-01  8.00000000E-01  1.50000000E+00
  8.00000000E-01  8.00000000E-01  1.50000000E+00  8.00000000E-01  8.00000000E-01
  1.50000000E+00  8.00000000E-01  8.00000000E-01  1.50000000E+00  8.00000000E-01
  8.00000000E-01  1.50000000E+00  8.00000000E-01  8.00000000E-01  1.50000000E+00
  8.00000000E-01  8.00000000E-01  1.50000000E+00  8.00000000E-01  8.00000000E-01
  1.50000000E+00  8.00000000E-01  8.00000000E-01  1.50000000E+00  8.00000000E-01
  8.00000000E-01  1.50000000E+00  8.00000000E-01  8.00000000E-01  1.50000000E+00
  8.00000000E-01  8.00000000E-01  1.50000000E+00  8.00000000E-01  8.00000000E-01
  1.50000000E+00  8.00000000E-01  8.00000000E-01  1.50000000E+00  8.00000000E-01
  8.00000000E-01  1.50000000E+00  8.00000000E-01  8.00000000E-01  1.50000000E+00
  8.00000000E-01  8.00000000E-01  1.50000000E+00  8.00000000E-01  8.00000000E-01
  1.50000000E+00  8.00000000E-01  8.00000000E-01  1.50000000E+00  8.00000000E-01
  8.00000000E-01  1.50000000E+00  8.00000000E-01  8.00000000E-01  1.50000000E+00
  8.00000000E-01  8.00000000E-01  1.50000000E+00  8.00000000E-01  8.00000000E-01
  1.50000000E+00  8.00000000E-01  8.00000000E-01  1.50000000E+00  8.00000000E-01
  8.00000000E-01  1.50000000E+00  8.00000000E-01  8.00000000E-01  1.50000000E+00
  8.00000000E-01  8.00000000E-01  1.50000000E+00  8.00000000E-01  8.00000000E-01
  1.50000000E+00  8.00000000E-01  8.00000000E-01  1.50000000E+00  8.00000000E-01
  8.00000000E-01  1.50000000E+00  8.00000000E-01  8.00000000E-01  1.50000000E+00
  8.00000000E-01  8.00000000E-01  1.50000000E+00  8.00000000E-01  8.00000000E-01
  1.50000000E+00  8.00000000E-01  8.00000000E-01  1.50000000E+00  8.00000000E-01
  8.00000000E-01  1.50000000E+00  8.00000000E-01  8.00000000E-01  1.50000000E+00
  8.00000000E-01  8.00000000E-01  1.50000000E+00  8.00000000E-01  8.00000000E-01
  1.50000000E+00  8.00000000E-01  8.00000000E-01  1.50000000E+00  8.00000000E-01
  8.00000000E-01  1.50000000E+00  8.00000000E-01  8.00000000E-01  1.50000000E+00
  8.00000000E-01  8.00000000E-01  1.50000000E+00  8.00000000E-01  8.00000000E-01
  1.50000000E+00  8.00000000E-01  8.00000000E-01  1.50000000E+00  8.00000000E-01
  8.00000000E-01  1.50000000E+00  8.00000000E-01  8.00000000E-01  1.50000000E+00
  8.00000000E-01  8.00000000E-01  1.50000000E+00  8.00000000E-01  8.00000000E-01
  1.50000000E+00  8.00000000E-01  8.00000000E-01  1.50000000E+00  8.00000000E-01
  8.00000000E-01  1.50000000E+00  8.00000000E-01  8.00000000E-01  1.50000000E+00
  8.00000000E-01  8.00000000E-01  1.50000000E+00  8.00000000E-01  8.00000000E-01
  1.50000000E+00  8.00000000E-01  8.00000000E-01  1.50000000E+00  8.00000000E-01
  8.00000000E-01  1.50000000E+00  8.00000000E-01  8.00000000E-01  1.50000000E+00
  8.00000000E-01  8.00000000E-01  1.50000000E+00  8.00000000E-01  8.00000000E-01
  1.50000000E+00  8.00000000E-01  8.00000000E-01  1.50000000E+00  8.00000000E-01
  8.00000000E-01  1.50000000E+00  8.00000000E-01  8.00000000E-01  1.50000000E+00
  8.00000000E-01  8.00000000E-01  1.50000000E+00  8.00000000E-01  8.00000000E-01
  1.50000000E+00  8.00000000E-01  8.00000000E-01  1.50000000E+00  8.00000000E-01
  8.00000000E-01  1.50000000E+00  8.00000000E-01  8.00000000E-01  1.50000000E+00
  8.00000000E-01  8.00000000E-01  1.50000000E+00  8.00000000E-01  8.00000000E-01
  1.50000000E+00  8.00000000E-01  8.00000000E-01  1.50000000E+00  8.00000000E-01
  8.00000000E-01  1.50000000E+00  8.00000000E-01  8.00000000E-01  1.50000000E+00
  8.00000000E-01  8.00000000E-01  1.50000000E+00  8.00000000E-01  8.00000000E-01
  1.50000000E+00  8.00000000E-01  8.00000000E-01  1.50000000E+00  8.00000000E-01
  8.00000000E-01  1.50000000E+00  8.00000000E-01  8.00000000E-01  1.50000000E+00
  8.00000000E-01  8.00000000E-01  1.50000000E+00  8.00000000E-01  8.00000000E-01
  1.50000000E+00  8.00000000E-01  8.00000000E-01  1.50000000E+00  8.00000000E-01
  8.00000000E-01  1.50000000E+00  8.00000000E-01  8.00000000E-01  1.50000000E+00
  8.00000000E-01  8.00000000E-01  1.50000000E+00  8.00000000E-01  8.00000000E-01
  1.50000000E+00  8.00000000E-01  8.00000000E-01  1.50000000E+00  8.00000000E-01
  8.00000000E-01  1.50000000E+00  8.00000000E-01  8.00000000E-01  1.50000000E+00
  8.00000000E-01  8.00000000E-01  1.50000000E+00  8.00000000E-01  8.00000000E-01
  1.50000000E+00  8.00000000E-01  8.00000000E-01  1.50000000E+00  8.00000000E-01
  8.00000000E-01  1.50000000E+00  8.00000000E-01  8.00000000E-01  1.50000000E+00
  8.00000000E-01  8.00000000E-01  1.50000000E+00  8.00000000E-01  8.00000000E-01
  1.50000000E+00  8.00000000E-01  8.00000000E-01  1.50000000E+00  8.00000000E-01
  8.00000000E-01  1.50000000E+00  8.00000000E-01  8.00000000E-01  1.50000000E+00
  8.00000000E-01  8.00000000E-01  1.50000000E+00  8.00000000E-01  8.00000000E-01
  1.50000000E+00  8.00000000E-01  8.00000000E-01  1.50000000E+00  8.00000000E-01
  8.00000000E-01  1.50000000E+00  8.00000000E-01  8.00000000E-01  1.50000000E+00
  8.00000000E-01  8.00000000E-01  1.50000000E+00  8.00000000E-01  8.00000000E-01
  1.50000000E+00  8.00000000E-01  8.00000000E-01  1.50000000E+00  8.00000000E-01
  8.00000000E-01  1.50000000E+00  8.00000000E-01  8.00000000E-01  1.50000000E+00
  8.00000000E-01  8.00000000E-01  1.50000000E+00  8.00000000E-01  8.00000000E-01
  1.50000000E+00  8.00000000E-01  8.00000000E-01  1.50000000E+00  8.00000000E-01
  8.00000000E-01  1.50000000E+00  8.00000000E-01  8.00000000E-01  1.50000000E+00
  8.00000000E-01  8.00000000E-01  1.50000000E+00  8.00000000E-01  8.00000000E-01
  1.50000000E+00  8.00000000E-01  8.00000000E-01  1.50000000E+00  8.00000000E-01
  8.00000000E-01  1.50000000E+00  8.00000000E-01  8.00000000E-01  1.50000000E+00
  8.00000000E-01  8.00000000E-01  1.50000000E+00  8.00000000E-01  8.00000000E-01
  1.50000000E+00  8.00000000E-01  8.00000000E-01  1.50000000E+00  8.00000000E-01
  8.00000000E-01  1.50000000E+00  8.00000000E-01  8.00000000E-01  1.50000000E+00
  8.00000000E-01  8.00000000E-01  1.50000000E+00  8.00000000E-01  8.00000000E-01
  1.50000000E+00  8.00000000E-01  8.00000000E-01  1.50000000E+00  8.00000000E-01
  8.00000000E-01  1.50000000E+00  8.00000000E-01  8.00000000E-01  1.50000000E+00
  8.00000000E-01  8.00000000E-01  1.50000000E+00  8.00000000E-01  8.00000000E-01
  1.50000000E+00  8.00000000E-01  8.00000000E-01  1.50000000E+00  8.00000000E-01
  8.00000000E-01  1.50000000E+00  8.00000000E-01  8.00000000E-01  1.50000000E+00
  8.00000000E-01  8.00000000E-01  1.50000000E+00  8.00000000E-01  8.00000000E-01
  1.50000000E+00  8.00000000E-01  8.00000000E-01  1.50000000E+00  8.00000000E-01
  8.00000000E-01  1.50000000E+00  8.00000000E-01  8.00000000E-01  1.50000000E+00
  8.00000000E-01  8.00000000E-01  1.50000000E+00  8.00000000E-01  8.00000000E-01
  1.50000000E+00  8.00000000E-01  8.00000000E-01  1.50000000E+00  8.00000000E-01
  8.00000000E-01  1.50000000E+00  8.00000000E-01  8.00000000E-01  1.50000000E+00
  8.00000000E-01  8.00000000E-01  1.50000000E+00  8.00000000E-01  8.00000000E-01
  1.50000000E+00  8.00000000E-01  8.00000000E-01  1.50000000E+00  8.00000000E-01
  8.00000000E-01  1.50000000E+00  8.00000000E-01  8.00000000E-01  1.50000000E+00
  8.00000000E-01  8.00000000E-01  1.50000000E+00  8.00000000E-01  8.00000000E-01
  1.50000000E+00  8.00000000E-01  8.00000000E-01  1.50000000E+00  8.00000000E-01
  8.00000000E-01  1.50000000E+00  8.00000000E-01  8.00000000E-01  1.50000000E+00
  8.00000000E-01  8.00000000E-01  1.50000000E+00  8.00000000E-01  8.00000000E-01
  1.50000000E+00  8.00000000E-01  8.00000000E-01  1.50000000E+00  8.00000000E-01
  8.00000000E-01  1.50000000E+00  8.00000000E-01  8.00000000E-01  1.50000000E+00
  8.00000000E-01  8.00000000E-01  1.50000000E+00  8.00000000E-01  8.00000000E-01
  1.50000000E+00  8.00000000E-01  8.00000000E-01  1.50000000E+00  8.00000000E-01
  8.00000000E-01  1.50000000E+00  8.00000000E-01  8.00000000E-01  1.50000000E+00
  8.00000000E-01  8.00000000E-01  1.50000000E+00  8.00000000E-01  8.00000000E-01
  1.50000000E+00  8.00000000E-01  8.00000000E-01  1.50000000E+00  8.00000000E-01
  8.00000000E-01  1.50000000E+00  8.00000000E-01  8.00000000E-01  1.50000000E+00
  8.00000000E-01  8.00000000E-01  1.50000000E+00  8.00000000E-01  8.00000000E-01
  1.50000000E+00  8.00000000E-01  8.00000000E-01  1.50000000E+00  8.00000000E-01
  8.00000000E-01  1.50000000E+00  8.00000000E-01  8.00000000E-01  1.50000000E+00
  8.00000000E-01  8.00000000E-01  1.50000000E+00  8.00000000E-01  8.00000000E-01
  1.50000000E+00  8.00000000E-01  8.00000000E-01  1.50000000E+00  8.00000000E-01
  8.00000000E-01  1.50000000E+00  8.00000000E-01  8.00000000E-01  1.50000000E+00
  8.00000000E-01  8.00000000E-01  1.50000000E+00  8.00000000E-01  8.00000000E-01
  1.50000000E+00  8.00000000E-01  8.00000000E-01  1.50000000E+00  8.00000000E-01
  8.00000000E-01  1.50000000E+00  8.00000000E-01  8.00000000E-01  1.50000000E+00
  8.00000000E-01  8.00000000E-01  1.50000000E+00  8.00000000E-01  8.00000000E-01
  1.50000000E+00  8.00000000E-01  8.00000000E-01  1.50000000E+00  8.00000000E-01
  8.00000000E-01  1.50000000E+00  8.00000000E-01  8.00000000E-01  1.50000000E+00
  8.00000000E-01  8.00000000E-01  1.50000000E+00  8.00000000E-01  8.00000000E-01
  1.50000000E+00  8.00000000E-01  8.00000000E-01  1.50000000E+00  8.00000000E-01
  8.00000000E-01  1.50000000E+00  8.00000000E-01  8.00000000E-01  1.50000000E+00
  8.00000000E-01  8.00000000E-01  1.50000000E+00  8.00000000E-01  8.00000000E-01
  1.50000000E+00  8.00000000E-01  8.00000000E-01  1.50000000E+00  8.00000000E-01
  8.00000000E-01  1.50000000E+00  8.00000000E-01  8.00000000E-01  1.50000000E+00
  8.00000000E-01  8.00000000E-01  1.50000000E+00  8.00000000E-01  8.00000000E-01
  1.50000000E+00  8.00000000E-01  8.00000000E-01  1.50000000E+00  8.00000000E-01
  8.00000000E-01  1.50000000E+00  8.00000000E-01  8.00000000E-01  1.50000000E+00
  8.00000000E-01  8.00000000E-01  1.50000000E+00  8.00000000E-01  8.00000000E-01
  1.50000000E+00  8.00000000E-01  8.00000000E-01  1.50000000E+00  8.00000000E-01
  8.00000000E-01  1.50000000E+00  8.00000000E-01  8.00000000E-01  1.50000000E+00
  8.00000000E-01  8.00000000E-01  1.50000000E+00  8.00000000E-01  8.00000000E-01
  1.50000000E+00  8.00000000E-01  8.00000000E-01  1.50000000E+00  8.00000000E-01
  8.00000000E-01  1.50000000E+00  8.00000000E-01  8.00000000E-01  1.50000000E+00
  8.00000000E-01  8.00000000E-01  1.50000000E+00  8.00000000E-01  8.00000000E-01
  1.50000000E+00  8.00000000E-01  8.00000000E-01  1.50000000E+00  8.00000000E-01
  8.00000000E-01  1.50000000E+00  8.00000000E-01  8.00000000E-01  1.50000000E+00
  8.00000000E-01  8.00000000E-01  1.50000000E+00  8.00000000E-01  8.00000000E-01
  1.50000000E+00  8.00000000E-01  8.00000000E-01  1.50000000E+00  8.00000000E-01
  8.00000000E-01  1.50000000E+00  8.00000000E-01  8.00000000E-01  1.50000000E+00
  8.00000000E-01  8.00000000E-01  1.50000000E+00  8.00000000E-01  8.00000000E-01
  1.50000000E+00  8.00000000E-01  8.00000000E-01  1.50000000E+00  8.00000000E-01
  8.00000000E-01  1.50000000E+00  8.00000000E-01  8.00000000E-01  1.50000000E+00
  8.00000000E-01  8.00000000E-01  1.50000000E+00  8.00000000E-01  8.00000000E-01
  1.50000000E+00  8.00000000E-01  8.00000000E-01  1.50000000E+00  8.00000000E-01
  8.00000000E-01  1.50000000E+00  8.00000000E-01  8.00000000E-01  1.50000000E+00
  8.00000000E-01  8.00000000E-01  1.50000000E+00  8.00000000E-01  8.00000000E-01
  1.50000000E+00  8.00000000E-01  8.00000000E-01  1.50000000E+00  8.00000000E-01
  8.00000000E-01  1.50000000E+00  8.00000000E-01  8.00000000E-01  1.50000000E+00
  8.00000000E-01  8.00000000E-01  1.50000000E+00  8.00000000E-01  8.00000000E-01
  1.50000000E+00  8.00000000E-01  8.00000000E-01  1.50000000E+00  8.00000000E-01
  8.00000000E-01  1.50000000E+00  8.00000000E-01  8.00000000E-01  1.50000000E+00
  8.00000000E-01  8.00000000E-01  1.50000000E+00  8.00000000E-01  8.00000000E-01
  1.50000000E+00  8.00000000E-01  8.00000000E-01  1.50000000E+00  8.00000000E-01
  8.00000000E-01  1.50000000E+00  8.00000000E-01  8.00000000E-01  1.50000000E+00
  8.00000000E-01  8.00000000E-01  1.50000000E+00  8.00000000E-01  8.00000000E-01
  1.50000000E+00  8.00000000E-01  8.00000000E-01  1.50000000E+00  8.00000000E-01
  8.00000000E-01  1.50000000E+00  8.00000000E-01  8.00000000E-01  1.50000000E+00
  8.00000000E-01  8.00000000E-01  1.50000000E+00  8.00000000E-01  8.00000000E-01
  1.50000000E+00  8.00000000E-01  8.00000000E-01  1.50000000E+00  8.00000000E-01
  8.00000000E-01  1.50000000E+00  8.00000000E-01  8.00000000E-01  1.50000000E+00
  8.00000000E-01  8.00000000E-01  1.50000000E+00  8.00000000E-01  8.00000000E-01
  1.50000000E+00  8.00000000E-01  8.00000000E-01  1.50000000E+00  8.00000000E-01
  8.00000000E-01  1.50000000E+00  8.00000000E-01  8.00000000E-01  1.50000000E+00
  8.00000000E-01  8.00000000E-01  1.50000000E+00  8.00000000E-01  8.00000000E-01
  1.50000000E+00  8.00000000E-01  8.00000000E-01  1.50000000E+00  8.00000000E-01
  8.00000000E-01  1.50000000E+00  8.00000000E-01  8.00000000E-01  1.50000000E+00
  8.00000000E-01  8.00000000E-01  1.50000000E+00  8.00000000E-01  8.00000000E-01
  1.50000000E+00  8.00000000E-01  8.00000000E-01  1.50000000E+00  8.00000000E-01
  8.00000000E-01  1.50000000E+00  8.00000000E-01  8.00000000E-01  1.50000000E+00
  8.00000000E-01  8.00000000E-01  1.50000000E+00  8.00000000E-01  8.00000000E-01
  1.50000000E+00  8.00000000E-01  8.00000000E-01  1.50000000E+00  8.00000000E-01
  8.00000000E-01  1.50000000E+00  8.00000000E-01  8.00000000E-01  1.50000000E+00
  8.00000000E-01  8.00000000E-01  1.50000000E+00  8.00000000E-01  8.00000000E-01
  1.50000000E+00  8.00000000E-01  8.00000000E-01  1.50000000E+00  8.00000000E-01
  8.00000000E-01  1.50000000E+00  8.00000000E-01  8.00000000E-01  1.50000000E+00
  8.00000000E-01  8.00000000E-01  1.50000000E+00  8.00000000E-01  8.00000000E-01
  1.50000000E+00  8.00000000E-01  8.00000000E-01  1.50000000E+00  8.00000000E-01
  8.00000000E-01  1.50000000E+00  8.00000000E-01  8.00000000E-01  1.50000000E+00
  8.00000000E-01  8.00000000E-01  1.50000000E+00  8.00000000E-01  8.00000000E-01
  1.50000000E+00  8.00000000E-01  8.00000000E-01  1.50000000E+00  8.00000000E-01
  8.00000000E-01  1.50000000E+00  8.00000000E-01  8.00000000E-01  1.50000000E+00
  8.00000000E-01  8.00000000E-01  1.50000000E+00  8.00000000E-01  8.00000000E-01
  1.50000000E+00  8.00000000E-01  8.00000000E-01  1.50000000E+00  8.00000000E-01
  8.00000000E-01  1.50000000E+00  8.00000000E-01  8.00000000E-01  1.50000000E+00
  8.00000000E-01  8.00000000E-01  1.50000000E+00  8.00000000E-01  8.00000000E-01
  1.50000000E+00  8.00000000E-01  8.00000000E-01  1.50000000E+00  8.00000000E-01
  8.00000000E-01  1.50000000E+00  8.00000000E-01  8.00000000E-01  1.50000000E+00
  8.00000000E-01  8.00000000E-01  1.50000000E+00  8.00000000E-01  8.00000000E-01
  1.50000000E+00  8.00000000E-01  8.00000000E-01  1.50000000E+00  8.00000000E-01
  8.00000000E-01  1.50000000E+00  8.00000000E-01  8.00000000E-01  1.50000000E+00
  8.00000000E-01  8.00000000E-01  1.50000000E+00  8.00000000E-01  8.00000000E-01
  1.50000000E+00  8.00000000E-01  8.00000000E-01  1.50000000E+00  8.00000000E-01
  8.00000000E-01  1.50000000E+00  8.00000000E-01  8.00000000E-01  1.50000000E+00
  8.00000000E-01  8.00000000E-01  1.50000000E+00  8.00000000E-01  8.00000000E-01
  1.50000000E+00  8.00000000E-01  8.00000000E-01  1.50000000E+00  8.00000000E-01
  8.00000000E-01  1.50000000E+00  8.00000000E-01  8.00000000E-01  1.50000000E+00
  8.00000000E-01  8.00000000E-01  1.50000000E+00  8.00000000E-01  8.00000000E-01
  1.50000000E+00  8.00000000E-01  8.00000000E-01  1.50000000E+00  8.00000000E-01
  8.00000000E-01  1.50000000E+00  8.00000000E-01  8.00000000E-01  1.50000000E+00
  8.00000000E-01  8.00000000E-01  1.50000000E+00  8.00000000E-01  8.00000000E-01
  1.50000000E+00  8.00000000E-01  8.00000000E-01  1.50000000E+00  8.00000000E-01
  8.00000000E-01  1.50000000E+00  8.00000000E-01  8.00000000E-01  1.50000000E+00
  8.00000000E-01  8.00000000E-01  1.50000000E+00  8.00000000E-01  8.00000000E-01
  1.50000000E+00  8.00000000E-01  8.00000000E-01  1.50000000E+00  8.00000000E-01
  8.00000000E-01  1.50000000E+00  8.00000000E-01  8.00000000E-01  1.50000000E+00
  8.00000000E-01  8.00000000E-01  1.50000000E+00  8.00000000E-01  8.00000000E-01
  1.50000000E+00  8.00000000E-01  8.00000000E-01  1.50000000E+00  8.00000000E-01
  8.00000000E-01  1.50000000E+00  8.00000000E-01  8.00000000E-01  1.50000000E+00
  8.00000000E-01  8.00000000E-01  1.50000000E+00  8.00000000E-01  8.00000000E-01
  1.50000000E+00  8.00000000E-01  8.00000000E-01  1.50000000E+00  8.00000000E-01
  8.00000000E-01  1.50000000E+00  8.00000000E-01  8.00000000E-01  1.50000000E+00
  8.00000000E-01  8.00000000E-01  1.50000000E+00  8.00000000E-01  8.00000000E-01
  1.50000000E+00  8.00000000E-01  8.00000000E-01  1.50000000E+00  8.00000000E-01
  8.00000000E-01  1.50000000E+00  8.00000000E-01  8.00000000E-01  1.50000000E+00
  8.00000000E-01  8.00000000E-01  1.50000000E+00  8.00000000E-01  8.00000000E-01
  1.50000000E+00  8.00000000E-01  8.00000000E-01  1.50000000E+00  8.00000000E-01
  8.00000000E-01  1.50000000E+00  8.00000000E-01  8.00000000E-01  1.50000000E+00
  8.00000000E-01  8.00000000E-01  1.50000000E+00  8.00000000E-01  8.00000000E-01
  1.50000000E+00  8.00000000E-01  8.00000000E-01  1.50000000E+00  8.00000000E-01
  8.00000000E-01  1.50000000E+00  8.00000000E-01  8.00000000E-01  1.50000000E+00
  8.00000000E-01  8.00000000E-01  1.50000000E+00  8.00000000E-01  8.00000000E-01
  1.50000000E+00  8.00000000E-01  8.00000000E-01  1.50000000E+00  8.00000000E-01
  8.00000000E-01  1.50000000E+00  8.00000000E-01  8.00000000E-01  1.50000000E+00
  8.00000000E-01  8.00000000E-01  1.50000000E+00  8.00000000E-01  8.00000000E-01
  1.50000000E+00  8.00000000E-01  8.00000000E-01  1.50000000E+00  8.00000000E-01
  8.00000000E-01  1.50000000E+00  8.00000000E-01  8.00000000E-01  1.50000000E+00
  8.00000000E-01  8.00000000E-01  1.50000000E+00  8.00000000E-01  8.00000000E-01
  1.50000000E+00  8.00000000E-01  8.00000000E-01  1.50000000E+00  8.00000000E-01
  8.00000000E-01  1.50000000E+00  8.00000000E-01  8.00000000E-01  1.50000000E+00
  8.00000000E-01  8.00000000E-01  1.50000000E+00  8.00000000E-01  8.00000000E-01
  1.50000000E+00  8.00000000E-01  8.00000000E-01  1.50000000E+00  8.00000000E-01
  8.00000000E-01  1.50000000E+00  8.00000000E-01  8.00000000E-01  1.50000000E+00
  8.00000000E-01  8.00000000E-01  1.50000000E+00  8.00000000E-01  8.00000000E-01
  1.50000000E+00  8.00000000E-01  8.00000000E-01  1.50000000E+00  8.00000000E-01
  8.00000000E-01  1.50000000E+00  8.00000000E-01  8.00000000E-01  1.50000000E+00
  8.00000000E-01  8.00000000E-01  1.50000000E+00  8.00000000E-01  8.00000000E-01
  1.50000000E+00  8.00000000E-01  8.00000000E-01  1.50000000E+00  8.00000000E-01
  8.00000000E-01  1.50000000E+00  8.00000000E-01  8.00000000E-01  1.50000000E+00
  8.00000000E-01  8.00000000E-01  1.50000000E+00  8.00000000E-01  8.00000000E-01
  1.50000000E+00  8.00000000E-01  8.00000000E-01  1.50000000E+00  8.00000000E-01
  8.00000000E-01  1.50000000E+00  8.00000000E-01  8.00000000E-01  1.50000000E+00
  8.00000000E-01  8.00000000E-01  1.50000000E+00  8.00000000E-01  8.00000000E-01
  1.50000000E+00  8.00000000E-01  8.00000000E-01  1.50000000E+00  8.00000000E-01
  8.00000000E-01  1.50000000E+00  8.00000000E-01  8.00000000E-01  1.50000000E+00
  8.00000000E-01  8.00000000E-01  1.50000000E+00  8.00000000E-01  8.00000000E-01
  1.50000000E+00  8.00000000E-01  8.00000000E-01  1.50000000E+00  8.00000000E-01
  8.00000000E-01  1.50000000E+00  8.00000000E-01  8.00000000E-01  1.50000000E+00
  8.00000000E-01  8.00000000E-01  1.50000000E+00  8.00000000E-01  8.00000000E-01
  1.50000000E+00  8.00000000E-01  8.00000000E-01  1.50000000E+00  8.00000000E-01
  8.00000000E-01  1.50000000E+00  8.00000000E-01  8.00000000E-01  1.50000000E+00
  8.00000000E-01  8.00000000E-01  1.50000000E+00  8.00000000E-01  8.00000000E-01
  1.50000000E+00  8.00000000E-01  8.00000000E-01  1.50000000E+00  8.00000000E-01
  8.00000000E-01  1.50000000E+00  8.00000000E-01  8.00000000E-01  1.50000000E+00
  8.00000000E-01  8.00000000E-01  1.50000000E+00  8.00000000E-01  8.00000000E-01
  1.50000000E+00  8.00000000E-01  8.00000000E-01  1.50000000E+00  8.00000000E-01
  8.00000000E-01  1.50000000E+00  8.00000000E-01  8.00000000E-01  1.50000000E+00
  8.00000000E-01  8.00000000E-01  1.50000000E+00  8.00000000E-01  8.00000000E-01
  1.50000000E+00  8.00000000E-01  8.00000000E-01  1.50000000E+00  8.00000000E-01
  8.00000000E-01  1.50000000E+00  8.00000000E-01  8.00000000E-01  1.50000000E+00
  8.00000000E-01  8.00000000E-01  1.50000000E+00  8.00000000E-01  8.00000000E-01
  1.50000000E+00  8.00000000E-01  8.00000000E-01  1.50000000E+00  8.00000000E-01
  8.00000000E-01  1.50000000E+00  8.00000000E-01  8.00000000E-01  1.50000000E+00
  8.00000000E-01  8.00000000E-01  1.50000000E+00  8.00000000E-01  8.00000000E-01
  1.50000000E+00  8.00000000E-01  8.00000000E-01  1.50000000E+00  8.00000000E-01
  8.00000000E-01  1.50000000E+00  8.00000000E-01  8.00000000E-01  1.50000000E+00
  8.00000000E-01  8.00000000E-01  1.50000000E+00  8.00000000E-01  8.00000000E-01
  1.50000000E+00  8.00000000E-01  8.00000000E-01  1.50000000E+00  8.00000000E-01
  8.00000000E-01  1.50000000E+00  8.00000000E-01  8.00000000E-01  1.50000000E+00
  8.00000000E-01  8.00000000E-01  1.50000000E+00  8.00000000E-01  8.00000000E-01
  1.50000000E+00  8.00000000E-01  8.00000000E-01  1.50000000E+00  8.00000000E-01
  8.00000000E-01  1.50000000E+00  8.00000000E-01  8.00000000E-01  1.50000000E+00
  8.00000000E-01  8.00000000E-01  1.50000000E+00  8.00000000E-01  8.00000000E-01
  1.50000000E+00  8.00000000E-01  8.00000000E-01  1.50000000E+00  8.00000000E-01
  8.00000000E-01  1.50000000E+00  8.00000000E-01  8.00000000E-01  1.50000000E+00
  8.00000000E-01  8.00000000E-01  1.50000000E+00  8.00000000E-01  8.00000000E-01
  1.50000000E+00  8.00000000E-01  8.00000000E-01  1.50000000E+00  8.00000000E-01
  8.00000000E-01  1.50000000E+00  8.00000000E-01  8.00000000E-01  1.50000000E+00
  8.00000000E-01  8.00000000E-01  1.50000000E+00  8.00000000E-01  8.00000000E-01
  1.50000000E+00  8.00000000E-01  8.00000000E-01  1.50000000E+00  8.00000000E-01
  8.00000000E-01  1.50000000E+00  8.00000000E-01  8.00000000E-01  1.50000000E+00
  8.00000000E-01  8.00000000E-01  1.50000000E+00  8.00000000E-01  8.00000000E-01
  1.50000000E+00  8.00000000E-01  8.00000000E-01  1.50000000E+00  8.00000000E-01
  8.00000000E-01  1.50000000E+00  8.00000000E-01  8.00000000E-01  1.50000000E+00
  8.00000000E-01  8.00000000E-01  1.50000000E+00  8.00000000E-01  8.00000000E-01
  1.50000000E+00  8.00000000E-01  8.00000000E-01  1.50000000E+00  8.00000000E-01
  8.00000000E-01  1.50000000E+00  8.00000000E-01  8.00000000E-01  1.50000000E+00
  8.00000000E-01  8.00000000E-01  1.50000000E+00  8.00000000E-01  8.00000000E-01
  1.50000000E+00  8.00000000E-01  8.00000000E-01  1.50000000E+00  8.00000000E-01
  8.00000000E-01  1.50000000E+00  8.00000000E-01  8.00000000E-01  1.50000000E+00
  8.00000000E-01  8.00000000E-01  1.50000000E+00  8.00000000E-01  8.00000000E-01
  1.50000000E+00  8.00000000E-01  8.00000000E-01  1.50000000E+00  8.00000000E-01
  8.00000000E-01  1.50000000E+00  8.00000000E-01  8.00000000E-01  1.50000000E+00
  8.00000000E-01  8.00000000E-01  1.50000000E+00  8.00000000E-01  8.00000000E-01
  1.50000000E+00  8.00000000E-01  8.00000000E-01  1.50000000E+00  8.00000000E-01
  8.00000000E-01  1.50000000E+00  8.00000000E-01  8.00000000E-01  1.50000000E+00
  8.00000000E-01  8.00000000E-01  1.50000000E+00  8.00000000E-01  8.00000000E-01
  1.50000000E+00  8.00000000E-01  8.00000000E-01  1.50000000E+00  8.00000000E-01
  8.00000000E-01  1.50000000E+00  8.00000000E-01  8.00000000E-01  1.50000000E+00
  8.00000000E-01  8.00000000E-01  1.50000000E+00  8.00000000E-01  8.00000000E-01
  1.50000000E+00  8.00000000E-01  8.00000000E-01  1.50000000E+00  8.00000000E-01
  8.00000000E-01  1.50000000E+00  8.00000000E-01  8.00000000E-01  1.50000000E+00
  8.00000000E-01  8.00000000E-01  1.50000000E+00  8.00000000E-01  8.00000000E-01
  1.50000000E+00  8.00000000E-01  8.00000000E-01  1.50000000E+00  8.00000000E-01
  8.00000000E-01  1.50000000E+00  8.00000000E-01  8.00000000E-01  1.50000000E+00
  8.00000000E-01  8.00000000E-01  1.50000000E+00  8.00000000E-01  8.00000000E-01
  1.50000000E+00  8.00000000E-01  8.00000000E-01  1.50000000E+00  8.00000000E-01
  8.00000000E-01  1.50000000E+00  8.00000000E-01  8.00000000E-01  1.50000000E+00
  8.00000000E-01  8.00000000E-01  1.50000000E+00  8.00000000E-01  8.00000000E-01
  1.50000000E+00  8.00000000E-01  8.00000000E-01  1.50000000E+00  8.00000000E-01
  8.00000000E-01  1.50000000E+00  8.00000000E-01  8.00000000E-01  1.50000000E+00
  8.00000000E-01  8.00000000E-01  1.50000000E+00  8.00000000E-01  8.00000000E-01
  1.50000000E+00  8.00000000E-01  8.00000000E-01  1.50000000E+00  8.00000000E-01
  8.00000000E-01  1.50000000E+00  8.00000000E-01  8.00000000E-01  1.50000000E+00
  8.00000000E-01  8.00000000E-01  1.50000000E+00  8.00000000E-01  8.00000000E-01
  1.50000000E+00  8.00000000E-01  8.00000000E-01  1.50000000E+00  8.00000000E-01
  8.00000000E-01  1.50000000E+00  8.00000000E-01  8.00000000E-01  1.50000000E+00
  8.00000000E-01  8.00000000E-01  1.50000000E+00  8.00000000E-01  8.00000000E-01
  1.50000000E+00  8.00000000E-01  8.00000000E-01  1.50000000E+00  8.00000000E-01
  8.00000000E-01  1.50000000E+00  8.00000000E-01  8.00000000E-01  1.50000000E+00
  8.00000000E-01  8.00000000E-01  1.50000000E+00  8.00000000E-01  8.00000000E-01
  1.50000000E+00  8.00000000E-01  8.00000000E-01  1.50000000E+00  8.00000000E-01
  8.00000000E-01  1.50000000E+00  8.00000000E-01  8.00000000E-01  1.50000000E+00
  8.00000000E-01  8.00000000E-01  1.50000000E+00  8.00000000E-01  8.00000000E-01
  1.50000000E+00  8.00000000E-01  8.00000000E-01  1.50000000E+00  8.00000000E-01
  8.00000000E-01  1.50000000E+00  8.00000000E-01  8.00000000E-01  1.50000000E+00
  8.00000000E-01  8.00000000E-01  1.50000000E+00  8.00000000E-01  8.00000000E-01
  1.50000000E+00  8.00000000E-01  8.00000000E-01  1.50000000E+00  8.00000000E-01
  8.00000000E-01  1.50000000E+00  8.00000000E-01  8.00000000E-01  1.50000000E+00
  8.00000000E-01  8.00000000E-01  1.50000000E+00  8.00000000E-01  8.00000000E-01
  1.50000000E+00  8.00000000E-01  8.00000000E-01  1.50000000E+00  8.00000000E-01
  8.00000000E-01  1.50000000E+00  8.00000000E-01  8.00000000E-01  1.50000000E+00
  8.00000000E-01  8.00000000E-01  1.50000000E+00  8.00000000E-01  8.00000000E-01
  1.50000000E+00  8.00000000E-01  8.00000000E-01  1.50000000E+00  8.00000000E-01
  8.00000000E-01  1.50000000E+00  8.00000000E-01  8.00000000E-01  1.50000000E+00
  8.00000000E-01  8.00000000E-01  1.50000000E+00  8.00000000E-01  8.00000000E-01
  1.50000000E+00  8.00000000E-01  8.00000000E-01  1.50000000E+00  8.00000000E-01
  8.00000000E-01  1.50000000E+00  8.00000000E-01  8.00000000E-01  1.50000000E+00
  8.00000000E-01  8.00000000E-01  1.50000000E+00  8.00000000E-01  8.00000000E-01
  1.50000000E+00  8.00000000E-01  8.00000000E-01  1.50000000E+00  8.00000000E-01
  8.00000000E-01  1.50000000E+00  8.00000000E-01  8.00000000E-01  1.50000000E+00
  8.00000000E-01  8.00000000E-01  1.50000000E+00  8.00000000E-01  8.00000000E-01
  1.50000000E+00  8.00000000E-01  8.00000000E-01  1.50000000E+00  8.00000000E-01
  8.00000000E-01  1.50000000E+00  8.00000000E-01  8.00000000E-01  1.50000000E+00
  8.00000000E-01  8.00000000E-01  1.50000000E+00  8.00000000E-01  8.00000000E-01
  1.50000000E+00  8.00000000E-01  8.00000000E-01  1.50000000E+00  8.00000000E-01
  8.00000000E-01  1.50000000E+00  8.00000000E-01  8.00000000E-01  1.50000000E+00
  8.00000000E-01  8.00000000E-01  1.50000000E+00  8.00000000E-01  8.00000000E-01
  1.50000000E+00  8.00000000E-01  8.00000000E-01  1.50000000E+00  8.00000000E-01
  8.00000000E-01  1.50000000E+00  8.00000000E-01  8.00000000E-01  1.50000000E+00
  8.00000000E-01  8.00000000E-01  1.50000000E+00  8.00000000E-01  8.00000000E-01
  1.50000000E+00  8.00000000E-01  8.00000000E-01  1.50000000E+00  8.00000000E-01
  8.00000000E-01  1.50000000E+00  8.00000000E-01  8.00000000E-01  1.50000000E+00
  8.00000000E-01  8.00000000E-01  1.50000000E+00  8.00000000E-01  8.00000000E-01
  1.50000000E+00  8.00000000E-01  8.00000000E-01  1.50000000E+00  8.00000000E-01
  8.00000000E-01  1.50000000E+00  8.00000000E-01  8.00000000E-01  1.50000000E+00
  8.00000000E-01  8.00000000E-01  1.50000000E+00  8.00000000E-01  8.00000000E-01
  1.50000000E+00  8.00000000E-01  8.00000000E-01  1.50000000E+00  8.00000000E-01
  8.00000000E-01  1.50000000E+00  8.00000000E-01  8.00000000E-01  1.50000000E+00
  8.00000000E-01  8.00000000E-01  1.50000000E+00  8.00000000E-01  8.00000000E-01
  1.50000000E+00  8.00000000E-01  8.00000000E-01  1.50000000E+00  8.00000000E-01
  8.00000000E-01  1.50000000E+00  8.00000000E-01  8.00000000E-01  1.50000000E+00
  8.00000000E-01  8.00000000E-01  1.50000000E+00  8.00000000E-01  8.00000000E-01
  1.50000000E+00  8.00000000E-01  8.00000000E-01  1.50000000E+00  8.00000000E-01
  8.00000000E-01  1.50000000E+00  8.00000000E-01  8.00000000E-01  1.50000000E+00
  8.00000000E-01  8.00000000E-01  1.50000000E+00  8.00000000E-01  8.00000000E-01
  1.50000000E+00  8.00000000E-01  8.00000000E-01  1.50000000E+00  8.00000000E-01
  8.00000000E-01  1.50000000E+00  8.00000000E-01  8.00000000E-01  1.50000000E+00
  8.00000000E-01  8.00000000E-01  1.50000000E+00  8.00000000E-01  8.00000000E-01
  1.50000000E+00  8.00000000E-01  8.00000000E-01  1.50000000E+00  8.00000000E-01
  8.00000000E-01  1.50000000E+00  8.00000000E-01  8.00000000E-01  1.50000000E+00
  8.00000000E-01  8.00000000E-01  1.50000000E+00  8.00000000E-01  8.00000000E-01
  1.50000000E+00  8.00000000E-01  8.00000000E-01  1.50000000E+00  8.00000000E-01
  8.00000000E-01  1.50000000E+00  8.00000000E-01  8.00000000E-01  1.50000000E+00
  8.00000000E-01  8.00000000E-01  1.50000000E+00  8.00000000E-01  8.00000000E-01
  1.50000000E+00  8.00000000E-01  8.00000000E-01  1.50000000E+00  8.00000000E-01
  8.00000000E-01  1.50000000E+00  8.00000000E-01  8.00000000E-01  1.50000000E+00
  8.00000000E-01  8.00000000E-01  1.50000000E+00  8.00000000E-01  8.00000000E-01
  1.50000000E+00  8.00000000E-01  8.00000000E-01  1.50000000E+00  8.00000000E-01
  8.00000000E-01  1.50000000E+00  8.00000000E-01  8.00000000E-01  1.50000000E+00
  8.00000000E-01  8.00000000E-01  1.50000000E+00  8.00000000E-01  8.00000000E-01
  1.50000000E+00  8.00000000E-01  8.00000000E-01  1.50000000E+00  8.00000000E-01
  8.00000000E-01  1.50000000E+00  8.00000000E-01  8.00000000E-01  1.50000000E+00
  8.00000000E-01  8.00000000E-01  1.50000000E+00  8.00000000E-01  8.00000000E-01
  1.50000000E+00  8.00000000E-01  8.00000000E-01  1.50000000E+00  8.00000000E-01
  8.00000000E-01  1.50000000E+00  8.00000000E-01  8.00000000E-01  1.50000000E+00
  8.00000000E-01  8.00000000E-01  1.50000000E+00  8.00000000E-01  8.00000000E-01
  1.50000000E+00  8.00000000E-01  8.00000000E-01  1.50000000E+00  8.00000000E-01
  8.00000000E-01  1.50000000E+00  8.00000000E-01  8.00000000E-01  1.50000000E+00
  8.00000000E-01  8.00000000E-01  1.50000000E+00  8.00000000E-01  8.00000000E-01
  1.50000000E+00  8.00000000E-01  8.00000000E-01  1.50000000E+00  8.00000000E-01
  8.00000000E-01  1.50000000E+00  8.00000000E-01  8.00000000E-01  1.50000000E+00
  8.00000000E-01  8.00000000E-01  1.50000000E+00  8.00000000E-01  8.00000000E-01
  1.50000000E+00  8.00000000E-01  8.00000000E-01  1.50000000E+00  8.00000000E-01
  8.00000000E-01  1.50000000E+00  8.00000000E-01  8.00000000E-01  1.50000000E+00
  8.00000000E-01  8.00000000E-01  1.50000000E+00  8.00000000E-01  8.00000000E-01
  1.50000000E+00  8.00000000E-01  8.00000000E-01  1.50000000E+00  8.00000000E-01
  8.00000000E-01  1.50000000E+00  8.00000000E-01  8.00000000E-01  1.50000000E+00
  8.00000000E-01  8.00000000E-01  1.50000000E+00  8.00000000E-01  8.00000000E-01
  1.50000000E+00  8.00000000E-01  8.00000000E-01  1.50000000E+00  8.00000000E-01
  8.00000000E-01  1.50000000E+00  8.00000000E-01  8.00000000E-01  1.50000000E+00
  8.00000000E-01  8.00000000E-01  1.50000000E+00  8.00000000E-01  8.00000000E-01
  1.50000000E+00  8.00000000E-01  8.00000000E-01  1.50000000E+00  8.00000000E-01
  8.00000000E-01  1.50000000E+00  8.00000000E-01  8.00000000E-01  1.50000000E+00
  8.00000000E-01  8.00000000E-01  1.50000000E+00  8.00000000E-01  8.00000000E-01
  1.50000000E+00  8.00000000E-01  8.00000000E-01  1.50000000E+00  8.00000000E-01
  8.00000000E-01  1.50000000E+00  8.00000000E-01  8.00000000E-01  1.50000000E+00
  8.00000000E-01  8.00000000E-01  1.50000000E+00  8.00000000E-01  8.00000000E-01
  1.50000000E+00  8.00000000E-01  8.00000000E-01  1.50000000E+00  8.00000000E-01
  8.00000000E-01  1.50000000E+00  8.00000000E-01  8.00000000E-01  1.50000000E+00
  8.00000000E-01  8.00000000E-01  1.50000000E+00  8.00000000E-01  8.00000000E-01
  1.50000000E+00  8.00000000E-01  8.00000000E-01  1.50000000E+00  8.00000000E-01
  8.00000000E-01  1.50000000E+00  8.00000000E-01  8.00000000E-01  1.50000000E+00
  8.00000000E-01  8.00000000E-01  1.50000000E+00  8.00000000E-01  8.00000000E-01
  1.50000000E+00  8.00000000E-01  8.00000000E-01  1.50000000E+00  8.00000000E-01
  8.00000000E-01  1.50000000E+00  8.00000000E-01  8.00000000E-01  1.50000000E+00
  8.00000000E-01  8.00000000E-01  1.50000000E+00  8.00000000E-01  8.00000000E-01
  1.50000000E+00  8.00000000E-01  8.00000000E-01  1.50000000E+00  8.00000000E-01
  8.00000000E-01  1.50000000E+00  8.00000000E-01  8.00000000E-01  1.50000000E+00
  8.00000000E-01  8.00000000E-01  1.50000000E+00  8.00000000E-01  8.00000000E-01
  1.50000000E+00  8.00000000E-01  8.00000000E-01  1.50000000E+00  8.00000000E-01
  8.00000000E-01  1.50000000E+00  8.00000000E-01  8.00000000E-01  1.50000000E+00
  8.00000000E-01  8.00000000E-01  1.50000000E+00  8.00000000E-01  8.00000000E-01
  1.50000000E+00  8.00000000E-01  8.00000000E-01  1.50000000E+00  8.00000000E-01
  8.00000000E-01  1.50000000E+00  8.00000000E-01  8.00000000E-01  1.50000000E+00
  8.00000000E-01  8.00000000E-01  1.50000000E+00  8.00000000E-01  8.00000000E-01
  1.50000000E+00  8.00000000E-01  8.00000000E-01  1.50000000E+00  8.00000000E-01
  8.00000000E-01  1.50000000E+00  8.00000000E-01  8.00000000E-01  1.50000000E+00
  8.00000000E-01  8.00000000E-01  1.50000000E+00  8.00000000E-01  8.00000000E-01
  1.50000000E+00  8.00000000E-01  8.00000000E-01  1.50000000E+00  8.00000000E-01
  8.00000000E-01  1.50000000E+00  8.00000000E-01  8.00000000E-01  1.50000000E+00
  8.00000000E-01  8.00000000E-01  1.50000000E+00  8.00000000E-01  8.00000000E-01
  1.50000000E+00  8.00000000E-01  8.00000000E-01  1.50000000E+00  8.00000000E-01
  8.00000000E-01  1.50000000E+00  8.00000000E-01  8.00000000E-01  1.50000000E+00
  8.00000000E-01  8.00000000E-01  1.50000000E+00  8.00000000E-01  8.00000000E-01
  1.50000000E+00  8.00000000E-01  8.00000000E-01  1.50000000E+00  8.00000000E-01
  8.00000000E-01  1.50000000E+00  8.00000000E-01  8.00000000E-01  1.50000000E+00
  8.00000000E-01  8.00000000E-01  1.50000000E+00  8.00000000E-01  8.00000000E-01
  1.50000000E+00  8.00000000E-01  8.00000000E-01  1.50000000E+00  8.00000000E-01
  8.00000000E-01  1.50000000E+00  8.00000000E-01  8.00000000E-01  1.50000000E+00
  8.00000000E-01  8.00000000E-01  1.50000000E+00  8.00000000E-01  8.00000000E-01
  1.50000000E+00  8.00000000E-01  8.00000000E-01  1.50000000E+00  8.00000000E-01
  8.00000000E-01  1.50000000E+00  8.00000000E-01  8.00000000E-01  1.50000000E+00
  8.00000000E-01  8.00000000E-01  1.50000000E+00  8.00000000E-01  8.00000000E-01
  1.50000000E+00  8.00000000E-01  8.00000000E-01  1.50000000E+00  8.00000000E-01
  8.00000000E-01  1.50000000E+00  8.00000000E-01  8.00000000E-01  1.50000000E+00
  8.00000000E-01  8.00000000E-01  1.50000000E+00  8.00000000E-01  8.00000000E-01
  1.50000000E+00  8.00000000E-01  8.00000000E-01  1.50000000E+00  8.00000000E-01
  8.00000000E-01  1.50000000E+00  8.00000000E-01  8.00000000E-01  1.50000000E+00
  8.00000000E-01  8.00000000E-01  1.50000000E+00  8.00000000E-01  8.00000000E-01
  1.50000000E+00  8.00000000E-01  8.00000000E-01  1.50000000E+00  8.00000000E-01
  8.00000000E-01  1.50000000E+00  8.00000000E-01  8.00000000E-01  1.50000000E+00
  8.00000000E-01  8.00000000E-01  1.50000000E+00  8.00000000E-01  8.00000000E-01
  1.50000000E+00  8.00000000E-01  8.00000000E-01  1.50000000E+00  8.00000000E-01
  8.00000000E-01  1.50000000E+00  8.00000000E-01  8.00000000E-01  1.50000000E+00
  8.00000000E-01  8.00000000E-01  1.50000000E+00  8.00000000E-01  8.00000000E-01
  1.50000000E+00  8.00000000E-01  8.00000000E-01  1.50000000E+00  8.00000000E-01
  8.00000000E-01  1.50000000E+00  8.00000000E-01  8.00000000E-01  1.50000000E+00
  8.00000000E-01  8.00000000E-01  1.50000000E+00  8.00000000E-01  8.00000000E-01
  1.50000000E+00  8.00000000E-01  8.00000000E-01  1.50000000E+00  8.00000000E-01
  8.00000000E-01  1.50000000E+00  8.00000000E-01  8.00000000E-01  1.50000000E+00
  8.00000000E-01  8.00000000E-01  1.50000000E+00  8.00000000E-01  8.00000000E-01
  1.50000000E+00  8.00000000E-01  8.00000000E-01  1.50000000E+00  8.00000000E-01
  8.00000000E-01  1.50000000E+00  8.00000000E-01  8.00000000E-01  1.50000000E+00
  8.00000000E-01  8.00000000E-01  1.50000000E+00  8.00000000E-01  8.00000000E-01
  1.50000000E+00  8.00000000E-01  8.00000000E-01  1.50000000E+00  8.00000000E-01
  8.00000000E-01  1.50000000E+00  8.00000000E-01  8.00000000E-01  1.50000000E+00
  8.00000000E-01  8.00000000E-01  1.50000000E+00  8.00000000E-01  8.00000000E-01
  1.50000000E+00  8.00000000E-01  8.00000000E-01  1.50000000E+00  8.00000000E-01
  8.00000000E-01  1.50000000E+00  8.00000000E-01  8.00000000E-01  1.50000000E+00
  8.00000000E-01  8.00000000E-01  1.50000000E+00  8.00000000E-01  8.00000000E-01
  1.50000000E+00  8.00000000E-01  8.00000000E-01  1.50000000E+00  8.00000000E-01
  8.00000000E-01  1.50000000E+00  8.00000000E-01  8.00000000E-01  1.50000000E+00
  8.00000000E-01  8.00000000E-01  1.50000000E+00  8.00000000E-01  8.00000000E-01
  1.50000000E+00  8.00000000E-01  8.00000000E-01  1.50000000E+00  8.00000000E-01
  8.00000000E-01  1.50000000E+00  8.00000000E-01  8.00000000E-01  1.50000000E+00
  8.00000000E-01  8.00000000E-01  1.50000000E+00  8.00000000E-01  8.00000000E-01
  1.50000000E+00  8.00000000E-01  8.00000000E-01  1.50000000E+00  8.00000000E-01
  8.00000000E-01  1.50000000E+00  8.00000000E-01  8.00000000E-01  1.50000000E+00
  8.00000000E-01  8.00000000E-01  1.50000000E+00  8.00000000E-01  8.00000000E-01
  1.50000000E+00  8.00000000E-01  8.00000000E-01  1.50000000E+00  8.00000000E-01
  8.00000000E-01  1.50000000E+00  8.00000000E-01  8.00000000E-01  1.50000000E+00
  8.00000000E-01  8.00000000E-01  1.50000000E+00  8.00000000E-01  8.00000000E-01
  1.50000000E+00  8.00000000E-01  8.00000000E-01  1.50000000E+00  8.00000000E-01
  8.00000000E-01  1.50000000E+00  8.00000000E-01  8.00000000E-01  1.50000000E+00
  8.00000000E-01  8.00000000E-01  1.50000000E+00  8.00000000E-01  8.00000000E-01
  1.50000000E+00  8.00000000E-01  8.00000000E-01  1.50000000E+00  8.00000000E-01
  8.00000000E-01  1.50000000E+00  8.00000000E-01  8.00000000E-01  1.50000000E+00
  8.00000000E-01  8.00000000E-01  1.50000000E+00  8.00000000E-01  8.00000000E-01
  1.50000000E+00  8.00000000E-01  8.00000000E-01  1.50000000E+00  8.00000000E-01
  8.00000000E-01  1.50000000E+00  8.00000000E-01  8.00000000E-01  1.50000000E+00
  8.00000000E-01  8.00000000E-01  1.50000000E+00  8.00000000E-01  8.00000000E-01
  1.50000000E+00  8.00000000E-01  8.00000000E-01  1.50000000E+00  8.00000000E-01
  8.00000000E-01  1.50000000E+00  8.00000000E-01  8.00000000E-01  1.50000000E+00
  8.00000000E-01  8.00000000E-01  1.50000000E+00  8.00000000E-01  8.00000000E-01
  1.50000000E+00  8.00000000E-01  8.00000000E-01  1.50000000E+00  8.00000000E-01
  8.00000000E-01  1.50000000E+00  8.00000000E-01  8.00000000E-01  1.50000000E+00
  8.00000000E-01  8.00000000E-01  1.50000000E+00  8.00000000E-01  8.00000000E-01
  1.50000000E+00  8.00000000E-01  8.00000000E-01  1.50000000E+00  8.00000000E-01
  8.00000000E-01  1.50000000E+00  8.00000000E-01  8.00000000E-01  1.50000000E+00
  8.00000000E-01  8.00000000E-01  1.50000000E+00  8.00000000E-01  8.00000000E-01
  1.50000000E+00  8.00000000E-01  8.00000000E-01  1.50000000E+00  8.00000000E-01
  8.00000000E-01  1.50000000E+00  8.00000000E-01  8.00000000E-01  1.50000000E+00
  8.00000000E-01  8.00000000E-01  1.50000000E+00  8.00000000E-01  8.00000000E-01
  1.50000000E+00  8.00000000E-01  8.00000000E-01  1.50000000E+00  8.00000000E-01
  8.00000000E-01  1.50000000E+00  8.00000000E-01  8.00000000E-01  1.50000000E+00
  8.00000000E-01  8.00000000E-01  1.50000000E+00  8.00000000E-01  8.00000000E-01
  1.50000000E+00  8.00000000E-01  8.00000000E-01  1.50000000E+00  8.00000000E-01
  8.00000000E-01  1.50000000E+00  8.00000000E-01  8.00000000E-01  1.50000000E+00
  8.00000000E-01  8.00000000E-01  1.50000000E+00  8.00000000E-01  8.00000000E-01
  1.50000000E+00  8.00000000E-01  8.00000000E-01  1.50000000E+00  8.00000000E-01
  8.00000000E-01  1.50000000E+00  8.00000000E-01  8.00000000E-01  1.50000000E+00
  8.00000000E-01  8.00000000E-01  1.50000000E+00  8.00000000E-01  8.00000000E-01
  1.50000000E+00  8.00000000E-01  8.00000000E-01  1.50000000E+00  8.00000000E-01
  8.00000000E-01  1.50000000E+00  8.00000000E-01  8.00000000E-01  1.50000000E+00
  8.00000000E-01  8.00000000E-01  1.50000000E+00  8.00000000E-01  8.00000000E-01
  1.50000000E+00  8.00000000E-01  8.00000000E-01  1.50000000E+00  8.00000000E-01
  8.00000000E-01  1.50000000E+00  8.00000000E-01  8.00000000E-01  1.50000000E+00
  8.00000000E-01  8.00000000E-01  1.50000000E+00  8.00000000E-01  8.00000000E-01
  1.50000000E+00  8.00000000E-01  8.00000000E-01  1.50000000E+00  8.00000000E-01
  8.00000000E-01  1.50000000E+00  8.00000000E-01  8.00000000E-01  1.50000000E+00
  8.00000000E-01  8.00000000E-01  1.50000000E+00  8.00000000E-01  8.00000000E-01
  1.50000000E+00  8.00000000E-01  8.00000000E-01  1.50000000E+00  8.00000000E-01
  8.00000000E-01  1.50000000E+00  8.00000000E-01  8.00000000E-01  1.50000000E+00
  8.00000000E-01  8.00000000E-01  1.50000000E+00  8.00000000E-01  8.00000000E-01
  1.50000000E+00  8.00000000E-01  8.00000000E-01  1.50000000E+00  8.00000000E-01
  8.00000000E-01  1.50000000E+00  8.00000000E-01  8.00000000E-01  1.50000000E+00
  8.00000000E-01  8.00000000E-01  1.50000000E+00  8.00000000E-01  8.00000000E-01
  1.50000000E+00  8.00000000E-01  8.00000000E-01  1.50000000E+00  8.00000000E-01
  8.00000000E-01  1.50000000E+00  8.00000000E-01  8.00000000E-01  1.50000000E+00
  8.00000000E-01  8.00000000E-01  1.50000000E+00  8.00000000E-01  8.00000000E-01
  1.50000000E+00  8.00000000E-01  8.00000000E-01  1.50000000E+00  8.00000000E-01
  8.00000000E-01  1.50000000E+00  8.00000000E-01  8.00000000E-01  1.50000000E+00
  8.00000000E-01  8.00000000E-01  1.50000000E+00  8.00000000E-01  8.00000000E-01
  1.50000000E+00  8.00000000E-01  8.00000000E-01  1.50000000E+00  8.00000000E-01
  8.00000000E-01  1.50000000E+00  8.00000000E-01  8.00000000E-01  1.50000000E+00
  8.00000000E-01  8.00000000E-01  1.50000000E+00  8.00000000E-01  8.00000000E-01
  1.50000000E+00  8.00000000E-01  8.00000000E-01  1.50000000E+00  8.00000000E-01
  8.00000000E-01  1.50000000E+00  8.00000000E-01  8.00000000E-01  1.50000000E+00
  8.00000000E-01  8.00000000E-01  1.50000000E+00  8.00000000E-01  8.00000000E-01
  1.50000000E+00  8.00000000E-01  8.00000000E-01  1.50000000E+00  8.00000000E-01
  8.00000000E-01  1.50000000E+00  8.00000000E-01  8.00000000E-01  1.50000000E+00
  8.00000000E-01  8.00000000E-01  1.50000000E+00  8.00000000E-01  8.00000000E-01
  1.50000000E+00  8.00000000E-01  8.00000000E-01  1.50000000E+00  8.00000000E-01
  8.00000000E-01  1.50000000E+00  8.00000000E-01  8.00000000E-01  1.50000000E+00
  8.00000000E-01  8.00000000E-01  1.50000000E+00  8.00000000E-01  8.00000000E-01
  1.50000000E+00  8.00000000E-01  8.00000000E-01  1.50000000E+00  8.00000000E-01
  8.00000000E-01  1.50000000E+00  8.00000000E-01  8.00000000E-01  1.50000000E+00
  8.00000000E-01  8.00000000E-01  1.50000000E+00  8.00000000E-01  8.00000000E-01
  1.50000000E+00  8.00000000E-01  8.00000000E-01  1.50000000E+00  8.00000000E-01
  8.00000000E-01  1.50000000E+00  8.00000000E-01  8.00000000E-01  1.50000000E+00
  8.00000000E-01  8.00000000E-01  1.50000000E+00  8.00000000E-01  8.00000000E-01
  1.50000000E+00  8.00000000E-01  8.00000000E-01  1.50000000E+00  8.00000000E-01
  8.00000000E-01  1.50000000E+00  8.00000000E-01  8.00000000E-01  1.50000000E+00
  8.00000000E-01  8.00000000E-01  1.50000000E+00  8.00000000E-01  8.00000000E-01
  1.50000000E+00  8.00000000E-01  8.00000000E-01  1.50000000E+00  8.00000000E-01
  8.00000000E-01  1.50000000E+00  8.00000000E-01  8.00000000E-01  1.50000000E+00
  8.00000000E-01  8.00000000E-01  1.50000000E+00  8.00000000E-01  8.00000000E-01
  1.50000000E+00  8.00000000E-01  8.00000000E-01  1.50000000E+00  8.00000000E-01
  8.00000000E-01  1.50000000E+00  8.00000000E-01  8.00000000E-01  1.50000000E+00
  8.00000000E-01  8.00000000E-01  1.50000000E+00  8.00000000E-01  8.00000000E-01
  1.50000000E+00  8.00000000E-01  8.00000000E-01  1.50000000E+00  8.00000000E-01
  8.00000000E-01  1.50000000E+00  8.00000000E-01  8.00000000E-01  1.50000000E+00
  8.00000000E-01  8.00000000E-01  1.50000000E+00  8.00000000E-01  8.00000000E-01
  1.50000000E+00  8.00000000E-01  8.00000000E-01  1.50000000E+00  8.00000000E-01
  8.00000000E-01  1.50000000E+00  8.00000000E-01  8.00000000E-01  1.50000000E+00
  8.00000000E-01  8.00000000E-01  1.50000000E+00  8.00000000E-01  8.00000000E-01
  1.50000000E+00  8.00000000E-01  8.00000000E-01  1.50000000E+00  8.00000000E-01
  8.00000000E-01  1.50000000E+00  8.00000000E-01  8.00000000E-01  1.50000000E+00
  8.00000000E-01  8.00000000E-01  1.50000000E+00  8.00000000E-01  8.00000000E-01
  1.50000000E+00  8.00000000E-01  8.00000000E-01  1.50000000E+00  8.00000000E-01
  8.00000000E-01  1.50000000E+00  8.00000000E-01  8.00000000E-01  1.50000000E+00
  8.00000000E-01  8.00000000E-01  1.50000000E+00  8.00000000E-01  8.00000000E-01
  1.50000000E+00  8.00000000E-01  8.00000000E-01  1.50000000E+00  8.00000000E-01
  8.00000000E-01  1.50000000E+00  8.00000000E-01  8.00000000E-01  1.50000000E+00
  8.00000000E-01  8.00000000E-01  1.50000000E+00  8.00000000E-01  8.00000000E-01
  1.50000000E+00  8.00000000E-01  8.00000000E-01  1.50000000E+00  8.00000000E-01
  8.00000000E-01  1.50000000E+00  8.00000000E-01  8.00000000E-01  1.50000000E+00
  8.00000000E-01  8.00000000E-01  1.50000000E+00  8.00000000E-01  8.00000000E-01
  1.50000000E+00  8.00000000E-01  8.00000000E-01  1.50000000E+00  8.00000000E-01
  8.00000000E-01  1.50000000E+00  8.00000000E-01  8.00000000E-01  1.50000000E+00
  8.00000000E-01  8.00000000E-01  1.50000000E+00  8.00000000E-01  8.00000000E-01
  1.50000000E+00  8.00000000E-01  8.00000000E-01  1.50000000E+00  8.00000000E-01
  8.00000000E-01  1.50000000E+00  8.00000000E-01  8.00000000E-01  1.50000000E+00
  8.00000000E-01  8.00000000E-01  1.50000000E+00  8.00000000E-01  8.00000000E-01
  1.50000000E+00  8.00000000E-01  8.00000000E-01  1.50000000E+00  8.00000000E-01
  8.00000000E-01  1.50000000E+00  8.00000000E-01  8.00000000E-01  1.50000000E+00
  8.00000000E-01  8.00000000E-01  1.50000000E+00  8.00000000E-01  8.00000000E-01
  1.50000000E+00  8.00000000E-01  8.00000000E-01  1.50000000E+00  8.00000000E-01
  8.00000000E-01  1.50000000E+00  8.00000000E-01  8.00000000E-01  1.50000000E+00
  8.00000000E-01  8.00000000E-01  1.50000000E+00  8.00000000E-01  8.00000000E-01
  1.50000000E+00  8.00000000E-01  8.00000000E-01  1.50000000E+00  8.00000000E-01
  8.00000000E-01  1.50000000E+00  8.00000000E-01  8.00000000E-01  1.50000000E+00
  8.00000000E-01  8.00000000E-01  1.50000000E+00  8.00000000E-01  8.00000000E-01
  1.50000000E+00  8.00000000E-01  8.00000000E-01  1.50000000E+00  8.00000000E-01
  8.00000000E-01  1.50000000E+00  8.00000000E-01  8.00000000E-01  1.50000000E+00
  8.00000000E-01  8.00000000E-01  1.50000000E+00  8.00000000E-01  8.00000000E-01
  1.50000000E+00  8.00000000E-01  8.00000000E-01  1.50000000E+00  8.00000000E-01
  8.00000000E-01  1.50000000E+00  8.00000000E-01  8.00000000E-01  1.50000000E+00
  8.00000000E-01  8.00000000E-01  1.50000000E+00  8.00000000E-01  8.00000000E-01
  1.50000000E+00  8.00000000E-01  8.00000000E-01  1.50000000E+00  8.00000000E-01
  8.00000000E-01  1.50000000E+00  8.00000000E-01  8.00000000E-01  1.50000000E+00
  8.00000000E-01  8.00000000E-01  1.50000000E+00  8.00000000E-01  8.00000000E-01
  1.50000000E+00  8.00000000E-01  8.00000000E-01  1.50000000E+00  8.00000000E-01
  8.00000000E-01  1.50000000E+00  8.00000000E-01  8.00000000E-01  1.50000000E+00
  8.00000000E-01  8.00000000E-01  1.50000000E+00  8.00000000E-01  8.00000000E-01
  1.50000000E+00  8.00000000E-01  8.00000000E-01  1.50000000E+00  8.00000000E-01
  8.00000000E-01  1.50000000E+00  8.00000000E-01  8.00000000E-01  1.50000000E+00
  8.00000000E-01  8.00000000E-01  1.50000000E+00  8.00000000E-01  8.00000000E-01
  1.50000000E+00  8.00000000E-01  8.00000000E-01  1.50000000E+00  8.00000000E-01
  8.00000000E-01  1.50000000E+00  8.00000000E-01  8.00000000E-01  1.50000000E+00
  8.00000000E-01  8.00000000E-01  1.50000000E+00  8.00000000E-01  8.00000000E-01
  1.50000000E+00  8.00000000E-01  8.00000000E-01  1.50000000E+00  8.00000000E-01
  8.00000000E-01  1.50000000E+00  8.00000000E-01  8.00000000E-01  1.50000000E+00
  8.00000000E-01  8.00000000E-01  1.50000000E+00  8.00000000E-01  8.00000000E-01
  1.50000000E+00  8.00000000E-01  8.00000000E-01  1.50000000E+00  8.00000000E-01
  8.00000000E-01  1.50000000E+00  8.00000000E-01  8.00000000E-01  1.50000000E+00
  8.00000000E-01  8.00000000E-01  1.50000000E+00  8.00000000E-01  8.00000000E-01
  1.50000000E+00  8.00000000E-01  8.00000000E-01  1.50000000E+00  8.00000000E-01
  8.00000000E-01  1.50000000E+00  8.00000000E-01  8.00000000E-01  1.50000000E+00
  8.00000000E-01  8.00000000E-01  1.50000000E+00  8.00000000E-01  8.00000000E-01
  1.50000000E+00  8.00000000E-01  8.00000000E-01  1.50000000E+00  8.00000000E-01
  8.00000000E-01  1.50000000E+00  8.00000000E-01  8.00000000E-01  1.50000000E+00
  8.00000000E-01  8.00000000E-01  1.50000000E+00  8.00000000E-01  8.00000000E-01
  1.50000000E+00  8.00000000E-01  8.00000000E-01  1.50000000E+00  8.00000000E-01
  8.00000000E-01  1.50000000E+00  8.00000000E-01  8.00000000E-01  1.50000000E+00
  8.00000000E-01  8.00000000E-01  1.50000000E+00  8.00000000E-01  8.00000000E-01
  1.50000000E+00  8.00000000E-01  8.00000000E-01  1.50000000E+00  8.00000000E-01
  8.00000000E-01  1.50000000E+00  8.00000000E-01  8.00000000E-01  1.50000000E+00
  8.00000000E-01  8.00000000E-01  1.50000000E+00  8.00000000E-01  8.00000000E-01
  1.50000000E+00  8.00000000E-01  8.00000000E-01  1.50000000E+00  8.00000000E-01
  8.00000000E-01  1.50000000E+00  8.00000000E-01  8.00000000E-01  1.50000000E+00
  8.00000000E-01  8.00000000E-01  1.50000000E+00  8.00000000E-01  8.00000000E-01
  1.50000000E+00  8.00000000E-01  8.00000000E-01  1.50000000E+00  8.00000000E-01
  8.00000000E-01  1.50000000E+00  8.00000000E-01  8.00000000E-01  1.50000000E+00
  8.00000000E-01  8.00000000E-01  1.50000000E+00  8.00000000E-01  8.00000000E-01
  1.50000000E+00  8.00000000E-01  8.00000000E-01  1.50000000E+00  8.00000000E-01
  8.00000000E-01  1.50000000E+00  8.00000000E-01  8.00000000E-01  1.50000000E+00
  8.00000000E-01  8.00000000E-01  1.50000000E+00  8.00000000E-01  8.00000000E-01
  1.50000000E+00  8.00000000E-01  8.00000000E-01  1.50000000E+00  8.00000000E-01
  8.00000000E-01  1.50000000E+00  8.00000000E-01  8.00000000E-01  1.50000000E+00
  8.00000000E-01  8.00000000E-01  1.50000000E+00  8.00000000E-01  8.00000000E-01
  1.50000000E+00  8.00000000E-01  8.00000000E-01  1.50000000E+00  8.00000000E-01
  8.00000000E-01  1.50000000E+00  8.00000000E-01  8.00000000E-01  1.50000000E+00
  8.00000000E-01  8.00000000E-01  1.50000000E+00  8.00000000E-01  8.00000000E-01
  1.50000000E+00  8.00000000E-01  8.00000000E-01  1.50000000E+00  8.00000000E-01
  8.00000000E-01  1.50000000E+00  8.00000000E-01  8.00000000E-01  1.50000000E+00
  8.00000000E-01  8.00000000E-01  1.50000000E+00  8.00000000E-01  8.00000000E-01
  1.50000000E+00  8.00000000E-01  8.00000000E-01  1.50000000E+00  8.00000000E-01
  8.00000000E-01  1.50000000E+00  8.00000000E-01  8.00000000E-01  1.50000000E+00
  8.00000000E-01  8.00000000E-01  1.50000000E+00  8.00000000E-01  8.00000000E-01
  1.50000000E+00  8.00000000E-01  8.00000000E-01  1.50000000E+00  8.00000000E-01
  8.00000000E-01  1.50000000E+00  8.00000000E-01  8.00000000E-01  1.50000000E+00
  8.00000000E-01  8.00000000E-01  1.50000000E+00  8.00000000E-01  8.00000000E-01
  1.50000000E+00  8.00000000E-01  8.00000000E-01  1.50000000E+00  8.00000000E-01
  8.00000000E-01  1.50000000E+00  8.00000000E-01  8.00000000E-01  1.50000000E+00
  8.00000000E-01  8.00000000E-01  1.50000000E+00  8.00000000E-01  8.00000000E-01
  1.50000000E+00  8.00000000E-01  8.00000000E-01  1.50000000E+00  8.00000000E-01
  8.00000000E-01  1.50000000E+00  8.00000000E-01  8.00000000E-01  1.50000000E+00
  8.00000000E-01  8.00000000E-01  1.50000000E+00  8.00000000E-01  8.00000000E-01
  1.50000000E+00  8.00000000E-01  8.00000000E-01  1.50000000E+00  8.00000000E-01
  8.00000000E-01  1.50000000E+00  8.00000000E-01  8.00000000E-01  1.50000000E+00
  8.00000000E-01  8.00000000E-01  1.50000000E+00  8.00000000E-01  8.00000000E-01
  1.50000000E+00  8.00000000E-01  8.00000000E-01  1.50000000E+00  8.00000000E-01
  8.00000000E-01  1.50000000E+00  8.00000000E-01  8.00000000E-01  1.50000000E+00
  8.00000000E-01  8.00000000E-01  1.50000000E+00  8.00000000E-01  8.00000000E-01
  1.50000000E+00  8.00000000E-01  8.00000000E-01  1.50000000E+00  8.00000000E-01
  8.00000000E-01  1.50000000E+00  8.00000000E-01  8.00000000E-01  1.50000000E+00
  8.00000000E-01  8.00000000E-01  1.50000000E+00  8.00000000E-01  8.00000000E-01
  1.50000000E+00  8.00000000E-01  8.00000000E-01  1.50000000E+00  8.00000000E-01
  8.00000000E-01  1.50000000E+00  8.00000000E-01  8.00000000E-01  1.50000000E+00
  8.00000000E-01  8.00000000E-01  1.50000000E+00  8.00000000E-01  8.00000000E-01
  1.50000000E+00  8.00000000E-01  8.00000000E-01  1.50000000E+00  8.00000000E-01
  8.00000000E-01  1.50000000E+00  8.00000000E-01  8.00000000E-01  1.50000000E+00
  8.00000000E-01  8.00000000E-01  1.50000000E+00  8.00000000E-01  8.00000000E-01
  1.50000000E+00  8.00000000E-01  8.00000000E-01  1.50000000E+00  8.00000000E-01
  8.00000000E-01  1.50000000E+00  8.00000000E-01  8.00000000E-01  1.50000000E+00
  8.00000000E-01  8.00000000E-01  1.50000000E+00  8.00000000E-01  8.00000000E-01
  1.50000000E+00  8.00000000E-01  8.00000000E-01  1.50000000E+00  8.00000000E-01
  8.00000000E-01  1.50000000E+00  8.00000000E-01  8.00000000E-01  1.50000000E+00
  8.00000000E-01  8.00000000E-01  1.50000000E+00  8.00000000E-01  8.00000000E-01
  1.50000000E+00  8.00000000E-01  8.00000000E-01  1.50000000E+00  8.00000000E-01
  8.00000000E-01  1.50000000E+00  8.00000000E-01  8.00000000E-01  1.50000000E+00
  8.00000000E-01  8.00000000E-01  1.50000000E+00  8.00000000E-01  8.00000000E-01
  1.50000000E+00  8.00000000E-01  8.00000000E-01  1.50000000E+00  8.00000000E-01
  8.00000000E-01  1.50000000E+00  8.00000000E-01  8.00000000E-01  1.50000000E+00
  8.00000000E-01  8.00000000E-01  1.50000000E+00  8.00000000E-01  8.00000000E-01
  1.50000000E+00  8.00000000E-01  8.00000000E-01  1.50000000E+00  8.00000000E-01
  8.00000000E-01  1.50000000E+00  8.00000000E-01  8.00000000E-01  1.50000000E+00
  8.00000000E-01  8.00000000E-01  1.50000000E+00  8.00000000E-01  8.00000000E-01
  1.50000000E+00  8.00000000E-01  8.00000000E-01  1.50000000E+00  8.00000000E-01
  8.00000000E-01  1.50000000E+00  8.00000000E-01  8.00000000E-01  1.50000000E+00
  8.00000000E-01  8.00000000E-01  1.50000000E+00  8.00000000E-01  8.00000000E-01
  1.50000000E+00  8.00000000E-01  8.00000000E-01  1.50000000E+00  8.00000000E-01
  8.00000000E-01  1.50000000E+00  8.00000000E-01  8.00000000E-01  1.50000000E+00
  8.00000000E-01  8.00000000E-01  1.50000000E+00  8.00000000E-01  8.00000000E-01
  1.50000000E+00  8.00000000E-01  8.00000000E-01  1.50000000E+00  8.00000000E-01
  8.00000000E-01  1.50000000E+00  8.00000000E-01  8.00000000E-01  1.50000000E+00
  8.00000000E-01  8.00000000E-01  1.50000000E+00  8.00000000E-01  8.00000000E-01
  1.50000000E+00  8.00000000E-01  8.00000000E-01  1.50000000E+00  8.00000000E-01
  8.00000000E-01  1.50000000E+00  8.00000000E-01  8.00000000E-01  1.50000000E+00
  8.00000000E-01  8.00000000E-01  1.50000000E+00  8.00000000E-01  8.00000000E-01
  1.50000000E+00  8.00000000E-01  8.00000000E-01  1.50000000E+00  8.00000000E-01
  8.00000000E-01  1.50000000E+00  8.00000000E-01  8.00000000E-01  1.50000000E+00
  8.00000000E-01  8.00000000E-01  1.50000000E+00  8.00000000E-01  8.00000000E-01
  1.50000000E+00  8.00000000E-01  8.00000000E-01  1.50000000E+00  8.00000000E-01
  8.00000000E-01  1.50000000E+00  8.00000000E-01  8.00000000E-01  1.50000000E+00
  8.00000000E-01  8.00000000E-01  1.50000000E+00  8.00000000E-01  8.00000000E-01
  1.50000000E+00  8.00000000E-01  8.00000000E-01  1.50000000E+00  8.00000000E-01
  8.00000000E-01  1.50000000E+00  8.00000000E-01  8.00000000E-01  1.50000000E+00
  8.00000000E-01  8.00000000E-01  1.50000000E+00  8.00000000E-01  8.00000000E-01
  1.50000000E+00  8.00000000E-01  8.00000000E-01  1.50000000E+00  8.00000000E-01
  8.00000000E-01  1.50000000E+00  8.00000000E-01  8.00000000E-01  1.50000000E+00
  8.00000000E-01  8.00000000E-01  1.50000000E+00  8.00000000E-01  8.00000000E-01
  1.50000000E+00  8.00000000E-01  8.00000000E-01  1.50000000E+00  8.00000000E-01
  8.00000000E-01  1.50000000E+00  8.00000000E-01  8.00000000E-01  1.50000000E+00
  8.00000000E-01  8.00000000E-01  1.50000000E+00  8.00000000E-01  8.00000000E-01
  1.50000000E+00  8.00000000E-01  8.00000000E-01  1.50000000E+00  8.00000000E-01
  8.00000000E-01  1.50000000E+00  8.00000000E-01  8.00000000E-01  1.50000000E+00
  8.00000000E-01  8.00000000E-01  1.50000000E+00  8.00000000E-01  8.00000000E-01
  1.50000000E+00  8.00000000E-01  8.00000000E-01  1.50000000E+00  8.00000000E-01
  8.00000000E-01  1.50000000E+00  8.00000000E-01  8.00000000E-01  1.50000000E+00
  8.00000000E-01  8.00000000E-01  1.50000000E+00  8.00000000E-01  8.00000000E-01
  1.50000000E+00  8.00000000E-01  8.00000000E-01  1.50000000E+00  8.00000000E-01
  8.00000000E-01  1.50000000E+00  8.00000000E-01  8.00000000E-01  1.50000000E+00
  8.00000000E-01  8.00000000E-01  1.50000000E+00  8.00000000E-01  8.00000000E-01
  1.50000000E+00  8.00000000E-01  8.00000000E-01  1.50000000E+00  8.00000000E-01
  8.00000000E-01  1.50000000E+00  8.00000000E-01  8.00000000E-01  1.50000000E+00
  8.00000000E-01  8.00000000E-01  1.50000000E+00  8.00000000E-01  8.00000000E-01
  1.50000000E+00  8.00000000E-01  8.00000000E-01  1.50000000E+00  8.00000000E-01
  8.00000000E-01  1.50000000E+00  8.00000000E-01  8.00000000E-01  1.50000000E+00
  8.00000000E-01  8.00000000E-01  1.50000000E+00  8.00000000E-01  8.00000000E-01
  1.50000000E+00  8.00000000E-01  8.00000000E-01  1.50000000E+00  8.00000000E-01
  8.00000000E-01  1.50000000E+00  8.00000000E-01  8.00000000E-01  1.50000000E+00
  8.00000000E-01  8.00000000E-01  1.50000000E+00  8.00000000E-01  8.00000000E-01
  1.50000000E+00  8.00000000E-01  8.00000000E-01  1.50000000E+00  8.00000000E-01
  8.00000000E-01  1.50000000E+00  8.00000000E-01  8.00000000E-01  1.50000000E+00
  8.00000000E-01  8.00000000E-01  1.50000000E+00  8.00000000E-01  8.00000000E-01
  1.50000000E+00  8.00000000E-01  8.00000000E-01  1.50000000E+00  8.00000000E-01
  8.00000000E-01  1.50000000E+00  8.00000000E-01  8.00000000E-01  1.50000000E+00
  8.00000000E-01  8.00000000E-01  1.50000000E+00  8.00000000E-01  8.00000000E-01
  1.50000000E+00  8.00000000E-01  8.00000000E-01  1.50000000E+00  8.00000000E-01
  8.00000000E-01  1.50000000E+00  8.00000000E-01  8.00000000E-01  1.50000000E+00
  8.00000000E-01  8.00000000E-01  1.50000000E+00  8.00000000E-01  8.00000000E-01
  1.50000000E+00  8.00000000E-01  8.00000000E-01  1.50000000E+00  8.00000000E-01
  8.00000000E-01  1.50000000E+00  8.00000000E-01  8.00000000E-01  1.50000000E+00
  8.00000000E-01  8.00000000E-01  1.50000000E+00  8.00000000E-01  8.00000000E-01
  1.50000000E+00  8.00000000E-01  8.00000000E-01  1.50000000E+00  8.00000000E-01
  8.00000000E-01  1.50000000E+00  8.00000000E-01  8.00000000E-01  1.50000000E+00
  8.00000000E-01  8.00000000E-01  1.50000000E+00  8.00000000E-01  8.00000000E-01
  1.50000000E+00  8.00000000E-01  8.00000000E-01  1.50000000E+00  8.00000000E-01
  8.00000000E-01  1.50000000E+00  8.00000000E-01  8.00000000E-01  1.50000000E+00
  8.00000000E-01  8.00000000E-01  1.50000000E+00  8.00000000E-01  8.00000000E-01
  1.50000000E+00  8.00000000E-01  8.00000000E-01  1.50000000E+00  8.00000000E-01
  8.00000000E-01  1.50000000E+00  8.00000000E-01  8.00000000E-01  1.50000000E+00
  8.00000000E-01  8.00000000E-01  1.50000000E+00  8.00000000E-01  8.00000000E-01
  1.50000000E+00  8.00000000E-01  8.00000000E-01  1.50000000E+00  8.00000000E-01
  8.00000000E-01  1.50000000E+00  8.00000000E-01  8.00000000E-01  1.50000000E+00
  8.00000000E-01  8.00000000E-01  1.50000000E+00  8.00000000E-01  8.00000000E-01
  1.50000000E+00  8.00000000E-01  8.00000000E-01  1.50000000E+00  8.00000000E-01
  8.00000000E-01  1.50000000E+00  8.00000000E-01  8.00000000E-01  1.50000000E+00
  8.00000000E-01  8.00000000E-01  1.50000000E+00  8.00000000E-01  8.00000000E-01
  1.50000000E+00  8.00000000E-01  8.00000000E-01  1.50000000E+00  8.00000000E-01
  8.00000000E-01  1.50000000E+00  8.00000000E-01  8.00000000E-01  1.50000000E+00
  8.00000000E-01  8.00000000E-01  1.50000000E+00  8.00000000E-01  8.00000000E-01
  1.50000000E+00  8.00000000E-01  8.00000000E-01  1.50000000E+00  8.00000000E-01
  8.00000000E-01  1.50000000E+00  8.00000000E-01  8.00000000E-01  1.50000000E+00
  8.00000000E-01  8.00000000E-01  1.50000000E+00  8.00000000E-01  8.00000000E-01
  1.50000000E+00  8.00000000E-01  8.00000000E-01  1.50000000E+00  8.00000000E-01
  8.00000000E-01  1.50000000E+00  8.00000000E-01  8.00000000E-01  1.50000000E+00
  8.00000000E-01  8.00000000E-01  1.50000000E+00  8.00000000E-01  8.00000000E-01
  1.50000000E+00  8.00000000E-01  8.00000000E-01  1.50000000E+00  8.00000000E-01
  8.00000000E-01  1.50000000E+00  8.00000000E-01  8.00000000E-01  1.50000000E+00
  8.00000000E-01  8.00000000E-01  1.50000000E+00  8.00000000E-01  8.00000000E-01
  1.50000000E+00  8.00000000E-01  8.00000000E-01  1.50000000E+00  8.00000000E-01
  8.00000000E-01  1.50000000E+00  8.00000000E-01  8.00000000E-01  1.50000000E+00
  8.00000000E-01  8.00000000E-01  1.50000000E+00  8.00000000E-01  8.00000000E-01
  1.50000000E+00  8.00000000E-01  8.00000000E-01  1.50000000E+00  8.00000000E-01
  8.00000000E-01  1.50000000E+00  8.00000000E-01  8.00000000E-01  1.50000000E+00
  8.00000000E-01  8.00000000E-01  1.50000000E+00  8.00000000E-01  8.00000000E-01
  1.50000000E+00  8.00000000E-01  8.00000000E-01  1.50000000E+00  8.00000000E-01
  8.00000000E-01  1.50000000E+00  8.00000000E-01  8.00000000E-01  1.50000000E+00
  8.00000000E-01  8.00000000E-01  1.50000000E+00  8.00000000E-01  8.00000000E-01
  1.50000000E+00  8.00000000E-01  8.00000000E-01  1.50000000E+00  8.00000000E-01
  8.00000000E-01  1.50000000E+00  8.00000000E-01  8.00000000E-01  1.50000000E+00
  8.00000000E-01  8.00000000E-01  1.50000000E+00  8.00000000E-01  8.00000000E-01
  1.50000000E+00  8.00000000E-01  8.00000000E-01  1.50000000E+00  8.00000000E-01
  8.00000000E-01  1.50000000E+00  8.00000000E-01  8.00000000E-01  1.50000000E+00
  8.00000000E-01  8.00000000E-01  1.50000000E+00  8.00000000E-01  8.00000000E-01
  1.50000000E+00  8.00000000E-01  8.00000000E-01  1.50000000E+00  8.00000000E-01
  8.00000000E-01  1.50000000E+00  8.00000000E-01  8.00000000E-01  1.50000000E+00
  8.00000000E-01  8.00000000E-01  1.50000000E+00  8.00000000E-01  8.00000000E-01
  1.50000000E+00  8.00000000E-01  8.00000000E-01  1.50000000E+00  8.00000000E-01
  8.00000000E-01  1.50000000E+00  8.00000000E-01  8.00000000E-01  1.50000000E+00
  8.00000000E-01  8.00000000E-01  1.50000000E+00  8.00000000E-01  8.00000000E-01
  1.50000000E+00  8.00000000E-01  8.00000000E-01  1.50000000E+00  8.00000000E-01
  8.00000000E-01  1.50000000E+00  8.00000000E-01  8.00000000E-01  1.50000000E+00
  8.00000000E-01  8.00000000E-01  1.50000000E+00  8.00000000E-01  8.00000000E-01
  1.50000000E+00  8.00000000E-01  8.00000000E-01  1.50000000E+00  8.00000000E-01
  8.00000000E-01  1.50000000E+00  8.00000000E-01  8.00000000E-01  1.50000000E+00
  8.00000000E-01  8.00000000E-01  1.50000000E+00  8.00000000E-01  8.00000000E-01
  1.50000000E+00  8.00000000E-01  8.00000000E-01  1.50000000E+00  8.00000000E-01
  8.00000000E-01  1.50000000E+00  8.00000000E-01  8.00000000E-01  1.50000000E+00
  8.00000000E-01  8.00000000E-01  1.50000000E+00  8.00000000E-01  8.00000000E-01
  1.50000000E+00  8.00000000E-01  8.00000000E-01  1.50000000E+00  8.00000000E-01
  8.00000000E-01  1.50000000E+00  8.00000000E-01  8.00000000E-01  1.50000000E+00
  8.00000000E-01  8.00000000E-01  1.50000000E+00  8.00000000E-01  8.00000000E-01
  1.50000000E+00  8.00000000E-01  8.00000000E-01  1.50000000E+00  8.00000000E-01
  8.00000000E-01  1.50000000E+00  8.00000000E-01  8.00000000E-01  1.50000000E+00
  8.00000000E-01  8.00000000E-01  1.50000000E+00  8.00000000E-01  8.00000000E-01
  1.50000000E+00  8.00000000E-01  8.00000000E-01  1.50000000E+00  8.00000000E-01
  8.00000000E-01  1.50000000E+00  8.00000000E-01  8.00000000E-01  1.50000000E+00
  8.00000000E-01  8.00000000E-01  1.50000000E+00  8.00000000E-01  8.00000000E-01
  1.50000000E+00  8.00000000E-01  8.00000000E-01  1.50000000E+00  8.00000000E-01
  8.00000000E-01  1.50000000E+00  8.00000000E-01  8.00000000E-01  1.50000000E+00
  8.00000000E-01  8.00000000E-01  1.50000000E+00  8.00000000E-01  8.00000000E-01
  1.50000000E+00  8.00000000E-01  8.00000000E-01  1.50000000E+00  8.00000000E-01
  8.00000000E-01  1.50000000E+00  8.00000000E-01  8.00000000E-01  1.50000000E+00
  8.00000000E-01  8.00000000E-01  1.50000000E+00  8.00000000E-01  8.00000000E-01
  1.50000000E+00  8.00000000E-01  8.00000000E-01  1.50000000E+00  8.00000000E-01
  8.00000000E-01  1.50000000E+00  8.00000000E-01  8.00000000E-01  1.50000000E+00
  8.00000000E-01  8.00000000E-01  1.50000000E+00  8.00000000E-01  8.00000000E-01
  1.50000000E+00  8.00000000E-01  8.00000000E-01  1.50000000E+00  8.00000000E-01
  8.00000000E-01  1.50000000E+00  8.00000000E-01  8.00000000E-01  1.50000000E+00
  8.00000000E-01  8.00000000E-01  1.50000000E+00  8.00000000E-01  8.00000000E-01
  1.50000000E+00  8.00000000E-01  8.00000000E-01  1.50000000E+00  8.00000000E-01
  8.00000000E-01  1.50000000E+00  8.00000000E-01  8.00000000E-01  1.50000000E+00
  8.00000000E-01  8.00000000E-01  1.50000000E+00  8.00000000E-01  8.00000000E-01
  1.50000000E+00  8.00000000E-01  8.00000000E-01  1.50000000E+00  8.00000000E-01
  8.00000000E-01  1.50000000E+00  8.00000000E-01  8.00000000E-01  1.50000000E+00
  8.00000000E-01  8.00000000E-01  1.50000000E+00  8.00000000E-01  8.00000000E-01
  1.50000000E+00  8.00000000E-01  8.00000000E-01  1.50000000E+00  8.00000000E-01
  8.00000000E-01  1.50000000E+00  8.00000000E-01  8.00000000E-01  1.50000000E+00
  8.00000000E-01  8.00000000E-01  1.50000000E+00  8.00000000E-01  8.00000000E-01
  1.50000000E+00  8.00000000E-01  8.00000000E-01  1.50000000E+00  8.00000000E-01
  8.00000000E-01  1.50000000E+00  8.00000000E-01  8.00000000E-01  1.50000000E+00
  8.00000000E-01  8.00000000E-01  1.50000000E+00  8.00000000E-01  8.00000000E-01
  1.50000000E+00  8.00000000E-01  8.00000000E-01  1.50000000E+00  8.00000000E-01
  8.00000000E-01  1.50000000E+00  8.00000000E-01  8.00000000E-01  1.50000000E+00
  8.00000000E-01  8.00000000E-01  1.50000000E+00  8.00000000E-01  8.00000000E-01
  1.50000000E+00  8.00000000E-01  8.00000000E-01  1.50000000E+00  8.00000000E-01
  8.00000000E-01  1.50000000E+00  8.00000000E-01  8.00000000E-01  1.50000000E+00
  8.00000000E-01  8.00000000E-01  1.50000000E+00  8.00000000E-01  8.00000000E-01
  1.50000000E+00  8.00000000E-01  8.00000000E-01  1.50000000E+00  8.00000000E-01
  8.00000000E-01  1.50000000E+00  8.00000000E-01  8.00000000E-01  1.50000000E+00
  8.00000000E-01  8.00000000E-01  1.50000000E+00  8.00000000E-01  8.00000000E-01
  1.50000000E+00  8.00000000E-01  8.00000000E-01  1.50000000E+00  8.00000000E-01
  8.00000000E-01  1.50000000E+00  8.00000000E-01  8.00000000E-01  1.50000000E+00
  8.00000000E-01  8.00000000E-01  1.50000000E+00  8.00000000E-01  8.00000000E-01
  1.50000000E+00  8.00000000E-01  8.00000000E-01  1.50000000E+00  8.00000000E-01
  8.00000000E-01  1.50000000E+00  8.00000000E-01  8.00000000E-01  1.50000000E+00
  8.00000000E-01  8.00000000E-01  1.50000000E+00  8.00000000E-01  8.00000000E-01
  1.50000000E+00  8.00000000E-01  8.00000000E-01  1.50000000E+00  8.00000000E-01
  8.00000000E-01  1.50000000E+00  8.00000000E-01  8.00000000E-01  1.50000000E+00
  8.00000000E-01  8.00000000E-01  1.50000000E+00  8.00000000E-01  8.00000000E-01
  1.50000000E+00  8.00000000E-01  8.00000000E-01  1.50000000E+00  8.00000000E-01
  8.00000000E-01  1.50000000E+00  8.00000000E-01  8.00000000E-01  1.50000000E+00
  8.00000000E-01  8.00000000E-01  1.50000000E+00  8.00000000E-01  8.00000000E-01
  1.50000000E+00  8.00000000E-01  8.00000000E-01  1.50000000E+00  8.00000000E-01
  8.00000000E-01  1.50000000E+00  8.00000000E-01  8.00000000E-01  1.50000000E+00
  8.00000000E-01  8.00000000E-01  1.50000000E+00  8.00000000E-01  8.00000000E-01
  1.50000000E+00  8.00000000E-01  8.00000000E-01  1.50000000E+00  8.00000000E-01
  8.00000000E-01  1.50000000E+00  8.00000000E-01  8.00000000E-01  1.50000000E+00
  8.00000000E-01  8.00000000E-01  1.50000000E+00  8.00000000E-01  8.00000000E-01
  1.50000000E+00  8.00000000E-01  8.00000000E-01  1.50000000E+00  8.00000000E-01
  8.00000000E-01  1.50000000E+00  8.00000000E-01  8.00000000E-01  1.50000000E+00
  8.00000000E-01  8.00000000E-01  1.50000000E+00  8.00000000E-01  8.00000000E-01
  1.50000000E+00  8.00000000E-01  8.00000000E-01  1.50000000E+00  8.00000000E-01
  8.00000000E-01  1.50000000E+00  8.00000000E-01  8.00000000E-01  1.50000000E+00
  8.00000000E-01  8.00000000E-01  1.50000000E+00  8.00000000E-01  8.00000000E-01
  1.50000000E+00  8.00000000E-01  8.00000000E-01  1.50000000E+00  8.00000000E-01
  8.00000000E-01  1.50000000E+00  8.00000000E-01  8.00000000E-01  1.50000000E+00
  8.00000000E-01  8.00000000E-01  1.50000000E+00  8.00000000E-01  8.00000000E-01
  1.50000000E+00  8.00000000E-01  8.00000000E-01  1.50000000E+00  8.00000000E-01
  8.00000000E-01  1.50000000E+00  8.00000000E-01  8.00000000E-01  1.50000000E+00
  8.00000000E-01  8.00000000E-01  1.50000000E+00  8.00000000E-01  8.00000000E-01
  1.50000000E+00  8.00000000E-01  8.00000000E-01  1.50000000E+00  8.00000000E-01
  8.00000000E-01  1.50000000E+00  8.00000000E-01  8.00000000E-01  1.50000000E+00
  8.00000000E-01  8.00000000E-01  1.50000000E+00  8.00000000E-01  8.00000000E-01
  1.50000000E+00  8.00000000E-01  8.00000000E-01  1.50000000E+00  8.00000000E-01
  8.00000000E-01  1.50000000E+00  8.00000000E-01  8.00000000E-01  1.50000000E+00
  8.00000000E-01  8.00000000E-01  1.50000000E+00  8.00000000E-01  8.00000000E-01
  1.50000000E+00  8.00000000E-01  8.00000000E-01  1.50000000E+00  8.00000000E-01
  8.00000000E-01  1.50000000E+00  8.00000000E-01  8.00000000E-01  1.50000000E+00
  8.00000000E-01  8.00000000E-01  1.50000000E+00  8.00000000E-01  8.00000000E-01
  1.50000000E+00  8.00000000E-01  8.00000000E-01  1.50000000E+00  8.00000000E-01
  8.00000000E-01  1.50000000E+00  8.00000000E-01  8.00000000E-01  1.50000000E+00
  8.00000000E-01  8.00000000E-01  1.50000000E+00  8.00000000E-01  8.00000000E-01
  1.50000000E+00  8.00000000E-01  8.00000000E-01  1.50000000E+00  8.00000000E-01
  8.00000000E-01  1.50000000E+00  8.00000000E-01  8.00000000E-01  1.50000000E+00
  8.00000000E-01  8.00000000E-01  1.50000000E+00  8.00000000E-01  8.00000000E-01
  1.50000000E+00  8.00000000E-01  8.00000000E-01  1.50000000E+00  8.00000000E-01
  8.00000000E-01  1.50000000E+00  8.00000000E-01  8.00000000E-01  1.50000000E+00
  8.00000000E-01  8.00000000E-01  1.50000000E+00  8.00000000E-01  8.00000000E-01
  1.50000000E+00  8.00000000E-01  8.00000000E-01  1.50000000E+00  8.00000000E-01
  8.00000000E-01  1.50000000E+00  8.00000000E-01  8.00000000E-01  1.50000000E+00
  8.00000000E-01  8.00000000E-01  1.50000000E+00  8.00000000E-01  8.00000000E-01
  1.50000000E+00  8.00000000E-01  8.00000000E-01  1.50000000E+00  8.00000000E-01
  8.00000000E-01  1.50000000E+00  8.00000000E-01  8.00000000E-01  1.50000000E+00
  8.00000000E-01  8.00000000E-01  1.50000000E+00  8.00000000E-01  8.00000000E-01
  1.50000000E+00  8.00000000E-01  8.00000000E-01  1.50000000E+00  8.00000000E-01
  8.00000000E-01  1.50000000E+00  8.00000000E-01  8.00000000E-01  1.50000000E+00
  8.00000000E-01  8.00000000E-01  1.50000000E+00  8.00000000E-01  8.00000000E-01
  1.50000000E+00  8.00000000E-01  8.00000000E-01  1.50000000E+00  8.00000000E-01
  8.00000000E-01  1.50000000E+00  8.00000000E-01  8.00000000E-01  1.50000000E+00
  8.00000000E-01  8.00000000E-01  1.50000000E+00  8.00000000E-01  8.00000000E-01
  1.50000000E+00  8.00000000E-01  8.00000000E-01  1.50000000E+00  8.00000000E-01
  8.00000000E-01  1.50000000E+00  8.00000000E-01  8.00000000E-01  1.50000000E+00
  8.00000000E-01  8.00000000E-01  1.50000000E+00  8.00000000E-01  8.00000000E-01
  1.50000000E+00  8.00000000E-01  8.00000000E-01  1.50000000E+00  8.00000000E-01
  8.00000000E-01  1.50000000E+00  8.00000000E-01  8.00000000E-01  1.50000000E+00
  8.00000000E-01  8.00000000E-01  1.50000000E+00  8.00000000E-01  8.00000000E-01
  1.50000000E+00  8.00000000E-01  8.00000000E-01  1.50000000E+00  8.00000000E-01
  8.00000000E-01  1.50000000E+00  8.00000000E-01  8.00000000E-01  1.50000000E+00
  8.00000000E-01  8.00000000E-01  1.50000000E+00  8.00000000E-01  8.00000000E-01
  1.50000000E+00  8.00000000E-01  8.00000000E-01  1.50000000E+00  8.00000000E-01
  8.00000000E-01  1.50000000E+00  8.00000000E-01  8.00000000E-01  1.50000000E+00
  8.00000000E-01  8.00000000E-01  1.50000000E+00  8.00000000E-01  8.00000000E-01
  1.50000000E+00  8.00000000E-01  8.00000000E-01  1.50000000E+00  8.00000000E-01
  8.00000000E-01  1.50000000E+00  8.00000000E-01  8.00000000E-01  1.50000000E+00
  8.00000000E-01  8.00000000E-01  1.50000000E+00  8.00000000E-01  8.00000000E-01
  1.50000000E+00  8.00000000E-01  8.00000000E-01  1.50000000E+00  8.00000000E-01
  8.00000000E-01  1.50000000E+00  8.00000000E-01  8.00000000E-01  1.50000000E+00
  8.00000000E-01  8.00000000E-01  1.50000000E+00  8.00000000E-01  8.00000000E-01
  1.50000000E+00  8.00000000E-01  8.00000000E-01  1.50000000E+00  8.00000000E-01
  8.00000000E-01  1.50000000E+00  8.00000000E-01  8.00000000E-01  1.50000000E+00
  8.00000000E-01  8.00000000E-01  1.50000000E+00  8.00000000E-01  8.00000000E-01
  1.50000000E+00  8.00000000E-01  8.00000000E-01  1.50000000E+00  8.00000000E-01
  8.00000000E-01  1.50000000E+00  8.00000000E-01  8.00000000E-01  1.50000000E+00
  8.00000000E-01  8.00000000E-01  1.50000000E+00  8.00000000E-01  8.00000000E-01
  1.50000000E+00  8.00000000E-01  8.00000000E-01  1.50000000E+00  8.00000000E-01
  8.00000000E-01  1.50000000E+00  8.00000000E-01  8.00000000E-01  1.50000000E+00
  8.00000000E-01  8.00000000E-01  1.50000000E+00  8.00000000E-01  8.00000000E-01
  1.50000000E+00  8.00000000E-01  8.00000000E-01  1.50000000E+00  8.00000000E-01
  8.00000000E-01  1.50000000E+00  8.00000000E-01  8.00000000E-01  1.50000000E+00
  8.00000000E-01  8.00000000E-01  1.50000000E+00  8.00000000E-01  8.00000000E-01
  1.50000000E+00  8.00000000E-01  8.00000000E-01  1.50000000E+00  8.00000000E-01
  8.00000000E-01  1.50000000E+00  8.00000000E-01  8.00000000E-01  1.50000000E+00
  8.00000000E-01  8.00000000E-01  1.50000000E+00  8.00000000E-01  8.00000000E-01
  1.50000000E+00  8.00000000E-01  8.00000000E-01  1.50000000E+00  8.00000000E-01
  8.00000000E-01  1.50000000E+00  8.00000000E-01  8.00000000E-01  1.50000000E+00
  8.00000000E-01  8.00000000E-01  1.50000000E+00  8.00000000E-01  8.00000000E-01
  1.50000000E+00  8.00000000E-01  8.00000000E-01  1.50000000E+00  8.00000000E-01
  8.00000000E-01  1.50000000E+00  8.00000000E-01  8.00000000E-01  1.50000000E+00
  8.00000000E-01  8.00000000E-01  1.50000000E+00  8.00000000E-01  8.00000000E-01
  1.50000000E+00  8.00000000E-01  8.00000000E-01  1.50000000E+00  8.00000000E-01
  8.00000000E-01  1.50000000E+00  8.00000000E-01  8.00000000E-01  1.50000000E+00
  8.00000000E-01  8.00000000E-01  1.50000000E+00  8.00000000E-01  8.00000000E-01
  1.50000000E+00  8.00000000E-01  8.00000000E-01  1.50000000E+00  8.00000000E-01
  8.00000000E-01  1.50000000E+00  8.00000000E-01  8.00000000E-01  1.50000000E+00
  8.00000000E-01  8.00000000E-01  1.50000000E+00  8.00000000E-01  8.00000000E-01
  1.50000000E+00  8.00000000E-01  8.00000000E-01  1.50000000E+00  8.00000000E-01
  8.00000000E-01  1.50000000E+00  8.00000000E-01  8.00000000E-01  1.50000000E+00
  8.00000000E-01  8.00000000E-01  1.50000000E+00  8.00000000E-01  8.00000000E-01
  1.50000000E+00  8.00000000E-01  8.00000000E-01  1.50000000E+00  8.00000000E-01
  8.00000000E-01  1.50000000E+00  8.00000000E-01  8.00000000E-01  1.50000000E+00
  8.00000000E-01  8.00000000E-01  1.50000000E+00  8.00000000E-01  8.00000000E-01
  1.50000000E+00  8.00000000E-01  8.00000000E-01  1.50000000E+00  8.00000000E-01
  8.00000000E-01  1.50000000E+00  8.00000000E-01  8.00000000E-01  1.50000000E+00
  8.00000000E-01  8.00000000E-01  1.50000000E+00  8.00000000E-01  8.00000000E-01
  1.50000000E+00  8.00000000E-01  8.00000000E-01  1.50000000E+00  8.00000000E-01
  8.00000000E-01  1.50000000E+00  8.00000000E-01  8.00000000E-01  1.50000000E+00
  8.00000000E-01  8.00000000E-01  1.50000000E+00  8.00000000E-01  8.00000000E-01
  1.50000000E+00  8.00000000E-01  8.00000000E-01  1.50000000E+00  8.00000000E-01
  8.00000000E-01  1.50000000E+00  8.00000000E-01  8.00000000E-01  1.50000000E+00
  8.00000000E-01  8.00000000E-01  1.50000000E+00  8.00000000E-01  8.00000000E-01
  1.50000000E+00  8.00000000E-01  8.00000000E-01  1.50000000E+00  8.00000000E-01
  8.00000000E-01  1.50000000E+00  8.00000000E-01  8.00000000E-01  1.50000000E+00
  8.00000000E-01  8.00000000E-01  1.50000000E+00  8.00000000E-01  8.00000000E-01
  1.50000000E+00  8.00000000E-01  8.00000000E-01  1.50000000E+00  8.00000000E-01
  8.00000000E-01  1.50000000E+00  8.00000000E-01  8.00000000E-01  1.50000000E+00
  8.00000000E-01  8.00000000E-01  1.50000000E+00  8.00000000E-01  8.00000000E-01
  1.50000000E+00  8.00000000E-01  8.00000000E-01  1.50000000E+00  8.00000000E-01
  8.00000000E-01  1.50000000E+00  8.00000000E-01  8.00000000E-01  1.50000000E+00
  8.00000000E-01  8.00000000E-01  1.50000000E+00  8.00000000E-01  8.00000000E-01
  1.50000000E+00  8.00000000E-01  8.00000000E-01  1.50000000E+00  8.00000000E-01
  8.00000000E-01  1.50000000E+00  8.00000000E-01  8.00000000E-01  1.50000000E+00
  8.00000000E-01  8.00000000E-01  1.50000000E+00  8.00000000E-01  8.00000000E-01
  1.50000000E+00  8.00000000E-01  8.00000000E-01  1.50000000E+00  8.00000000E-01
  8.00000000E-01  1.50000000E+00  8.00000000E-01  8.00000000E-01  1.50000000E+00
  8.00000000E-01  8.00000000E-01  1.50000000E+00  8.00000000E-01  8.00000000E-01
  1.50000000E+00  8.00000000E-01  8.00000000E-01  1.50000000E+00  8.00000000E-01
  8.00000000E-01  1.50000000E+00  8.00000000E-01  8.00000000E-01  1.50000000E+00
  8.00000000E-01  8.00000000E-01  1.50000000E+00  8.00000000E-01  8.00000000E-01
  1.50000000E+00  8.00000000E-01  8.00000000E-01  1.50000000E+00  8.00000000E-01
  8.00000000E-01  1.50000000E+00  8.00000000E-01  8.00000000E-01  1.50000000E+00
  8.00000000E-01  8.00000000E-01  1.50000000E+00  8.00000000E-01  8.00000000E-01
  1.50000000E+00  8.00000000E-01  8.00000000E-01  1.50000000E+00  8.00000000E-01
  8.00000000E-01  1.50000000E+00  8.00000000E-01  8.00000000E-01  1.50000000E+00
  8.00000000E-01  8.00000000E-01  1.50000000E+00  8.00000000E-01  8.00000000E-01
  1.50000000E+00  8.00000000E-01  8.00000000E-01  1.50000000E+00  8.00000000E-01
  8.00000000E-01  1.50000000E+00  8.00000000E-01  8.00000000E-01  1.50000000E+00
  8.00000000E-01  8.00000000E-01  1.50000000E+00  8.00000000E-01  8.00000000E-01
  1.50000000E+00  8.00000000E-01  8.00000000E-01  1.50000000E+00  8.00000000E-01
  8.00000000E-01  1.50000000E+00  8.00000000E-01  8.00000000E-01  1.50000000E+00
  8.00000000E-01  8.00000000E-01  1.50000000E+00  8.00000000E-01  8.00000000E-01
  1.50000000E+00  8.00000000E-01  8.00000000E-01  1.50000000E+00  8.00000000E-01
  8.00000000E-01  1.50000000E+00  8.00000000E-01  8.00000000E-01  1.50000000E+00
  8.00000000E-01  8.00000000E-01  1.50000000E+00  8.00000000E-01  8.00000000E-01
  1.50000000E+00  8.00000000E-01  8.00000000E-01  1.50000000E+00  8.00000000E-01
  8.00000000E-01  1.50000000E+00  8.00000000E-01  8.00000000E-01  1.50000000E+00
  8.00000000E-01  8.00000000E-01  1.50000000E+00  8.00000000E-01  8.00000000E-01
  1.50000000E+00  8.00000000E-01  8.00000000E-01  1.50000000E+00  8.00000000E-01
  8.00000000E-01  1.50000000E+00  8.00000000E-01  8.00000000E-01  1.50000000E+00
  8.00000000E-01  8.00000000E-01  1.50000000E+00  8.00000000E-01  8.00000000E-01
  1.50000000E+00  8.00000000E-01  8.00000000E-01  1.50000000E+00  8.00000000E-01
  8.00000000E-01  1.50000000E+00  8.00000000E-01  8.00000000E-01  1.50000000E+00
  8.00000000E-01  8.00000000E-01  1.50000000E+00  8.00000000E-01  8.00000000E-01
  1.50000000E+00  8.00000000E-01  8.00000000E-01  1.50000000E+00  8.00000000E-01
  8.00000000E-01  1.50000000E+00  8.00000000E-01  8.00000000E-01  1.50000000E+00
  8.00000000E-01  8.00000000E-01  1.50000000E+00  8.00000000E-01  8.00000000E-01
  1.50000000E+00  8.00000000E-01  8.00000000E-01  1.50000000E+00  8.00000000E-01
  8.00000000E-01  1.50000000E+00  8.00000000E-01  8.00000000E-01  1.50000000E+00
  8.00000000E-01  8.00000000E-01  1.50000000E+00  8.00000000E-01  8.00000000E-01
  1.50000000E+00  8.00000000E-01  8.00000000E-01  1.50000000E+00  8.00000000E-01
  8.00000000E-01  1.50000000E+00  8.00000000E-01  8.00000000E-01  1.50000000E+00
  8.00000000E-01  8.00000000E-01  1.50000000E+00  8.00000000E-01  8.00000000E-01
  1.50000000E+00  8.00000000E-01  8.00000000E-01  1.50000000E+00  8.00000000E-01
  8.00000000E-01  1.50000000E+00  8.00000000E-01  8.00000000E-01  1.50000000E+00
  8.00000000E-01  8.00000000E-01  1.50000000E+00  8.00000000E-01  8.00000000E-01
  1.50000000E+00  8.00000000E-01  8.00000000E-01  1.50000000E+00  8.00000000E-01
  8.00000000E-01  1.50000000E+00  8.00000000E-01  8.00000000E-01  1.50000000E+00
  8.00000000E-01  8.00000000E-01  1.50000000E+00  8.00000000E-01  8.00000000E-01
  1.50000000E+00  8.00000000E-01  8.00000000E-01  1.50000000E+00  8.00000000E-01
  8.00000000E-01  1.50000000E+00  8.00000000E-01  8.00000000E-01  1.50000000E+00
  8.00000000E-01  8.00000000E-01  1.50000000E+00  8.00000000E-01  8.00000000E-01
  1.50000000E+00  8.00000000E-01  8.00000000E-01  1.50000000E+00  8.00000000E-01
  8.00000000E-01  1.50000000E+00  8.00000000E-01  8.00000000E-01  1.50000000E+00
  8.00000000E-01  8.00000000E-01  1.50000000E+00  8.00000000E-01  8.00000000E-01
  1.50000000E+00  8.00000000E-01  8.00000000E-01  1.50000000E+00  8.00000000E-01
  8.00000000E-01  1.50000000E+00  8.00000000E-01  8.00000000E-01  1.50000000E+00
  8.00000000E-01  8.00000000E-01  1.50000000E+00  8.00000000E-01  8.00000000E-01
  1.50000000E+00  8.00000000E-01  8.00000000E-01  1.50000000E+00  8.00000000E-01
  8.00000000E-01  1.50000000E+00  8.00000000E-01  8.00000000E-01  1.50000000E+00
  8.00000000E-01  8.00000000E-01  1.50000000E+00  8.00000000E-01  8.00000000E-01
  1.50000000E+00  8.00000000E-01  8.00000000E-01  1.50000000E+00  8.00000000E-01
  8.00000000E-01  1.50000000E+00  8.00000000E-01  8.00000000E-01  1.50000000E+00
  8.00000000E-01  8.00000000E-01  1.50000000E+00  8.00000000E-01  8.00000000E-01
  1.50000000E+00  8.00000000E-01  8.00000000E-01  1.50000000E+00  8.00000000E-01
  8.00000000E-01  1.50000000E+00  8.00000000E-01  8.00000000E-01  1.50000000E+00
  8.00000000E-01  8.00000000E-01  1.50000000E+00  8.00000000E-01  8.00000000E-01
  1.50000000E+00  8.00000000E-01  8.00000000E-01  1.50000000E+00  8.00000000E-01
  8.00000000E-01  1.50000000E+00  8.00000000E-01  8.00000000E-01  1.50000000E+00
  8.00000000E-01  8.00000000E-01  1.50000000E+00  8.00000000E-01  8.00000000E-01
  1.50000000E+00  8.00000000E-01  8.00000000E-01  1.50000000E+00  8.00000000E-01
  8.00000000E-01  1.50000000E+00  8.00000000E-01  8.00000000E-01  1.50000000E+00
  8.00000000E-01  8.00000000E-01  1.50000000E+00  8.00000000E-01  8.00000000E-01
  1.50000000E+00  8.00000000E-01  8.00000000E-01  1.50000000E+00  8.00000000E-01
  8.00000000E-01  1.50000000E+00  8.00000000E-01  8.00000000E-01  1.50000000E+00
  8.00000000E-01  8.00000000E-01  1.50000000E+00  8.00000000E-01  8.00000000E-01
  1.50000000E+00  8.00000000E-01  8.00000000E-01  1.50000000E+00  8.00000000E-01
  8.00000000E-01  1.50000000E+00  8.00000000E-01  8.00000000E-01  1.50000000E+00
  8.00000000E-01  8.00000000E-01  1.50000000E+00  8.00000000E-01  8.00000000E-01
  1.50000000E+00  8.00000000E-01  8.00000000E-01  1.50000000E+00  8.00000000E-01
  8.00000000E-01  1.50000000E+00  8.00000000E-01  8.00000000E-01  1.50000000E+00
  8.00000000E-01  8.00000000E-01  1.50000000E+00  8.00000000E-01  8.00000000E-01
  1.50000000E+00  8.00000000E-01  8.00000000E-01  1.50000000E+00  8.00000000E-01
  8.00000000E-01  1.50000000E+00  8.00000000E-01  8.00000000E-01  1.50000000E+00
  8.00000000E-01  8.00000000E-01  1.50000000E+00  8.00000000E-01  8.00000000E-01
  1.50000000E+00  8.00000000E-01  8.00000000E-01  1.50000000E+00  8.00000000E-01
  8.00000000E-01  1.50000000E+00  8.00000000E-01  8.00000000E-01  1.50000000E+00
  8.00000000E-01  8.00000000E-01  1.50000000E+00  8.00000000E-01  8.00000000E-01
  1.50000000E+00  8.00000000E-01  8.00000000E-01  1.50000000E+00  8.00000000E-01
  8.00000000E-01  1.50000000E+00  8.00000000E-01  8.00000000E-01  1.50000000E+00
  8.00000000E-01  8.00000000E-01  1.50000000E+00  8.00000000E-01  8.00000000E-01
  1.50000000E+00  8.00000000E-01  8.00000000E-01  1.50000000E+00  8.00000000E-01
  8.00000000E-01  1.50000000E+00  8.00000000E-01  8.00000000E-01  1.50000000E+00
  8.00000000E-01  8.00000000E-01  1.50000000E+00  8.00000000E-01  8.00000000E-01
  1.50000000E+00  8.00000000E-01  8.00000000E-01  1.50000000E+00  8.00000000E-01
  8.00000000E-01  1.50000000E+00  8.00000000E-01  8.00000000E-01  1.50000000E+00
  8.00000000E-01  8.00000000E-01  1.50000000E+00  8.00000000E-01  8.00000000E-01
  1.50000000E+00  8.00000000E-01  8.00000000E-01  1.50000000E+00  8.00000000E-01
  8.00000000E-01  1.50000000E+00  8.00000000E-01  8.00000000E-01  1.50000000E+00
  8.00000000E-01  8.00000000E-01  1.50000000E+00  8.00000000E-01  8.00000000E-01
  1.50000000E+00  8.00000000E-01  8.00000000E-01  1.50000000E+00  8.00000000E-01
  8.00000000E-01  1.50000000E+00  8.00000000E-01  8.00000000E-01  1.50000000E+00
  8.00000000E-01  8.00000000E-01  1.50000000E+00  8.00000000E-01  8.00000000E-01
  1.50000000E+00  8.00000000E-01  8.00000000E-01  1.50000000E+00  8.00000000E-01
  8.00000000E-01  1.50000000E+00  8.00000000E-01  8.00000000E-01  1.50000000E+00
  8.00000000E-01  8.00000000E-01  1.50000000E+00  8.00000000E-01  8.00000000E-01
  1.50000000E+00  8.00000000E-01  8.00000000E-01  1.50000000E+00  8.00000000E-01
  8.00000000E-01  1.50000000E+00  8.00000000E-01  8.00000000E-01  1.50000000E+00
  8.00000000E-01  8.00000000E-01  1.50000000E+00  8.00000000E-01  8.00000000E-01
  1.50000000E+00  8.00000000E-01  8.00000000E-01  1.50000000E+00  8.00000000E-01
  8.00000000E-01  1.50000000E+00  8.00000000E-01  8.00000000E-01  1.50000000E+00
  8.00000000E-01  8.00000000E-01  1.50000000E+00  8.00000000E-01  8.00000000E-01
  1.50000000E+00  8.00000000E-01  8.00000000E-01  1.50000000E+00  8.00000000E-01
  8.00000000E-01  1.50000000E+00  8.00000000E-01  8.00000000E-01  1.50000000E+00
  8.00000000E-01  8.00000000E-01  1.50000000E+00  8.00000000E-01  8.00000000E-01
  1.50000000E+00  8.00000000E-01  8.00000000E-01  1.50000000E+00  8.00000000E-01
  8.00000000E-01  1.50000000E+00  8.00000000E-01  8.00000000E-01  1.50000000E+00
  8.00000000E-01  8.00000000E-01  1.50000000E+00  8.00000000E-01  8.00000000E-01
  1.50000000E+00  8.00000000E-01  8.00000000E-01  1.50000000E+00  8.00000000E-01
  8.00000000E-01  1.50000000E+00  8.00000000E-01  8.00000000E-01  1.50000000E+00
  8.00000000E-01  8.00000000E-01  1.50000000E+00  8.00000000E-01  8.00000000E-01
  1.50000000E+00  8.00000000E-01  8.00000000E-01  1.50000000E+00  8.00000000E-01
  8.00000000E-01  1.50000000E+00  8.00000000E-01  8.00000000E-01  1.50000000E+00
  8.00000000E-01  8.00000000E-01  1.50000000E+00  8.00000000E-01  8.00000000E-01
  1.50000000E+00  8.00000000E-01  8.00000000E-01  1.50000000E+00  8.00000000E-01
  8.00000000E-01  1.50000000E+00  8.00000000E-01  8.00000000E-01  1.50000000E+00
  8.00000000E-01  8.00000000E-01  1.50000000E+00  8.00000000E-01  8.00000000E-01
  1.50000000E+00  8.00000000E-01  8.00000000E-01  1.50000000E+00  8.00000000E-01
  8.00000000E-01  1.50000000E+00  8.00000000E-01  8.00000000E-01  1.50000000E+00
  8.00000000E-01  8.00000000E-01  1.50000000E+00  8.00000000E-01  8.00000000E-01
  1.50000000E+00  8.00000000E-01  8.00000000E-01  1.50000000E+00  8.00000000E-01
  8.00000000E-01  1.50000000E+00  8.00000000E-01  8.00000000E-01  1.50000000E+00
  8.00000000E-01  8.00000000E-01  1.50000000E+00  8.00000000E-01  8.00000000E-01
  1.50000000E+00  8.00000000E-01  8.00000000E-01  1.50000000E+00  8.00000000E-01
  8.00000000E-01  1.50000000E+00  8.00000000E-01  8.00000000E-01  1.50000000E+00
  8.00000000E-01  8.00000000E-01  1.50000000E+00  8.00000000E-01  8.00000000E-01
  1.50000000E+00  8.00000000E-01  8.00000000E-01  1.50000000E+00  8.00000000E-01
  8.00000000E-01  1.50000000E+00  8.00000000E-01  8.00000000E-01  1.50000000E+00
  8.00000000E-01  8.00000000E-01  1.50000000E+00  8.00000000E-01  8.00000000E-01
  1.50000000E+00  8.00000000E-01  8.00000000E-01  1.50000000E+00  8.00000000E-01
  8.00000000E-01  1.50000000E+00  8.00000000E-01  8.00000000E-01  1.50000000E+00
  8.00000000E-01  8.00000000E-01  1.50000000E+00  8.00000000E-01  8.00000000E-01
  1.50000000E+00  8.00000000E-01  8.00000000E-01  1.50000000E+00  8.00000000E-01
  8.00000000E-01  1.50000000E+00  8.00000000E-01  8.00000000E-01  1.50000000E+00
  8.00000000E-01  8.00000000E-01  1.50000000E+00  8.00000000E-01  8.00000000E-01
  1.50000000E+00  8.00000000E-01  8.00000000E-01  1.50000000E+00  8.00000000E-01
  8.00000000E-01  1.50000000E+00  8.00000000E-01  8.00000000E-01  1.50000000E+00
  8.00000000E-01  8.00000000E-01  1.50000000E+00  8.00000000E-01  8.00000000E-01
  1.50000000E+00  8.00000000E-01  8.00000000E-01  1.50000000E+00  8.00000000E-01
  8.00000000E-01  1.50000000E+00  8.00000000E-01  8.00000000E-01  1.50000000E+00
  8.00000000E-01  8.00000000E-01  1.50000000E+00  8.00000000E-01  8.00000000E-01
  1.50000000E+00  8.00000000E-01  8.00000000E-01  1.50000000E+00  8.00000000E-01
  8.00000000E-01  1.50000000E+00  8.00000000E-01  8.00000000E-01  1.50000000E+00
  8.00000000E-01  8.00000000E-01  1.50000000E+00  8.00000000E-01  8.00000000E-01
  1.50000000E+00  8.00000000E-01  8.00000000E-01  1.50000000E+00  8.00000000E-01
  8.00000000E-01  1.50000000E+00  8.00000000E-01  8.00000000E-01  1.50000000E+00
  8.00000000E-01  8.00000000E-01  1.50000000E+00  8.00000000E-01  8.00000000E-01
  1.50000000E+00  8.00000000E-01  8.00000000E-01  1.50000000E+00  8.00000000E-01
  8.00000000E-01  1.50000000E+00  8.00000000E-01  8.00000000E-01  1.50000000E+00
  8.00000000E-01  8.00000000E-01  1.50000000E+00  8.00000000E-01  8.00000000E-01
  1.50000000E+00  8.00000000E-01  8.00000000E-01  1.50000000E+00  8.00000000E-01
  8.00000000E-01  1.50000000E+00  8.00000000E-01  8.00000000E-01  1.50000000E+00
  8.00000000E-01  8.00000000E-01  1.50000000E+00  8.00000000E-01  8.00000000E-01
  1.50000000E+00  8.00000000E-01  8.00000000E-01  1.50000000E+00  8.00000000E-01
  8.00000000E-01  1.50000000E+00  8.00000000E-01  8.00000000E-01  1.50000000E+00
  8.00000000E-01  8.00000000E-01  1.50000000E+00  8.00000000E-01  8.00000000E-01
  1.50000000E+00  8.00000000E-01  8.00000000E-01  1.50000000E+00  8.00000000E-01
  8.00000000E-01  1.50000000E+00  8.00000000E-01  8.00000000E-01  1.50000000E+00
  8.00000000E-01  8.00000000E-01  1.50000000E+00  8.00000000E-01  8.00000000E-01
  1.50000000E+00  8.00000000E-01  8.00000000E-01  1.50000000E+00  8.00000000E-01
  8.00000000E-01  1.50000000E+00  8.00000000E-01  8.00000000E-01  1.50000000E+00
  8.00000000E-01  8.00000000E-01  1.50000000E+00  8.00000000E-01  8.00000000E-01
  1.50000000E+00  8.00000000E-01  8.00000000E-01  1.50000000E+00  8.00000000E-01
  8.00000000E-01  1.50000000E+00  8.00000000E-01  8.00000000E-01  1.50000000E+00
  8.00000000E-01  8.00000000E-01  1.50000000E+00  8.00000000E-01  8.00000000E-01
  1.50000000E+00  8.00000000E-01  8.00000000E-01  1.50000000E+00  8.00000000E-01
  8.00000000E-01  1.50000000E+00  8.00000000E-01  8.00000000E-01  1.50000000E+00
  8.00000000E-01  8.00000000E-01  1.50000000E+00  8.00000000E-01  8.00000000E-01
  1.50000000E+00  8.00000000E-01  8.00000000E-01  1.50000000E+00  8.00000000E-01
  8.00000000E-01  1.50000000E+00  8.00000000E-01  8.00000000E-01  1.50000000E+00
  8.00000000E-01  8.00000000E-01  1.50000000E+00  8.00000000E-01  8.00000000E-01
  1.50000000E+00  8.00000000E-01  8.00000000E-01  1.50000000E+00  8.00000000E-01
  8.00000000E-01  1.50000000E+00  8.00000000E-01  8.00000000E-01  1.50000000E+00
  8.00000000E-01  8.00000000E-01  1.50000000E+00  8.00000000E-01  8.00000000E-01
  1.50000000E+00  8.00000000E-01  8.00000000E-01  1.50000000E+00  8.00000000E-01
  8.00000000E-01  1.50000000E+00  8.00000000E-01  8.00000000E-01  1.50000000E+00
  8.00000000E-01  8.00000000E-01  1.50000000E+00  8.00000000E-01  8.00000000E-01
  1.50000000E+00  8.00000000E-01  8.00000000E-01  1.50000000E+00  8.00000000E-01
  8.00000000E-01  1.50000000E+00  8.00000000E-01  8.00000000E-01  1.50000000E+00
  8.00000000E-01  8.00000000E-01  1.50000000E+00  8.00000000E-01  8.00000000E-01
  1.50000000E+00  8.00000000E-01  8.00000000E-01  1.50000000E+00  8.00000000E-01
  8.00000000E-01  1.50000000E+00  8.00000000E-01  8.00000000E-01  1.50000000E+00
  8.00000000E-01  8.00000000E-01  1.50000000E+00  8.00000000E-01  8.00000000E-01
  1.50000000E+00  8.00000000E-01  8.00000000E-01  1.50000000E+00  8.00000000E-01
  8.00000000E-01  1.50000000E+00  8.00000000E-01  8.00000000E-01  1.50000000E+00
  8.00000000E-01  8.00000000E-01  1.50000000E+00  8.00000000E-01  8.00000000E-01
  1.50000000E+00  8.00000000E-01  8.00000000E-01  1.50000000E+00  8.00000000E-01
  8.00000000E-01  1.50000000E+00  8.00000000E-01  8.00000000E-01  1.50000000E+00
  8.00000000E-01  8.00000000E-01  1.50000000E+00  8.00000000E-01  8.00000000E-01
  1.50000000E+00  8.00000000E-01  8.00000000E-01  1.50000000E+00  8.00000000E-01
  8.00000000E-01  1.50000000E+00  8.00000000E-01  8.00000000E-01  1.50000000E+00
  8.00000000E-01  8.00000000E-01  1.50000000E+00  8.00000000E-01  8.00000000E-01
  1.50000000E+00  8.00000000E-01  8.00000000E-01  1.50000000E+00  8.00000000E-01
  8.00000000E-01  1.50000000E+00  8.00000000E-01  8.00000000E-01  1.50000000E+00
  8.00000000E-01  8.00000000E-01  1.50000000E+00  8.00000000E-01  8.00000000E-01
  1.50000000E+00  8.00000000E-01  8.00000000E-01  1.50000000E+00  8.00000000E-01
  8.00000000E-01  1.50000000E+00  8.00000000E-01  8.00000000E-01  1.50000000E+00
  8.00000000E-01  8.00000000E-01  1.50000000E+00  8.00000000E-01  8.00000000E-01
  1.50000000E+00  8.00000000E-01  8.00000000E-01  1.50000000E+00  8.00000000E-01
  8.00000000E-01  1.50000000E+00  8.00000000E-01  8.00000000E-01  1.50000000E+00
  8.00000000E-01  8.00000000E-01  1.50000000E+00  8.00000000E-01  8.00000000E-01
  1.50000000E+00  8.00000000E-01  8.00000000E-01  1.50000000E+00  8.00000000E-01
  8.00000000E-01  1.50000000E+00  8.00000000E-01  8.00000000E-01  1.50000000E+00
  8.00000000E-01  8.00000000E-01  1.50000000E+00  8.00000000E-01  8.00000000E-01
  1.50000000E+00  8.00000000E-01  8.00000000E-01  1.50000000E+00  8.00000000E-01
  8.00000000E-01  1.50000000E+00  8.00000000E-01  8.00000000E-01  1.50000000E+00
  8.00000000E-01  8.00000000E-01  1.50000000E+00  8.00000000E-01  8.00000000E-01
  1.50000000E+00  8.00000000E-01  8.00000000E-01  1.50000000E+00  8.00000000E-01
  8.00000000E-01  1.50000000E+00  8.00000000E-01  8.00000000E-01  1.50000000E+00
  8.00000000E-01  8.00000000E-01  1.50000000E+00  8.00000000E-01  8.00000000E-01
  1.50000000E+00  8.00000000E-01  8.00000000E-01  1.50000000E+00  8.00000000E-01
  8.00000000E-01  1.50000000E+00  8.00000000E-01  8.00000000E-01  1.50000000E+00
  8.00000000E-01  8.00000000E-01  1.50000000E+00  8.00000000E-01  8.00000000E-01
  1.50000000E+00  8.00000000E-01  8.00000000E-01  1.50000000E+00  8.00000000E-01
  8.00000000E-01  1.50000000E+00  8.00000000E-01  8.00000000E-01  1.50000000E+00
  8.00000000E-01  8.00000000E-01  1.50000000E+00  8.00000000E-01  8.00000000E-01
  1.50000000E+00  8.00000000E-01  8.00000000E-01  1.50000000E+00  8.00000000E-01
  8.00000000E-01  1.50000000E+00  8.00000000E-01  8.00000000E-01  1.50000000E+00
  8.00000000E-01  8.00000000E-01  1.50000000E+00  8.00000000E-01  8.00000000E-01
  1.50000000E+00  8.00000000E-01  8.00000000E-01  1.50000000E+00  8.00000000E-01
  8.00000000E-01  1.50000000E+00  8.00000000E-01  8.00000000E-01  1.50000000E+00
  8.00000000E-01  8.00000000E-01  1.50000000E+00  8.00000000E-01  8.00000000E-01
  1.50000000E+00  8.00000000E-01  8.00000000E-01  1.50000000E+00  8.00000000E-01
  8.00000000E-01  1.50000000E+00  8.00000000E-01  8.00000000E-01  1.50000000E+00
  8.00000000E-01  8.00000000E-01  1.50000000E+00  8.00000000E-01  8.00000000E-01
  1.50000000E+00  8.00000000E-01  8.00000000E-01  1.50000000E+00  8.00000000E-01
  8.00000000E-01  1.50000000E+00  8.00000000E-01  8.00000000E-01  1.50000000E+00
  8.00000000E-01  8.00000000E-01  1.50000000E+00  8.00000000E-01  8.00000000E-01
  1.50000000E+00  8.00000000E-01  8.00000000E-01  1.50000000E+00  8.00000000E-01
  8.00000000E-01  1.50000000E+00  8.00000000E-01  8.00000000E-01  1.50000000E+00
  8.00000000E-01  8.00000000E-01  1.50000000E+00  8.00000000E-01  8.00000000E-01
  1.50000000E+00  8.00000000E-01  8.00000000E-01  1.50000000E+00  8.00000000E-01
  8.00000000E-01  1.50000000E+00  8.00000000E-01  8.00000000E-01  1.50000000E+00
  8.00000000E-01  8.00000000E-01  1.50000000E+00  8.00000000E-01  8.00000000E-01
  1.50000000E+00  8.00000000E-01  8.00000000E-01  1.50000000E+00  8.00000000E-01
  8.00000000E-01  1.50000000E+00  8.00000000E-01  8.00000000E-01  1.50000000E+00
  8.00000000E-01  8.00000000E-01  1.50000000E+00  8.00000000E-01  8.00000000E-01
  1.50000000E+00  8.00000000E-01  8.00000000E-01  1.50000000E+00  8.00000000E-01
  8.00000000E-01  1.50000000E+00  8.00000000E-01  8.00000000E-01  1.50000000E+00
  8.00000000E-01  8.00000000E-01  1.50000000E+00  8.00000000E-01  8.00000000E-01
  1.50000000E+00  8.00000000E-01  8.00000000E-01  1.50000000E+00  8.00000000E-01
  8.00000000E-01  1.50000000E+00  8.00000000E-01  8.00000000E-01  1.50000000E+00
  8.00000000E-01  8.00000000E-01  1.50000000E+00  8.00000000E-01  8.00000000E-01
  1.50000000E+00  8.00000000E-01  8.00000000E-01  1.50000000E+00  8.00000000E-01
  8.00000000E-01  1.50000000E+00  8.00000000E-01  8.00000000E-01  1.50000000E+00
  8.00000000E-01  8.00000000E-01  1.50000000E+00  8.00000000E-01  8.00000000E-01
  1.50000000E+00  8.00000000E-01  8.00000000E-01  1.50000000E+00  8.00000000E-01
  8.00000000E-01  1.50000000E+00  8.00000000E-01  8.00000000E-01  1.50000000E+00
  8.00000000E-01  8.00000000E-01  1.50000000E+00  8.00000000E-01  8.00000000E-01
  1.50000000E+00  8.00000000E-01  8.00000000E-01  1.50000000E+00  8.00000000E-01
  8.00000000E-01  1.50000000E+00  8.00000000E-01  8.00000000E-01  1.50000000E+00
  8.00000000E-01  8.00000000E-01  1.50000000E+00  8.00000000E-01  8.00000000E-01
  1.50000000E+00  8.00000000E-01  8.00000000E-01  1.50000000E+00  8.00000000E-01
  8.00000000E-01  1.50000000E+00  8.00000000E-01  8.00000000E-01  1.50000000E+00
  8.00000000E-01  8.00000000E-01  1.50000000E+00  8.00000000E-01  8.00000000E-01
  1.50000000E+00  8.00000000E-01  8.00000000E-01  1.50000000E+00  8.00000000E-01
  8.00000000E-01  1.50000000E+00  8.00000000E-01  8.00000000E-01  1.50000000E+00
  8.00000000E-01  8.00000000E-01  1.50000000E+00  8.00000000E-01  8.00000000E-01
  1.50000000E+00  8.00000000E-01  8.00000000E-01  1.50000000E+00  8.00000000E-01
  8.00000000E-01  1.50000000E+00  8.00000000E-01  8.00000000E-01  1.50000000E+00
  8.00000000E-01  8.00000000E-01  1.50000000E+00  8.00000000E-01  8.00000000E-01
  1.50000000E+00  8.00000000E-01  8.00000000E-01  1.50000000E+00  8.00000000E-01
  8.00000000E-01  1.50000000E+00  8.00000000E-01  8.00000000E-01  1.50000000E+00
  8.00000000E-01  8.00000000E-01  1.50000000E+00  8.00000000E-01  8.00000000E-01
  1.50000000E+00  8.00000000E-01  8.00000000E-01  1.50000000E+00  8.00000000E-01
  8.00000000E-01  1.50000000E+00  8.00000000E-01  8.00000000E-01  1.50000000E+00
  8.00000000E-01  8.00000000E-01  1.50000000E+00  8.00000000E-01  8.00000000E-01
  1.50000000E+00  8.00000000E-01  8.00000000E-01  1.50000000E+00  8.00000000E-01
  8.00000000E-01  1.50000000E+00  8.00000000E-01  8.00000000E-01  1.50000000E+00
  8.00000000E-01  8.00000000E-01  1.50000000E+00  8.00000000E-01  8.00000000E-01
  1.50000000E+00  8.00000000E-01  8.00000000E-01  1.50000000E+00  8.00000000E-01
  8.00000000E-01  1.50000000E+00  8.00000000E-01  8.00000000E-01  1.50000000E+00
  8.00000000E-01  8.00000000E-01  1.50000000E+00  8.00000000E-01  8.00000000E-01
  1.50000000E+00  8.00000000E-01  8.00000000E-01  1.50000000E+00  8.00000000E-01
  8.00000000E-01  1.50000000E+00  8.00000000E-01  8.00000000E-01  1.50000000E+00
  8.00000000E-01  8.00000000E-01  1.50000000E+00  8.00000000E-01  8.00000000E-01
  1.50000000E+00  8.00000000E-01  8.00000000E-01  1.50000000E+00  8.00000000E-01
  8.00000000E-01  1.50000000E+00  8.00000000E-01  8.00000000E-01  1.50000000E+00
  8.00000000E-01  8.00000000E-01  1.50000000E+00  8.00000000E-01  8.00000000E-01
  1.50000000E+00  8.00000000E-01  8.00000000E-01  1.50000000E+00  8.00000000E-01
  8.00000000E-01  1.50000000E+00  8.00000000E-01  8.00000000E-01  1.50000000E+00
  8.00000000E-01  8.00000000E-01  1.50000000E+00  8.00000000E-01  8.00000000E-01
  1.50000000E+00  8.00000000E-01  8.00000000E-01  1.50000000E+00  8.00000000E-01
  8.00000000E-01  1.50000000E+00  8.00000000E-01  8.00000000E-01  1.50000000E+00
  8.00000000E-01  8.00000000E-01  1.50000000E+00  8.00000000E-01  8.00000000E-01
  1.50000000E+00  8.00000000E-01  8.00000000E-01  1.50000000E+00  8.00000000E-01
  8.00000000E-01  1.50000000E+00  8.00000000E-01  8.00000000E-01  1.50000000E+00
  8.00000000E-01  8.00000000E-01  1.50000000E+00  8.00000000E-01  8.00000000E-01
  1.50000000E+00  8.00000000E-01  8.00000000E-01  1.50000000E+00  8.00000000E-01
  8.00000000E-01  1.50000000E+00  8.00000000E-01  8.00000000E-01  1.50000000E+00
  8.00000000E-01  8.00000000E-01  1.50000000E+00  8.00000000E-01  8.00000000E-01
  1.50000000E+00  8.00000000E-01  8.00000000E-01  1.50000000E+00  8.00000000E-01
  8.00000000E-01  1.50000000E+00  8.00000000E-01  8.00000000E-01  1.50000000E+00
  8.00000000E-01  8.00000000E-01  1.50000000E+00  8.00000000E-01  8.00000000E-01
  1.50000000E+00  8.00000000E-01  8.00000000E-01  1.50000000E+00  8.00000000E-01
  8.00000000E-01  1.50000000E+00  8.00000000E-01  8.00000000E-01  1.50000000E+00
  8.00000000E-01  8.00000000E-01  1.50000000E+00  8.00000000E-01  8.00000000E-01
  1.50000000E+00  8.00000000E-01  8.00000000E-01  1.50000000E+00  8.00000000E-01
  8.00000000E-01  1.50000000E+00  8.00000000E-01  8.00000000E-01  1.50000000E+00
  8.00000000E-01  8.00000000E-01  1.50000000E+00  8.00000000E-01  8.00000000E-01
  1.50000000E+00  8.00000000E-01  8.00000000E-01  1.50000000E+00  8.00000000E-01
  8.00000000E-01  1.50000000E+00  8.00000000E-01  8.00000000E-01  1.50000000E+00
  8.00000000E-01  8.00000000E-01  1.50000000E+00  8.00000000E-01  8.00000000E-01
  1.50000000E+00  8.00000000E-01  8.00000000E-01  1.50000000E+00  8.00000000E-01
  8.00000000E-01  1.50000000E+00  8.00000000E-01  8.00000000E-01  1.50000000E+00
  8.00000000E-01  8.00000000E-01  1.50000000E+00  8.00000000E-01  8.00000000E-01
  1.50000000E+00  8.00000000E-01  8.00000000E-01  1.50000000E+00  8.00000000E-01
  8.00000000E-01  1.50000000E+00  8.00000000E-01  8.00000000E-01  1.50000000E+00
  8.00000000E-01  8.00000000E-01  1.50000000E+00  8.00000000E-01  8.00000000E-01
  1.50000000E+00  8.00000000E-01  8.00000000E-01  1.50000000E+00  8.00000000E-01
  8.00000000E-01  1.50000000E+00  8.00000000E-01  8.00000000E-01  1.50000000E+00
  8.00000000E-01  8.00000000E-01  1.50000000E+00  8.00000000E-01  8.00000000E-01
  1.50000000E+00  8.00000000E-01  8.00000000E-01  1.50000000E+00  8.00000000E-01
  8.00000000E-01  1.50000000E+00  8.00000000E-01  8.00000000E-01  1.50000000E+00
  8.00000000E-01  8.00000000E-01  1.50000000E+00  8.00000000E-01  8.00000000E-01
  1.50000000E+00  8.00000000E-01  8.00000000E-01  1.50000000E+00  8.00000000E-01
  8.00000000E-01  1.50000000E+00  8.00000000E-01  8.00000000E-01  1.50000000E+00
  8.00000000E-01  8.00000000E-01  1.50000000E+00  8.00000000E-01  8.00000000E-01
  1.50000000E+00  8.00000000E-01  8.00000000E-01  1.50000000E+00  8.00000000E-01
  8.00000000E-01  1.50000000E+00  8.00000000E-01  8.00000000E-01  1.50000000E+00
  8.00000000E-01  8.00000000E-01  1.50000000E+00  8.00000000E-01  8.00000000E-01
  1.50000000E+00  8.00000000E-01  8.00000000E-01  1.50000000E+00  8.00000000E-01
  8.00000000E-01  1.50000000E+00  8.00000000E-01  8.00000000E-01  1.50000000E+00
  8.00000000E-01  8.00000000E-01  1.50000000E+00  8.00000000E-01  8.00000000E-01
  1.50000000E+00  8.00000000E-01  8.00000000E-01  1.50000000E+00  8.00000000E-01
  8.00000000E-01  1.50000000E+00  8.00000000E-01  8.00000000E-01  1.50000000E+00
  8.00000000E-01  8.00000000E-01  1.50000000E+00  8.00000000E-01  8.00000000E-01
  1.50000000E+00  8.00000000E-01  8.00000000E-01  1.50000000E+00  8.00000000E-01
  8.00000000E-01  1.50000000E+00  8.00000000E-01  8.00000000E-01  1.50000000E+00
  8.00000000E-01  8.00000000E-01  1.50000000E+00  8.00000000E-01  8.00000000E-01
  1.50000000E+00  8.00000000E-01  8.00000000E-01  1.50000000E+00  8.00000000E-01
  8.00000000E-01  1.50000000E+00  8.00000000E-01  8.00000000E-01  1.50000000E+00
  8.00000000E-01  8.00000000E-01  1.50000000E+00  8.00000000E-01  8.00000000E-01
  1.50000000E+00  8.00000000E-01  8.00000000E-01  1.50000000E+00  8.00000000E-01
  8.00000000E-01  1.50000000E+00  8.00000000E-01  8.00000000E-01  1.50000000E+00
  8.00000000E-01  8.00000000E-01  1.50000000E+00  8.00000000E-01  8.00000000E-01
  1.50000000E+00  8.00000000E-01  8.00000000E-01  1.50000000E+00  8.00000000E-01
  8.00000000E-01  1.50000000E+00  8.00000000E-01  8.00000000E-01  1.50000000E+00
  8.00000000E-01  8.00000000E-01  1.50000000E+00  8.00000000E-01  8.00000000E-01
  1.50000000E+00  8.00000000E-01  8.00000000E-01  1.50000000E+00  8.00000000E-01
  8.00000000E-01  1.50000000E+00  8.00000000E-01  8.00000000E-01  1.50000000E+00
  8.00000000E-01  8.00000000E-01  1.50000000E+00  8.00000000E-01  8.00000000E-01
  1.50000000E+00  8.00000000E-01  8.00000000E-01  1.50000000E+00  8.00000000E-01
  8.00000000E-01  1.50000000E+00  8.00000000E-01  8.00000000E-01  1.50000000E+00
  8.00000000E-01  8.00000000E-01  1.50000000E+00  8.00000000E-01  8.00000000E-01
  1.50000000E+00  8.00000000E-01  8.00000000E-01  1.50000000E+00  8.00000000E-01
  8.00000000E-01  1.50000000E+00  8.00000000E-01  8.00000000E-01  1.50000000E+00
  8.00000000E-01  8.00000000E-01  1.50000000E+00  8.00000000E-01  8.00000000E-01
  1.50000000E+00  8.00000000E-01  8.00000000E-01  1.50000000E+00  8.00000000E-01
  8.00000000E-01  1.50000000E+00  8.00000000E-01  8.00000000E-01  1.50000000E+00
  8.00000000E-01  8.00000000E-01  1.50000000E+00  8.00000000E-01  8.00000000E-01
  1.50000000E+00  8.00000000E-01  8.00000000E-01  1.50000000E+00  8.00000000E-01
  8.00000000E-01  1.50000000E+00  8.00000000E-01  8.00000000E-01  1.50000000E+00
  8.00000000E-01  8.00000000E-01  1.50000000E+00  8.00000000E-01  8.00000000E-01
  1.50000000E+00  8.00000000E-01  8.00000000E-01  1.50000000E+00  8.00000000E-01
  8.00000000E-01  1.50000000E+00  8.00000000E-01  8.00000000E-01  1.50000000E+00
  8.00000000E-01  8.00000000E-01  1.50000000E+00  8.00000000E-01  8.00000000E-01
  1.50000000E+00  8.00000000E-01  8.00000000E-01  1.50000000E+00  8.00000000E-01
  8.00000000E-01  1.50000000E+00  8.00000000E-01  8.00000000E-01  1.50000000E+00
  8.00000000E-01  8.00000000E-01  1.50000000E+00  8.00000000E-01  8.00000000E-01
  1.50000000E+00  8.00000000E-01  8.00000000E-01  1.50000000E+00  8.00000000E-01
  8.00000000E-01  1.50000000E+00  8.00000000E-01  8.00000000E-01  1.50000000E+00
  8.00000000E-01  8.00000000E-01  1.50000000E+00  8.00000000E-01  8.00000000E-01
  1.50000000E+00  8.00000000E-01  8.00000000E-01  1.50000000E+00  8.00000000E-01
  8.00000000E-01  1.50000000E+00  8.00000000E-01  8.00000000E-01  1.50000000E+00
  8.00000000E-01  8.00000000E-01  1.50000000E+00  8.00000000E-01  8.00000000E-01
  1.50000000E+00  8.00000000E-01  8.00000000E-01  1.50000000E+00  8.00000000E-01
  8.00000000E-01  1.50000000E+00  8.00000000E-01  8.00000000E-01  1.50000000E+00
  8.00000000E-01  8.00000000E-01  1.50000000E+00  8.00000000E-01  8.00000000E-01
  1.50000000E+00  8.00000000E-01  8.00000000E-01  1.50000000E+00  8.00000000E-01
  8.00000000E-01  1.50000000E+00  8.00000000E-01  8.00000000E-01  1.50000000E+00
  8.00000000E-01  8.00000000E-01  1.50000000E+00  8.00000000E-01  8.00000000E-01
  1.50000000E+00  8.00000000E-01  8.00000000E-01  1.50000000E+00  8.00000000E-01
  8.00000000E-01  1.50000000E+00  8.00000000E-01  8.00000000E-01  1.50000000E+00
  8.00000000E-01  8.00000000E-01  1.50000000E+00  8.00000000E-01  8.00000000E-01
  1.50000000E+00  8.00000000E-01  8.00000000E-01  1.50000000E+00  8.00000000E-01
  8.00000000E-01  1.50000000E+00  8.00000000E-01  8.00000000E-01  1.50000000E+00
  8.00000000E-01  8.00000000E-01  1.50000000E+00  8.00000000E-01  8.00000000E-01
  1.50000000E+00  8.00000000E-01  8.00000000E-01  1.50000000E+00  8.00000000E-01
  8.00000000E-01  1.50000000E+00  8.00000000E-01  8.00000000E-01  1.50000000E+00
  8.00000000E-01  8.00000000E-01  1.50000000E+00  8.00000000E-01  8.00000000E-01
  1.50000000E+00  8.00000000E-01  8.00000000E-01  1.50000000E+00  8.00000000E-01
  8.00000000E-01  1.50000000E+00  8.00000000E-01  8.00000000E-01  1.50000000E+00
  8.00000000E-01  8.00000000E-01  1.50000000E+00  8.00000000E-01  8.00000000E-01
  1.50000000E+00  8.00000000E-01  8.00000000E-01  1.50000000E+00  8.00000000E-01
  8.00000000E-01  1.50000000E+00  8.00000000E-01  8.00000000E-01  1.50000000E+00
  8.00000000E-01  8.00000000E-01  1.50000000E+00  8.00000000E-01  8.00000000E-01
  1.50000000E+00  8.00000000E-01  8.00000000E-01  1.50000000E+00  8.00000000E-01
  8.00000000E-01  1.50000000E+00  8.00000000E-01  8.00000000E-01  1.50000000E+00
  8.00000000E-01  8.00000000E-01  1.50000000E+00  8.00000000E-01  8.00000000E-01
  1.50000000E+00  8.00000000E-01  8.00000000E-01  1.50000000E+00  8.00000000E-01
  8.00000000E-01  1.50000000E+00  8.00000000E-01  8.00000000E-01  1.50000000E+00
  8.00000000E-01  8.00000000E-01  1.50000000E+00  8.00000000E-01  8.00000000E-01
  1.50000000E+00  8.00000000E-01  8.00000000E-01  1.50000000E+00  8.00000000E-01
  8.00000000E-01  1.50000000E+00  8.00000000E-01  8.00000000E-01  1.50000000E+00
  8.00000000E-01  8.00000000E-01  1.50000000E+00  8.00000000E-01  8.00000000E-01
  1.50000000E+00  8.00000000E-01  8.00000000E-01  1.50000000E+00  8.00000000E-01
  8.00000000E-01  1.50000000E+00  8.00000000E-01  8.00000000E-01  1.50000000E+00
  8.00000000E-01  8.00000000E-01  1.50000000E+00  8.00000000E-01  8.00000000E-01
  1.50000000E+00  8.00000000E-01  8.00000000E-01  1.50000000E+00  8.00000000E-01
  8.00000000E-01  1.50000000E+00  8.00000000E-01  8.00000000E-01  1.50000000E+00
  8.00000000E-01  8.00000000E-01  1.50000000E+00  8.00000000E-01  8.00000000E-01
  1.50000000E+00  8.00000000E-01  8.00000000E-01  1.50000000E+00  8.00000000E-01
  8.00000000E-01  1.50000000E+00  8.00000000E-01  8.00000000E-01  1.50000000E+00
  8.00000000E-01  8.00000000E-01  1.50000000E+00  8.00000000E-01  8.00000000E-01
  1.50000000E+00  8.00000000E-01  8.00000000E-01  1.50000000E+00  8.00000000E-01
  8.00000000E-01  1.50000000E+00  8.00000000E-01  8.00000000E-01  1.50000000E+00
  8.00000000E-01  8.00000000E-01  1.50000000E+00  8.00000000E-01  8.00000000E-01
  1.50000000E+00  8.00000000E-01  8.00000000E-01  1.50000000E+00  8.00000000E-01
  8.00000000E-01  1.50000000E+00  8.00000000E-01  8.00000000E-01  1.50000000E+00
  8.00000000E-01  8.00000000E-01  1.50000000E+00  8.00000000E-01  8.00000000E-01
  1.50000000E+00  8.00000000E-01  8.00000000E-01  1.50000000E+00  8.00000000E-01
  8.00000000E-01  1.50000000E+00  8.00000000E-01  8.00000000E-01  1.50000000E+00
  8.00000000E-01  8.00000000E-01  1.50000000E+00  8.00000000E-01  8.00000000E-01
  1.50000000E+00  8.00000000E-01  8.00000000E-01  1.50000000E+00  8.00000000E-01
  8.00000000E-01  1.50000000E+00  8.00000000E-01  8.00000000E-01  1.50000000E+00
  8.00000000E-01  8.00000000E-01  1.50000000E+00  8.00000000E-01  8.00000000E-01
  1.50000000E+00  8.00000000E-01  8.00000000E-01  1.50000000E+00  8.00000000E-01
  8.00000000E-01  1.50000000E+00  8.00000000E-01  8.00000000E-01  1.50000000E+00
  8.00000000E-01  8.00000000E-01  1.50000000E+00  8.00000000E-01  8.00000000E-01
  1.50000000E+00  8.00000000E-01  8.00000000E-01  1.50000000E+00  8.00000000E-01
  8.00000000E-01  1.50000000E+00  8.00000000E-01  8.00000000E-01  1.50000000E+00
  8.00000000E-01  8.00000000E-01  1.50000000E+00  8.00000000E-01  8.00000000E-01
  1.50000000E+00  8.00000000E-01  8.00000000E-01  1.50000000E+00  8.00000000E-01
  8.00000000E-01  1.50000000E+00  8.00000000E-01  8.00000000E-01  1.50000000E+00
  8.00000000E-01  8.00000000E-01  1.50000000E+00  8.00000000E-01  8.00000000E-01
  1.50000000E+00  8.00000000E-01  8.00000000E-01  1.50000000E+00  8.00000000E-01
  8.00000000E-01  1.50000000E+00  8.00000000E-01  8.00000000E-01  1.50000000E+00
  8.00000000E-01  8.00000000E-01  1.50000000E+00  8.00000000E-01  8.00000000E-01
  1.50000000E+00  8.00000000E-01  8.00000000E-01  1.50000000E+00  8.00000000E-01
  8.00000000E-01  1.50000000E+00  8.00000000E-01  8.00000000E-01  1.50000000E+00
  8.00000000E-01  8.00000000E-01  1.50000000E+00  8.00000000E-01  8.00000000E-01
  1.50000000E+00  8.00000000E-01  8.00000000E-01  1.50000000E+00  8.00000000E-01
  8.00000000E-01  1.50000000E+00  8.00000000E-01  8.00000000E-01  1.50000000E+00
  8.00000000E-01  8.00000000E-01  1.50000000E+00  8.00000000E-01  8.00000000E-01
  1.50000000E+00  8.00000000E-01  8.00000000E-01  1.50000000E+00  8.00000000E-01
  8.00000000E-01  1.50000000E+00  8.00000000E-01  8.00000000E-01  1.50000000E+00
  8.00000000E-01  8.00000000E-01  1.50000000E+00  8.00000000E-01  8.00000000E-01
  1.50000000E+00  8.00000000E-01  8.00000000E-01  1.50000000E+00  8.00000000E-01
  8.00000000E-01  1.50000000E+00  8.00000000E-01  8.00000000E-01  1.50000000E+00
  8.00000000E-01  8.00000000E-01  1.50000000E+00  8.00000000E-01  8.00000000E-01
  1.50000000E+00  8.00000000E-01  8.00000000E-01  1.50000000E+00  8.00000000E-01
  8.00000000E-01  1.50000000E+00  8.00000000E-01  8.00000000E-01  1.50000000E+00
  8.00000000E-01  8.00000000E-01  1.50000000E+00  8.00000000E-01  8.00000000E-01
  1.50000000E+00  8.00000000E-01  8.00000000E-01  1.50000000E+00  8.00000000E-01
  8.00000000E-01  1.50000000E+00  8.00000000E-01  8.00000000E-01  1.50000000E+00
  8.00000000E-01  8.00000000E-01  1.50000000E+00  8.00000000E-01  8.00000000E-01
  1.50000000E+00  8.00000000E-01  8.00000000E-01  1.50000000E+00  8.00000000E-01
  8.00000000E-01  1.50000000E+00  8.00000000E-01  8.00000000E-01  1.50000000E+00
  8.00000000E-01  8.00000000E-01  1.50000000E+00  8.00000000E-01  8.00000000E-01
  1.50000000E+00  8.00000000E-01  8.00000000E-01  1.50000000E+00  8.00000000E-01
  8.00000000E-01  1.50000000E+00  8.00000000E-01  8.00000000E-01  1.50000000E+00
  8.00000000E-01  8.00000000E-01  1.50000000E+00  8.00000000E-01  8.00000000E-01
  1.50000000E+00  8.00000000E-01  8.00000000E-01  1.50000000E+00  8.00000000E-01
  8.00000000E-01  1.50000000E+00  8.00000000E-01  8.00000000E-01  1.50000000E+00
  8.00000000E-01  8.00000000E-01  1.50000000E+00  8.00000000E-01  8.00000000E-01
  1.50000000E+00  8.00000000E-01  8.00000000E-01  1.50000000E+00  8.00000000E-01
  8.00000000E-01  1.50000000E+00  8.00000000E-01  8.00000000E-01  1.50000000E+00
  8.00000000E-01  8.00000000E-01  1.50000000E+00  8.00000000E-01  8.00000000E-01
  1.50000000E+00  8.00000000E-01  8.00000000E-01  1.50000000E+00  8.00000000E-01
  8.00000000E-01  1.50000000E+00  8.00000000E-01  8.00000000E-01  1.50000000E+00
  8.00000000E-01  8.00000000E-01  1.50000000E+00  8.00000000E-01  8.00000000E-01
  1.50000000E+00  8.00000000E-01  8.00000000E-01  1.50000000E+00  8.00000000E-01
  8.00000000E-01  1.50000000E+00  8.00000000E-01  8.00000000E-01  1.50000000E+00
  8.00000000E-01  8.00000000E-01  1.50000000E+00  8.00000000E-01  8.00000000E-01
  1.50000000E+00  8.00000000E-01  8.00000000E-01  1.50000000E+00  8.00000000E-01
  8.00000000E-01  1.50000000E+00  8.00000000E-01  8.00000000E-01  1.50000000E+00
  8.00000000E-01  8.00000000E-01  1.50000000E+00  8.00000000E-01  8.00000000E-01
  1.50000000E+00  8.00000000E-01  8.00000000E-01  1.50000000E+00  8.00000000E-01
  8.00000000E-01  1.50000000E+00  8.00000000E-01  8.00000000E-01  1.50000000E+00
  8.00000000E-01  8.00000000E-01  1.50000000E+00  8.00000000E-01  8.00000000E-01
  1.50000000E+00  8.00000000E-01  8.00000000E-01  1.50000000E+00  8.00000000E-01
  8.00000000E-01  1.50000000E+00  8.00000000E-01  8.00000000E-01  1.50000000E+00
  8.00000000E-01  8.00000000E-01  1.50000000E+00  8.00000000E-01  8.00000000E-01
  1.50000000E+00  8.00000000E-01  8.00000000E-01  1.50000000E+00  8.00000000E-01
  8.00000000E-01  1.50000000E+00  8.00000000E-01  8.00000000E-01  1.50000000E+00
  8.00000000E-01  8.00000000E-01  1.50000000E+00  8.00000000E-01  8.00000000E-01
  1.50000000E+00  8.00000000E-01  8.00000000E-01  1.50000000E+00  8.00000000E-01
  8.00000000E-01  1.50000000E+00  8.00000000E-01  8.00000000E-01  1.50000000E+00
  8.00000000E-01  8.00000000E-01  1.50000000E+00  8.00000000E-01  8.00000000E-01
  1.50000000E+00  8.00000000E-01  8.00000000E-01  1.50000000E+00  8.00000000E-01
  8.00000000E-01  1.50000000E+00  8.00000000E-01  8.00000000E-01  1.50000000E+00
  8.00000000E-01  8.00000000E-01  1.50000000E+00  8.00000000E-01  8.00000000E-01
  1.50000000E+00  8.00000000E-01  8.00000000E-01  1.50000000E+00  8.00000000E-01
  8.00000000E-01  1.50000000E+00  8.00000000E-01  8.00000000E-01  1.50000000E+00
  8.00000000E-01  8.00000000E-01  1.50000000E+00  8.00000000E-01  8.00000000E-01
  1.50000000E+00  8.00000000E-01  8.00000000E-01  1.50000000E+00  8.00000000E-01
  8.00000000E-01  1.50000000E+00  8.00000000E-01  8.00000000E-01  1.50000000E+00
  8.00000000E-01  8.00000000E-01  1.50000000E+00  8.00000000E-01  8.00000000E-01
  1.50000000E+00  8.00000000E-01  8.00000000E-01  1.50000000E+00  8.00000000E-01
  8.00000000E-01  1.50000000E+00  8.00000000E-01  8.00000000E-01  1.50000000E+00
  8.00000000E-01  8.00000000E-01  1.50000000E+00  8.00000000E-01  8.00000000E-01
  1.50000000E+00  8.00000000E-01  8.00000000E-01  1.50000000E+00  8.00000000E-01
  8.00000000E-01  1.50000000E+00  8.00000000E-01  8.00000000E-01  1.50000000E+00
  8.00000000E-01  8.00000000E-01  1.50000000E+00  8.00000000E-01  8.00000000E-01
  1.50000000E+00  8.00000000E-01  8.00000000E-01  1.50000000E+00  8.00000000E-01
  8.00000000E-01  1.50000000E+00  8.00000000E-01  8.00000000E-01  1.50000000E+00
  8.00000000E-01  8.00000000E-01  1.50000000E+00  8.00000000E-01  8.00000000E-01
  1.50000000E+00  8.00000000E-01  8.00000000E-01  1.50000000E+00  8.00000000E-01
  8.00000000E-01  1.50000000E+00  8.00000000E-01  8.00000000E-01  1.50000000E+00
  8.00000000E-01  8.00000000E-01  1.50000000E+00  8.00000000E-01  8.00000000E-01
  1.50000000E+00  8.00000000E-01  8.00000000E-01  1.50000000E+00  8.00000000E-01
  8.00000000E-01  1.50000000E+00  8.00000000E-01  8.00000000E-01  1.50000000E+00
  8.00000000E-01  8.00000000E-01  1.50000000E+00  8.00000000E-01  8.00000000E-01
  1.50000000E+00  8.00000000E-01  8.00000000E-01  1.50000000E+00  8.00000000E-01
  8.00000000E-01  1.50000000E+00  8.00000000E-01  8.00000000E-01  1.50000000E+00
  8.00000000E-01  8.00000000E-01  1.50000000E+00  8.00000000E-01  8.00000000E-01
  1.50000000E+00  8.00000000E-01  8.00000000E-01  1.50000000E+00  8.00000000E-01
  8.00000000E-01  1.50000000E+00  8.00000000E-01  8.00000000E-01  1.50000000E+00
  8.00000000E-01  8.00000000E-01  1.50000000E+00  8.00000000E-01  8.00000000E-01
  1.50000000E+00  8.00000000E-01  8.00000000E-01  1.50000000E+00  8.00000000E-01
  8.00000000E-01  1.50000000E+00  8.00000000E-01  8.00000000E-01  1.50000000E+00
  8.00000000E-01  8.00000000E-01  1.50000000E+00  8.00000000E-01  8.00000000E-01
  1.50000000E+00  8.00000000E-01  8.00000000E-01  1.50000000E+00  8.00000000E-01
  8.00000000E-01  1.50000000E+00  8.00000000E-01  8.00000000E-01  1.50000000E+00
  8.00000000E-01  8.00000000E-01  1.50000000E+00  8.00000000E-01  8.00000000E-01
  1.50000000E+00  8.00000000E-01  8.00000000E-01  1.50000000E+00  8.00000000E-01
  8.00000000E-01  1.50000000E+00  8.00000000E-01  8.00000000E-01  1.50000000E+00
  8.00000000E-01  8.00000000E-01  1.50000000E+00  8.00000000E-01  8.00000000E-01
  1.50000000E+00  8.00000000E-01  8.00000000E-01  1.50000000E+00  8.00000000E-01
  8.00000000E-01  1.50000000E+00  8.00000000E-01  8.00000000E-01  1.50000000E+00
  8.00000000E-01  8.00000000E-01  1.50000000E+00  8.00000000E-01  8.00000000E-01
  1.50000000E+00  8.00000000E-01  8.00000000E-01  1.50000000E+00  8.00000000E-01
  8.00000000E-01  1.50000000E+00  8.00000000E-01  8.00000000E-01  1.50000000E+00
  8.00000000E-01  8.00000000E-01  1.50000000E+00  8.00000000E-01  8.00000000E-01
  1.50000000E+00  8.00000000E-01  8.00000000E-01  1.50000000E+00  8.00000000E-01
  8.00000000E-01  1.50000000E+00  8.00000000E-01  8.00000000E-01  1.50000000E+00
  8.00000000E-01  8.00000000E-01  1.50000000E+00  8.00000000E-01  8.00000000E-01
  1.50000000E+00  8.00000000E-01  8.00000000E-01  1.50000000E+00  8.00000000E-01
  8.00000000E-01  1.50000000E+00  8.00000000E-01  8.00000000E-01  1.50000000E+00
  8.00000000E-01  8.00000000E-01  1.50000000E+00  8.00000000E-01  8.00000000E-01
  1.50000000E+00  8.00000000E-01  8.00000000E-01  1.50000000E+00  8.00000000E-01
  8.00000000E-01  1.50000000E+00  8.00000000E-01  8.00000000E-01  1.50000000E+00
  8.00000000E-01  8.00000000E-01  1.50000000E+00  8.00000000E-01  8.00000000E-01
  1.50000000E+00  8.00000000E-01  8.00000000E-01  1.50000000E+00  8.00000000E-01
  8.00000000E-01  1.50000000E+00  8.00000000E-01  8.00000000E-01  1.50000000E+00
  8.00000000E-01  8.00000000E-01  1.50000000E+00  8.00000000E-01  8.00000000E-01
  1.50000000E+00  8.00000000E-01  8.00000000E-01  1.50000000E+00  8.00000000E-01
  8.00000000E-01  1.50000000E+00  8.00000000E-01  8.00000000E-01  1.50000000E+00
  8.00000000E-01  8.00000000E-01  1.50000000E+00  8.00000000E-01  8.00000000E-01
  1.50000000E+00  8.00000000E-01  8.00000000E-01  1.50000000E+00  8.00000000E-01
  8.00000000E-01  1.50000000E+00  8.00000000E-01  8.00000000E-01  1.50000000E+00
  8.00000000E-01  8.00000000E-01  1.50000000E+00  8.00000000E-01  8.00000000E-01
  1.50000000E+00  8.00000000E-01  8.00000000E-01  1.50000000E+00  8.00000000E-01
  8.00000000E-01  1.50000000E+00  8.00000000E-01  8.00000000E-01  1.50000000E+00
  8.00000000E-01  8.00000000E-01  1.50000000E+00  8.00000000E-01  8.00000000E-01
  1.50000000E+00  8.00000000E-01  8.00000000E-01  1.50000000E+00  8.00000000E-01
  8.00000000E-01  1.50000000E+00  8.00000000E-01  8.00000000E-01  1.50000000E+00
  8.00000000E-01  8.00000000E-01  1.50000000E+00  8.00000000E-01  8.00000000E-01
  1.50000000E+00  8.00000000E-01  8.00000000E-01  1.50000000E+00  8.00000000E-01
  8.00000000E-01  1.50000000E+00  8.00000000E-01  8.00000000E-01  1.50000000E+00
  8.00000000E-01  8.00000000E-01  1.50000000E+00  8.00000000E-01  8.00000000E-01
  1.50000000E+00  8.00000000E-01  8.00000000E-01  1.50000000E+00  8.00000000E-01
  8.00000000E-01  1.50000000E+00  8.00000000E-01  8.00000000E-01  1.50000000E+00
  8.00000000E-01  8.00000000E-01  1.50000000E+00  8.00000000E-01  8.00000000E-01
  1.50000000E+00  8.00000000E-01  8.00000000E-01  1.50000000E+00  8.00000000E-01
  8.00000000E-01  1.50000000E+00  8.00000000E-01  8.00000000E-01  1.50000000E+00
  8.00000000E-01  8.00000000E-01  1.50000000E+00  8.00000000E-01  8.00000000E-01
  1.50000000E+00  8.00000000E-01  8.00000000E-01  1.50000000E+00  8.00000000E-01
  8.00000000E-01  1.50000000E+00  8.00000000E-01  8.00000000E-01  1.50000000E+00
  8.00000000E-01  8.00000000E-01  1.50000000E+00  8.00000000E-01  8.00000000E-01
  1.50000000E+00  8.00000000E-01  8.00000000E-01  1.50000000E+00  8.00000000E-01
  8.00000000E-01  1.50000000E+00  8.00000000E-01  8.00000000E-01  1.50000000E+00
  8.00000000E-01  8.00000000E-01  1.50000000E+00  8.00000000E-01  8.00000000E-01
  1.50000000E+00  8.00000000E-01  8.00000000E-01  1.50000000E+00  8.00000000E-01
  8.00000000E-01  1.50000000E+00  8.00000000E-01  8.00000000E-01  1.50000000E+00
  8.00000000E-01  8.00000000E-01  1.50000000E+00  8.00000000E-01  8.00000000E-01
  1.50000000E+00  8.00000000E-01  8.00000000E-01  1.50000000E+00  8.00000000E-01
  8.00000000E-01  1.50000000E+00  8.00000000E-01  8.00000000E-01  1.50000000E+00
  8.00000000E-01  8.00000000E-01  1.50000000E+00  8.00000000E-01  8.00000000E-01
  1.50000000E+00  8.00000000E-01  8.00000000E-01  1.50000000E+00  8.00000000E-01
  8.00000000E-01  1.50000000E+00  8.00000000E-01  8.00000000E-01  1.50000000E+00
  8.00000000E-01  8.00000000E-01  1.50000000E+00  8.00000000E-01  8.00000000E-01
  1.50000000E+00  8.00000000E-01  8.00000000E-01  1.50000000E+00  8.00000000E-01
  8.00000000E-01  1.50000000E+00  8.00000000E-01  8.00000000E-01  1.50000000E+00
  8.00000000E-01  8.00000000E-01  1.50000000E+00  8.00000000E-01  8.00000000E-01
  1.50000000E+00  8.00000000E-01  8.00000000E-01  1.50000000E+00  8.00000000E-01
  8.00000000E-01  1.50000000E+00  8.00000000E-01  8.00000000E-01  1.50000000E+00
  8.00000000E-01  8.00000000E-01  1.50000000E+00  8.00000000E-01  8.00000000E-01
  1.50000000E+00  8.00000000E-01  8.00000000E-01  1.50000000E+00  8.00000000E-01
  8.00000000E-01  1.50000000E+00  8.00000000E-01  8.00000000E-01  1.50000000E+00
  8.00000000E-01  8.00000000E-01  1.50000000E+00  8.00000000E-01  8.00000000E-01
  1.50000000E+00  8.00000000E-01  8.00000000E-01  1.50000000E+00  8.00000000E-01
  8.00000000E-01  1.50000000E+00  8.00000000E-01  8.00000000E-01  1.50000000E+00
  8.00000000E-01  8.00000000E-01  1.50000000E+00  8.00000000E-01  8.00000000E-01
  1.50000000E+00  8.00000000E-01  8.00000000E-01  1.50000000E+00  8.00000000E-01
  8.00000000E-01  1.50000000E+00  8.00000000E-01  8.00000000E-01  1.50000000E+00
  8.00000000E-01  8.00000000E-01  1.50000000E+00  8.00000000E-01  8.00000000E-01
  1.50000000E+00  8.00000000E-01  8.00000000E-01  1.50000000E+00  8.00000000E-01
  8.00000000E-01  1.50000000E+00  8.00000000E-01  8.00000000E-01  1.50000000E+00
  8.00000000E-01  8.00000000E-01  1.50000000E+00  8.00000000E-01  8.00000000E-01
  1.50000000E+00  8.00000000E-01  8.00000000E-01  1.50000000E+00  8.00000000E-01
  8.00000000E-01  1.50000000E+00  8.00000000E-01  8.00000000E-01  1.50000000E+00
  8.00000000E-01  8.00000000E-01  1.50000000E+00  8.00000000E-01  8.00000000E-01
  1.50000000E+00  8.00000000E-01  8.00000000E-01  1.50000000E+00  8.00000000E-01
  8.00000000E-01  1.50000000E+00  8.00000000E-01  8.00000000E-01  1.50000000E+00
  8.00000000E-01  8.00000000E-01  1.50000000E+00  8.00000000E-01  8.00000000E-01
  1.50000000E+00  8.00000000E-01  8.00000000E-01  1.50000000E+00  8.00000000E-01
  8.00000000E-01  1.50000000E+00  8.00000000E-01  8.00000000E-01  1.50000000E+00
  8.00000000E-01  8.00000000E-01  1.50000000E+00  8.00000000E-01  8.00000000E-01
  1.50000000E+00  8.00000000E-01  8.00000000E-01  1.50000000E+00  8.00000000E-01
  8.00000000E-01  1.50000000E+00  8.00000000E-01  8.00000000E-01  1.50000000E+00
  8.00000000E-01  8.00000000E-01  1.50000000E+00  8.00000000E-01  8.00000000E-01
  1.50000000E+00  8.00000000E-01  8.00000000E-01  1.50000000E+00  8.00000000E-01
  8.00000000E-01  1.50000000E+00  8.00000000E-01  8.00000000E-01  1.50000000E+00
  8.00000000E-01  8.00000000E-01  1.50000000E+00  8.00000000E-01  8.00000000E-01
  1.50000000E+00  8.00000000E-01  8.00000000E-01  1.50000000E+00  8.00000000E-01
  8.00000000E-01  1.50000000E+00  8.00000000E-01  8.00000000E-01  1.50000000E+00
  8.00000000E-01  8.00000000E-01  1.50000000E+00  8.00000000E-01  8.00000000E-01
  1.50000000E+00  8.00000000E-01  8.00000000E-01  1.50000000E+00  8.00000000E-01
  8.00000000E-01  1.50000000E+00  8.00000000E-01  8.00000000E-01  1.50000000E+00
  8.00000000E-01  8.00000000E-01  1.50000000E+00  8.00000000E-01  8.00000000E-01
  1.50000000E+00  8.00000000E-01  8.00000000E-01  1.50000000E+00  8.00000000E-01
  8.00000000E-01  1.50000000E+00  8.00000000E-01  8.00000000E-01  1.50000000E+00
  8.00000000E-01  8.00000000E-01  1.50000000E+00  8.00000000E-01  8.00000000E-01
  1.50000000E+00  8.00000000E-01  8.00000000E-01  1.50000000E+00  8.00000000E-01
  8.00000000E-01  1.50000000E+00  8.00000000E-01  8.00000000E-01  1.50000000E+00
  8.00000000E-01  8.00000000E-01  1.50000000E+00  8.00000000E-01  8.00000000E-01
  1.50000000E+00  8.00000000E-01  8.00000000E-01  1.50000000E+00  8.00000000E-01
  8.00000000E-01  1.50000000E+00  8.00000000E-01  8.00000000E-01  1.50000000E+00
  8.00000000E-01  8.00000000E-01  1.50000000E+00  8.00000000E-01  8.00000000E-01
  1.50000000E+00  8.00000000E-01  8.00000000E-01  1.50000000E+00  8.00000000E-01
  8.00000000E-01  1.50000000E+00  8.00000000E-01  8.00000000E-01  1.50000000E+00
  8.00000000E-01  8.00000000E-01  1.50000000E+00  8.00000000E-01  8.00000000E-01
  1.50000000E+00  8.00000000E-01  8.00000000E-01  1.50000000E+00  8.00000000E-01
  8.00000000E-01  1.50000000E+00  8.00000000E-01  8.00000000E-01  1.50000000E+00
  8.00000000E-01  8.00000000E-01  1.50000000E+00  8.00000000E-01  8.00000000E-01
  1.50000000E+00  8.00000000E-01  8.00000000E-01  1.50000000E+00  8.00000000E-01
  8.00000000E-01  1.50000000E+00  8.00000000E-01  8.00000000E-01  1.50000000E+00
  8.00000000E-01  8.00000000E-01  1.50000000E+00  8.00000000E-01  8.00000000E-01
  1.50000000E+00  8.00000000E-01  8.00000000E-01  1.50000000E+00  8.00000000E-01
  8.00000000E-01  1.50000000E+00  8.00000000E-01  8.00000000E-01  1.50000000E+00
  8.00000000E-01  8.00000000E-01  1.50000000E+00  8.00000000E-01  8.00000000E-01
  1.50000000E+00  8.00000000E-01  8.00000000E-01  1.50000000E+00  8.00000000E-01
  8.00000000E-01  1.50000000E+00  8.00000000E-01  8.00000000E-01  1.50000000E+00
  8.00000000E-01  8.00000000E-01  1.50000000E+00  8.00000000E-01  8.00000000E-01
  1.50000000E+00  8.00000000E-01  8.00000000E-01  1.50000000E+00  8.00000000E-01
  8.00000000E-01  1.50000000E+00  8.00000000E-01  8.00000000E-01  1.50000000E+00
  8.00000000E-01  8.00000000E-01  1.50000000E+00  8.00000000E-01  8.00000000E-01
  1.50000000E+00  8.00000000E-01  8.00000000E-01  1.50000000E+00  8.00000000E-01
  8.00000000E-01  1.50000000E+00  8.00000000E-01  8.00000000E-01  1.50000000E+00
  8.00000000E-01  8.00000000E-01  1.50000000E+00  8.00000000E-01  8.00000000E-01
  1.50000000E+00  8.00000000E-01  8.00000000E-01  1.50000000E+00  8.00000000E-01
  8.00000000E-01  1.50000000E+00  8.00000000E-01  8.00000000E-01  1.50000000E+00
  8.00000000E-01  8.00000000E-01  1.50000000E+00  8.00000000E-01  8.00000000E-01
  1.50000000E+00  8.00000000E-01  8.00000000E-01  1.50000000E+00  8.00000000E-01
  8.00000000E-01  1.50000000E+00  8.00000000E-01  8.00000000E-01  1.50000000E+00
  8.00000000E-01  8.00000000E-01  1.50000000E+00  8.00000000E-01  8.00000000E-01
  1.50000000E+00  8.00000000E-01  8.00000000E-01  1.50000000E+00  8.00000000E-01
  8.00000000E-01  1.50000000E+00  8.00000000E-01  8.00000000E-01  1.50000000E+00
  8.00000000E-01  8.00000000E-01  1.50000000E+00  8.00000000E-01  8.00000000E-01
  1.50000000E+00  8.00000000E-01  8.00000000E-01  1.50000000E+00  8.00000000E-01
  8.00000000E-01  1.50000000E+00  8.00000000E-01  8.00000000E-01  1.50000000E+00
  8.00000000E-01  8.00000000E-01  1.50000000E+00  8.00000000E-01  8.00000000E-01
  1.50000000E+00  8.00000000E-01  8.00000000E-01  1.50000000E+00  8.00000000E-01
  8.00000000E-01  1.50000000E+00  8.00000000E-01  8.00000000E-01  1.50000000E+00
  8.00000000E-01  8.00000000E-01  1.50000000E+00  8.00000000E-01  8.00000000E-01
  1.50000000E+00  8.00000000E-01  8.00000000E-01  1.50000000E+00  8.00000000E-01
  8.00000000E-01  1.50000000E+00  8.00000000E-01  8.00000000E-01  1.50000000E+00
  8.00000000E-01  8.00000000E-01  1.50000000E+00  8.00000000E-01  8.00000000E-01
  1.50000000E+00  8.00000000E-01  8.00000000E-01  1.50000000E+00  8.00000000E-01
  8.00000000E-01  1.50000000E+00  8.00000000E-01  8.00000000E-01  1.50000000E+00
  8.00000000E-01  8.00000000E-01  1.50000000E+00  8.00000000E-01  8.00000000E-01
  1.50000000E+00  8.00000000E-01  8.00000000E-01  1.50000000E+00  8.00000000E-01
  8.00000000E-01  1.50000000E+00  8.00000000E-01  8.00000000E-01  1.50000000E+00
  8.00000000E-01  8.00000000E-01  1.50000000E+00  8.00000000E-01  8.00000000E-01
  1.50000000E+00  8.00000000E-01  8.00000000E-01  1.50000000E+00  8.00000000E-01
  8.00000000E-01  1.50000000E+00  8.00000000E-01  8.00000000E-01  1.50000000E+00
  8.00000000E-01  8.00000000E-01  1.50000000E+00  8.00000000E-01  8.00000000E-01
  1.50000000E+00  8.00000000E-01  8.00000000E-01  1.50000000E+00  8.00000000E-01
  8.00000000E-01  1.50000000E+00  8.00000000E-01  8.00000000E-01  1.50000000E+00
  8.00000000E-01  8.00000000E-01  1.50000000E+00  8.00000000E-01  8.00000000E-01
  1.50000000E+00  8.00000000E-01  8.00000000E-01  1.50000000E+00  8.00000000E-01
  8.00000000E-01  1.50000000E+00  8.00000000E-01  8.00000000E-01  1.50000000E+00
  8.00000000E-01  8.00000000E-01  1.50000000E+00  8.00000000E-01  8.00000000E-01
  1.50000000E+00  8.00000000E-01  8.00000000E-01  1.50000000E+00  8.00000000E-01
  8.00000000E-01  1.50000000E+00  8.00000000E-01  8.00000000E-01  1.50000000E+00
  8.00000000E-01  8.00000000E-01  1.50000000E+00  8.00000000E-01  8.00000000E-01
  1.50000000E+00  8.00000000E-01  8.00000000E-01  1.50000000E+00  8.00000000E-01
  8.00000000E-01  1.50000000E+00  8.00000000E-01  8.00000000E-01  1.50000000E+00
  8.00000000E-01  8.00000000E-01  1.50000000E+00  8.00000000E-01  8.00000000E-01
  1.50000000E+00  8.00000000E-01  8.00000000E-01  1.50000000E+00  8.00000000E-01
  8.00000000E-01  1.50000000E+00  8.00000000E-01  8.00000000E-01  1.50000000E+00
  8.00000000E-01  8.00000000E-01  1.50000000E+00  8.00000000E-01  8.00000000E-01
  1.50000000E+00  8.00000000E-01  8.00000000E-01  1.50000000E+00  8.00000000E-01
  8.00000000E-01  1.50000000E+00  8.00000000E-01  8.00000000E-01  1.50000000E+00
  8.00000000E-01  8.00000000E-01  1.50000000E+00  8.00000000E-01  8.00000000E-01
  1.50000000E+00  8.00000000E-01  8.00000000E-01  1.50000000E+00  8.00000000E-01
  8.00000000E-01  1.50000000E+00  8.00000000E-01  8.00000000E-01  1.50000000E+00
  8.00000000E-01  8.00000000E-01  1.50000000E+00  8.00000000E-01  8.00000000E-01
  1.50000000E+00  8.00000000E-01  8.00000000E-01  1.50000000E+00  8.00000000E-01
  8.00000000E-01  1.50000000E+00  8.00000000E-01  8.00000000E-01  1.50000000E+00
  8.00000000E-01  8.00000000E-01  1.50000000E+00  8.00000000E-01  8.00000000E-01
  1.50000000E+00  8.00000000E-01  8.00000000E-01  1.50000000E+00  8.00000000E-01
  8.00000000E-01  1.50000000E+00  8.00000000E-01  8.00000000E-01  1.50000000E+00
  8.00000000E-01  8.00000000E-01  1.50000000E+00  8.00000000E-01  8.00000000E-01
  1.50000000E+00  8.00000000E-01  8.00000000E-01  1.50000000E+00  8.00000000E-01
  8.00000000E-01  1.50000000E+00  8.00000000E-01  8.00000000E-01  1.50000000E+00
  8.00000000E-01  8.00000000E-01  1.50000000E+00  8.00000000E-01  8.00000000E-01
  1.50000000E+00  8.00000000E-01  8.00000000E-01  1.50000000E+00  8.00000000E-01
  8.00000000E-01  1.50000000E+00  8.00000000E-01  8.00000000E-01  1.50000000E+00
  8.00000000E-01  8.00000000E-01  1.50000000E+00  8.00000000E-01  8.00000000E-01
  1.50000000E+00  8.00000000E-01  8.00000000E-01  1.50000000E+00  8.00000000E-01
  8.00000000E-01  1.50000000E+00  8.00000000E-01  8.00000000E-01  1.50000000E+00
  8.00000000E-01  8.00000000E-01  1.50000000E+00  8.00000000E-01  8.00000000E-01
  1.50000000E+00  8.00000000E-01  8.00000000E-01  1.50000000E+00  8.00000000E-01
  8.00000000E-01  1.50000000E+00  8.00000000E-01  8.00000000E-01  1.50000000E+00
  8.00000000E-01  8.00000000E-01  1.50000000E+00  8.00000000E-01  8.00000000E-01
  1.50000000E+00  8.00000000E-01  8.00000000E-01  1.50000000E+00  8.00000000E-01
  8.00000000E-01  1.50000000E+00  8.00000000E-01  8.00000000E-01  1.50000000E+00
  8.00000000E-01  8.00000000E-01  1.50000000E+00  8.00000000E-01  8.00000000E-01
  1.50000000E+00  8.00000000E-01  8.00000000E-01  1.50000000E+00  8.00000000E-01
  8.00000000E-01  1.50000000E+00  8.00000000E-01  8.00000000E-01  1.50000000E+00
  8.00000000E-01  8.00000000E-01  1.50000000E+00  8.00000000E-01  8.00000000E-01
  1.50000000E+00  8.00000000E-01  8.00000000E-01  1.50000000E+00  8.00000000E-01
  8.00000000E-01  1.50000000E+00  8.00000000E-01  8.00000000E-01  1.50000000E+00
  8.00000000E-01  8.00000000E-01  1.50000000E+00  8.00000000E-01  8.00000000E-01
  1.50000000E+00  8.00000000E-01  8.00000000E-01  1.50000000E+00  8.00000000E-01
  8.00000000E-01  1.50000000E+00  8.00000000E-01  8.00000000E-01  1.50000000E+00
  8.00000000E-01  8.00000000E-01  1.50000000E+00  8.00000000E-01  8.00000000E-01
  1.50000000E+00  8.00000000E-01  8.00000000E-01  1.50000000E+00  8.00000000E-01
  8.00000000E-01  1.50000000E+00  8.00000000E-01  8.00000000E-01  1.50000000E+00
  8.00000000E-01  8.00000000E-01  1.50000000E+00  8.00000000E-01  8.00000000E-01
  1.50000000E+00  8.00000000E-01  8.00000000E-01  1.50000000E+00  8.00000000E-01
  8.00000000E-01  1.50000000E+00  8.00000000E-01  8.00000000E-01  1.50000000E+00
  8.00000000E-01  8.00000000E-01  1.50000000E+00  8.00000000E-01  8.00000000E-01
  1.50000000E+00  8.00000000E-01  8.00000000E-01  1.50000000E+00  8.00000000E-01
  8.00000000E-01  1.50000000E+00  8.00000000E-01  8.00000000E-01  1.50000000E+00
  8.00000000E-01  8.00000000E-01  1.50000000E+00  8.00000000E-01  8.00000000E-01
  1.50000000E+00  8.00000000E-01  8.00000000E-01  1.50000000E+00  8.00000000E-01
  8.00000000E-01  1.50000000E+00  8.00000000E-01  8.00000000E-01  1.50000000E+00
  8.00000000E-01  8.00000000E-01  1.50000000E+00  8.00000000E-01  8.00000000E-01
  1.50000000E+00  8.00000000E-01  8.00000000E-01  1.50000000E+00  8.00000000E-01
  8.00000000E-01  1.50000000E+00  8.00000000E-01  8.00000000E-01  1.50000000E+00
  8.00000000E-01  8.00000000E-01  1.50000000E+00  8.00000000E-01  8.00000000E-01
  1.50000000E+00  8.00000000E-01  8.00000000E-01  1.50000000E+00  8.00000000E-01
  8.00000000E-01  1.50000000E+00  8.00000000E-01  8.00000000E-01  1.50000000E+00
  8.00000000E-01  8.00000000E-01  1.50000000E+00  8.00000000E-01  8.00000000E-01
  1.50000000E+00  8.00000000E-01  8.00000000E-01  1.50000000E+00  8.00000000E-01
  8.00000000E-01  1.50000000E+00  8.00000000E-01  8.00000000E-01  1.50000000E+00
  8.00000000E-01  8.00000000E-01  1.50000000E+00  8.00000000E-01  8.00000000E-01
  1.50000000E+00  8.00000000E-01  8.00000000E-01  1.50000000E+00  8.00000000E-01
  8.00000000E-01  1.50000000E+00  8.00000000E-01  8.00000000E-01  1.50000000E+00
  8.00000000E-01  8.00000000E-01  1.50000000E+00  8.00000000E-01  8.00000000E-01
  1.50000000E+00  8.00000000E-01  8.00000000E-01  1.50000000E+00  8.00000000E-01
  8.00000000E-01  1.50000000E+00  8.00000000E-01  8.00000000E-01  1.50000000E+00
  8.00000000E-01  8.00000000E-01  1.50000000E+00  8.00000000E-01  8.00000000E-01
  1.50000000E+00  8.00000000E-01  8.00000000E-01  1.50000000E+00  8.00000000E-01
  8.00000000E-01  1.50000000E+00  8.00000000E-01  8.00000000E-01  1.50000000E+00
  8.00000000E-01  8.00000000E-01  1.50000000E+00  8.00000000E-01  8.00000000E-01
  1.50000000E+00  8.00000000E-01  8.00000000E-01  1.50000000E+00  8.00000000E-01
  8.00000000E-01  1.50000000E+00  8.00000000E-01  8.00000000E-01  1.50000000E+00
  8.00000000E-01  8.00000000E-01  1.50000000E+00  8.00000000E-01  8.00000000E-01
  1.50000000E+00  8.00000000E-01  8.00000000E-01  1.50000000E+00  8.00000000E-01
  8.00000000E-01  1.50000000E+00  8.00000000E-01  8.00000000E-01  1.50000000E+00
  8.00000000E-01  8.00000000E-01  1.50000000E+00  8.00000000E-01  8.00000000E-01
  1.50000000E+00  8.00000000E-01  8.00000000E-01  1.50000000E+00  8.00000000E-01
  8.00000000E-01  1.50000000E+00  8.00000000E-01  8.00000000E-01  1.50000000E+00
  8.00000000E-01  8.00000000E-01  1.50000000E+00  8.00000000E-01  8.00000000E-01
  1.50000000E+00  8.00000000E-01  8.00000000E-01  1.50000000E+00  8.00000000E-01
  8.00000000E-01  1.50000000E+00  8.00000000E-01  8.00000000E-01  1.50000000E+00
  8.00000000E-01  8.00000000E-01  1.50000000E+00  8.00000000E-01  8.00000000E-01
  1.50000000E+00  8.00000000E-01  8.00000000E-01  1.50000000E+00  8.00000000E-01
  8.00000000E-01  1.50000000E+00  8.00000000E-01  8.00000000E-01  1.50000000E+00
  8.00000000E-01  8.00000000E-01  1.50000000E+00  8.00000000E-01  8.00000000E-01
  1.50000000E+00  8.00000000E-01  8.00000000E-01  1.50000000E+00  8.00000000E-01
  8.00000000E-01  1.50000000E+00  8.00000000E-01  8.00000000E-01  1.50000000E+00
  8.00000000E-01  8.00000000E-01  1.50000000E+00  8.00000000E-01  8.00000000E-01
  1.50000000E+00  8.00000000E-01  8.00000000E-01  1.50000000E+00  8.00000000E-01
  8.00000000E-01  1.50000000E+00  8.00000000E-01  8.00000000E-01  1.50000000E+00
  8.00000000E-01  8.00000000E-01  1.50000000E+00  8.00000000E-01  8.00000000E-01
  1.50000000E+00  8.00000000E-01  8.00000000E-01  1.50000000E+00  8.00000000E-01
  8.00000000E-01  1.50000000E+00  8.00000000E-01  8.00000000E-01  1.50000000E+00
  8.00000000E-01  8.00000000E-01  1.50000000E+00  8.00000000E-01  8.00000000E-01
  1.50000000E+00  8.00000000E-01  8.00000000E-01  1.50000000E+00  8.00000000E-01
  8.00000000E-01  1.50000000E+00  8.00000000E-01  8.00000000E-01  1.50000000E+00
  8.00000000E-01  8.00000000E-01  1.50000000E+00  8.00000000E-01  8.00000000E-01
  1.50000000E+00  8.00000000E-01  8.00000000E-01  1.50000000E+00  8.00000000E-01
  8.00000000E-01  1.50000000E+00  8.00000000E-01  8.00000000E-01  1.50000000E+00
  8.00000000E-01  8.00000000E-01  1.50000000E+00  8.00000000E-01  8.00000000E-01
  1.50000000E+00  8.00000000E-01  8.00000000E-01  1.50000000E+00  8.00000000E-01
  8.00000000E-01  1.50000000E+00  8.00000000E-01  8.00000000E-01  1.50000000E+00
  8.00000000E-01  8.00000000E-01  1.50000000E+00  8.00000000E-01  8.00000000E-01
  1.50000000E+00  8.00000000E-01  8.00000000E-01  1.50000000E+00  8.00000000E-01
  8.00000000E-01  1.50000000E+00  8.00000000E-01  8.00000000E-01  1.50000000E+00
  8.00000000E-01  8.00000000E-01  1.50000000E+00  8.00000000E-01  8.00000000E-01
  1.50000000E+00  8.00000000E-01  8.00000000E-01  1.50000000E+00  8.00000000E-01
  8.00000000E-01  1.50000000E+00  8.00000000E-01  8.00000000E-01  1.50000000E+00
  8.00000000E-01  8.00000000E-01  1.50000000E+00  8.00000000E-01  8.00000000E-01
  1.50000000E+00  8.00000000E-01  8.00000000E-01  1.50000000E+00  8.00000000E-01
  8.00000000E-01  1.50000000E+00  8.00000000E-01  8.00000000E-01  1.50000000E+00
  8.00000000E-01  8.00000000E-01  1.50000000E+00  8.00000000E-01  8.00000000E-01
  1.50000000E+00  8.00000000E-01  8.00000000E-01  1.50000000E+00  8.00000000E-01
  8.00000000E-01  1.50000000E+00  8.00000000E-01  8.00000000E-01  1.50000000E+00
  8.00000000E-01  8.00000000E-01  1.50000000E+00  8.00000000E-01  8.00000000E-01
  1.50000000E+00  8.00000000E-01  8.00000000E-01  1.50000000E+00  8.00000000E-01
  8.00000000E-01  1.50000000E+00  8.00000000E-01  8.00000000E-01  1.50000000E+00
  8.00000000E-01  8.00000000E-01  1.50000000E+00  8.00000000E-01  8.00000000E-01
  1.50000000E+00  8.00000000E-01  8.00000000E-01  1.50000000E+00  8.00000000E-01
  8.00000000E-01  1.50000000E+00  8.00000000E-01  8.00000000E-01  1.50000000E+00
  8.00000000E-01  8.00000000E-01  1.50000000E+00  8.00000000E-01  8.00000000E-01
  1.50000000E+00  8.00000000E-01  8.00000000E-01  1.50000000E+00  8.00000000E-01
  8.00000000E-01  1.50000000E+00  8.00000000E-01  8.00000000E-01  1.50000000E+00
  8.00000000E-01  8.00000000E-01  1.50000000E+00  8.00000000E-01  8.00000000E-01
  1.50000000E+00  8.00000000E-01  8.00000000E-01  1.50000000E+00  8.00000000E-01
  8.00000000E-01  1.50000000E+00  8.00000000E-01  8.00000000E-01  1.50000000E+00
  8.00000000E-01  8.00000000E-01  1.50000000E+00  8.00000000E-01  8.00000000E-01
  1.50000000E+00  8.00000000E-01  8.00000000E-01  1.50000000E+00  8.00000000E-01
  8.00000000E-01  1.50000000E+00  8.00000000E-01  8.00000000E-01  1.50000000E+00
  8.00000000E-01  8.00000000E-01  1.50000000E+00  8.00000000E-01  8.00000000E-01
  1.50000000E+00  8.00000000E-01  8.00000000E-01  1.50000000E+00  8.00000000E-01
  8.00000000E-01  1.50000000E+00  8.00000000E-01  8.00000000E-01  1.50000000E+00
  8.00000000E-01  8.00000000E-01  1.50000000E+00  8.00000000E-01  8.00000000E-01
  1.50000000E+00  8.00000000E-01  8.00000000E-01  1.50000000E+00  8.00000000E-01
  8.00000000E-01  1.50000000E+00  8.00000000E-01  8.00000000E-01  1.50000000E+00
  8.00000000E-01  8.00000000E-01  1.50000000E+00  8.00000000E-01  8.00000000E-01
  1.50000000E+00  8.00000000E-01  8.00000000E-01  1.50000000E+00  8.00000000E-01
  8.00000000E-01  1.50000000E+00  8.00000000E-01  8.00000000E-01  1.50000000E+00
  8.00000000E-01  8.00000000E-01  1.50000000E+00  8.00000000E-01  8.00000000E-01
  1.50000000E+00  8.00000000E-01  8.00000000E-01  1.50000000E+00  8.00000000E-01
  8.00000000E-01  1.50000000E+00  8.00000000E-01  8.00000000E-01  1.50000000E+00
  8.00000000E-01  8.00000000E-01  1.50000000E+00  8.00000000E-01  8.00000000E-01
  1.50000000E+00  8.00000000E-01  8.00000000E-01  1.50000000E+00  8.00000000E-01
  8.00000000E-01  1.50000000E+00  8.00000000E-01  8.00000000E-01  1.50000000E+00
  8.00000000E-01  8.00000000E-01  1.50000000E+00  8.00000000E-01  8.00000000E-01
  1.50000000E+00  8.00000000E-01  8.00000000E-01  1.50000000E+00  8.00000000E-01
  8.00000000E-01  1.50000000E+00  8.00000000E-01  8.00000000E-01  1.50000000E+00
  8.00000000E-01  8.00000000E-01  1.50000000E+00  8.00000000E-01  8.00000000E-01
  1.50000000E+00  8.00000000E-01  8.00000000E-01  1.50000000E+00  8.00000000E-01
  8.00000000E-01  1.50000000E+00  8.00000000E-01  8.00000000E-01  1.50000000E+00
  8.00000000E-01  8.00000000E-01  1.50000000E+00  8.00000000E-01  8.00000000E-01
  1.50000000E+00  8.00000000E-01  8.00000000E-01  1.50000000E+00  8.00000000E-01
  8.00000000E-01  1.50000000E+00  8.00000000E-01  8.00000000E-01  1.50000000E+00
  8.00000000E-01  8.00000000E-01  1.50000000E+00  8.00000000E-01  8.00000000E-01
  1.50000000E+00  8.00000000E-01  8.00000000E-01  1.50000000E+00  8.00000000E-01
  8.00000000E-01  1.50000000E+00  8.00000000E-01  8.00000000E-01  1.50000000E+00
  8.00000000E-01  8.00000000E-01  1.50000000E+00  8.00000000E-01  8.00000000E-01
  1.50000000E+00  8.00000000E-01  8.00000000E-01  1.50000000E+00  8.00000000E-01
  8.00000000E-01  1.50000000E+00  8.00000000E-01  8.00000000E-01  1.50000000E+00
  8.00000000E-01  8.00000000E-01  1.50000000E+00  8.00000000E-01  8.00000000E-01
  1.50000000E+00  8.00000000E-01  8.00000000E-01  1.50000000E+00  8.00000000E-01
  8.00000000E-01  1.50000000E+00  8.00000000E-01  8.00000000E-01  1.50000000E+00
  8.00000000E-01  8.00000000E-01  1.50000000E+00  8.00000000E-01  8.00000000E-01
  1.50000000E+00  8.00000000E-01  8.00000000E-01  1.50000000E+00  8.00000000E-01
  8.00000000E-01  1.50000000E+00  8.00000000E-01  8.00000000E-01  1.50000000E+00
  8.00000000E-01  8.00000000E-01  1.50000000E+00  8.00000000E-01  8.00000000E-01
  1.50000000E+00  8.00000000E-01  8.00000000E-01  1.50000000E+00  8.00000000E-01
  8.00000000E-01  1.50000000E+00  8.00000000E-01  8.00000000E-01  1.50000000E+00
  8.00000000E-01  8.00000000E-01  1.50000000E+00  8.00000000E-01  8.00000000E-01
  1.50000000E+00  8.00000000E-01  8.00000000E-01  1.50000000E+00  8.00000000E-01
  8.00000000E-01  1.50000000E+00  8.00000000E-01  8.00000000E-01  1.50000000E+00
  8.00000000E-01  8.00000000E-01  1.50000000E+00  8.00000000E-01  8.00000000E-01
  1.50000000E+00  8.00000000E-01  8.00000000E-01  1.50000000E+00  8.00000000E-01
  8.00000000E-01  1.50000000E+00  8.00000000E-01  8.00000000E-01  1.50000000E+00
  8.00000000E-01  8.00000000E-01  1.50000000E+00  8.00000000E-01  8.00000000E-01
  1.50000000E+00  8.00000000E-01  8.00000000E-01  1.50000000E+00  8.00000000E-01
  8.00000000E-01  1.50000000E+00  8.00000000E-01  8.00000000E-01  1.50000000E+00
  8.00000000E-01  8.00000000E-01  1.50000000E+00  8.00000000E-01  8.00000000E-01
  1.50000000E+00  8.00000000E-01  8.00000000E-01  1.50000000E+00  8.00000000E-01
  8.00000000E-01  1.50000000E+00  8.00000000E-01  8.00000000E-01  1.50000000E+00
  8.00000000E-01  8.00000000E-01  1.50000000E+00  8.00000000E-01  8.00000000E-01
  1.50000000E+00  8.00000000E-01  8.00000000E-01  1.50000000E+00  8.00000000E-01
  8.00000000E-01  1.50000000E+00  8.00000000E-01  8.00000000E-01  1.50000000E+00
  8.00000000E-01  8.00000000E-01  1.50000000E+00  8.00000000E-01  8.00000000E-01
  1.50000000E+00  8.00000000E-01  8.00000000E-01  1.50000000E+00  8.00000000E-01
  8.00000000E-01  1.50000000E+00  8.00000000E-01  8.00000000E-01  1.50000000E+00
  8.00000000E-01  8.00000000E-01  1.50000000E+00  8.00000000E-01  8.00000000E-01
  1.50000000E+00  8.00000000E-01  8.00000000E-01  1.50000000E+00  8.00000000E-01
  8.00000000E-01  1.50000000E+00  8.00000000E-01  8.00000000E-01  1.50000000E+00
  8.00000000E-01  8.00000000E-01  1.50000000E+00  8.00000000E-01  8.00000000E-01
  1.50000000E+00  8.00000000E-01  8.00000000E-01  1.50000000E+00  8.00000000E-01
  8.00000000E-01  1.50000000E+00  8.00000000E-01  8.00000000E-01  1.50000000E+00
  8.00000000E-01  8.00000000E-01  1.50000000E+00  8.00000000E-01  8.00000000E-01
  1.50000000E+00  8.00000000E-01  8.00000000E-01  1.50000000E+00  8.00000000E-01
  8.00000000E-01  1.50000000E+00  8.00000000E-01  8.00000000E-01  1.50000000E+00
  8.00000000E-01  8.00000000E-01  1.50000000E+00  8.00000000E-01  8.00000000E-01
  1.50000000E+00  8.00000000E-01  8.00000000E-01  1.50000000E+00  8.00000000E-01
  8.00000000E-01  1.50000000E+00  8.00000000E-01  8.00000000E-01  1.50000000E+00
  8.00000000E-01  8.00000000E-01  1.50000000E+00  8.00000000E-01  8.00000000E-01
  1.50000000E+00  8.00000000E-01  8.00000000E-01  1.50000000E+00  8.00000000E-01
  8.00000000E-01  1.50000000E+00  8.00000000E-01  8.00000000E-01  1.50000000E+00
  8.00000000E-01  8.00000000E-01  1.50000000E+00  8.00000000E-01  8.00000000E-01
  1.50000000E+00  8.00000000E-01  8.00000000E-01  1.50000000E+00  8.00000000E-01
  8.00000000E-01  1.50000000E+00  8.00000000E-01  8.00000000E-01  1.50000000E+00
  8.00000000E-01  8.00000000E-01  1.50000000E+00  8.00000000E-01  8.00000000E-01
  1.50000000E+00  8.00000000E-01  8.00000000E-01  1.50000000E+00  8.00000000E-01
  8.00000000E-01  1.50000000E+00  8.00000000E-01  8.00000000E-01  1.50000000E+00
  8.00000000E-01  8.00000000E-01  1.50000000E+00  8.00000000E-01  8.00000000E-01
  1.50000000E+00  8.00000000E-01  8.00000000E-01  1.50000000E+00  8.00000000E-01
  8.00000000E-01  1.50000000E+00  8.00000000E-01  8.00000000E-01  1.50000000E+00
  8.00000000E-01  8.00000000E-01  1.50000000E+00  8.00000000E-01  8.00000000E-01
  1.50000000E+00  8.00000000E-01  8.00000000E-01  1.50000000E+00  8.00000000E-01
  8.00000000E-01  1.50000000E+00  8.00000000E-01  8.00000000E-01  1.50000000E+00
  8.00000000E-01  8.00000000E-01  1.50000000E+00  8.00000000E-01  8.00000000E-01
  1.50000000E+00  8.00000000E-01  8.00000000E-01  1.50000000E+00  8.00000000E-01
  8.00000000E-01  1.50000000E+00  8.00000000E-01  8.00000000E-01  1.50000000E+00
  8.00000000E-01  8.00000000E-01  1.50000000E+00  8.00000000E-01  8.00000000E-01
  1.50000000E+00  8.00000000E-01  8.00000000E-01  1.50000000E+00  8.00000000E-01
  8.00000000E-01  1.50000000E+00  8.00000000E-01  8.00000000E-01  1.50000000E+00
  8.00000000E-01  8.00000000E-01  1.50000000E+00  8.00000000E-01  8.00000000E-01
  1.50000000E+00  8.00000000E-01  8.00000000E-01  1.50000000E+00  8.00000000E-01
  8.00000000E-01  1.50000000E+00  8.00000000E-01  8.00000000E-01  1.50000000E+00
  8.00000000E-01  8.00000000E-01  1.50000000E+00  8.00000000E-01  8.00000000E-01
  1.50000000E+00  8.00000000E-01  8.00000000E-01  1.50000000E+00  8.00000000E-01
  8.00000000E-01  1.50000000E+00  8.00000000E-01  8.00000000E-01  1.50000000E+00
  8.00000000E-01  8.00000000E-01  1.50000000E+00  8.00000000E-01  8.00000000E-01
  1.50000000E+00  8.00000000E-01  8.00000000E-01  1.50000000E+00  8.00000000E-01
  8.00000000E-01  1.50000000E+00  8.00000000E-01  8.00000000E-01  1.50000000E+00
  8.00000000E-01  8.00000000E-01  1.50000000E+00  8.00000000E-01  8.00000000E-01
  1.50000000E+00  8.00000000E-01  8.00000000E-01  1.50000000E+00  8.00000000E-01
  8.00000000E-01  1.50000000E+00  8.00000000E-01  8.00000000E-01  1.50000000E+00
  8.00000000E-01  8.00000000E-01  1.50000000E+00  8.00000000E-01  8.00000000E-01
  1.50000000E+00  8.00000000E-01  8.00000000E-01  1.50000000E+00  8.00000000E-01
  8.00000000E-01  1.50000000E+00  8.00000000E-01  8.00000000E-01  1.50000000E+00
  8.00000000E-01  8.00000000E-01  1.50000000E+00  8.00000000E-01  8.00000000E-01
  1.50000000E+00  8.00000000E-01  8.00000000E-01  1.50000000E+00  8.00000000E-01
  8.00000000E-01  1.50000000E+00  8.00000000E-01  8.00000000E-01  1.50000000E+00
  8.00000000E-01  8.00000000E-01  1.50000000E+00  8.00000000E-01  8.00000000E-01
  1.50000000E+00  8.00000000E-01  8.00000000E-01  1.50000000E+00  8.00000000E-01
  8.00000000E-01  1.50000000E+00  8.00000000E-01  8.00000000E-01  1.50000000E+00
  8.00000000E-01  8.00000000E-01  1.50000000E+00  8.00000000E-01  8.00000000E-01
  1.50000000E+00  8.00000000E-01  8.00000000E-01  1.50000000E+00  8.00000000E-01
  8.00000000E-01  1.50000000E+00  8.00000000E-01  8.00000000E-01  1.50000000E+00
  8.00000000E-01  8.00000000E-01  1.50000000E+00  8.00000000E-01  8.00000000E-01
  1.50000000E+00  8.00000000E-01  8.00000000E-01  1.50000000E+00  8.00000000E-01
  8.00000000E-01  1.50000000E+00  8.00000000E-01  8.00000000E-01  1.50000000E+00
  8.00000000E-01  8.00000000E-01  1.50000000E+00  8.00000000E-01  8.00000000E-01
  1.50000000E+00  8.00000000E-01  8.00000000E-01  1.50000000E+00  8.00000000E-01
  8.00000000E-01  1.50000000E+00  8.00000000E-01  8.00000000E-01  1.50000000E+00
  8.00000000E-01  8.00000000E-01  1.50000000E+00  8.00000000E-01  8.00000000E-01
  1.50000000E+00  8.00000000E-01  8.00000000E-01  1.50000000E+00  8.00000000E-01
  8.00000000E-01  1.50000000E+00  8.00000000E-01  8.00000000E-01  1.50000000E+00
  8.00000000E-01  8.00000000E-01  1.50000000E+00  8.00000000E-01  8.00000000E-01
  1.50000000E+00  8.00000000E-01  8.00000000E-01  1.50000000E+00  8.00000000E-01
  8.00000000E-01  1.50000000E+00  8.00000000E-01  8.00000000E-01  1.50000000E+00
  8.00000000E-01  8.00000000E-01  1.50000000E+00  8.00000000E-01  8.00000000E-01
  1.50000000E+00  8.00000000E-01  8.00000000E-01  1.50000000E+00  8.00000000E-01
  8.00000000E-01  1.50000000E+00  8.00000000E-01  8.00000000E-01  1.50000000E+00
  8.00000000E-01  8.00000000E-01  1.50000000E+00  8.00000000E-01  8.00000000E-01
  1.50000000E+00  8.00000000E-01  8.00000000E-01  1.50000000E+00  8.00000000E-01
  8.00000000E-01  1.50000000E+00  8.00000000E-01  8.00000000E-01  1.50000000E+00
  8.00000000E-01  8.00000000E-01  1.50000000E+00  8.00000000E-01  8.00000000E-01
  1.50000000E+00  8.00000000E-01  8.00000000E-01  1.50000000E+00  8.00000000E-01
  8.00000000E-01  1.50000000E+00  8.00000000E-01  8.00000000E-01  1.50000000E+00
  8.00000000E-01  8.00000000E-01  1.50000000E+00  8.00000000E-01  8.00000000E-01
  1.50000000E+00  8.00000000E-01  8.00000000E-01  1.50000000E+00  8.00000000E-01
  8.00000000E-01  1.50000000E+00  8.00000000E-01  8.00000000E-01  1.50000000E+00
  8.00000000E-01  8.00000000E-01  1.50000000E+00  8.00000000E-01  8.00000000E-01
  1.50000000E+00  8.00000000E-01  8.00000000E-01  1.50000000E+00  8.00000000E-01
  8.00000000E-01  1.50000000E+00  8.00000000E-01  8.00000000E-01  1.50000000E+00
  8.00000000E-01  8.00000000E-01  1.50000000E+00  8.00000000E-01  8.00000000E-01
  1.50000000E+00  8.00000000E-01  8.00000000E-01  1.50000000E+00  8.00000000E-01
  8.00000000E-01  1.50000000E+00  8.00000000E-01  8.00000000E-01  1.50000000E+00
  8.00000000E-01  8.00000000E-01  1.50000000E+00  8.00000000E-01  8.00000000E-01
  1.50000000E+00  8.00000000E-01  8.00000000E-01  1.50000000E+00  8.00000000E-01
  8.00000000E-01  1.50000000E+00  8.00000000E-01  8.00000000E-01  1.50000000E+00
  8.00000000E-01  8.00000000E-01  1.50000000E+00  8.00000000E-01  8.00000000E-01
  1.50000000E+00  8.00000000E-01  8.00000000E-01  1.50000000E+00  8.00000000E-01
  8.00000000E-01  1.50000000E+00  8.00000000E-01  8.00000000E-01  1.50000000E+00
  8.00000000E-01  8.00000000E-01  1.50000000E+00  8.00000000E-01  8.00000000E-01
  1.50000000E+00  8.00000000E-01  8.00000000E-01  1.50000000E+00  8.00000000E-01
  8.00000000E-01  1.50000000E+00  8.00000000E-01  8.00000000E-01  1.50000000E+00
  8.00000000E-01  8.00000000E-01  1.50000000E+00  8.00000000E-01  8.00000000E-01
  1.50000000E+00  8.00000000E-01  8.00000000E-01  1.50000000E+00  8.00000000E-01
  8.00000000E-01  1.50000000E+00  8.00000000E-01  8.00000000E-01  1.50000000E+00
  8.00000000E-01  8.00000000E-01  1.50000000E+00  8.00000000E-01  8.00000000E-01
  1.50000000E+00  8.00000000E-01  8.00000000E-01  1.50000000E+00  8.00000000E-01
  8.00000000E-01  1.50000000E+00  8.00000000E-01  8.00000000E-01  1.50000000E+00
  8.00000000E-01  8.00000000E-01  1.50000000E+00  8.00000000E-01  8.00000000E-01
  1.50000000E+00  8.00000000E-01  8.00000000E-01  1.50000000E+00  8.00000000E-01
  8.00000000E-01  1.50000000E+00  8.00000000E-01  8.00000000E-01  1.50000000E+00
  8.00000000E-01  8.00000000E-01  1.50000000E+00  8.00000000E-01  8.00000000E-01
  1.50000000E+00  8.00000000E-01  8.00000000E-01  1.50000000E+00  8.00000000E-01
  8.00000000E-01  1.50000000E+00  8.00000000E-01  8.00000000E-01  1.50000000E+00
  8.00000000E-01  8.00000000E-01  1.50000000E+00  8.00000000E-01  8.00000000E-01
  1.50000000E+00  8.00000000E-01  8.00000000E-01  1.50000000E+00  8.00000000E-01
  8.00000000E-01  1.50000000E+00  8.00000000E-01  8.00000000E-01  1.50000000E+00
  8.00000000E-01  8.00000000E-01  1.50000000E+00  8.00000000E-01  8.00000000E-01
  1.50000000E+00  8.00000000E-01  8.00000000E-01  1.50000000E+00  8.00000000E-01
  8.00000000E-01  1.50000000E+00  8.00000000E-01  8.00000000E-01  1.50000000E+00
  8.00000000E-01  8.00000000E-01  1.50000000E+00  8.00000000E-01  8.00000000E-01
  1.50000000E+00  8.00000000E-01  8.00000000E-01  1.50000000E+00  8.00000000E-01
  8.00000000E-01  1.50000000E+00  8.00000000E-01  8.00000000E-01  1.50000000E+00
  8.00000000E-01  8.00000000E-01  1.50000000E+00  8.00000000E-01  8.00000000E-01
  1.50000000E+00  8.00000000E-01  8.00000000E-01  1.50000000E+00  8.00000000E-01
  8.00000000E-01  1.50000000E+00  8.00000000E-01  8.00000000E-01  1.50000000E+00
  8.00000000E-01  8.00000000E-01  1.50000000E+00  8.00000000E-01  8.00000000E-01
  1.50000000E+00  8.00000000E-01  8.00000000E-01  1.50000000E+00  8.00000000E-01
  8.00000000E-01  1.50000000E+00  8.00000000E-01  8.00000000E-01  1.50000000E+00
  8.00000000E-01  8.00000000E-01  1.50000000E+00  8.00000000E-01  8.00000000E-01
  1.50000000E+00  8.00000000E-01  8.00000000E-01  1.50000000E+00  8.00000000E-01
  8.00000000E-01  1.50000000E+00  8.00000000E-01  8.00000000E-01  1.50000000E+00
  8.00000000E-01  8.00000000E-01  1.50000000E+00  8.00000000E-01  8.00000000E-01
  1.50000000E+00  8.00000000E-01  8.00000000E-01  1.50000000E+00  8.00000000E-01
  8.00000000E-01  1.50000000E+00  8.00000000E-01  8.00000000E-01  1.50000000E+00
  8.00000000E-01  8.00000000E-01  1.50000000E+00  8.00000000E-01  8.00000000E-01
  1.50000000E+00  8.00000000E-01  8.00000000E-01  1.50000000E+00  8.00000000E-01
  8.00000000E-01  1.50000000E+00  8.00000000E-01  8.00000000E-01  1.50000000E+00
  8.00000000E-01  8.00000000E-01  1.50000000E+00  8.00000000E-01  8.00000000E-01
  1.50000000E+00  8.00000000E-01  8.00000000E-01  1.50000000E+00  8.00000000E-01
  8.00000000E-01  1.50000000E+00  8.00000000E-01  8.00000000E-01  1.50000000E+00
  8.00000000E-01  8.00000000E-01  1.50000000E+00  8.00000000E-01  8.00000000E-01
  1.50000000E+00  8.00000000E-01  8.00000000E-01  1.50000000E+00  8.00000000E-01
  8.00000000E-01  1.50000000E+00  8.00000000E-01  8.00000000E-01  1.50000000E+00
  8.00000000E-01  8.00000000E-01  1.50000000E+00  8.00000000E-01  8.00000000E-01
  1.50000000E+00  8.00000000E-01  8.00000000E-01  1.50000000E+00  8.00000000E-01
  8.00000000E-01  1.50000000E+00  8.00000000E-01  8.00000000E-01  1.50000000E+00
  8.00000000E-01  8.00000000E-01  1.50000000E+00  8.00000000E-01  8.00000000E-01
  1.50000000E+00  8.00000000E-01  8.00000000E-01  1.50000000E+00  8.00000000E-01
  8.00000000E-01  1.50000000E+00  8.00000000E-01  8.00000000E-01  1.50000000E+00
  8.00000000E-01  8.00000000E-01  1.50000000E+00  8.00000000E-01  8.00000000E-01
  1.50000000E+00  8.00000000E-01  8.00000000E-01  1.50000000E+00  8.00000000E-01
  8.00000000E-01  1.50000000E+00  8.00000000E-01  8.00000000E-01  1.50000000E+00
  8.00000000E-01  8.00000000E-01  1.50000000E+00  8.00000000E-01  8.00000000E-01
  1.50000000E+00  8.00000000E-01  8.00000000E-01  1.50000000E+00  8.00000000E-01
  8.00000000E-01  1.50000000E+00  8.00000000E-01  8.00000000E-01  1.50000000E+00
  8.00000000E-01  8.00000000E-01  1.50000000E+00  8.00000000E-01  8.00000000E-01
  1.50000000E+00  8.00000000E-01  8.00000000E-01  1.50000000E+00  8.00000000E-01
  8.00000000E-01  1.50000000E+00  8.00000000E-01  8.00000000E-01  1.50000000E+00
  8.00000000E-01  8.00000000E-01  1.50000000E+00  8.00000000E-01  8.00000000E-01
  1.50000000E+00  8.00000000E-01  8.00000000E-01  1.50000000E+00  8.00000000E-01
  8.00000000E-01  1.50000000E+00  8.00000000E-01  8.00000000E-01  1.50000000E+00
  8.00000000E-01  8.00000000E-01  1.50000000E+00  8.00000000E-01  8.00000000E-01
  1.50000000E+00  8.00000000E-01  8.00000000E-01  1.50000000E+00  8.00000000E-01
  8.00000000E-01  1.50000000E+00  8.00000000E-01  8.00000000E-01  1.50000000E+00
  8.00000000E-01  8.00000000E-01  1.50000000E+00  8.00000000E-01  8.00000000E-01
  1.50000000E+00  8.00000000E-01  8.00000000E-01  1.50000000E+00  8.00000000E-01
  8.00000000E-01  1.50000000E+00  8.00000000E-01  8.00000000E-01  1.50000000E+00
  8.00000000E-01  8.00000000E-01  1.50000000E+00  8.00000000E-01  8.00000000E-01
  1.50000000E+00  8.00000000E-01  8.00000000E-01  1.50000000E+00  8.00000000E-01
  8.00000000E-01  1.50000000E+00  8.00000000E-01  8.00000000E-01  1.50000000E+00
  8.00000000E-01  8.00000000E-01  1.50000000E+00  8.00000000E-01  8.00000000E-01
  1.50000000E+00  8.00000000E-01  8.00000000E-01  1.50000000E+00  8.00000000E-01
  8.00000000E-01  1.50000000E+00  8.00000000E-01  8.00000000E-01  1.50000000E+00
  8.00000000E-01  8.00000000E-01  1.50000000E+00  8.00000000E-01  8.00000000E-01
  1.50000000E+00  8.00000000E-01  8.00000000E-01  1.50000000E+00  8.00000000E-01
  8.00000000E-01  1.50000000E+00  8.00000000E-01  8.00000000E-01  1.50000000E+00
  8.00000000E-01  8.00000000E-01  1.50000000E+00  8.00000000E-01  8.00000000E-01
  1.50000000E+00  8.00000000E-01  8.00000000E-01  1.50000000E+00  8.00000000E-01
  8.00000000E-01  1.50000000E+00  8.00000000E-01  8.00000000E-01  1.50000000E+00
  8.00000000E-01  8.00000000E-01  1.50000000E+00  8.00000000E-01  8.00000000E-01
  1.50000000E+00  8.00000000E-01  8.00000000E-01  1.50000000E+00  8.00000000E-01
  8.00000000E-01  1.50000000E+00  8.00000000E-01  8.00000000E-01  1.50000000E+00
  8.00000000E-01  8.00000000E-01  1.50000000E+00  8.00000000E-01  8.00000000E-01
  1.50000000E+00  8.00000000E-01  8.00000000E-01  1.50000000E+00  8.00000000E-01
  8.00000000E-01  1.50000000E+00  8.00000000E-01  8.00000000E-01  1.50000000E+00
  8.00000000E-01  8.00000000E-01  1.50000000E+00  8.00000000E-01  8.00000000E-01
  1.50000000E+00  8.00000000E-01  8.00000000E-01  1.50000000E+00  8.00000000E-01
  8.00000000E-01  1.50000000E+00  8.00000000E-01  8.00000000E-01  1.50000000E+00
  8.00000000E-01  8.00000000E-01  1.50000000E+00  8.00000000E-01  8.00000000E-01
  1.50000000E+00  8.00000000E-01  8.00000000E-01  1.50000000E+00  8.00000000E-01
  8.00000000E-01  1.50000000E+00  8.00000000E-01  8.00000000E-01  1.50000000E+00
  8.00000000E-01  8.00000000E-01  1.50000000E+00  8.00000000E-01  8.00000000E-01
  1.50000000E+00  8.00000000E-01  8.00000000E-01  1.50000000E+00  8.00000000E-01
  8.00000000E-01  1.50000000E+00  8.00000000E-01  8.00000000E-01  1.50000000E+00
  8.00000000E-01  8.00000000E-01  1.50000000E+00  8.00000000E-01  8.00000000E-01
  1.50000000E+00  8.00000000E-01  8.00000000E-01  1.50000000E+00  8.00000000E-01
  8.00000000E-01  1.50000000E+00  8.00000000E-01  8.00000000E-01  1.50000000E+00
  8.00000000E-01  8.00000000E-01  1.50000000E+00  8.00000000E-01  8.00000000E-01
  1.50000000E+00  8.00000000E-01  8.00000000E-01  1.50000000E+00  8.00000000E-01
  8.00000000E-01  1.50000000E+00  8.00000000E-01  8.00000000E-01  1.50000000E+00
  8.00000000E-01  8.00000000E-01  1.50000000E+00  8.00000000E-01  8.00000000E-01
  1.50000000E+00  8.00000000E-01  8.00000000E-01  1.50000000E+00  8.00000000E-01
  8.00000000E-01  1.50000000E+00  8.00000000E-01  8.00000000E-01  1.50000000E+00
  8.00000000E-01  8.00000000E-01  1.50000000E+00  8.00000000E-01  8.00000000E-01
  1.50000000E+00  8.00000000E-01  8.00000000E-01  1.50000000E+00  8.00000000E-01
  8.00000000E-01  1.50000000E+00  8.00000000E-01  8.00000000E-01  1.50000000E+00
  8.00000000E-01  8.00000000E-01  1.50000000E+00  8.00000000E-01  8.00000000E-01
  1.50000000E+00  8.00000000E-01  8.00000000E-01  1.50000000E+00  8.00000000E-01
  8.00000000E-01  1.50000000E+00  8.00000000E-01  8.00000000E-01  1.50000000E+00
  8.00000000E-01  8.00000000E-01  1.50000000E+00  8.00000000E-01  8.00000000E-01
  1.50000000E+00  8.00000000E-01  8.00000000E-01  1.50000000E+00  8.00000000E-01
  8.00000000E-01  1.50000000E+00  8.00000000E-01  8.00000000E-01  1.50000000E+00
  8.00000000E-01  8.00000000E-01  1.50000000E+00  8.00000000E-01  8.00000000E-01
  1.50000000E+00  8.00000000E-01  8.00000000E-01  1.50000000E+00  8.00000000E-01
  8.00000000E-01  1.50000000E+00  8.00000000E-01  8.00000000E-01  1.50000000E+00
  8.00000000E-01  8.00000000E-01  1.50000000E+00  8.00000000E-01  8.00000000E-01
  1.50000000E+00  8.00000000E-01  8.00000000E-01  1.50000000E+00  8.00000000E-01
  8.00000000E-01  1.50000000E+00  8.00000000E-01  8.00000000E-01  1.50000000E+00
  8.00000000E-01  8.00000000E-01  1.50000000E+00  8.00000000E-01  8.00000000E-01
  1.50000000E+00  8.00000000E-01  8.00000000E-01  1.50000000E+00  8.00000000E-01
  8.00000000E-01  1.50000000E+00  8.00000000E-01  8.00000000E-01  1.50000000E+00
  8.00000000E-01  8.00000000E-01  1.50000000E+00  8.00000000E-01  8.00000000E-01
  1.50000000E+00  8.00000000E-01  8.00000000E-01  1.50000000E+00  8.00000000E-01
  8.00000000E-01  1.50000000E+00  8.00000000E-01  8.00000000E-01  1.50000000E+00
  8.00000000E-01  8.00000000E-01  1.50000000E+00  8.00000000E-01  8.00000000E-01
  1.50000000E+00  8.00000000E-01  8.00000000E-01  1.50000000E+00  8.00000000E-01
  8.00000000E-01  1.50000000E+00  8.00000000E-01  8.00000000E-01  1.50000000E+00
  8.00000000E-01  8.00000000E-01  1.50000000E+00  8.00000000E-01  8.00000000E-01
  1.50000000E+00  8.00000000E-01  8.00000000E-01  1.50000000E+00  8.00000000E-01
  8.00000000E-01  1.50000000E+00  8.00000000E-01  8.00000000E-01  1.50000000E+00
  8.00000000E-01  8.00000000E-01  1.50000000E+00  8.00000000E-01  8.00000000E-01
  1.50000000E+00  8.00000000E-01  8.00000000E-01  1.50000000E+00  8.00000000E-01
  8.00000000E-01  1.50000000E+00  8.00000000E-01  8.00000000E-01  1.50000000E+00
  8.00000000E-01  8.00000000E-01  1.50000000E+00  8.00000000E-01  8.00000000E-01
  1.50000000E+00  8.00000000E-01  8.00000000E-01  1.50000000E+00  8.00000000E-01
  8.00000000E-01  1.50000000E+00  8.00000000E-01  8.00000000E-01  1.50000000E+00
  8.00000000E-01  8.00000000E-01  1.50000000E+00  8.00000000E-01  8.00000000E-01
  1.50000000E+00  8.00000000E-01  8.00000000E-01  1.50000000E+00  8.00000000E-01
  8.00000000E-01  1.50000000E+00  8.00000000E-01  8.00000000E-01  1.50000000E+00
  8.00000000E-01  8.00000000E-01  1.50000000E+00  8.00000000E-01  8.00000000E-01
  1.50000000E+00  8.00000000E-01  8.00000000E-01  1.50000000E+00  8.00000000E-01
  8.00000000E-01  1.50000000E+00  8.00000000E-01  8.00000000E-01  1.50000000E+00
  8.00000000E-01  8.00000000E-01  1.50000000E+00  8.00000000E-01  8.00000000E-01
  1.50000000E+00  8.00000000E-01  8.00000000E-01  1.50000000E+00  8.00000000E-01
  8.00000000E-01  1.50000000E+00  8.00000000E-01  8.00000000E-01  1.50000000E+00
  8.00000000E-01  8.00000000E-01  1.50000000E+00  8.00000000E-01  8.00000000E-01
  1.50000000E+00  8.00000000E-01  8.00000000E-01  1.50000000E+00  8.00000000E-01
  8.00000000E-01  1.50000000E+00  8.00000000E-01  8.00000000E-01  1.50000000E+00
  8.00000000E-01  8.00000000E-01  1.50000000E+00  8.00000000E-01  8.00000000E-01
  1.50000000E+00  8.00000000E-01  8.00000000E-01  1.50000000E+00  8.00000000E-01
  8.00000000E-01  1.50000000E+00  8.00000000E-01  8.00000000E-01  1.50000000E+00
  8.00000000E-01  8.00000000E-01  1.50000000E+00  8.00000000E-01  8.00000000E-01
  1.50000000E+00  8.00000000E-01  8.00000000E-01  1.50000000E+00  8.00000000E-01
  8.00000000E-01  1.50000000E+00  8.00000000E-01  8.00000000E-01  1.50000000E+00
  8.00000000E-01  8.00000000E-01  1.50000000E+00  8.00000000E-01  8.00000000E-01
  1.50000000E+00  8.00000000E-01  8.00000000E-01  1.50000000E+00  8.00000000E-01
  8.00000000E-01  1.50000000E+00  8.00000000E-01  8.00000000E-01  1.50000000E+00
  8.00000000E-01  8.00000000E-01  1.50000000E+00  8.00000000E-01  8.00000000E-01
  1.50000000E+00  8.00000000E-01  8.00000000E-01  1.50000000E+00  8.00000000E-01
  8.00000000E-01  1.50000000E+00  8.00000000E-01  8.00000000E-01  1.50000000E+00
  8.00000000E-01  8.00000000E-01  1.50000000E+00  8.00000000E-01  8.00000000E-01
  1.50000000E+00  8.00000000E-01  8.00000000E-01  1.50000000E+00  8.00000000E-01
  8.00000000E-01  1.50000000E+00  8.00000000E-01  8.00000000E-01  1.50000000E+00
  8.00000000E-01  8.00000000E-01  1.50000000E+00  8.00000000E-01  8.00000000E-01
  1.50000000E+00  8.00000000E-01  8.00000000E-01  1.50000000E+00  8.00000000E-01
  8.00000000E-01  1.50000000E+00  8.00000000E-01  8.00000000E-01  1.50000000E+00
  8.00000000E-01  8.00000000E-01  1.50000000E+00  8.00000000E-01  8.00000000E-01
  1.50000000E+00  8.00000000E-01  8.00000000E-01  1.50000000E+00  8.00000000E-01
  8.00000000E-01  1.50000000E+00  8.00000000E-01  8.00000000E-01  1.50000000E+00
  8.00000000E-01  8.00000000E-01  1.50000000E+00  8.00000000E-01  8.00000000E-01
  1.50000000E+00  8.00000000E-01  8.00000000E-01  1.50000000E+00  8.00000000E-01
  8.00000000E-01  1.50000000E+00  8.00000000E-01  8.00000000E-01  1.50000000E+00
  8.00000000E-01  8.00000000E-01  1.50000000E+00  8.00000000E-01  8.00000000E-01
  1.50000000E+00  8.00000000E-01  8.00000000E-01  1.50000000E+00  8.00000000E-01
  8.00000000E-01  1.50000000E+00  8.00000000E-01  8.00000000E-01  1.50000000E+00
  8.00000000E-01  8.00000000E-01  1.50000000E+00  8.00000000E-01  8.00000000E-01
  1.50000000E+00  8.00000000E-01  8.00000000E-01  1.50000000E+00  8.00000000E-01
  8.00000000E-01  1.50000000E+00  8.00000000E-01  8.00000000E-01  1.50000000E+00
  8.00000000E-01  8.00000000E-01  1.50000000E+00  8.00000000E-01  8.00000000E-01
  1.50000000E+00  8.00000000E-01  8.00000000E-01  1.50000000E+00  8.00000000E-01
  8.00000000E-01  1.50000000E+00  8.00000000E-01  8.00000000E-01  1.50000000E+00
  8.00000000E-01  8.00000000E-01  1.50000000E+00  8.00000000E-01  8.00000000E-01
  1.50000000E+00  8.00000000E-01  8.00000000E-01  1.50000000E+00  8.00000000E-01
  8.00000000E-01  1.50000000E+00  8.00000000E-01  8.00000000E-01  1.50000000E+00
  8.00000000E-01  8.00000000E-01  1.50000000E+00  8.00000000E-01  8.00000000E-01
  1.50000000E+00  8.00000000E-01  8.00000000E-01  1.50000000E+00  8.00000000E-01
  8.00000000E-01  1.50000000E+00  8.00000000E-01  8.00000000E-01  1.50000000E+00
  8.00000000E-01  8.00000000E-01  1.50000000E+00  8.00000000E-01  8.00000000E-01
  1.50000000E+00  8.00000000E-01  8.00000000E-01  1.50000000E+00  8.00000000E-01
  8.00000000E-01  1.50000000E+00  8.00000000E-01  8.00000000E-01  1.50000000E+00
  8.00000000E-01  8.00000000E-01  1.50000000E+00  8.00000000E-01  8.00000000E-01
  1.50000000E+00  8.00000000E-01  8.00000000E-01  1.50000000E+00  8.00000000E-01
  8.00000000E-01  1.50000000E+00  8.00000000E-01  8.00000000E-01  1.50000000E+00
  8.00000000E-01  8.00000000E-01  1.50000000E+00  8.00000000E-01  8.00000000E-01
  1.50000000E+00  8.00000000E-01  8.00000000E-01  1.50000000E+00  8.00000000E-01
  8.00000000E-01  1.50000000E+00  8.00000000E-01  8.00000000E-01  1.50000000E+00
  8.00000000E-01  8.00000000E-01  1.50000000E+00  8.00000000E-01  8.00000000E-01
  1.50000000E+00  8.00000000E-01  8.00000000E-01  1.50000000E+00  8.00000000E-01
  8.00000000E-01  1.50000000E+00  8.00000000E-01  8.00000000E-01  1.50000000E+00
  8.00000000E-01  8.00000000E-01  1.50000000E+00  8.00000000E-01  8.00000000E-01
  1.50000000E+00  8.00000000E-01  8.00000000E-01  1.50000000E+00  8.00000000E-01
  8.00000000E-01  1.50000000E+00  8.00000000E-01  8.00000000E-01  1.50000000E+00
  8.00000000E-01  8.00000000E-01  1.50000000E+00  8.00000000E-01  8.00000000E-01
  1.50000000E+00  8.00000000E-01  8.00000000E-01  1.50000000E+00  8.00000000E-01
  8.00000000E-01  1.50000000E+00  8.00000000E-01  8.00000000E-01  1.50000000E+00
  8.00000000E-01  8.00000000E-01  1.50000000E+00  8.00000000E-01  8.00000000E-01
  1.50000000E+00  8.00000000E-01  8.00000000E-01  1.50000000E+00  8.00000000E-01
  8.00000000E-01  1.50000000E+00  8.00000000E-01  8.00000000E-01  1.50000000E+00
  8.00000000E-01  8.00000000E-01  1.50000000E+00  8.00000000E-01  8.00000000E-01
  1.50000000E+00  8.00000000E-01  8.00000000E-01  1.50000000E+00  8.00000000E-01
  8.00000000E-01  1.50000000E+00  8.00000000E-01  8.00000000E-01  1.50000000E+00
  8.00000000E-01  8.00000000E-01  1.50000000E+00  8.00000000E-01  8.00000000E-01
  1.50000000E+00  8.00000000E-01  8.00000000E-01  1.50000000E+00  8.00000000E-01
  8.00000000E-01  1.50000000E+00  8.00000000E-01  8.00000000E-01  1.50000000E+00
  8.00000000E-01  8.00000000E-01  1.50000000E+00  8.00000000E-01  8.00000000E-01
  1.50000000E+00  8.00000000E-01  8.00000000E-01  1.50000000E+00  8.00000000E-01
  8.00000000E-01  1.50000000E+00  8.00000000E-01  8.00000000E-01  1.50000000E+00
  8.00000000E-01  8.00000000E-01  1.50000000E+00  8.00000000E-01  8.00000000E-01
  1.50000000E+00  8.00000000E-01  8.00000000E-01  1.50000000E+00  8.00000000E-01
  8.00000000E-01  1.50000000E+00  8.00000000E-01  8.00000000E-01  1.50000000E+00
  8.00000000E-01  8.00000000E-01  1.50000000E+00  8.00000000E-01  8.00000000E-01
  1.50000000E+00  8.00000000E-01  8.00000000E-01  1.50000000E+00  8.00000000E-01
  8.00000000E-01  1.50000000E+00  8.00000000E-01  8.00000000E-01  1.50000000E+00
  8.00000000E-01  8.00000000E-01  1.50000000E+00  8.00000000E-01  8.00000000E-01
  1.50000000E+00  8.00000000E-01  8.00000000E-01  1.50000000E+00  8.00000000E-01
  8.00000000E-01  1.50000000E+00  8.00000000E-01  8.00000000E-01  1.50000000E+00
  8.00000000E-01  8.00000000E-01  1.50000000E+00  8.00000000E-01  8.00000000E-01
  1.50000000E+00  8.00000000E-01  8.00000000E-01  1.50000000E+00  8.00000000E-01
  8.00000000E-01  1.50000000E+00  8.00000000E-01  8.00000000E-01  1.50000000E+00
  8.00000000E-01  8.00000000E-01  1.50000000E+00  8.00000000E-01  8.00000000E-01
  1.50000000E+00  8.00000000E-01  8.00000000E-01  1.50000000E+00  8.00000000E-01
  8.00000000E-01  1.50000000E+00  8.00000000E-01  8.00000000E-01  1.50000000E+00
  8.00000000E-01  8.00000000E-01  1.50000000E+00  8.00000000E-01  8.00000000E-01
  1.50000000E+00  8.00000000E-01  8.00000000E-01  1.50000000E+00  8.00000000E-01
  8.00000000E-01  1.50000000E+00  8.00000000E-01  8.00000000E-01  1.50000000E+00
  8.00000000E-01  8.00000000E-01  1.50000000E+00  8.00000000E-01  8.00000000E-01
  1.50000000E+00  8.00000000E-01  8.00000000E-01  1.50000000E+00  8.00000000E-01
  8.00000000E-01  1.50000000E+00  8.00000000E-01  8.00000000E-01  1.50000000E+00
  8.00000000E-01  8.00000000E-01  1.50000000E+00  8.00000000E-01  8.00000000E-01
  1.50000000E+00  8.00000000E-01  8.00000000E-01  1.50000000E+00  8.00000000E-01
  8.00000000E-01  1.50000000E+00  8.00000000E-01  8.00000000E-01  1.50000000E+00
  8.00000000E-01  8.00000000E-01  1.50000000E+00  8.00000000E-01  8.00000000E-01
  1.50000000E+00  8.00000000E-01  8.00000000E-01  1.50000000E+00  8.00000000E-01
  8.00000000E-01  1.50000000E+00  8.00000000E-01  8.00000000E-01  1.50000000E+00
  8.00000000E-01  8.00000000E-01  1.50000000E+00  8.00000000E-01  8.00000000E-01
  1.50000000E+00  8.00000000E-01  8.00000000E-01  1.50000000E+00  8.00000000E-01
  8.00000000E-01  1.50000000E+00  8.00000000E-01  8.00000000E-01  1.50000000E+00
  8.00000000E-01  8.00000000E-01  1.50000000E+00  8.00000000E-01  8.00000000E-01
  1.50000000E+00  8.00000000E-01  8.00000000E-01  1.50000000E+00  8.00000000E-01
  8.00000000E-01  1.50000000E+00  8.00000000E-01  8.00000000E-01  1.50000000E+00
  8.00000000E-01  8.00000000E-01  1.50000000E+00  8.00000000E-01  8.00000000E-01
  1.50000000E+00  8.00000000E-01  8.00000000E-01  1.50000000E+00  8.00000000E-01
  8.00000000E-01  1.50000000E+00  8.00000000E-01  8.00000000E-01  1.50000000E+00
  8.00000000E-01  8.00000000E-01  1.50000000E+00  8.00000000E-01  8.00000000E-01
  1.50000000E+00  8.00000000E-01  8.00000000E-01  1.50000000E+00  8.00000000E-01
  8.00000000E-01  1.50000000E+00  8.00000000E-01  8.00000000E-01  1.50000000E+00
  8.00000000E-01  8.00000000E-01  1.50000000E+00  8.00000000E-01  8.00000000E-01
  1.50000000E+00  8.00000000E-01  8.00000000E-01  1.50000000E+00  8.00000000E-01
  8.00000000E-01  1.50000000E+00  8.00000000E-01  8.00000000E-01  1.50000000E+00
  8.00000000E-01  8.00000000E-01  1.50000000E+00  8.00000000E-01  8.00000000E-01
  1.50000000E+00  8.00000000E-01  8.00000000E-01  1.50000000E+00  8.00000000E-01
  8.00000000E-01  1.50000000E+00  8.00000000E-01  8.00000000E-01  1.50000000E+00
  8.00000000E-01  8.00000000E-01  1.50000000E+00  8.00000000E-01  8.00000000E-01
  1.50000000E+00  8.00000000E-01  8.00000000E-01  1.50000000E+00  8.00000000E-01
  8.00000000E-01  1.50000000E+00  8.00000000E-01  8.00000000E-01  1.50000000E+00
  8.00000000E-01  8.00000000E-01  1.50000000E+00  8.00000000E-01  8.00000000E-01
  1.50000000E+00  8.00000000E-01  8.00000000E-01  1.50000000E+00  8.00000000E-01
  8.00000000E-01  1.50000000E+00  8.00000000E-01  8.00000000E-01  1.50000000E+00
  8.00000000E-01  8.00000000E-01  1.50000000E+00  8.00000000E-01  8.00000000E-01
  1.50000000E+00  8.00000000E-01  8.00000000E-01  1.50000000E+00  8.00000000E-01
  8.00000000E-01  1.50000000E+00  8.00000000E-01  8.00000000E-01  1.50000000E+00
  8.00000000E-01  8.00000000E-01  1.50000000E+00  8.00000000E-01  8.00000000E-01
  1.50000000E+00  8.00000000E-01  8.00000000E-01  1.50000000E+00  8.00000000E-01
  8.00000000E-01  1.50000000E+00  8.00000000E-01  8.00000000E-01  1.50000000E+00
  8.00000000E-01  8.00000000E-01  1.50000000E+00  8.00000000E-01  8.00000000E-01
  1.50000000E+00  8.00000000E-01  8.00000000E-01  1.50000000E+00  8.00000000E-01
  8.00000000E-01  1.50000000E+00  8.00000000E-01  8.00000000E-01  1.50000000E+00
  8.00000000E-01  8.00000000E-01  1.50000000E+00  8.00000000E-01  8.00000000E-01
  1.50000000E+00  8.00000000E-01  8.00000000E-01  1.50000000E+00  8.00000000E-01
  8.00000000E-01  1.50000000E+00  8.00000000E-01  8.00000000E-01  1.50000000E+00
  8.00000000E-01  8.00000000E-01  1.50000000E+00  8.00000000E-01  8.00000000E-01
  1.50000000E+00  8.00000000E-01  8.00000000E-01  1.50000000E+00  8.00000000E-01
  8.00000000E-01  1.50000000E+00  8.00000000E-01  8.00000000E-01  1.50000000E+00
  8.00000000E-01  8.00000000E-01  1.50000000E+00  8.00000000E-01  8.00000000E-01
  1.50000000E+00  8.00000000E-01  8.00000000E-01  1.50000000E+00  8.00000000E-01
  8.00000000E-01  1.50000000E+00  8.00000000E-01  8.00000000E-01  1.50000000E+00
  8.00000000E-01  8.00000000E-01  1.50000000E+00  8.00000000E-01  8.00000000E-01
  1.50000000E+00  8.00000000E-01  8.00000000E-01  1.50000000E+00  8.00000000E-01
  8.00000000E-01  1.50000000E+00  8.00000000E-01  8.00000000E-01  1.50000000E+00
  8.00000000E-01  8.00000000E-01  1.50000000E+00  8.00000000E-01  8.00000000E-01
  1.50000000E+00  8.00000000E-01  8.00000000E-01  1.50000000E+00  8.00000000E-01
  8.00000000E-01  1.50000000E+00  8.00000000E-01  8.00000000E-01  1.50000000E+00
  8.00000000E-01  8.00000000E-01  1.50000000E+00  8.00000000E-01  8.00000000E-01
  1.50000000E+00  8.00000000E-01  8.00000000E-01  1.50000000E+00  8.00000000E-01
  8.00000000E-01  1.50000000E+00  8.00000000E-01  8.00000000E-01  1.50000000E+00
  8.00000000E-01  8.00000000E-01  1.50000000E+00  8.00000000E-01  8.00000000E-01
  1.50000000E+00  8.00000000E-01  8.00000000E-01  1.50000000E+00  8.00000000E-01
  8.00000000E-01  1.50000000E+00  8.00000000E-01  8.00000000E-01  1.50000000E+00
  8.00000000E-01  8.00000000E-01  1.50000000E+00  8.00000000E-01  8.00000000E-01
  1.50000000E+00  8.00000000E-01  8.00000000E-01  1.50000000E+00  8.00000000E-01
  8.00000000E-01  1.50000000E+00  8.00000000E-01  8.00000000E-01  1.50000000E+00
  8.00000000E-01  8.00000000E-01  1.50000000E+00  8.00000000E-01  8.00000000E-01
  1.50000000E+00  8.00000000E-01  8.00000000E-01  1.50000000E+00  8.00000000E-01
  8.00000000E-01  1.50000000E+00  8.00000000E-01  8.00000000E-01  1.50000000E+00
  8.00000000E-01  8.00000000E-01  1.50000000E+00  8.00000000E-01  8.00000000E-01
  1.50000000E+00  8.00000000E-01  8.00000000E-01  1.50000000E+00  8.00000000E-01
  8.00000000E-01  1.50000000E+00  8.00000000E-01  8.00000000E-01  1.50000000E+00
  8.00000000E-01  8.00000000E-01  1.50000000E+00  8.00000000E-01  8.00000000E-01
  1.50000000E+00  8.00000000E-01  8.00000000E-01  1.50000000E+00  8.00000000E-01
  8.00000000E-01  1.50000000E+00  8.00000000E-01  8.00000000E-01  1.50000000E+00
  8.00000000E-01  8.00000000E-01  1.50000000E+00  8.00000000E-01  8.00000000E-01
  1.50000000E+00  8.00000000E-01  8.00000000E-01  1.50000000E+00  8.00000000E-01
  8.00000000E-01  1.50000000E+00  8.00000000E-01  8.00000000E-01  1.50000000E+00
  8.00000000E-01  8.00000000E-01  1.50000000E+00  8.00000000E-01  8.00000000E-01
  1.50000000E+00  8.00000000E-01  8.00000000E-01  1.50000000E+00  8.00000000E-01
  8.00000000E-01  1.50000000E+00  8.00000000E-01  8.00000000E-01  1.50000000E+00
  8.00000000E-01  8.00000000E-01  1.50000000E+00  8.00000000E-01  8.00000000E-01
  1.50000000E+00  8.00000000E-01  8.00000000E-01  1.50000000E+00  8.00000000E-01
  8.00000000E-01  1.50000000E+00  8.00000000E-01  8.00000000E-01  1.50000000E+00
  8.00000000E-01  8.00000000E-01  1.50000000E+00  8.00000000E-01  8.00000000E-01
  1.50000000E+00  8.00000000E-01  8.00000000E-01  1.50000000E+00  8.00000000E-01
  8.00000000E-01  1.50000000E+00  8.00000000E-01  8.00000000E-01  1.50000000E+00
  8.00000000E-01  8.00000000E-01  1.50000000E+00  8.00000000E-01  8.00000000E-01
  1.50000000E+00  8.00000000E-01  8.00000000E-01  1.50000000E+00  8.00000000E-01
  8.00000000E-01  1.50000000E+00  8.00000000E-01  8.00000000E-01  1.50000000E+00
  8.00000000E-01  8.00000000E-01  1.50000000E+00  8.00000000E-01  8.00000000E-01
  1.50000000E+00  8.00000000E-01  8.00000000E-01  1.50000000E+00  8.00000000E-01
  8.00000000E-01  1.50000000E+00  8.00000000E-01  8.00000000E-01  1.50000000E+00
  8.00000000E-01  8.00000000E-01  1.50000000E+00  8.00000000E-01  8.00000000E-01
  1.50000000E+00  8.00000000E-01  8.00000000E-01  1.50000000E+00  8.00000000E-01
  8.00000000E-01  1.50000000E+00  8.00000000E-01  8.00000000E-01  1.50000000E+00
  8.00000000E-01  8.00000000E-01  1.50000000E+00  8.00000000E-01  8.00000000E-01
  1.50000000E+00  8.00000000E-01  8.00000000E-01  1.50000000E+00  8.00000000E-01
  8.00000000E-01  1.50000000E+00  8.00000000E-01  8.00000000E-01  1.50000000E+00
  8.00000000E-01  8.00000000E-01  1.50000000E+00  8.00000000E-01  8.00000000E-01
  1.50000000E+00  8.00000000E-01  8.00000000E-01  1.50000000E+00  8.00000000E-01
  8.00000000E-01  1.50000000E+00  8.00000000E-01  8.00000000E-01  1.50000000E+00
  8.00000000E-01  8.00000000E-01  1.50000000E+00  8.00000000E-01  8.00000000E-01
  1.50000000E+00  8.00000000E-01  8.00000000E-01  1.50000000E+00  8.00000000E-01
  8.00000000E-01  1.50000000E+00  8.00000000E-01  8.00000000E-01  1.50000000E+00
  8.00000000E-01  8.00000000E-01  1.50000000E+00  8.00000000E-01  8.00000000E-01
  1.50000000E+00  8.00000000E-01  8.00000000E-01  1.50000000E+00  8.00000000E-01
  8.00000000E-01  1.50000000E+00  8.00000000E-01  8.00000000E-01  1.50000000E+00
  8.00000000E-01  8.00000000E-01  1.50000000E+00  8.00000000E-01  8.00000000E-01
  1.50000000E+00  8.00000000E-01  8.00000000E-01  1.50000000E+00  8.00000000E-01
  8.00000000E-01  1.50000000E+00  8.00000000E-01  8.00000000E-01  1.50000000E+00
  8.00000000E-01  8.00000000E-01  1.50000000E+00  8.00000000E-01  8.00000000E-01
  1.50000000E+00  8.00000000E-01  8.00000000E-01  1.50000000E+00  8.00000000E-01
  8.00000000E-01  1.50000000E+00  8.00000000E-01  8.00000000E-01  1.50000000E+00
  8.00000000E-01  8.00000000E-01  1.50000000E+00  8.00000000E-01  8.00000000E-01
  1.50000000E+00  8.00000000E-01  8.00000000E-01  1.50000000E+00  8.00000000E-01
  8.00000000E-01  1.50000000E+00  8.00000000E-01  8.00000000E-01  1.50000000E+00
  8.00000000E-01  8.00000000E-01  1.50000000E+00  8.00000000E-01  8.00000000E-01
  1.50000000E+00  8.00000000E-01  8.00000000E-01  1.50000000E+00  8.00000000E-01
  8.00000000E-01  1.50000000E+00  8.00000000E-01  8.00000000E-01  1.50000000E+00
  8.00000000E-01  8.00000000E-01  1.50000000E+00  8.00000000E-01  8.00000000E-01
  1.50000000E+00  8.00000000E-01  8.00000000E-01  1.50000000E+00  8.00000000E-01
  8.00000000E-01  1.50000000E+00  8.00000000E-01  8.00000000E-01  1.50000000E+00
  8.00000000E-01  8.00000000E-01  1.50000000E+00  8.00000000E-01  8.00000000E-01
  1.50000000E+00  8.00000000E-01  8.00000000E-01  1.50000000E+00  8.00000000E-01
  8.00000000E-01  1.50000000E+00  8.00000000E-01  8.00000000E-01  1.50000000E+00
  8.00000000E-01  8.00000000E-01  1.50000000E+00  8.00000000E-01  8.00000000E-01
  1.50000000E+00  8.00000000E-01  8.00000000E-01  1.50000000E+00  8.00000000E-01
  8.00000000E-01  1.50000000E+00  8.00000000E-01  8.00000000E-01  1.50000000E+00
  8.00000000E-01  8.00000000E-01  1.50000000E+00  8.00000000E-01  8.00000000E-01
  1.50000000E+00  8.00000000E-01  8.00000000E-01  1.50000000E+00  8.00000000E-01
  8.00000000E-01  1.50000000E+00  8.00000000E-01  8.00000000E-01  1.50000000E+00
  8.00000000E-01  8.00000000E-01  1.50000000E+00  8.00000000E-01  8.00000000E-01
  1.50000000E+00  8.00000000E-01  8.00000000E-01  1.50000000E+00  8.00000000E-01
  8.00000000E-01  1.50000000E+00  8.00000000E-01  8.00000000E-01  1.50000000E+00
  8.00000000E-01  8.00000000E-01  1.50000000E+00  8.00000000E-01  8.00000000E-01
  1.50000000E+00  8.00000000E-01  8.00000000E-01  1.50000000E+00  8.00000000E-01
  8.00000000E-01  1.50000000E+00  8.00000000E-01  8.00000000E-01  1.50000000E+00
  8.00000000E-01  8.00000000E-01  1.50000000E+00  8.00000000E-01  8.00000000E-01
  1.50000000E+00  8.00000000E-01  8.00000000E-01  1.50000000E+00  8.00000000E-01
  8.00000000E-01  1.50000000E+00  8.00000000E-01  8.00000000E-01  1.50000000E+00
  8.00000000E-01  8.00000000E-01  1.50000000E+00  8.00000000E-01  8.00000000E-01
  1.50000000E+00  8.00000000E-01  8.00000000E-01  1.50000000E+00  8.00000000E-01
  8.00000000E-01  1.50000000E+00  8.00000000E-01  8.00000000E-01  1.50000000E+00
  8.00000000E-01  8.00000000E-01  1.50000000E+00  8.00000000E-01  8.00000000E-01
  1.50000000E+00  8.00000000E-01  8.00000000E-01  1.50000000E+00  8.00000000E-01
  8.00000000E-01  1.50000000E+00  8.00000000E-01  8.00000000E-01  1.50000000E+00
  8.00000000E-01  8.00000000E-01  1.50000000E+00  8.00000000E-01  8.00000000E-01
  1.50000000E+00  8.00000000E-01  8.00000000E-01  1.50000000E+00  8.00000000E-01
  8.00000000E-01  1.50000000E+00  8.00000000E-01  8.00000000E-01  1.50000000E+00
  8.00000000E-01  8.00000000E-01  1.50000000E+00  8.00000000E-01  8.00000000E-01
  1.50000000E+00  8.00000000E-01  8.00000000E-01  1.50000000E+00  8.00000000E-01
  8.00000000E-01  1.50000000E+00  8.00000000E-01  8.00000000E-01  1.50000000E+00
  8.00000000E-01  8.00000000E-01  1.50000000E+00  8.00000000E-01  8.00000000E-01
  1.50000000E+00  8.00000000E-01  8.00000000E-01  1.50000000E+00  8.00000000E-01
  8.00000000E-01  1.50000000E+00  8.00000000E-01  8.00000000E-01  1.50000000E+00
  8.00000000E-01  8.00000000E-01  1.50000000E+00  8.00000000E-01  8.00000000E-01
  1.50000000E+00  8.00000000E-01  8.00000000E-01  1.50000000E+00  8.00000000E-01
  8.00000000E-01  1.50000000E+00  8.00000000E-01  8.00000000E-01  1.50000000E+00
  8.00000000E-01  8.00000000E-01  1.50000000E+00  8.00000000E-01  8.00000000E-01
  1.50000000E+00  8.00000000E-01  8.00000000E-01  1.50000000E+00  8.00000000E-01
  8.00000000E-01  1.50000000E+00  8.00000000E-01  8.00000000E-01  1.50000000E+00
  8.00000000E-01  8.00000000E-01  1.50000000E+00  8.00000000E-01  8.00000000E-01
  1.50000000E+00  8.00000000E-01  8.00000000E-01  1.50000000E+00  8.00000000E-01
  8.00000000E-01  1.50000000E+00  8.00000000E-01  8.00000000E-01  1.50000000E+00
  8.00000000E-01  8.00000000E-01  1.50000000E+00  8.00000000E-01  8.00000000E-01
  1.50000000E+00  8.00000000E-01  8.00000000E-01  1.50000000E+00  8.00000000E-01
  8.00000000E-01  1.50000000E+00  8.00000000E-01  8.00000000E-01  1.50000000E+00
  8.00000000E-01  8.00000000E-01  1.50000000E+00  8.00000000E-01  8.00000000E-01
  1.50000000E+00  8.00000000E-01  8.00000000E-01  1.50000000E+00  8.00000000E-01
  8.00000000E-01  1.50000000E+00  8.00000000E-01  8.00000000E-01  1.50000000E+00
  8.00000000E-01  8.00000000E-01  1.50000000E+00  8.00000000E-01  8.00000000E-01
  1.50000000E+00  8.00000000E-01  8.00000000E-01  1.50000000E+00  8.00000000E-01
  8.00000000E-01  1.50000000E+00  8.00000000E-01  8.00000000E-01  1.50000000E+00
  8.00000000E-01  8.00000000E-01  1.50000000E+00  8.00000000E-01  8.00000000E-01
  1.50000000E+00  8.00000000E-01  8.00000000E-01  1.50000000E+00  8.00000000E-01
  8.00000000E-01  1.50000000E+00  8.00000000E-01  8.00000000E-01  1.50000000E+00
  8.00000000E-01  8.00000000E-01  1.50000000E+00  8.00000000E-01  8.00000000E-01
  1.50000000E+00  8.00000000E-01  8.00000000E-01  1.50000000E+00  8.00000000E-01
  8.00000000E-01  1.50000000E+00  8.00000000E-01  8.00000000E-01  1.50000000E+00
  8.00000000E-01  8.00000000E-01  1.50000000E+00  8.00000000E-01  8.00000000E-01
  1.50000000E+00  8.00000000E-01  8.00000000E-01  1.50000000E+00  8.00000000E-01
  8.00000000E-01  1.50000000E+00  8.00000000E-01  8.00000000E-01  1.50000000E+00
  8.00000000E-01  8.00000000E-01  1.50000000E+00  8.00000000E-01  8.00000000E-01
  1.50000000E+00  8.00000000E-01  8.00000000E-01  1.50000000E+00  8.00000000E-01
  8.00000000E-01  1.50000000E+00  8.00000000E-01  8.00000000E-01  1.50000000E+00
  8.00000000E-01  8.00000000E-01  1.50000000E+00  8.00000000E-01  8.00000000E-01
  1.50000000E+00  8.00000000E-01  8.00000000E-01  1.50000000E+00  8.00000000E-01
  8.00000000E-01  1.50000000E+00  8.00000000E-01  8.00000000E-01  1.50000000E+00
  8.00000000E-01  8.00000000E-01  1.50000000E+00  8.00000000E-01  8.00000000E-01
  1.50000000E+00  8.00000000E-01  8.00000000E-01  1.50000000E+00  8.00000000E-01
  8.00000000E-01  1.50000000E+00  8.00000000E-01  8.00000000E-01  1.50000000E+00
  8.00000000E-01  8.00000000E-01  1.50000000E+00  8.00000000E-01  8.00000000E-01
  1.50000000E+00  8.00000000E-01  8.00000000E-01  1.50000000E+00  8.00000000E-01
  8.00000000E-01  1.50000000E+00  8.00000000E-01  8.00000000E-01  1.50000000E+00
  8.00000000E-01  8.00000000E-01  1.50000000E+00  8.00000000E-01  8.00000000E-01
  1.50000000E+00  8.00000000E-01  8.00000000E-01  1.50000000E+00  8.00000000E-01
  8.00000000E-01  1.50000000E+00  8.00000000E-01  8.00000000E-01  1.50000000E+00
  8.00000000E-01  8.00000000E-01  1.50000000E+00  8.00000000E-01  8.00000000E-01
  1.50000000E+00  8.00000000E-01  8.00000000E-01  1.50000000E+00  8.00000000E-01
  8.00000000E-01  1.50000000E+00  8.00000000E-01  8.00000000E-01  1.50000000E+00
  8.00000000E-01  8.00000000E-01  1.50000000E+00  8.00000000E-01  8.00000000E-01
  1.50000000E+00  8.00000000E-01  8.00000000E-01  1.50000000E+00  8.00000000E-01
  8.00000000E-01  1.50000000E+00  8.00000000E-01  8.00000000E-01  1.50000000E+00
  8.00000000E-01  8.00000000E-01  1.50000000E+00  8.00000000E-01  8.00000000E-01
  1.50000000E+00  8.00000000E-01  8.00000000E-01  1.50000000E+00  8.00000000E-01
  8.00000000E-01  1.50000000E+00  8.00000000E-01  8.00000000E-01  1.50000000E+00
  8.00000000E-01  8.00000000E-01  1.50000000E+00  8.00000000E-01  8.00000000E-01
  1.50000000E+00  8.00000000E-01  8.00000000E-01  1.50000000E+00  8.00000000E-01
  8.00000000E-01  1.50000000E+00  8.00000000E-01  8.00000000E-01  1.50000000E+00
  8.00000000E-01  8.00000000E-01  1.50000000E+00  8.00000000E-01  8.00000000E-01
  1.50000000E+00  8.00000000E-01  8.00000000E-01  1.50000000E+00  8.00000000E-01
  8.00000000E-01  1.50000000E+00  8.00000000E-01  8.00000000E-01  1.50000000E+00
  8.00000000E-01  8.00000000E-01  1.50000000E+00  8.00000000E-01  8.00000000E-01
  1.50000000E+00  8.00000000E-01  8.00000000E-01  1.50000000E+00  8.00000000E-01
  8.00000000E-01  1.50000000E+00  8.00000000E-01  8.00000000E-01  1.50000000E+00
  8.00000000E-01  8.00000000E-01  1.50000000E+00  8.00000000E-01  8.00000000E-01
  1.50000000E+00  8.00000000E-01  8.00000000E-01  1.50000000E+00  8.00000000E-01
  8.00000000E-01  1.50000000E+00  8.00000000E-01  8.00000000E-01  1.50000000E+00
  8.00000000E-01  8.00000000E-01  1.50000000E+00  8.00000000E-01  8.00000000E-01
  1.50000000E+00  8.00000000E-01  8.00000000E-01  1.50000000E+00  8.00000000E-01
  8.00000000E-01  1.50000000E+00  8.00000000E-01  8.00000000E-01  1.50000000E+00
  8.00000000E-01  8.00000000E-01  1.50000000E+00  8.00000000E-01  8.00000000E-01
  1.50000000E+00  8.00000000E-01  8.00000000E-01  1.50000000E+00  8.00000000E-01
  8.00000000E-01  1.50000000E+00  8.00000000E-01  8.00000000E-01  1.50000000E+00
  8.00000000E-01  8.00000000E-01  1.50000000E+00  8.00000000E-01  8.00000000E-01
  1.50000000E+00  8.00000000E-01  8.00000000E-01  1.50000000E+00  8.00000000E-01
  8.00000000E-01  1.50000000E+00  8.00000000E-01  8.00000000E-01  1.50000000E+00
  8.00000000E-01  8.00000000E-01  1.50000000E+00  8.00000000E-01  8.00000000E-01
  1.50000000E+00  8.00000000E-01  8.00000000E-01  1.50000000E+00  8.00000000E-01
  8.00000000E-01  1.50000000E+00  8.00000000E-01  8.00000000E-01  1.50000000E+00
  8.00000000E-01  8.00000000E-01  1.50000000E+00  8.00000000E-01  8.00000000E-01
  1.50000000E+00  8.00000000E-01  8.00000000E-01  1.50000000E+00  8.00000000E-01
  8.00000000E-01  1.50000000E+00  8.00000000E-01  8.00000000E-01  1.50000000E+00
  8.00000000E-01  8.00000000E-01  1.50000000E+00  8.00000000E-01  8.00000000E-01
  1.50000000E+00  8.00000000E-01  8.00000000E-01  1.50000000E+00  8.00000000E-01
  8.00000000E-01  1.50000000E+00  8.00000000E-01  8.00000000E-01  1.50000000E+00
  8.00000000E-01  8.00000000E-01  1.50000000E+00  8.00000000E-01  8.00000000E-01
  1.50000000E+00  8.00000000E-01  8.00000000E-01  1.50000000E+00  8.00000000E-01
  8.00000000E-01  1.50000000E+00  8.00000000E-01  8.00000000E-01  1.50000000E+00
  8.00000000E-01  8.00000000E-01  1.50000000E+00  8.00000000E-01  8.00000000E-01
  1.50000000E+00  8.00000000E-01  8.00000000E-01  1.50000000E+00  8.00000000E-01
  8.00000000E-01  1.50000000E+00  8.00000000E-01  8.00000000E-01  1.50000000E+00
  8.00000000E-01  8.00000000E-01  1.50000000E+00  8.00000000E-01  8.00000000E-01
  1.50000000E+00  8.00000000E-01  8.00000000E-01  1.50000000E+00  8.00000000E-01
  8.00000000E-01  1.50000000E+00  8.00000000E-01  8.00000000E-01  1.50000000E+00
  8.00000000E-01  8.00000000E-01  1.50000000E+00  8.00000000E-01  8.00000000E-01
  1.50000000E+00  8.00000000E-01  8.00000000E-01  1.50000000E+00  8.00000000E-01
  8.00000000E-01  1.50000000E+00  8.00000000E-01  8.00000000E-01  1.50000000E+00
  8.00000000E-01  8.00000000E-01  1.50000000E+00  8.00000000E-01  8.00000000E-01
  1.50000000E+00  8.00000000E-01  8.00000000E-01  1.50000000E+00  8.00000000E-01
  8.00000000E-01  1.50000000E+00  8.00000000E-01  8.00000000E-01  1.50000000E+00
  8.00000000E-01  8.00000000E-01  1.50000000E+00  8.00000000E-01  8.00000000E-01
  1.50000000E+00  8.00000000E-01  8.00000000E-01  1.50000000E+00  8.00000000E-01
  8.00000000E-01  1.50000000E+00  8.00000000E-01  8.00000000E-01  1.50000000E+00
  8.00000000E-01  8.00000000E-01  1.50000000E+00  8.00000000E-01  8.00000000E-01
  1.50000000E+00  8.00000000E-01  8.00000000E-01  1.50000000E+00  8.00000000E-01
  8.00000000E-01  1.50000000E+00  8.00000000E-01  8.00000000E-01  1.50000000E+00
  8.00000000E-01  8.00000000E-01  1.50000000E+00  8.00000000E-01  8.00000000E-01
  1.50000000E+00  8.00000000E-01  8.00000000E-01  1.50000000E+00  8.00000000E-01
  8.00000000E-01  1.50000000E+00  8.00000000E-01  8.00000000E-01  1.50000000E+00
  8.00000000E-01  8.00000000E-01  1.50000000E+00  8.00000000E-01  8.00000000E-01
  1.50000000E+00  8.00000000E-01  8.00000000E-01  1.50000000E+00  8.00000000E-01
  8.00000000E-01  1.50000000E+00  8.00000000E-01  8.00000000E-01  1.50000000E+00
  8.00000000E-01  8.00000000E-01  1.50000000E+00  8.00000000E-01  8.00000000E-01
  1.50000000E+00  8.00000000E-01  8.00000000E-01  1.50000000E+00  8.00000000E-01
  8.00000000E-01  1.50000000E+00  8.00000000E-01  8.00000000E-01  1.50000000E+00
  8.00000000E-01  8.00000000E-01  1.50000000E+00  8.00000000E-01  8.00000000E-01
  1.50000000E+00  8.00000000E-01  8.00000000E-01  1.50000000E+00  8.00000000E-01
  8.00000000E-01  1.50000000E+00  8.00000000E-01  8.00000000E-01  1.50000000E+00
  8.00000000E-01  8.00000000E-01  1.50000000E+00  8.00000000E-01  8.00000000E-01
  1.50000000E+00  8.00000000E-01  8.00000000E-01  1.50000000E+00  8.00000000E-01
  8.00000000E-01  1.50000000E+00  8.00000000E-01  8.00000000E-01  1.50000000E+00
  8.00000000E-01  8.00000000E-01  1.50000000E+00  8.00000000E-01  8.00000000E-01
  1.50000000E+00  8.00000000E-01  8.00000000E-01  1.50000000E+00  8.00000000E-01
  8.00000000E-01  1.50000000E+00  8.00000000E-01  8.00000000E-01  1.50000000E+00
  8.00000000E-01  8.00000000E-01  1.50000000E+00  8.00000000E-01  8.00000000E-01
  1.50000000E+00  8.00000000E-01  8.00000000E-01  1.50000000E+00  8.00000000E-01
  8.00000000E-01  1.50000000E+00  8.00000000E-01  8.00000000E-01  1.50000000E+00
  8.00000000E-01  8.00000000E-01  1.50000000E+00  8.00000000E-01  8.00000000E-01
  1.50000000E+00  8.00000000E-01  8.00000000E-01  1.50000000E+00  8.00000000E-01
  8.00000000E-01  1.50000000E+00  8.00000000E-01  8.00000000E-01  1.50000000E+00
  8.00000000E-01  8.00000000E-01  1.50000000E+00  8.00000000E-01  8.00000000E-01
  1.50000000E+00  8.00000000E-01  8.00000000E-01  1.50000000E+00  8.00000000E-01
  8.00000000E-01  1.50000000E+00  8.00000000E-01  8.00000000E-01  1.50000000E+00
  8.00000000E-01  8.00000000E-01  1.50000000E+00  8.00000000E-01  8.00000000E-01
  1.50000000E+00  8.00000000E-01  8.00000000E-01  1.50000000E+00  8.00000000E-01
  8.00000000E-01  1.50000000E+00  8.00000000E-01  8.00000000E-01  1.50000000E+00
  8.00000000E-01  8.00000000E-01  1.50000000E+00  8.00000000E-01  8.00000000E-01
  1.50000000E+00  8.00000000E-01  8.00000000E-01  1.50000000E+00  8.00000000E-01
  8.00000000E-01  1.50000000E+00  8.00000000E-01  8.00000000E-01  1.50000000E+00
  8.00000000E-01  8.00000000E-01  1.50000000E+00  8.00000000E-01  8.00000000E-01
  1.50000000E+00  8.00000000E-01  8.00000000E-01  1.50000000E+00  8.00000000E-01
  8.00000000E-01  1.50000000E+00  8.00000000E-01  8.00000000E-01  1.50000000E+00
  8.00000000E-01  8.00000000E-01  1.50000000E+00  8.00000000E-01  8.00000000E-01
  1.50000000E+00  8.00000000E-01  8.00000000E-01  1.50000000E+00  8.00000000E-01
  8.00000000E-01  1.50000000E+00  8.00000000E-01  8.00000000E-01  1.50000000E+00
  8.00000000E-01  8.00000000E-01  1.50000000E+00  8.00000000E-01  8.00000000E-01
  1.50000000E+00  8.00000000E-01  8.00000000E-01  1.50000000E+00  8.00000000E-01
  8.00000000E-01  1.50000000E+00  8.00000000E-01  8.00000000E-01  1.50000000E+00
  8.00000000E-01  8.00000000E-01  1.50000000E+00  8.00000000E-01  8.00000000E-01
  1.50000000E+00  8.00000000E-01  8.00000000E-01  1.50000000E+00  8.00000000E-01
  8.00000000E-01  1.50000000E+00  8.00000000E-01  8.00000000E-01  1.50000000E+00
  8.00000000E-01  8.00000000E-01  1.50000000E+00  8.00000000E-01  8.00000000E-01
  1.50000000E+00  8.00000000E-01  8.00000000E-01  1.50000000E+00  8.00000000E-01
  8.00000000E-01  1.50000000E+00  8.00000000E-01  8.00000000E-01  1.50000000E+00
  8.00000000E-01  8.00000000E-01  1.50000000E+00  8.00000000E-01  8.00000000E-01
  1.50000000E+00  8.00000000E-01  8.00000000E-01  1.50000000E+00  8.00000000E-01
  8.00000000E-01  1.50000000E+00  8.00000000E-01  8.00000000E-01  1.50000000E+00
  8.00000000E-01  8.00000000E-01  1.50000000E+00  8.00000000E-01  8.00000000E-01
  1.50000000E+00  8.00000000E-01  8.00000000E-01  1.50000000E+00  8.00000000E-01
  8.00000000E-01  1.50000000E+00  8.00000000E-01  8.00000000E-01  1.50000000E+00
  8.00000000E-01  8.00000000E-01  1.50000000E+00  8.00000000E-01  8.00000000E-01
  1.50000000E+00  8.00000000E-01  8.00000000E-01  1.50000000E+00  8.00000000E-01
  8.00000000E-01  1.50000000E+00  8.00000000E-01  8.00000000E-01  1.50000000E+00
  8.00000000E-01  8.00000000E-01  1.50000000E+00  8.00000000E-01  8.00000000E-01
  1.50000000E+00  8.00000000E-01  8.00000000E-01  1.50000000E+00  8.00000000E-01
  8.00000000E-01  1.50000000E+00  8.00000000E-01  8.00000000E-01  1.50000000E+00
  8.00000000E-01  8.00000000E-01  1.50000000E+00  8.00000000E-01  8.00000000E-01
  1.50000000E+00  8.00000000E-01  8.00000000E-01  1.50000000E+00  8.00000000E-01
  8.00000000E-01  1.50000000E+00  8.00000000E-01  8.00000000E-01  1.50000000E+00
  8.00000000E-01  8.00000000E-01  1.50000000E+00  8.00000000E-01  8.00000000E-01
  1.50000000E+00  8.00000000E-01  8.00000000E-01  1.50000000E+00  8.00000000E-01
  8.00000000E-01  1.50000000E+00  8.00000000E-01  8.00000000E-01  1.50000000E+00
  8.00000000E-01  8.00000000E-01  1.50000000E+00  8.00000000E-01  8.00000000E-01
  1.50000000E+00  8.00000000E-01  8.00000000E-01  1.50000000E+00  8.00000000E-01
  8.00000000E-01  1.50000000E+00  8.00000000E-01  8.00000000E-01  1.50000000E+00
  8.00000000E-01  8.00000000E-01  1.50000000E+00  8.00000000E-01  8.00000000E-01
  1.50000000E+00  8.00000000E-01  8.00000000E-01  1.50000000E+00  8.00000000E-01
  8.00000000E-01  1.50000000E+00  8.00000000E-01  8.00000000E-01  1.50000000E+00
  8.00000000E-01  8.00000000E-01  1.50000000E+00  8.00000000E-01  8.00000000E-01
  1.50000000E+00  8.00000000E-01  8.00000000E-01  1.50000000E+00  8.00000000E-01
  8.00000000E-01  1.50000000E+00  8.00000000E-01  8.00000000E-01  1.50000000E+00
  8.00000000E-01  8.00000000E-01  1.50000000E+00  8.00000000E-01  8.00000000E-01
  1.50000000E+00  8.00000000E-01  8.00000000E-01  1.50000000E+00  8.00000000E-01
  8.00000000E-01  1.50000000E+00  8.00000000E-01  8.00000000E-01  1.50000000E+00
  8.00000000E-01  8.00000000E-01  1.50000000E+00  8.00000000E-01  8.00000000E-01
  1.50000000E+00  8.00000000E-01  8.00000000E-01  1.50000000E+00  8.00000000E-01
  8.00000000E-01  1.50000000E+00  8.00000000E-01  8.00000000E-01  1.50000000E+00
  8.00000000E-01  8.00000000E-01  1.50000000E+00  8.00000000E-01  8.00000000E-01
  1.50000000E+00  8.00000000E-01  8.00000000E-01  1.50000000E+00  8.00000000E-01
  8.00000000E-01  1.50000000E+00  8.00000000E-01  8.00000000E-01  1.50000000E+00
  8.00000000E-01  8.00000000E-01  1.50000000E+00  8.00000000E-01  8.00000000E-01
  1.50000000E+00  8.00000000E-01  8.00000000E-01  1.50000000E+00  8.00000000E-01
  8.00000000E-01  1.50000000E+00  8.00000000E-01  8.00000000E-01  1.50000000E+00
  8.00000000E-01  8.00000000E-01  1.50000000E+00  8.00000000E-01  8.00000000E-01
  1.50000000E+00  8.00000000E-01  8.00000000E-01  1.50000000E+00  8.00000000E-01
  8.00000000E-01  1.50000000E+00  8.00000000E-01  8.00000000E-01  1.50000000E+00
  8.00000000E-01  8.00000000E-01  1.50000000E+00  8.00000000E-01  8.00000000E-01
  1.50000000E+00  8.00000000E-01  8.00000000E-01  1.50000000E+00  8.00000000E-01
  8.00000000E-01  1.50000000E+00  8.00000000E-01  8.00000000E-01  1.50000000E+00
  8.00000000E-01  8.00000000E-01  1.50000000E+00  8.00000000E-01  8.00000000E-01
  1.50000000E+00  8.00000000E-01  8.00000000E-01  1.50000000E+00  8.00000000E-01
  8.00000000E-01  1.50000000E+00  8.00000000E-01  8.00000000E-01  1.50000000E+00
  8.00000000E-01  8.00000000E-01  1.50000000E+00  8.00000000E-01  8.00000000E-01
  1.50000000E+00  8.00000000E-01  8.00000000E-01  1.50000000E+00  8.00000000E-01
  8.00000000E-01  1.50000000E+00  8.00000000E-01  8.00000000E-01  1.50000000E+00
  8.00000000E-01  8.00000000E-01  1.50000000E+00  8.00000000E-01  8.00000000E-01
  1.50000000E+00  8.00000000E-01  8.00000000E-01  1.50000000E+00  8.00000000E-01
  8.00000000E-01  1.50000000E+00  8.00000000E-01  8.00000000E-01  1.50000000E+00
  8.00000000E-01  8.00000000E-01  1.50000000E+00  8.00000000E-01  8.00000000E-01
  1.50000000E+00  8.00000000E-01  8.00000000E-01  1.50000000E+00  8.00000000E-01
  8.00000000E-01  1.50000000E+00  8.00000000E-01  8.00000000E-01  1.50000000E+00
  8.00000000E-01  8.00000000E-01  1.50000000E+00  8.00000000E-01  8.00000000E-01
  1.50000000E+00  8.00000000E-01  8.00000000E-01  1.50000000E+00  8.00000000E-01
  8.00000000E-01  1.50000000E+00  8.00000000E-01  8.00000000E-01  1.50000000E+00
  8.00000000E-01  8.00000000E-01  1.50000000E+00  8.00000000E-01  8.00000000E-01
  1.50000000E+00  8.00000000E-01  8.00000000E-01  1.50000000E+00  8.00000000E-01
  8.00000000E-01  1.50000000E+00  8.00000000E-01  8.00000000E-01  1.50000000E+00
  8.00000000E-01  8.00000000E-01  1.50000000E+00  8.00000000E-01  8.00000000E-01
  1.50000000E+00  8.00000000E-01  8.00000000E-01  1.50000000E+00  8.00000000E-01
  8.00000000E-01  1.50000000E+00  8.00000000E-01  8.00000000E-01  1.50000000E+00
  8.00000000E-01  8.00000000E-01  1.50000000E+00  8.00000000E-01  8.00000000E-01
  1.50000000E+00  8.00000000E-01  8.00000000E-01  1.50000000E+00  8.00000000E-01
  8.00000000E-01  1.50000000E+00  8.00000000E-01  8.00000000E-01  1.50000000E+00
  8.00000000E-01  8.00000000E-01  1.50000000E+00  8.00000000E-01  8.00000000E-01
  1.50000000E+00  8.00000000E-01  8.00000000E-01  1.50000000E+00  8.00000000E-01
  8.00000000E-01  1.50000000E+00  8.00000000E-01  8.00000000E-01  1.50000000E+00
  8.00000000E-01  8.00000000E-01  1.50000000E+00  8.00000000E-01  8.00000000E-01
  1.50000000E+00  8.00000000E-01  8.00000000E-01  1.50000000E+00  8.00000000E-01
  8.00000000E-01  1.50000000E+00  8.00000000E-01  8.00000000E-01  1.50000000E+00
  8.00000000E-01  8.00000000E-01  1.50000000E+00  8.00000000E-01  8.00000000E-01
  1.50000000E+00  8.00000000E-01  8.00000000E-01  1.50000000E+00  8.00000000E-01
  8.00000000E-01  1.50000000E+00  8.00000000E-01  8.00000000E-01  1.50000000E+00
  8.00000000E-01  8.00000000E-01  1.50000000E+00  8.00000000E-01  8.00000000E-01
  1.50000000E+00  8.00000000E-01  8.00000000E-01  1.50000000E+00  8.00000000E-01
  8.00000000E-01  1.50000000E+00  8.00000000E-01  8.00000000E-01  1.50000000E+00
  8.00000000E-01  8.00000000E-01  1.50000000E+00  8.00000000E-01  8.00000000E-01
  1.50000000E+00  8.00000000E-01  8.00000000E-01  1.50000000E+00  8.00000000E-01
  8.00000000E-01  1.50000000E+00  8.00000000E-01  8.00000000E-01  1.50000000E+00
  8.00000000E-01  8.00000000E-01  1.50000000E+00  8.00000000E-01  8.00000000E-01
  1.50000000E+00  8.00000000E-01  8.00000000E-01  1.50000000E+00  8.00000000E-01
  8.00000000E-01  1.50000000E+00  8.00000000E-01  8.00000000E-01  1.50000000E+00
  8.00000000E-01  8.00000000E-01  1.50000000E+00  8.00000000E-01  8.00000000E-01
  1.50000000E+00  8.00000000E-01  8.00000000E-01  1.50000000E+00  8.00000000E-01
  8.00000000E-01  1.50000000E+00  8.00000000E-01  8.00000000E-01  1.50000000E+00
  8.00000000E-01  8.00000000E-01  1.50000000E+00  8.00000000E-01  8.00000000E-01
  1.50000000E+00  8.00000000E-01  8.00000000E-01  1.50000000E+00  8.00000000E-01
  8.00000000E-01  1.50000000E+00  8.00000000E-01  8.00000000E-01  1.50000000E+00
  8.00000000E-01  8.00000000E-01  1.50000000E+00  8.00000000E-01  8.00000000E-01
  1.50000000E+00  8.00000000E-01  8.00000000E-01  1.50000000E+00  8.00000000E-01
  8.00000000E-01  1.50000000E+00  8.00000000E-01  8.00000000E-01  1.50000000E+00
  8.00000000E-01  8.00000000E-01  1.50000000E+00  8.00000000E-01  8.00000000E-01
  1.50000000E+00  8.00000000E-01  8.00000000E-01  1.50000000E+00  8.00000000E-01
  8.00000000E-01  1.50000000E+00  8.00000000E-01  8.00000000E-01  1.50000000E+00
  8.00000000E-01  8.00000000E-01  1.50000000E+00  8.00000000E-01  8.00000000E-01
  1.50000000E+00  8.00000000E-01  8.00000000E-01  1.50000000E+00  8.00000000E-01
  8.00000000E-01  1.50000000E+00  8.00000000E-01  8.00000000E-01  1.50000000E+00
  8.00000000E-01  8.00000000E-01  1.50000000E+00  8.00000000E-01  8.00000000E-01
  1.50000000E+00  8.00000000E-01  8.00000000E-01  1.50000000E+00  8.00000000E-01
  8.00000000E-01  1.50000000E+00  8.00000000E-01  8.00000000E-01  1.50000000E+00
  8.00000000E-01  8.00000000E-01  1.50000000E+00  8.00000000E-01  8.00000000E-01
  1.50000000E+00  8.00000000E-01  8.00000000E-01  1.50000000E+00  8.00000000E-01
  8.00000000E-01  1.50000000E+00  8.00000000E-01  8.00000000E-01  1.50000000E+00
  8.00000000E-01  8.00000000E-01  1.50000000E+00  8.00000000E-01  8.00000000E-01
  1.50000000E+00  8.00000000E-01  8.00000000E-01  1.50000000E+00  8.00000000E-01
  8.00000000E-01  1.50000000E+00  8.00000000E-01  8.00000000E-01  1.50000000E+00
  8.00000000E-01  8.00000000E-01  1.50000000E+00  8.00000000E-01  8.00000000E-01
  1.50000000E+00  8.00000000E-01  8.00000000E-01  1.50000000E+00  8.00000000E-01
  8.00000000E-01  1.50000000E+00  8.00000000E-01  8.00000000E-01  1.50000000E+00
  8.00000000E-01  8.00000000E-01  1.50000000E+00  8.00000000E-01  8.00000000E-01
  1.50000000E+00  8.00000000E-01  8.00000000E-01  1.50000000E+00  8.00000000E-01
  8.00000000E-01  1.50000000E+00  8.00000000E-01  8.00000000E-01  1.50000000E+00
  8.00000000E-01  8.00000000E-01  1.50000000E+00  8.00000000E-01  8.00000000E-01
  1.50000000E+00  8.00000000E-01  8.00000000E-01  1.50000000E+00  8.00000000E-01
  8.00000000E-01  1.50000000E+00  8.00000000E-01  8.00000000E-01  1.50000000E+00
  8.00000000E-01  8.00000000E-01  1.50000000E+00  8.00000000E-01  8.00000000E-01
  1.50000000E+00  8.00000000E-01  8.00000000E-01  1.50000000E+00  8.00000000E-01
  8.00000000E-01  1.50000000E+00  8.00000000E-01  8.00000000E-01  1.50000000E+00
  8.00000000E-01  8.00000000E-01  1.50000000E+00  8.00000000E-01  8.00000000E-01
  1.50000000E+00  8.00000000E-01  8.00000000E-01  1.50000000E+00  8.00000000E-01
  8.00000000E-01  1.50000000E+00  8.00000000E-01  8.00000000E-01  1.50000000E+00
  8.00000000E-01  8.00000000E-01  1.50000000E+00  8.00000000E-01  8.00000000E-01
  1.50000000E+00  8.00000000E-01  8.00000000E-01  1.50000000E+00  8.00000000E-01
  8.00000000E-01  1.50000000E+00  8.00000000E-01  8.00000000E-01  1.50000000E+00
  8.00000000E-01  8.00000000E-01  1.50000000E+00  8.00000000E-01  8.00000000E-01
  1.50000000E+00  8.00000000E-01  8.00000000E-01  1.50000000E+00  8.00000000E-01
  8.00000000E-01  1.50000000E+00  8.00000000E-01  8.00000000E-01  1.50000000E+00
  8.00000000E-01  8.00000000E-01  1.50000000E+00  8.00000000E-01  8.00000000E-01
  1.50000000E+00  8.00000000E-01  8.00000000E-01  1.50000000E+00  8.00000000E-01
  8.00000000E-01  1.50000000E+00  8.00000000E-01  8.00000000E-01  1.50000000E+00
  8.00000000E-01  8.00000000E-01  1.50000000E+00  8.00000000E-01  8.00000000E-01
  1.50000000E+00  8.00000000E-01  8.00000000E-01  1.50000000E+00  8.00000000E-01
  8.00000000E-01  1.50000000E+00  8.00000000E-01  8.00000000E-01  1.50000000E+00
  8.00000000E-01  8.00000000E-01  1.50000000E+00  8.00000000E-01  8.00000000E-01
  1.50000000E+00  8.00000000E-01  8.00000000E-01  1.50000000E+00  8.00000000E-01
  8.00000000E-01  1.50000000E+00  8.00000000E-01  8.00000000E-01  1.50000000E+00
  8.00000000E-01  8.00000000E-01  1.50000000E+00  8.00000000E-01  8.00000000E-01
  1.50000000E+00  8.00000000E-01  8.00000000E-01  1.50000000E+00  8.00000000E-01
  8.00000000E-01  1.50000000E+00  8.00000000E-01  8.00000000E-01  1.50000000E+00
  8.00000000E-01  8.00000000E-01  1.50000000E+00  8.00000000E-01  8.00000000E-01
  1.50000000E+00  8.00000000E-01  8.00000000E-01  1.50000000E+00  8.00000000E-01
  8.00000000E-01  1.50000000E+00  8.00000000E-01  8.00000000E-01  1.50000000E+00
  8.00000000E-01  8.00000000E-01  1.50000000E+00  8.00000000E-01  8.00000000E-01
  1.50000000E+00  8.00000000E-01  8.00000000E-01  1.50000000E+00  8.00000000E-01
  8.00000000E-01  1.50000000E+00  8.00000000E-01  8.00000000E-01  1.50000000E+00
  8.00000000E-01  8.00000000E-01  1.50000000E+00  8.00000000E-01  8.00000000E-01
  1.50000000E+00  8.00000000E-01  8.00000000E-01  1.50000000E+00  8.00000000E-01
  8.00000000E-01  1.50000000E+00  8.00000000E-01  8.00000000E-01  1.50000000E+00
  8.00000000E-01  8.00000000E-01  1.50000000E+00  8.00000000E-01  8.00000000E-01
  1.50000000E+00  8.00000000E-01  8.00000000E-01  1.50000000E+00  8.00000000E-01
  8.00000000E-01  1.50000000E+00  8.00000000E-01  8.00000000E-01  1.50000000E+00
  8.00000000E-01  8.00000000E-01  1.50000000E+00  8.00000000E-01  8.00000000E-01
  1.50000000E+00  8.00000000E-01  8.00000000E-01  1.50000000E+00  8.00000000E-01
  8.00000000E-01  1.50000000E+00  8.00000000E-01  8.00000000E-01  1.50000000E+00
  8.00000000E-01  8.00000000E-01  1.50000000E+00  8.00000000E-01  8.00000000E-01
  1.50000000E+00  8.00000000E-01  8.00000000E-01  1.50000000E+00  8.00000000E-01
  8.00000000E-01  1.50000000E+00  8.00000000E-01  8.00000000E-01  1.50000000E+00
  8.00000000E-01  8.00000000E-01  1.50000000E+00  8.00000000E-01  8.00000000E-01
  1.50000000E+00  8.00000000E-01  8.00000000E-01  1.50000000E+00  8.00000000E-01
  8.00000000E-01  1.50000000E+00  8.00000000E-01  8.00000000E-01  1.50000000E+00
  8.00000000E-01  8.00000000E-01  1.50000000E+00  8.00000000E-01  8.00000000E-01
  1.50000000E+00  8.00000000E-01  8.00000000E-01  1.50000000E+00  8.00000000E-01
  8.00000000E-01  1.50000000E+00  8.00000000E-01  8.00000000E-01  1.50000000E+00
  8.00000000E-01  8.00000000E-01  1.50000000E+00  8.00000000E-01  8.00000000E-01
  1.50000000E+00  8.00000000E-01  8.00000000E-01  1.50000000E+00  8.00000000E-01
  8.00000000E-01  1.50000000E+00  8.00000000E-01  8.00000000E-01  1.50000000E+00
  8.00000000E-01  8.00000000E-01  1.50000000E+00  8.00000000E-01  8.00000000E-01
  1.50000000E+00  8.00000000E-01  8.00000000E-01  1.50000000E+00  8.00000000E-01
  8.00000000E-01  1.50000000E+00  8.00000000E-01  8.00000000E-01  1.50000000E+00
  8.00000000E-01  8.00000000E-01  1.50000000E+00  8.00000000E-01  8.00000000E-01
  1.50000000E+00  8.00000000E-01  8.00000000E-01  1.50000000E+00  8.00000000E-01
  8.00000000E-01  1.50000000E+00  8.00000000E-01  8.00000000E-01  1.50000000E+00
  8.00000000E-01  8.00000000E-01  1.50000000E+00  8.00000000E-01  8.00000000E-01
  1.50000000E+00  8.00000000E-01  8.00000000E-01  1.50000000E+00  8.00000000E-01
  8.00000000E-01  1.50000000E+00  8.00000000E-01  8.00000000E-01  1.50000000E+00
  8.00000000E-01  8.00000000E-01  1.50000000E+00  8.00000000E-01  8.00000000E-01
  1.50000000E+00  8.00000000E-01  8.00000000E-01  1.50000000E+00  8.00000000E-01
  8.00000000E-01  1.50000000E+00  8.00000000E-01  8.00000000E-01  1.50000000E+00
  8.00000000E-01  8.00000000E-01  1.50000000E+00  8.00000000E-01  8.00000000E-01
  1.50000000E+00  8.00000000E-01  8.00000000E-01  1.50000000E+00  8.00000000E-01
  8.00000000E-01  1.50000000E+00  8.00000000E-01  8.00000000E-01  1.50000000E+00
  8.00000000E-01  8.00000000E-01  1.50000000E+00  8.00000000E-01  8.00000000E-01
  1.50000000E+00  8.00000000E-01  8.00000000E-01  1.50000000E+00  8.00000000E-01
  8.00000000E-01  1.50000000E+00  8.00000000E-01  8.00000000E-01  1.50000000E+00
  8.00000000E-01  8.00000000E-01  1.50000000E+00  8.00000000E-01  8.00000000E-01
  1.50000000E+00  8.00000000E-01  8.00000000E-01  1.50000000E+00  8.00000000E-01
  8.00000000E-01  1.50000000E+00  8.00000000E-01  8.00000000E-01  1.50000000E+00
  8.00000000E-01  8.00000000E-01  1.50000000E+00  8.00000000E-01  8.00000000E-01
  1.50000000E+00  8.00000000E-01  8.00000000E-01  1.50000000E+00  8.00000000E-01
  8.00000000E-01  1.50000000E+00  8.00000000E-01  8.00000000E-01  1.50000000E+00
  8.00000000E-01  8.00000000E-01  1.50000000E+00  8.00000000E-01  8.00000000E-01
  1.50000000E+00  8.00000000E-01  8.00000000E-01  1.50000000E+00  8.00000000E-01
  8.00000000E-01  1.50000000E+00  8.00000000E-01  8.00000000E-01  1.50000000E+00
  8.00000000E-01  8.00000000E-01  1.50000000E+00  8.00000000E-01  8.00000000E-01
  1.50000000E+00  8.00000000E-01  8.00000000E-01  1.50000000E+00  8.00000000E-01
  8.00000000E-01  1.50000000E+00  8.00000000E-01  8.00000000E-01  1.50000000E+00
  8.00000000E-01  8.00000000E-01  1.50000000E+00  8.00000000E-01  8.00000000E-01
  1.50000000E+00  8.00000000E-01  8.00000000E-01  1.50000000E+00  8.00000000E-01
  8.00000000E-01  1.50000000E+00  8.00000000E-01  8.00000000E-01  1.50000000E+00
  8.00000000E-01  8.00000000E-01  1.50000000E+00  8.00000000E-01  8.00000000E-01
  1.50000000E+00  8.00000000E-01  8.00000000E-01  1.50000000E+00  8.00000000E-01
  8.00000000E-01  1.50000000E+00  8.00000000E-01  8.00000000E-01  1.50000000E+00
  8.00000000E-01  8.00000000E-01  1.50000000E+00  8.00000000E-01  8.00000000E-01
  1.50000000E+00  8.00000000E-01  8.00000000E-01  1.50000000E+00  8.00000000E-01
  8.00000000E-01  1.50000000E+00  8.00000000E-01  8.00000000E-01  1.50000000E+00
  8.00000000E-01  8.00000000E-01  1.50000000E+00  8.00000000E-01  8.00000000E-01
  1.50000000E+00  8.00000000E-01  8.00000000E-01  1.50000000E+00  8.00000000E-01
  8.00000000E-01  1.50000000E+00  8.00000000E-01  8.00000000E-01  1.50000000E+00
  8.00000000E-01  8.00000000E-01  1.50000000E+00  8.00000000E-01  8.00000000E-01
  1.50000000E+00  8.00000000E-01  8.00000000E-01  1.50000000E+00  8.00000000E-01
  8.00000000E-01  1.50000000E+00  8.00000000E-01  8.00000000E-01  1.50000000E+00
  8.00000000E-01  8.00000000E-01  1.50000000E+00  8.00000000E-01  8.00000000E-01
  1.50000000E+00  8.00000000E-01  8.00000000E-01  1.50000000E+00  8.00000000E-01
  8.00000000E-01  1.50000000E+00  8.00000000E-01  8.00000000E-01  1.50000000E+00
  8.00000000E-01  8.00000000E-01  1.50000000E+00  8.00000000E-01  8.00000000E-01
  1.50000000E+00  8.00000000E-01  8.00000000E-01  1.50000000E+00  8.00000000E-01
  8.00000000E-01  1.50000000E+00  8.00000000E-01  8.00000000E-01  1.50000000E+00
  8.00000000E-01  8.00000000E-01  1.50000000E+00  8.00000000E-01  8.00000000E-01
  1.50000000E+00  8.00000000E-01  8.00000000E-01  1.50000000E+00  8.00000000E-01
  8.00000000E-01  1.50000000E+00  8.00000000E-01  8.00000000E-01  1.50000000E+00
  8.00000000E-01  8.00000000E-01  1.50000000E+00  8.00000000E-01  8.00000000E-01
  1.50000000E+00  8.00000000E-01  8.00000000E-01  1.50000000E+00  8.00000000E-01
  8.00000000E-01  1.50000000E+00  8.00000000E-01  8.00000000E-01  1.50000000E+00
  8.00000000E-01  8.00000000E-01  1.50000000E+00  8.00000000E-01  8.00000000E-01
  1.50000000E+00  8.00000000E-01  8.00000000E-01  1.50000000E+00  8.00000000E-01
  8.00000000E-01  1.50000000E+00  8.00000000E-01  8.00000000E-01  1.50000000E+00
  8.00000000E-01  8.00000000E-01  1.50000000E+00  8.00000000E-01  8.00000000E-01
  1.50000000E+00  8.00000000E-01  8.00000000E-01  1.50000000E+00  8.00000000E-01
  8.00000000E-01  1.50000000E+00  8.00000000E-01  8.00000000E-01  1.50000000E+00
  8.00000000E-01  8.00000000E-01  1.50000000E+00  8.00000000E-01  8.00000000E-01
  1.50000000E+00  8.00000000E-01  8.00000000E-01  1.50000000E+00  8.00000000E-01
  8.00000000E-01  1.50000000E+00  8.00000000E-01  8.00000000E-01  1.50000000E+00
  8.00000000E-01  8.00000000E-01  1.50000000E+00  8.00000000E-01  8.00000000E-01
  1.50000000E+00  8.00000000E-01  8.00000000E-01  1.50000000E+00  8.00000000E-01
  8.00000000E-01  1.50000000E+00  8.00000000E-01  8.00000000E-01  1.50000000E+00
  8.00000000E-01  8.00000000E-01  1.50000000E+00  8.00000000E-01  8.00000000E-01
  1.50000000E+00  8.00000000E-01  8.00000000E-01  1.50000000E+00  8.00000000E-01
  8.00000000E-01  1.50000000E+00  8.00000000E-01  8.00000000E-01  1.50000000E+00
  8.00000000E-01  8.00000000E-01  1.50000000E+00  8.00000000E-01  8.00000000E-01
  1.50000000E+00  8.00000000E-01  8.00000000E-01  1.50000000E+00  8.00000000E-01
  8.00000000E-01  1.50000000E+00  8.00000000E-01  8.00000000E-01  1.50000000E+00
  8.00000000E-01  8.00000000E-01  1.50000000E+00  8.00000000E-01  8.00000000E-01
  1.50000000E+00  8.00000000E-01  8.00000000E-01  1.50000000E+00  8.00000000E-01
  8.00000000E-01  1.50000000E+00  8.00000000E-01  8.00000000E-01  1.50000000E+00
  8.00000000E-01  8.00000000E-01  1.50000000E+00  8.00000000E-01  8.00000000E-01
  1.50000000E+00  8.00000000E-01  8.00000000E-01  1.50000000E+00  8.00000000E-01
  8.00000000E-01  1.50000000E+00  8.00000000E-01  8.00000000E-01  1.50000000E+00
  8.00000000E-01  8.00000000E-01  1.50000000E+00  8.00000000E-01  8.00000000E-01
  1.50000000E+00  8.00000000E-01  8.00000000E-01  1.50000000E+00  8.00000000E-01
  8.00000000E-01  1.50000000E+00  8.00000000E-01  8.00000000E-01  1.50000000E+00
  8.00000000E-01  8.00000000E-01  1.50000000E+00  8.00000000E-01  8.00000000E-01
  1.50000000E+00  8.00000000E-01  8.00000000E-01  1.50000000E+00  8.00000000E-01
  8.00000000E-01  1.50000000E+00  8.00000000E-01  8.00000000E-01  1.50000000E+00
  8.00000000E-01  8.00000000E-01  1.50000000E+00  8.00000000E-01  8.00000000E-01
  1.50000000E+00  8.00000000E-01  8.00000000E-01  1.50000000E+00  8.00000000E-01
  8.00000000E-01  1.50000000E+00  8.00000000E-01  8.00000000E-01  1.50000000E+00
  8.00000000E-01  8.00000000E-01  1.50000000E+00  8.00000000E-01  8.00000000E-01
  1.50000000E+00  8.00000000E-01  8.00000000E-01  1.50000000E+00  8.00000000E-01
  8.00000000E-01  1.50000000E+00  8.00000000E-01  8.00000000E-01  1.50000000E+00
  8.00000000E-01  8.00000000E-01  1.50000000E+00  8.00000000E-01  8.00000000E-01
  1.50000000E+00  8.00000000E-01  8.00000000E-01  1.50000000E+00  8.00000000E-01
  8.00000000E-01  1.50000000E+00  8.00000000E-01  8.00000000E-01  1.50000000E+00
  8.00000000E-01  8.00000000E-01  1.50000000E+00  8.00000000E-01  8.00000000E-01
  1.50000000E+00  8.00000000E-01  8.00000000E-01  1.50000000E+00  8.00000000E-01
  8.00000000E-01  1.50000000E+00  8.00000000E-01  8.00000000E-01  1.50000000E+00
  8.00000000E-01  8.00000000E-01  1.50000000E+00  8.00000000E-01  8.00000000E-01
  1.50000000E+00  8.00000000E-01  8.00000000E-01  1.50000000E+00  8.00000000E-01
  8.00000000E-01  1.50000000E+00  8.00000000E-01  8.00000000E-01  1.50000000E+00
  8.00000000E-01  8.00000000E-01  1.50000000E+00  8.00000000E-01  8.00000000E-01
  1.50000000E+00  8.00000000E-01  8.00000000E-01  1.50000000E+00  8.00000000E-01
  8.00000000E-01  1.50000000E+00  8.00000000E-01  8.00000000E-01  1.50000000E+00
  8.00000000E-01  8.00000000E-01  1.50000000E+00  8.00000000E-01  8.00000000E-01
  1.50000000E+00  8.00000000E-01  8.00000000E-01  1.50000000E+00  8.00000000E-01
  8.00000000E-01  1.50000000E+00  8.00000000E-01  8.00000000E-01  1.50000000E+00
  8.00000000E-01  8.00000000E-01  1.50000000E+00  8.00000000E-01  8.00000000E-01
  1.50000000E+00  8.00000000E-01  8.00000000E-01  1.50000000E+00  8.00000000E-01
  8.00000000E-01  1.50000000E+00  8.00000000E-01  8.00000000E-01  1.50000000E+00
  8.00000000E-01  8.00000000E-01  1.50000000E+00  8.00000000E-01  8.00000000E-01
  1.50000000E+00  8.00000000E-01  8.00000000E-01  1.50000000E+00  8.00000000E-01
  8.00000000E-01  1.50000000E+00  8.00000000E-01  8.00000000E-01  1.50000000E+00
  8.00000000E-01  8.00000000E-01  1.50000000E+00  8.00000000E-01  8.00000000E-01
  1.50000000E+00  8.00000000E-01  8.00000000E-01  1.50000000E+00  8.00000000E-01
  8.00000000E-01  1.50000000E+00  8.00000000E-01  8.00000000E-01  1.50000000E+00
  8.00000000E-01  8.00000000E-01  1.50000000E+00  8.00000000E-01  8.00000000E-01
  1.50000000E+00  8.00000000E-01  8.00000000E-01  1.50000000E+00  8.00000000E-01
  8.00000000E-01  1.50000000E+00  8.00000000E-01  8.00000000E-01  1.50000000E+00
  8.00000000E-01  8.00000000E-01  1.50000000E+00  8.00000000E-01  8.00000000E-01
  1.50000000E+00  8.00000000E-01  8.00000000E-01  1.50000000E+00  8.00000000E-01
  8.00000000E-01  1.50000000E+00  8.00000000E-01  8.00000000E-01  1.50000000E+00
  8.00000000E-01  8.00000000E-01  1.50000000E+00  8.00000000E-01  8.00000000E-01
  1.50000000E+00  8.00000000E-01  8.00000000E-01  1.50000000E+00  8.00000000E-01
  8.00000000E-01  1.50000000E+00  8.00000000E-01  8.00000000E-01  1.50000000E+00
  8.00000000E-01  8.00000000E-01  1.50000000E+00  8.00000000E-01  8.00000000E-01
  1.50000000E+00  8.00000000E-01  8.00000000E-01  1.50000000E+00  8.00000000E-01
  8.00000000E-01  1.50000000E+00  8.00000000E-01  8.00000000E-01  1.50000000E+00
  8.00000000E-01  8.00000000E-01  1.50000000E+00  8.00000000E-01  8.00000000E-01
  1.50000000E+00  8.00000000E-01  8.00000000E-01  1.50000000E+00  8.00000000E-01
  8.00000000E-01  1.50000000E+00  8.00000000E-01  8.00000000E-01  1.50000000E+00
  8.00000000E-01  8.00000000E-01  1.50000000E+00  8.00000000E-01  8.00000000E-01
  1.50000000E+00  8.00000000E-01  8.00000000E-01  1.50000000E+00  8.00000000E-01
  8.00000000E-01  1.50000000E+00  8.00000000E-01  8.00000000E-01  1.50000000E+00
  8.00000000E-01  8.00000000E-01  1.50000000E+00  8.00000000E-01  8.00000000E-01
  1.50000000E+00  8.00000000E-01  8.00000000E-01  1.50000000E+00  8.00000000E-01
  8.00000000E-01  1.50000000E+00  8.00000000E-01  8.00000000E-01  1.50000000E+00
  8.00000000E-01  8.00000000E-01  1.50000000E+00  8.00000000E-01  8.00000000E-01
  1.50000000E+00  8.00000000E-01  8.00000000E-01  1.50000000E+00  8.00000000E-01
  8.00000000E-01  1.50000000E+00  8.00000000E-01  8.00000000E-01  1.50000000E+00
  8.00000000E-01  8.00000000E-01  1.50000000E+00  8.00000000E-01  8.00000000E-01
  1.50000000E+00  8.00000000E-01  8.00000000E-01  1.50000000E+00  8.00000000E-01
  8.00000000E-01  1.50000000E+00  8.00000000E-01  8.00000000E-01  1.50000000E+00
  8.00000000E-01  8.00000000E-01  1.50000000E+00  8.00000000E-01  8.00000000E-01
  1.50000000E+00  8.00000000E-01  8.00000000E-01  1.50000000E+00  8.00000000E-01
  8.00000000E-01  1.50000000E+00  8.00000000E-01  8.00000000E-01  1.50000000E+00
  8.00000000E-01  8.00000000E-01  1.50000000E+00  8.00000000E-01  8.00000000E-01
  1.50000000E+00  8.00000000E-01  8.00000000E-01  1.50000000E+00  8.00000000E-01
  8.00000000E-01  1.50000000E+00  8.00000000E-01  8.00000000E-01  1.50000000E+00
  8.00000000E-01  8.00000000E-01  1.50000000E+00  8.00000000E-01  8.00000000E-01
  1.50000000E+00  8.00000000E-01  8.00000000E-01  1.50000000E+00  8.00000000E-01
  8.00000000E-01  1.50000000E+00  8.00000000E-01  8.00000000E-01  1.50000000E+00
  8.00000000E-01  8.00000000E-01  1.50000000E+00  8.00000000E-01  8.00000000E-01
  1.50000000E+00  8.00000000E-01  8.00000000E-01  1.50000000E+00  8.00000000E-01
  8.00000000E-01  1.50000000E+00  8.00000000E-01  8.00000000E-01  1.50000000E+00
  8.00000000E-01  8.00000000E-01  1.50000000E+00  8.00000000E-01  8.00000000E-01
  1.50000000E+00  8.00000000E-01  8.00000000E-01  1.50000000E+00  8.00000000E-01
  8.00000000E-01  1.50000000E+00  8.00000000E-01  8.00000000E-01  1.50000000E+00
  8.00000000E-01  8.00000000E-01  1.50000000E+00  8.00000000E-01  8.00000000E-01
  1.50000000E+00  8.00000000E-01  8.00000000E-01  1.50000000E+00  8.00000000E-01
  8.00000000E-01  1.50000000E+00  8.00000000E-01  8.00000000E-01  1.50000000E+00
  8.00000000E-01  8.00000000E-01  1.50000000E+00  8.00000000E-01  8.00000000E-01
  1.50000000E+00  8.00000000E-01  8.00000000E-01  1.50000000E+00  8.00000000E-01
  8.00000000E-01  1.50000000E+00  8.00000000E-01  8.00000000E-01  1.50000000E+00
  8.00000000E-01  8.00000000E-01  1.50000000E+00  8.00000000E-01  8.00000000E-01
  1.50000000E+00  8.00000000E-01  8.00000000E-01  1.50000000E+00  8.00000000E-01
  8.00000000E-01  1.50000000E+00  8.00000000E-01  8.00000000E-01  1.50000000E+00
  8.00000000E-01  8.00000000E-01  1.50000000E+00  8.00000000E-01  8.00000000E-01
  1.50000000E+00  8.00000000E-01  8.00000000E-01  1.50000000E+00  8.00000000E-01
  8.00000000E-01  1.50000000E+00  8.00000000E-01  8.00000000E-01  1.50000000E+00
  8.00000000E-01  8.00000000E-01  1.50000000E+00  8.00000000E-01  8.00000000E-01
  1.50000000E+00  8.00000000E-01  8.00000000E-01  1.50000000E+00  8.00000000E-01
  8.00000000E-01  1.50000000E+00  8.00000000E-01  8.00000000E-01  1.50000000E+00
  8.00000000E-01  8.00000000E-01  1.50000000E+00  8.00000000E-01  8.00000000E-01
  1.50000000E+00  8.00000000E-01  8.00000000E-01  1.50000000E+00  8.00000000E-01
  8.00000000E-01  1.50000000E+00  8.00000000E-01  8.00000000E-01  1.50000000E+00
  8.00000000E-01  8.00000000E-01  1.50000000E+00  8.00000000E-01  8.00000000E-01
  1.50000000E+00  8.00000000E-01  8.00000000E-01  1.50000000E+00  8.00000000E-01
  8.00000000E-01  1.50000000E+00  8.00000000E-01  8.00000000E-01  1.50000000E+00
  8.00000000E-01  8.00000000E-01  1.50000000E+00  8.00000000E-01  8.00000000E-01
  1.50000000E+00  8.00000000E-01  8.00000000E-01  1.50000000E+00  8.00000000E-01
  8.00000000E-01  1.50000000E+00  8.00000000E-01  8.00000000E-01  1.50000000E+00
  8.00000000E-01  8.00000000E-01  1.50000000E+00  8.00000000E-01  8.00000000E-01
  1.50000000E+00  8.00000000E-01  8.00000000E-01  1.50000000E+00  8.00000000E-01
  8.00000000E-01  1.50000000E+00  8.00000000E-01  8.00000000E-01  1.50000000E+00
  8.00000000E-01  8.00000000E-01  1.50000000E+00  8.00000000E-01  8.00000000E-01
  1.50000000E+00  8.00000000E-01  8.00000000E-01  1.50000000E+00  8.00000000E-01
  8.00000000E-01  1.50000000E+00  8.00000000E-01  8.00000000E-01  1.50000000E+00
  8.00000000E-01  8.00000000E-01  1.50000000E+00  8.00000000E-01  8.00000000E-01
  1.50000000E+00  8.00000000E-01  8.00000000E-01  1.50000000E+00  8.00000000E-01
  8.00000000E-01  1.50000000E+00  8.00000000E-01  8.00000000E-01  1.50000000E+00
  8.00000000E-01  8.00000000E-01  1.50000000E+00  8.00000000E-01  8.00000000E-01
  1.50000000E+00  8.00000000E-01  8.00000000E-01  1.50000000E+00  8.00000000E-01
  8.00000000E-01  1.50000000E+00  8.00000000E-01  8.00000000E-01  1.50000000E+00
  8.00000000E-01  8.00000000E-01  1.50000000E+00  8.00000000E-01  8.00000000E-01
  1.50000000E+00  8.00000000E-01  8.00000000E-01  1.50000000E+00  8.00000000E-01
  8.00000000E-01  1.50000000E+00  8.00000000E-01  8.00000000E-01  1.50000000E+00
  8.00000000E-01  8.00000000E-01  1.50000000E+00  8.00000000E-01  8.00000000E-01
  1.50000000E+00  8.00000000E-01  8.00000000E-01  1.50000000E+00  8.00000000E-01
  8.00000000E-01  1.50000000E+00  8.00000000E-01  8.00000000E-01  1.50000000E+00
  8.00000000E-01  8.00000000E-01  1.50000000E+00  8.00000000E-01  8.00000000E-01
  1.50000000E+00  8.00000000E-01  8.00000000E-01  1.50000000E+00  8.00000000E-01
  8.00000000E-01  1.50000000E+00  8.00000000E-01  8.00000000E-01  1.50000000E+00
  8.00000000E-01  8.00000000E-01  1.50000000E+00  8.00000000E-01  8.00000000E-01
  1.50000000E+00  8.00000000E-01  8.00000000E-01  1.50000000E+00  8.00000000E-01
  8.00000000E-01  1.50000000E+00  8.00000000E-01  8.00000000E-01  1.50000000E+00
  8.00000000E-01  8.00000000E-01  1.50000000E+00  8.00000000E-01  8.00000000E-01
  1.50000000E+00  8.00000000E-01  8.00000000E-01  1.50000000E+00  8.00000000E-01
  8.00000000E-01  1.50000000E+00  8.00000000E-01  8.00000000E-01  1.50000000E+00
  8.00000000E-01  8.00000000E-01  1.50000000E+00  8.00000000E-01  8.00000000E-01
  1.50000000E+00  8.00000000E-01  8.00000000E-01  1.50000000E+00  8.00000000E-01
  8.00000000E-01  1.50000000E+00  8.00000000E-01  8.00000000E-01  1.50000000E+00
  8.00000000E-01  8.00000000E-01  1.50000000E+00  8.00000000E-01  8.00000000E-01
  1.50000000E+00  8.00000000E-01  8.00000000E-01  1.50000000E+00  8.00000000E-01
  8.00000000E-01  1.50000000E+00  8.00000000E-01  8.00000000E-01  1.50000000E+00
  8.00000000E-01  8.00000000E-01  1.50000000E+00  8.00000000E-01  8.00000000E-01
  1.50000000E+00  8.00000000E-01  8.00000000E-01  1.50000000E+00  8.00000000E-01
  8.00000000E-01  1.50000000E+00  8.00000000E-01  8.00000000E-01  1.50000000E+00
  8.00000000E-01  8.00000000E-01  1.50000000E+00  8.00000000E-01  8.00000000E-01
  1.50000000E+00  8.00000000E-01  8.00000000E-01  1.50000000E+00  8.00000000E-01
  8.00000000E-01  1.50000000E+00  8.00000000E-01  8.00000000E-01  1.50000000E+00
  8.00000000E-01  8.00000000E-01  1.50000000E+00  8.00000000E-01  8.00000000E-01
  1.50000000E+00  8.00000000E-01  8.00000000E-01  1.50000000E+00  8.00000000E-01
  8.00000000E-01  1.50000000E+00  8.00000000E-01  8.00000000E-01  1.50000000E+00
  8.00000000E-01  8.00000000E-01  1.50000000E+00  8.00000000E-01  8.00000000E-01
  1.50000000E+00  8.00000000E-01  8.00000000E-01  1.50000000E+00  8.00000000E-01
  8.00000000E-01  1.50000000E+00  8.00000000E-01  8.00000000E-01  1.50000000E+00
  8.00000000E-01  8.00000000E-01  1.50000000E+00  8.00000000E-01  8.00000000E-01
  1.50000000E+00  8.00000000E-01  8.00000000E-01  1.50000000E+00  8.00000000E-01
  8.00000000E-01  1.50000000E+00  8.00000000E-01  8.00000000E-01  1.50000000E+00
  8.00000000E-01  8.00000000E-01  1.50000000E+00  8.00000000E-01  8.00000000E-01
  1.50000000E+00  8.00000000E-01  8.00000000E-01  1.50000000E+00  8.00000000E-01
  8.00000000E-01  1.50000000E+00  8.00000000E-01  8.00000000E-01  1.50000000E+00
  8.00000000E-01  8.00000000E-01  1.50000000E+00  8.00000000E-01  8.00000000E-01
  1.50000000E+00  8.00000000E-01  8.00000000E-01  1.50000000E+00  8.00000000E-01
  8.00000000E-01  1.50000000E+00  8.00000000E-01  8.00000000E-01  1.50000000E+00
  8.00000000E-01  8.00000000E-01  1.50000000E+00  8.00000000E-01  8.00000000E-01
  1.50000000E+00  8.00000000E-01  8.00000000E-01  1.50000000E+00  8.00000000E-01
  8.00000000E-01  1.50000000E+00  8.00000000E-01  8.00000000E-01  1.50000000E+00
  8.00000000E-01  8.00000000E-01  1.50000000E+00  8.00000000E-01  8.00000000E-01
  1.50000000E+00  8.00000000E-01  8.00000000E-01  1.50000000E+00  8.00000000E-01
  8.00000000E-01  1.50000000E+00  8.00000000E-01  8.00000000E-01  1.50000000E+00
  8.00000000E-01  8.00000000E-01  1.50000000E+00  8.00000000E-01  8.00000000E-01
  1.50000000E+00  8.00000000E-01  8.00000000E-01  1.50000000E+00  8.00000000E-01
  8.00000000E-01  1.50000000E+00  8.00000000E-01  8.00000000E-01  1.50000000E+00
  8.00000000E-01  8.00000000E-01  1.50000000E+00  8.00000000E-01  8.00000000E-01
  1.50000000E+00  8.00000000E-01  8.00000000E-01  1.50000000E+00  8.00000000E-01
  8.00000000E-01  1.50000000E+00  8.00000000E-01  8.00000000E-01  1.50000000E+00
  8.00000000E-01  8.00000000E-01  1.50000000E+00  8.00000000E-01  8.00000000E-01
  1.50000000E+00  8.00000000E-01  8.00000000E-01  1.50000000E+00  8.00000000E-01
  8.00000000E-01  1.50000000E+00  8.00000000E-01  8.00000000E-01  1.50000000E+00
  8.00000000E-01  8.00000000E-01  1.50000000E+00  8.00000000E-01  8.00000000E-01
  1.50000000E+00  8.00000000E-01  8.00000000E-01  1.50000000E+00  8.00000000E-01
  8.00000000E-01  1.50000000E+00  8.00000000E-01  8.00000000E-01  1.50000000E+00
  8.00000000E-01  8.00000000E-01  1.50000000E+00  8.00000000E-01  8.00000000E-01
  1.50000000E+00  8.00000000E-01  8.00000000E-01  1.50000000E+00  8.00000000E-01
  8.00000000E-01  1.50000000E+00  8.00000000E-01  8.00000000E-01  1.50000000E+00
  8.00000000E-01  8.00000000E-01  1.50000000E+00  8.00000000E-01  8.00000000E-01
  1.50000000E+00  8.00000000E-01  8.00000000E-01  1.50000000E+00  8.00000000E-01
  8.00000000E-01  1.50000000E+00  8.00000000E-01  8.00000000E-01  1.50000000E+00
  8.00000000E-01  8.00000000E-01  1.50000000E+00  8.00000000E-01  8.00000000E-01
  1.50000000E+00  8.00000000E-01  8.00000000E-01  1.50000000E+00  8.00000000E-01
  8.00000000E-01  1.50000000E+00  8.00000000E-01  8.00000000E-01  1.50000000E+00
  8.00000000E-01  8.00000000E-01  1.50000000E+00  8.00000000E-01  8.00000000E-01
  1.50000000E+00  8.00000000E-01  8.00000000E-01  1.50000000E+00  8.00000000E-01
  8.00000000E-01  1.50000000E+00  8.00000000E-01  8.00000000E-01  1.50000000E+00
  8.00000000E-01  8.00000000E-01  1.50000000E+00  8.00000000E-01  8.00000000E-01
  1.50000000E+00  8.00000000E-01  8.00000000E-01  1.50000000E+00  8.00000000E-01
  8.00000000E-01  1.50000000E+00  8.00000000E-01  8.00000000E-01  1.50000000E+00
  8.00000000E-01  8.00000000E-01  1.50000000E+00  8.00000000E-01  8.00000000E-01
  1.50000000E+00  8.00000000E-01  8.00000000E-01  1.50000000E+00  8.00000000E-01
  8.00000000E-01  1.50000000E+00  8.00000000E-01  8.00000000E-01  1.50000000E+00
  8.00000000E-01  8.00000000E-01  1.50000000E+00  8.00000000E-01  8.00000000E-01
  1.50000000E+00  8.00000000E-01  8.00000000E-01  1.50000000E+00  8.00000000E-01
  8.00000000E-01  1.50000000E+00  8.00000000E-01  8.00000000E-01  1.50000000E+00
  8.00000000E-01  8.00000000E-01  1.50000000E+00  8.00000000E-01  8.00000000E-01
  1.50000000E+00  8.00000000E-01  8.00000000E-01  1.50000000E+00  8.00000000E-01
  8.00000000E-01  1.50000000E+00  8.00000000E-01  8.00000000E-01  1.50000000E+00
  8.00000000E-01  8.00000000E-01  1.50000000E+00  8.00000000E-01  8.00000000E-01
  1.50000000E+00  8.00000000E-01  8.00000000E-01  1.50000000E+00  8.00000000E-01
  8.00000000E-01  1.50000000E+00  8.00000000E-01  8.00000000E-01  1.50000000E+00
  8.00000000E-01  8.00000000E-01  1.50000000E+00  8.00000000E-01  8.00000000E-01
  1.50000000E+00  8.00000000E-01  8.00000000E-01  1.50000000E+00  8.00000000E-01
  8.00000000E-01  1.50000000E+00  8.00000000E-01  8.00000000E-01  1.50000000E+00
  8.00000000E-01  8.00000000E-01  1.50000000E+00  8.00000000E-01  8.00000000E-01
  1.50000000E+00  8.00000000E-01  8.00000000E-01  1.50000000E+00  8.00000000E-01
  8.00000000E-01  1.50000000E+00  8.00000000E-01  8.00000000E-01  1.50000000E+00
  8.00000000E-01  8.00000000E-01  1.50000000E+00  8.00000000E-01  8.00000000E-01
  1.50000000E+00  8.00000000E-01  8.00000000E-01  1.50000000E+00  8.00000000E-01
  8.00000000E-01  1.50000000E+00  8.00000000E-01  8.00000000E-01  1.50000000E+00
  8.00000000E-01  8.00000000E-01  1.50000000E+00  8.00000000E-01  8.00000000E-01
  1.50000000E+00  8.00000000E-01  8.00000000E-01  1.50000000E+00  8.00000000E-01
  8.00000000E-01  1.50000000E+00  8.00000000E-01  8.00000000E-01  1.50000000E+00
  8.00000000E-01  8.00000000E-01  1.50000000E+00  8.00000000E-01  8.00000000E-01
  1.50000000E+00  8.00000000E-01  8.00000000E-01  1.50000000E+00  8.00000000E-01
  8.00000000E-01  1.50000000E+00  8.00000000E-01  8.00000000E-01  1.50000000E+00
  8.00000000E-01  8.00000000E-01  1.50000000E+00  8.00000000E-01  8.00000000E-01
  1.50000000E+00  8.00000000E-01  8.00000000E-01  1.50000000E+00  8.00000000E-01
  8.00000000E-01  1.50000000E+00  8.00000000E-01  8.00000000E-01  1.50000000E+00
  8.00000000E-01  8.00000000E-01  1.50000000E+00  8.00000000E-01  8.00000000E-01
  1.50000000E+00  8.00000000E-01  8.00000000E-01  1.50000000E+00  8.00000000E-01
  8.00000000E-01  1.50000000E+00  8.00000000E-01  8.00000000E-01  1.50000000E+00
  8.00000000E-01  8.00000000E-01  1.50000000E+00  8.00000000E-01  8.00000000E-01
  1.50000000E+00  8.00000000E-01  8.00000000E-01  1.50000000E+00  8.00000000E-01
  8.00000000E-01  1.50000000E+00  8.00000000E-01  8.00000000E-01  1.50000000E+00
  8.00000000E-01  8.00000000E-01  1.50000000E+00  8.00000000E-01  8.00000000E-01
  1.50000000E+00  8.00000000E-01  8.00000000E-01  1.50000000E+00  8.00000000E-01
  8.00000000E-01  1.50000000E+00  8.00000000E-01  8.00000000E-01  1.50000000E+00
  8.00000000E-01  8.00000000E-01  1.50000000E+00  8.00000000E-01  8.00000000E-01
  1.50000000E+00  8.00000000E-01  8.00000000E-01  1.50000000E+00  8.00000000E-01
  8.00000000E-01  1.50000000E+00  8.00000000E-01  8.00000000E-01  1.50000000E+00
  8.00000000E-01  8.00000000E-01  1.50000000E+00  8.00000000E-01  8.00000000E-01
  1.50000000E+00  8.00000000E-01  8.00000000E-01  1.50000000E+00  8.00000000E-01
  8.00000000E-01  1.50000000E+00  8.00000000E-01  8.00000000E-01  1.50000000E+00
  8.00000000E-01  8.00000000E-01  1.50000000E+00  8.00000000E-01  8.00000000E-01
  1.50000000E+00  8.00000000E-01  8.00000000E-01  1.50000000E+00  8.00000000E-01
  8.00000000E-01  1.50000000E+00  8.00000000E-01  8.00000000E-01  1.50000000E+00
  8.00000000E-01  8.00000000E-01  1.50000000E+00  8.00000000E-01  8.00000000E-01
  1.50000000E+00  8.00000000E-01  8.00000000E-01  1.50000000E+00  8.00000000E-01
  8.00000000E-01  1.50000000E+00  8.00000000E-01  8.00000000E-01  1.50000000E+00
  8.00000000E-01  8.00000000E-01  1.50000000E+00  8.00000000E-01  8.00000000E-01
  1.50000000E+00  8.00000000E-01  8.00000000E-01  1.50000000E+00  8.00000000E-01
  8.00000000E-01  1.50000000E+00  8.00000000E-01  8.00000000E-01  1.50000000E+00
  8.00000000E-01  8.00000000E-01  1.50000000E+00  8.00000000E-01  8.00000000E-01
  1.50000000E+00  8.00000000E-01  8.00000000E-01  1.50000000E+00  8.00000000E-01
  8.00000000E-01  1.50000000E+00  8.00000000E-01  8.00000000E-01  1.50000000E+00
  8.00000000E-01  8.00000000E-01  1.50000000E+00  8.00000000E-01  8.00000000E-01
  1.50000000E+00  8.00000000E-01  8.00000000E-01  1.50000000E+00  8.00000000E-01
  8.00000000E-01  1.50000000E+00  8.00000000E-01  8.00000000E-01  1.50000000E+00
  8.00000000E-01  8.00000000E-01  1.50000000E+00  8.00000000E-01  8.00000000E-01
  1.50000000E+00  8.00000000E-01  8.00000000E-01  1.50000000E+00  8.00000000E-01
  8.00000000E-01  1.50000000E+00  8.00000000E-01  8.00000000E-01  1.50000000E+00
  8.00000000E-01  8.00000000E-01  1.50000000E+00  8.00000000E-01  8.00000000E-01
  1.50000000E+00  8.00000000E-01  8.00000000E-01  1.50000000E+00  8.00000000E-01
  8.00000000E-01  1.50000000E+00  8.00000000E-01  8.00000000E-01  1.50000000E+00
  8.00000000E-01  8.00000000E-01  1.50000000E+00  8.00000000E-01  8.00000000E-01
  1.50000000E+00  8.00000000E-01  8.00000000E-01  1.50000000E+00  8.00000000E-01
  8.00000000E-01  1.50000000E+00  8.00000000E-01  8.00000000E-01  1.50000000E+00
  8.00000000E-01  8.00000000E-01  1.50000000E+00  8.00000000E-01  8.00000000E-01
  1.50000000E+00  8.00000000E-01  8.00000000E-01  1.50000000E+00  8.00000000E-01
  8.00000000E-01  1.50000000E+00  8.00000000E-01  8.00000000E-01  1.50000000E+00
  8.00000000E-01  8.00000000E-01  1.50000000E+00  8.00000000E-01  8.00000000E-01
  1.50000000E+00  8.00000000E-01  8.00000000E-01  1.50000000E+00  8.00000000E-01
  8.00000000E-01  1.50000000E+00  8.00000000E-01  8.00000000E-01  1.50000000E+00
  8.00000000E-01  8.00000000E-01  1.50000000E+00  8.00000000E-01  8.00000000E-01
  1.50000000E+00  8.00000000E-01  8.00000000E-01  1.50000000E+00  8.00000000E-01
  8.00000000E-01  1.50000000E+00  8.00000000E-01  8.00000000E-01  1.50000000E+00
  8.00000000E-01  8.00000000E-01  1.50000000E+00  8.00000000E-01  8.00000000E-01
  1.50000000E+00  8.00000000E-01  8.00000000E-01  1.50000000E+00  8.00000000E-01
  8.00000000E-01  1.50000000E+00  8.00000000E-01  8.00000000E-01  1.50000000E+00
  8.00000000E-01  8.00000000E-01  1.50000000E+00  8.00000000E-01  8.00000000E-01
  1.50000000E+00  8.00000000E-01  8.00000000E-01  1.50000000E+00  8.00000000E-01
  8.00000000E-01  1.50000000E+00  8.00000000E-01  8.00000000E-01  1.50000000E+00
  8.00000000E-01  8.00000000E-01  1.50000000E+00  8.00000000E-01  8.00000000E-01
  1.50000000E+00  8.00000000E-01  8.00000000E-01  1.50000000E+00  8.00000000E-01
  8.00000000E-01  1.50000000E+00  8.00000000E-01  8.00000000E-01  1.50000000E+00
  8.00000000E-01  8.00000000E-01  1.50000000E+00  8.00000000E-01  8.00000000E-01
  1.50000000E+00  8.00000000E-01  8.00000000E-01  1.50000000E+00  8.00000000E-01
  8.00000000E-01  1.50000000E+00  8.00000000E-01  8.00000000E-01  1.50000000E+00
  8.00000000E-01  8.00000000E-01  1.50000000E+00  8.00000000E-01  8.00000000E-01
  1.50000000E+00  8.00000000E-01  8.00000000E-01  1.50000000E+00  8.00000000E-01
  8.00000000E-01  1.50000000E+00  8.00000000E-01  8.00000000E-01  1.50000000E+00
  8.00000000E-01  8.00000000E-01  1.50000000E+00  8.00000000E-01  8.00000000E-01
  1.50000000E+00  8.00000000E-01  8.00000000E-01  1.50000000E+00  8.00000000E-01
  8.00000000E-01  1.50000000E+00  8.00000000E-01  8.00000000E-01  1.50000000E+00
  8.00000000E-01  8.00000000E-01  1.50000000E+00  8.00000000E-01  8.00000000E-01
  1.50000000E+00  8.00000000E-01  8.00000000E-01  1.50000000E+00  8.00000000E-01
  8.00000000E-01  1.50000000E+00  8.00000000E-01  8.00000000E-01  1.50000000E+00
  8.00000000E-01  8.00000000E-01  1.50000000E+00  8.00000000E-01  8.00000000E-01
  1.50000000E+00  8.00000000E-01  8.00000000E-01  1.50000000E+00  8.00000000E-01
  8.00000000E-01  1.50000000E+00  8.00000000E-01  8.00000000E-01  1.50000000E+00
  8.00000000E-01  8.00000000E-01  1.50000000E+00  8.00000000E-01  8.00000000E-01
  1.50000000E+00  8.00000000E-01  8.00000000E-01  1.50000000E+00  8.00000000E-01
  8.00000000E-01  1.50000000E+00  8.00000000E-01  8.00000000E-01  1.50000000E+00
  8.00000000E-01  8.00000000E-01  1.50000000E+00  8.00000000E-01  8.00000000E-01
  1.50000000E+00  8.00000000E-01  8.00000000E-01  1.50000000E+00  8.00000000E-01
  8.00000000E-01  1.50000000E+00  8.00000000E-01  8.00000000E-01  1.50000000E+00
  8.00000000E-01  8.00000000E-01  1.50000000E+00  8.00000000E-01  8.00000000E-01
  1.50000000E+00  8.00000000E-01  8.00000000E-01  1.50000000E+00  8.00000000E-01
  8.00000000E-01  1.50000000E+00  8.00000000E-01  8.00000000E-01  1.50000000E+00
  8.00000000E-01  8.00000000E-01  1.50000000E+00  8.00000000E-01  8.00000000E-01
  1.50000000E+00  8.00000000E-01  8.00000000E-01  1.50000000E+00  8.00000000E-01
  8.00000000E-01  1.50000000E+00  8.00000000E-01  8.00000000E-01  1.50000000E+00
  8.00000000E-01  8.00000000E-01  1.50000000E+00  8.00000000E-01  8.00000000E-01
  1.50000000E+00  8.00000000E-01  8.00000000E-01  1.50000000E+00  8.00000000E-01
  8.00000000E-01  1.50000000E+00  8.00000000E-01  8.00000000E-01  1.50000000E+00
  8.00000000E-01  8.00000000E-01  1.50000000E+00  8.00000000E-01  8.00000000E-01
  1.50000000E+00  8.00000000E-01  8.00000000E-01  1.50000000E+00  8.00000000E-01
  8.00000000E-01  1.50000000E+00  8.00000000E-01  8.00000000E-01  1.50000000E+00
  8.00000000E-01  8.00000000E-01  1.50000000E+00  8.00000000E-01  8.00000000E-01
  1.50000000E+00  8.00000000E-01  8.00000000E-01  1.50000000E+00  8.00000000E-01
  8.00000000E-01  1.50000000E+00  8.00000000E-01  8.00000000E-01  1.50000000E+00
  8.00000000E-01  8.00000000E-01  1.50000000E+00  8.00000000E-01  8.00000000E-01
  1.50000000E+00  8.00000000E-01  8.00000000E-01  1.50000000E+00  8.00000000E-01
  8.00000000E-01  1.50000000E+00  8.00000000E-01  8.00000000E-01  1.50000000E+00
  8.00000000E-01  8.00000000E-01  1.50000000E+00  8.00000000E-01  8.00000000E-01
  1.50000000E+00  8.00000000E-01  8.00000000E-01  1.50000000E+00  8.00000000E-01
  8.00000000E-01  1.50000000E+00  8.00000000E-01  8.00000000E-01  1.50000000E+00
  8.00000000E-01  8.00000000E-01  1.50000000E+00  8.00000000E-01  8.00000000E-01
  1.50000000E+00  8.00000000E-01  8.00000000E-01  1.50000000E+00  8.00000000E-01
  8.00000000E-01  1.50000000E+00  8.00000000E-01  8.00000000E-01  1.50000000E+00
  8.00000000E-01  8.00000000E-01  1.50000000E+00  8.00000000E-01  8.00000000E-01
  1.50000000E+00  8.00000000E-01  8.00000000E-01  1.50000000E+00  8.00000000E-01
  8.00000000E-01  1.50000000E+00  8.00000000E-01  8.00000000E-01  1.50000000E+00
  8.00000000E-01  8.00000000E-01  1.50000000E+00  8.00000000E-01  8.00000000E-01
  1.50000000E+00  8.00000000E-01  8.00000000E-01  1.50000000E+00  8.00000000E-01
  8.00000000E-01  1.50000000E+00  8.00000000E-01  8.00000000E-01  1.50000000E+00
  8.00000000E-01  8.00000000E-01  1.50000000E+00  8.00000000E-01  8.00000000E-01
  1.50000000E+00  8.00000000E-01  8.00000000E-01  1.50000000E+00  8.00000000E-01
  8.00000000E-01  1.50000000E+00  8.00000000E-01  8.00000000E-01  1.50000000E+00
  8.00000000E-01  8.00000000E-01  1.50000000E+00  8.00000000E-01  8.00000000E-01
  1.50000000E+00  8.00000000E-01  8.00000000E-01  1.50000000E+00  8.00000000E-01
  8.00000000E-01  1.50000000E+00  8.00000000E-01  8.00000000E-01  1.50000000E+00
  8.00000000E-01  8.00000000E-01  1.50000000E+00  8.00000000E-01  8.00000000E-01
  1.50000000E+00  8.00000000E-01  8.00000000E-01  1.50000000E+00  8.00000000E-01
  8.00000000E-01  1.50000000E+00  8.00000000E-01  8.00000000E-01  1.50000000E+00
  8.00000000E-01  8.00000000E-01  1.50000000E+00  8.00000000E-01  8.00000000E-01
  1.50000000E+00  8.00000000E-01  8.00000000E-01  1.50000000E+00  8.00000000E-01
  8.00000000E-01  1.50000000E+00  8.00000000E-01  8.00000000E-01  1.50000000E+00
  8.00000000E-01  8.00000000E-01  1.50000000E+00  8.00000000E-01  8.00000000E-01
  1.50000000E+00  8.00000000E-01  8.00000000E-01  1.50000000E+00  8.00000000E-01
  8.00000000E-01  1.50000000E+00  8.00000000E-01  8.00000000E-01  1.50000000E+00
  8.00000000E-01  8.00000000E-01  1.50000000E+00  8.00000000E-01  8.00000000E-01
  1.50000000E+00  8.00000000E-01  8.00000000E-01  1.50000000E+00  8.00000000E-01
  8.00000000E-01  1.50000000E+00  8.00000000E-01  8.00000000E-01  1.50000000E+00
  8.00000000E-01  8.00000000E-01  1.50000000E+00  8.00000000E-01  8.00000000E-01
  1.50000000E+00  8.00000000E-01  8.00000000E-01  1.50000000E+00  8.00000000E-01
  8.00000000E-01  1.50000000E+00  8.00000000E-01  8.00000000E-01  1.50000000E+00
  8.00000000E-01  8.00000000E-01  1.50000000E+00  8.00000000E-01  8.00000000E-01
  1.50000000E+00  8.00000000E-01  8.00000000E-01  1.50000000E+00  8.00000000E-01
  8.00000000E-01  1.50000000E+00  8.00000000E-01  8.00000000E-01  1.50000000E+00
  8.00000000E-01  8.00000000E-01  1.50000000E+00  8.00000000E-01  8.00000000E-01
  1.50000000E+00  8.00000000E-01  8.00000000E-01  1.50000000E+00  8.00000000E-01
  8.00000000E-01  1.50000000E+00  8.00000000E-01  8.00000000E-01  1.50000000E+00
  8.00000000E-01  8.00000000E-01  1.50000000E+00  8.00000000E-01  8.00000000E-01
  1.50000000E+00  8.00000000E-01  8.00000000E-01  1.50000000E+00  8.00000000E-01
  8.00000000E-01  1.50000000E+00  8.00000000E-01  8.00000000E-01  1.50000000E+00
  8.00000000E-01  8.00000000E-01  1.50000000E+00  8.00000000E-01  8.00000000E-01
  1.50000000E+00  8.00000000E-01  8.00000000E-01  1.50000000E+00  8.00000000E-01
  8.00000000E-01  1.50000000E+00  8.00000000E-01  8.00000000E-01  1.50000000E+00
  8.00000000E-01  8.00000000E-01  1.50000000E+00  8.00000000E-01  8.00000000E-01
  1.50000000E+00  8.00000000E-01  8.00000000E-01  1.50000000E+00  8.00000000E-01
  8.00000000E-01  1.50000000E+00  8.00000000E-01  8.00000000E-01  1.50000000E+00
  8.00000000E-01  8.00000000E-01  1.50000000E+00  8.00000000E-01  8.00000000E-01
  1.50000000E+00  8.00000000E-01  8.00000000E-01  1.50000000E+00  8.00000000E-01
  8.00000000E-01  1.50000000E+00  8.00000000E-01  8.00000000E-01  1.50000000E+00
  8.00000000E-01  8.00000000E-01  1.50000000E+00  8.00000000E-01  8.00000000E-01
  1.50000000E+00  8.00000000E-01  8.00000000E-01  1.50000000E+00  8.00000000E-01
  8.00000000E-01  1.50000000E+00  8.00000000E-01  8.00000000E-01  1.50000000E+00
  8.00000000E-01  8.00000000E-01  1.50000000E+00  8.00000000E-01  8.00000000E-01
  1.50000000E+00  8.00000000E-01  8.00000000E-01  1.50000000E+00  8.00000000E-01
  8.00000000E-01  1.50000000E+00  8.00000000E-01  8.00000000E-01  1.50000000E+00
  8.00000000E-01  8.00000000E-01  1.50000000E+00  8.00000000E-01  8.00000000E-01
  1.50000000E+00  8.00000000E-01  8.00000000E-01  1.50000000E+00  8.00000000E-01
  8.00000000E-01  1.50000000E+00  8.00000000E-01  8.00000000E-01  1.50000000E+00
  8.00000000E-01  8.00000000E-01  1.50000000E+00  8.00000000E-01  8.00000000E-01
  1.50000000E+00  8.00000000E-01  8.00000000E-01  1.50000000E+00  8.00000000E-01
  8.00000000E-01  1.50000000E+00  8.00000000E-01  8.00000000E-01  1.50000000E+00
  8.00000000E-01  8.00000000E-01  1.50000000E+00  8.00000000E-01  8.00000000E-01
  1.50000000E+00  8.00000000E-01  8.00000000E-01  1.50000000E+00  8.00000000E-01
  8.00000000E-01  1.50000000E+00  8.00000000E-01  8.00000000E-01  1.50000000E+00
  8.00000000E-01  8.00000000E-01  1.50000000E+00  8.00000000E-01  8.00000000E-01
  1.50000000E+00  8.00000000E-01  8.00000000E-01  1.50000000E+00  8.00000000E-01
  8.00000000E-01  1.50000000E+00  8.00000000E-01  8.00000000E-01  1.50000000E+00
  8.00000000E-01  8.00000000E-01  1.50000000E+00  8.00000000E-01  8.00000000E-01
  1.50000000E+00  8.00000000E-01  8.00000000E-01  1.50000000E+00  8.00000000E-01
  8.00000000E-01  1.50000000E+00  8.00000000E-01  8.00000000E-01  1.50000000E+00
  8.00000000E-01  8.00000000E-01  1.50000000E+00  8.00000000E-01  8.00000000E-01
  1.50000000E+00  8.00000000E-01  8.00000000E-01  1.50000000E+00  8.00000000E-01
  8.00000000E-01  1.50000000E+00  8.00000000E-01  8.00000000E-01  1.50000000E+00
  8.00000000E-01  8.00000000E-01  1.50000000E+00  8.00000000E-01  8.00000000E-01
  1.50000000E+00  8.00000000E-01  8.00000000E-01  1.50000000E+00  8.00000000E-01
  8.00000000E-01  1.50000000E+00  8.00000000E-01  8.00000000E-01  1.50000000E+00
  8.00000000E-01  8.00000000E-01  1.50000000E+00  8.00000000E-01  8.00000000E-01
  1.50000000E+00  8.00000000E-01  8.00000000E-01  1.50000000E+00  8.00000000E-01
  8.00000000E-01  1.50000000E+00  8.00000000E-01  8.00000000E-01  1.50000000E+00
  8.00000000E-01  8.00000000E-01  1.50000000E+00  8.00000000E-01  8.00000000E-01
  1.50000000E+00  8.00000000E-01  8.00000000E-01  1.50000000E+00  8.00000000E-01
  8.00000000E-01  1.50000000E+00  8.00000000E-01  8.00000000E-01  1.50000000E+00
  8.00000000E-01  8.00000000E-01  1.50000000E+00  8.00000000E-01  8.00000000E-01
  1.50000000E+00  8.00000000E-01  8.00000000E-01  1.50000000E+00  8.00000000E-01
  8.00000000E-01  1.50000000E+00  8.00000000E-01  8.00000000E-01  1.50000000E+00
  8.00000000E-01  8.00000000E-01  1.50000000E+00  8.00000000E-01  8.00000000E-01
  1.50000000E+00  8.00000000E-01  8.00000000E-01  1.50000000E+00  8.00000000E-01
  8.00000000E-01  1.50000000E+00  8.00000000E-01  8.00000000E-01  1.50000000E+00
  8.00000000E-01  8.00000000E-01  1.50000000E+00  8.00000000E-01  8.00000000E-01
  1.50000000E+00  8.00000000E-01  8.00000000E-01  1.50000000E+00  8.00000000E-01
  8.00000000E-01  1.50000000E+00  8.00000000E-01  8.00000000E-01  1.50000000E+00
  8.00000000E-01  8.00000000E-01  1.50000000E+00  8.00000000E-01  8.00000000E-01
  1.50000000E+00  8.00000000E-01  8.00000000E-01  1.50000000E+00  8.00000000E-01
  8.00000000E-01  1.50000000E+00  8.00000000E-01  8.00000000E-01  1.50000000E+00
  8.00000000E-01  8.00000000E-01  1.50000000E+00  8.00000000E-01  8.00000000E-01
  1.50000000E+00  8.00000000E-01  8.00000000E-01  1.50000000E+00  8.00000000E-01
  8.00000000E-01  1.50000000E+00  8.00000000E-01  8.00000000E-01  1.50000000E+00
  8.00000000E-01  8.00000000E-01  1.50000000E+00  8.00000000E-01  8.00000000E-01
  1.50000000E+00  8.00000000E-01  8.00000000E-01  1.50000000E+00  8.00000000E-01
  8.00000000E-01  1.50000000E+00  8.00000000E-01  8.00000000E-01  1.50000000E+00
  8.00000000E-01  8.00000000E-01  1.50000000E+00  8.00000000E-01  8.00000000E-01
  1.50000000E+00  8.00000000E-01  8.00000000E-01  1.50000000E+00  8.00000000E-01
  8.00000000E-01  1.50000000E+00  8.00000000E-01  8.00000000E-01  1.50000000E+00
  8.00000000E-01  8.00000000E-01  1.50000000E+00  8.00000000E-01  8.00000000E-01
  1.50000000E+00  8.00000000E-01  8.00000000E-01  1.50000000E+00  8.00000000E-01
  8.00000000E-01  1.50000000E+00  8.00000000E-01  8.00000000E-01  1.50000000E+00
  8.00000000E-01  8.00000000E-01  1.50000000E+00  8.00000000E-01  8.00000000E-01
  1.50000000E+00  8.00000000E-01  8.00000000E-01  1.50000000E+00  8.00000000E-01
  8.00000000E-01  1.50000000E+00  8.00000000E-01  8.00000000E-01  1.50000000E+00
  8.00000000E-01  8.00000000E-01  1.50000000E+00  8.00000000E-01  8.00000000E-01
  1.50000000E+00  8.00000000E-01  8.00000000E-01  1.50000000E+00  8.00000000E-01
  8.00000000E-01  1.50000000E+00  8.00000000E-01  8.00000000E-01  1.50000000E+00
  8.00000000E-01  8.00000000E-01  1.50000000E+00  8.00000000E-01  8.00000000E-01
  1.50000000E+00  8.00000000E-01  8.00000000E-01  1.50000000E+00  8.00000000E-01
  8.00000000E-01  1.50000000E+00  8.00000000E-01  8.00000000E-01  1.50000000E+00
  8.00000000E-01  8.00000000E-01  1.50000000E+00  8.00000000E-01  8.00000000E-01
  1.50000000E+00  8.00000000E-01  8.00000000E-01  1.50000000E+00  8.00000000E-01
  8.00000000E-01  1.50000000E+00  8.00000000E-01  8.00000000E-01  1.50000000E+00
  8.00000000E-01  8.00000000E-01  1.50000000E+00  8.00000000E-01  8.00000000E-01
  1.50000000E+00  8.00000000E-01  8.00000000E-01  1.50000000E+00  8.00000000E-01
  8.00000000E-01  1.50000000E+00  8.00000000E-01  8.00000000E-01  1.50000000E+00
  8.00000000E-01  8.00000000E-01  1.50000000E+00  8.00000000E-01  8.00000000E-01
  1.50000000E+00  8.00000000E-01  8.00000000E-01  1.50000000E+00  8.00000000E-01
  8.00000000E-01  1.50000000E+00  8.00000000E-01  8.00000000E-01  1.50000000E+00
  8.00000000E-01  8.00000000E-01  1.50000000E+00  8.00000000E-01  8.00000000E-01
  1.50000000E+00  8.00000000E-01  8.00000000E-01  1.50000000E+00  8.00000000E-01
  8.00000000E-01  1.50000000E+00  8.00000000E-01  8.00000000E-01  1.50000000E+00
  8.00000000E-01  8.00000000E-01  1.50000000E+00  8.00000000E-01  8.00000000E-01
  1.50000000E+00  8.00000000E-01  8.00000000E-01  1.50000000E+00  8.00000000E-01
  8.00000000E-01  1.50000000E+00  8.00000000E-01  8.00000000E-01  1.50000000E+00
  8.00000000E-01  8.00000000E-01  1.50000000E+00  8.00000000E-01  8.00000000E-01
  1.50000000E+00  8.00000000E-01  8.00000000E-01  1.50000000E+00  8.00000000E-01
  8.00000000E-01  1.50000000E+00  8.00000000E-01  8.00000000E-01  1.50000000E+00
  8.00000000E-01  8.00000000E-01  1.50000000E+00  8.00000000E-01  8.00000000E-01
  1.50000000E+00  8.00000000E-01  8.00000000E-01  1.50000000E+00  8.00000000E-01
  8.00000000E-01  1.50000000E+00  8.00000000E-01  8.00000000E-01  1.50000000E+00
  8.00000000E-01  8.00000000E-01  1.50000000E+00  8.00000000E-01  8.00000000E-01
  1.50000000E+00  8.00000000E-01  8.00000000E-01  1.50000000E+00  8.00000000E-01
  8.00000000E-01  1.50000000E+00  8.00000000E-01  8.00000000E-01  1.50000000E+00
  8.00000000E-01  8.00000000E-01  1.50000000E+00  8.00000000E-01  8.00000000E-01
  1.50000000E+00  8.00000000E-01  8.00000000E-01  1.50000000E+00  8.00000000E-01
  8.00000000E-01  1.50000000E+00  8.00000000E-01  8.00000000E-01  1.50000000E+00
  8.00000000E-01  8.00000000E-01  1.50000000E+00  8.00000000E-01  8.00000000E-01
  1.50000000E+00  8.00000000E-01  8.00000000E-01  1.50000000E+00  8.00000000E-01
  8.00000000E-01  1.50000000E+00  8.00000000E-01  8.00000000E-01  1.50000000E+00
  8.00000000E-01  8.00000000E-01  1.50000000E+00  8.00000000E-01  8.00000000E-01
  1.50000000E+00  8.00000000E-01  8.00000000E-01  1.50000000E+00  8.00000000E-01
  8.00000000E-01  1.50000000E+00  8.00000000E-01  8.00000000E-01  1.50000000E+00
  8.00000000E-01  8.00000000E-01  1.50000000E+00  8.00000000E-01  8.00000000E-01
  1.50000000E+00  8.00000000E-01  8.00000000E-01  1.50000000E+00  8.00000000E-01
  8.00000000E-01  1.50000000E+00  8.00000000E-01  8.00000000E-01  1.50000000E+00
  8.00000000E-01  8.00000000E-01  1.50000000E+00  8.00000000E-01  8.00000000E-01
  1.50000000E+00  8.00000000E-01  8.00000000E-01  1.50000000E+00  8.00000000E-01
  8.00000000E-01  1.50000000E+00  8.00000000E-01  8.00000000E-01  1.50000000E+00
  8.00000000E-01  8.00000000E-01  1.50000000E+00  8.00000000E-01  8.00000000E-01
  1.50000000E+00  8.00000000E-01  8.00000000E-01  1.50000000E+00  8.00000000E-01
  8.00000000E-01  1.50000000E+00  8.00000000E-01  8.00000000E-01  1.50000000E+00
  8.00000000E-01  8.00000000E-01  1.50000000E+00  8.00000000E-01  8.00000000E-01
  1.50000000E+00  8.00000000E-01  8.00000000E-01  1.50000000E+00  8.00000000E-01
  8.00000000E-01  1.50000000E+00  8.00000000E-01  8.00000000E-01  1.50000000E+00
  8.00000000E-01  8.00000000E-01  1.50000000E+00  8.00000000E-01  8.00000000E-01
  1.50000000E+00  8.00000000E-01  8.00000000E-01  1.50000000E+00  8.00000000E-01
  8.00000000E-01  1.50000000E+00  8.00000000E-01  8.00000000E-01  1.50000000E+00
  8.00000000E-01  8.00000000E-01  1.50000000E+00  8.00000000E-01  8.00000000E-01
  1.50000000E+00  8.00000000E-01  8.00000000E-01  1.50000000E+00  8.00000000E-01
  8.00000000E-01  1.50000000E+00  8.00000000E-01  8.00000000E-01  1.50000000E+00
  8.00000000E-01  8.00000000E-01  1.50000000E+00  8.00000000E-01  8.00000000E-01
  1.50000000E+00  8.00000000E-01  8.00000000E-01  1.50000000E+00  8.00000000E-01
  8.00000000E-01  1.50000000E+00  8.00000000E-01  8.00000000E-01  1.50000000E+00
  8.00000000E-01  8.00000000E-01  1.50000000E+00  8.00000000E-01  8.00000000E-01
  1.50000000E+00  8.00000000E-01  8.00000000E-01  1.50000000E+00  8.00000000E-01
  8.00000000E-01  1.50000000E+00  8.00000000E-01  8.00000000E-01  1.50000000E+00
  8.00000000E-01  8.00000000E-01  1.50000000E+00  8.00000000E-01  8.00000000E-01
  1.50000000E+00  8.00000000E-01  8.00000000E-01  1.50000000E+00  8.00000000E-01
  8.00000000E-01  1.50000000E+00  8.00000000E-01  8.00000000E-01  1.50000000E+00
  8.00000000E-01  8.00000000E-01  1.50000000E+00  8.00000000E-01  8.00000000E-01
  1.50000000E+00  8.00000000E-01  8.00000000E-01  1.50000000E+00  8.00000000E-01
  8.00000000E-01  1.50000000E+00  8.00000000E-01  8.00000000E-01  1.50000000E+00
  8.00000000E-01  8.00000000E-01  1.50000000E+00  8.00000000E-01  8.00000000E-01
  1.50000000E+00  8.00000000E-01  8.00000000E-01  1.50000000E+00  8.00000000E-01
  8.00000000E-01  1.50000000E+00  8.00000000E-01  8.00000000E-01  1.50000000E+00
  8.00000000E-01  8.00000000E-01  1.50000000E+00  8.00000000E-01  8.00000000E-01
  1.50000000E+00  8.00000000E-01  8.00000000E-01  1.50000000E+00  8.00000000E-01
  8.00000000E-01  1.50000000E+00  8.00000000E-01  8.00000000E-01  1.50000000E+00
  8.00000000E-01  8.00000000E-01  1.50000000E+00  8.00000000E-01  8.00000000E-01
  1.50000000E+00  8.00000000E-01  8.00000000E-01  1.50000000E+00  8.00000000E-01
  8.00000000E-01  1.50000000E+00  8.00000000E-01  8.00000000E-01  1.50000000E+00
  8.00000000E-01  8.00000000E-01  1.50000000E+00  8.00000000E-01  8.00000000E-01
  1.50000000E+00  8.00000000E-01  8.00000000E-01  1.50000000E+00  8.00000000E-01
  8.00000000E-01  1.50000000E+00  8.00000000E-01  8.00000000E-01  1.50000000E+00
  8.00000000E-01  8.00000000E-01  1.50000000E+00  8.00000000E-01  8.00000000E-01
  1.50000000E+00  8.00000000E-01  8.00000000E-01  1.50000000E+00  8.00000000E-01
  8.00000000E-01  1.50000000E+00  8.00000000E-01  8.00000000E-01  1.50000000E+00
  8.00000000E-01  8.00000000E-01  1.50000000E+00  8.00000000E-01  8.00000000E-01
  1.50000000E+00  8.00000000E-01  8.00000000E-01  1.50000000E+00  8.00000000E-01
  8.00000000E-01  1.50000000E+00  8.00000000E-01  8.00000000E-01  1.50000000E+00
  8.00000000E-01  8.00000000E-01  1.50000000E+00  8.00000000E-01  8.00000000E-01
  1.50000000E+00  8.00000000E-01  8.00000000E-01  1.50000000E+00  8.00000000E-01
  8.00000000E-01  1.50000000E+00  8.00000000E-01  8.00000000E-01  1.50000000E+00
  8.00000000E-01  8.00000000E-01  1.50000000E+00  8.00000000E-01  8.00000000E-01
  1.50000000E+00  8.00000000E-01  8.00000000E-01  1.50000000E+00  8.00000000E-01
  8.00000000E-01  1.50000000E+00  8.00000000E-01  8.00000000E-01  1.50000000E+00
  8.00000000E-01  8.00000000E-01  1.50000000E+00  8.00000000E-01  8.00000000E-01
  1.50000000E+00  8.00000000E-01  8.00000000E-01  1.50000000E+00  8.00000000E-01
  8.00000000E-01  1.50000000E+00  8.00000000E-01  8.00000000E-01  1.50000000E+00
  8.00000000E-01  8.00000000E-01  1.50000000E+00  8.00000000E-01  8.00000000E-01
  1.50000000E+00  8.00000000E-01  8.00000000E-01  1.50000000E+00  8.00000000E-01
  8.00000000E-01  1.50000000E+00  8.00000000E-01  8.00000000E-01  1.50000000E+00
  8.00000000E-01  8.00000000E-01  1.50000000E+00  8.00000000E-01  8.00000000E-01
  1.50000000E+00  8.00000000E-01  8.00000000E-01  1.50000000E+00  8.00000000E-01
  8.00000000E-01  1.50000000E+00  8.00000000E-01  8.00000000E-01  1.50000000E+00
  8.00000000E-01  8.00000000E-01  1.50000000E+00  8.00000000E-01  8.00000000E-01
  1.50000000E+00  8.00000000E-01  8.00000000E-01  1.50000000E+00  8.00000000E-01
  8.00000000E-01  1.50000000E+00  8.00000000E-01  8.00000000E-01  1.50000000E+00
  8.00000000E-01  8.00000000E-01  1.50000000E+00  8.00000000E-01  8.00000000E-01
  1.50000000E+00  8.00000000E-01  8.00000000E-01  1.50000000E+00  8.00000000E-01
  8.00000000E-01  1.50000000E+00  8.00000000E-01  8.00000000E-01  1.50000000E+00
  8.00000000E-01  8.00000000E-01  1.50000000E+00  8.00000000E-01  8.00000000E-01
  1.50000000E+00  8.00000000E-01  8.00000000E-01  1.50000000E+00  8.00000000E-01
  8.00000000E-01  1.50000000E+00  8.00000000E-01  8.00000000E-01  1.50000000E+00
  8.00000000E-01  8.00000000E-01  1.50000000E+00  8.00000000E-01  8.00000000E-01
  1.50000000E+00  8.00000000E-01  8.00000000E-01  1.50000000E+00  8.00000000E-01
  8.00000000E-01  1.50000000E+00  8.00000000E-01  8.00000000E-01  1.50000000E+00
  8.00000000E-01  8.00000000E-01  1.50000000E+00  8.00000000E-01  8.00000000E-01
  1.50000000E+00  8.00000000E-01  8.00000000E-01  1.50000000E+00  8.00000000E-01
  8.00000000E-01  1.50000000E+00  8.00000000E-01  8.00000000E-01  1.50000000E+00
  8.00000000E-01  8.00000000E-01  1.50000000E+00  8.00000000E-01  8.00000000E-01
  1.50000000E+00  8.00000000E-01  8.00000000E-01  1.50000000E+00  8.00000000E-01
  8.00000000E-01  1.50000000E+00  8.00000000E-01  8.00000000E-01  1.50000000E+00
  8.00000000E-01  8.00000000E-01  1.50000000E+00  8.00000000E-01  8.00000000E-01
  1.50000000E+00  8.00000000E-01  8.00000000E-01  1.50000000E+00  8.00000000E-01
  8.00000000E-01  1.50000000E+00  8.00000000E-01  8.00000000E-01  1.50000000E+00
  8.00000000E-01  8.00000000E-01  1.50000000E+00  8.00000000E-01  8.00000000E-01
  1.50000000E+00  8.00000000E-01  8.00000000E-01  1.50000000E+00  8.00000000E-01
  8.00000000E-01  1.50000000E+00  8.00000000E-01  8.00000000E-01  1.50000000E+00
  8.00000000E-01  8.00000000E-01  1.50000000E+00  8.00000000E-01  8.00000000E-01
  1.50000000E+00  8.00000000E-01  8.00000000E-01  1.50000000E+00  8.00000000E-01
  8.00000000E-01  1.50000000E+00  8.00000000E-01  8.00000000E-01  1.50000000E+00
  8.00000000E-01  8.00000000E-01  1.50000000E+00  8.00000000E-01  8.00000000E-01
  1.50000000E+00  8.00000000E-01  8.00000000E-01  1.50000000E+00  8.00000000E-01
  8.00000000E-01  1.50000000E+00  8.00000000E-01  8.00000000E-01  1.50000000E+00
  8.00000000E-01  8.00000000E-01  1.50000000E+00  8.00000000E-01  8.00000000E-01
  1.50000000E+00  8.00000000E-01  8.00000000E-01  1.50000000E+00  8.00000000E-01
  8.00000000E-01  1.50000000E+00  8.00000000E-01  8.00000000E-01  1.50000000E+00
  8.00000000E-01  8.00000000E-01  1.50000000E+00  8.00000000E-01  8.00000000E-01
  1.50000000E+00  8.00000000E-01  8.00000000E-01  1.50000000E+00  8.00000000E-01
  8.00000000E-01  1.50000000E+00  8.00000000E-01  8.00000000E-01  1.50000000E+00
  8.00000000E-01  8.00000000E-01  1.50000000E+00  8.00000000E-01  8.00000000E-01
  1.50000000E+00  8.00000000E-01  8.00000000E-01  1.50000000E+00  8.00000000E-01
  8.00000000E-01  1.50000000E+00  8.00000000E-01  8.00000000E-01  1.50000000E+00
  8.00000000E-01  8.00000000E-01  1.50000000E+00  8.00000000E-01  8.00000000E-01
  1.50000000E+00  8.00000000E-01  8.00000000E-01  1.50000000E+00  8.00000000E-01
  8.00000000E-01  1.50000000E+00  8.00000000E-01  8.00000000E-01  1.50000000E+00
  8.00000000E-01  8.00000000E-01  1.50000000E+00  8.00000000E-01  8.00000000E-01
  1.50000000E+00  8.00000000E-01  8.00000000E-01  1.50000000E+00  8.00000000E-01
  8.00000000E-01  1.50000000E+00  8.00000000E-01  8.00000000E-01  1.50000000E+00
  8.00000000E-01  8.00000000E-01  1.50000000E+00  8.00000000E-01  8.00000000E-01
  1.50000000E+00  8.00000000E-01  8.00000000E-01  1.50000000E+00  8.00000000E-01
  8.00000000E-01  1.50000000E+00  8.00000000E-01  8.00000000E-01  1.50000000E+00
  8.00000000E-01  8.00000000E-01  1.50000000E+00  8.00000000E-01  8.00000000E-01
  1.50000000E+00  8.00000000E-01  8.00000000E-01  1.50000000E+00  8.00000000E-01
  8.00000000E-01  1.50000000E+00  8.00000000E-01  8.00000000E-01  1.50000000E+00
  8.00000000E-01  8.00000000E-01  1.50000000E+00  8.00000000E-01  8.00000000E-01
  1.50000000E+00  8.00000000E-01  8.00000000E-01  1.50000000E+00  8.00000000E-01
  8.00000000E-01  1.50000000E+00  8.00000000E-01  8.00000000E-01  1.50000000E+00
  8.00000000E-01  8.00000000E-01  1.50000000E+00  8.00000000E-01  8.00000000E-01
  1.50000000E+00  8.00000000E-01  8.00000000E-01  1.50000000E+00  8.00000000E-01
  8.00000000E-01  1.50000000E+00  8.00000000E-01  8.00000000E-01  1.50000000E+00
  8.00000000E-01  8.00000000E-01  1.50000000E+00  8.00000000E-01  8.00000000E-01
  1.50000000E+00  8.00000000E-01  8.00000000E-01  1.50000000E+00  8.00000000E-01
  8.00000000E-01  1.50000000E+00  8.00000000E-01  8.00000000E-01  1.50000000E+00
  8.00000000E-01  8.00000000E-01  1.50000000E+00  8.00000000E-01  8.00000000E-01
  1.50000000E+00  8.00000000E-01  8.00000000E-01  1.50000000E+00  8.00000000E-01
  8.00000000E-01  1.50000000E+00  8.00000000E-01  8.00000000E-01  1.50000000E+00
  8.00000000E-01  8.00000000E-01  1.50000000E+00  8.00000000E-01  8.00000000E-01
  1.50000000E+00  8.00000000E-01  8.00000000E-01  1.50000000E+00  8.00000000E-01
  8.00000000E-01  1.50000000E+00  8.00000000E-01  8.00000000E-01  1.50000000E+00
  8.00000000E-01  8.00000000E-01  1.50000000E+00  8.00000000E-01  8.00000000E-01
  1.50000000E+00  8.00000000E-01  8.00000000E-01  1.50000000E+00  8.00000000E-01
  8.00000000E-01  1.50000000E+00  8.00000000E-01  8.00000000E-01  1.50000000E+00
  8.00000000E-01  8.00000000E-01  1.50000000E+00  8.00000000E-01  8.00000000E-01
  1.50000000E+00  8.00000000E-01  8.00000000E-01  1.50000000E+00  8.00000000E-01
  8.00000000E-01  1.50000000E+00  8.00000000E-01  8.00000000E-01  1.50000000E+00
  8.00000000E-01  8.00000000E-01  1.50000000E+00  8.00000000E-01  8.00000000E-01
  1.50000000E+00  8.00000000E-01  8.00000000E-01  1.50000000E+00  8.00000000E-01
  8.00000000E-01  1.50000000E+00  8.00000000E-01  8.00000000E-01  1.50000000E+00
  8.00000000E-01  8.00000000E-01  1.50000000E+00  8.00000000E-01  8.00000000E-01
  1.50000000E+00  8.00000000E-01  8.00000000E-01  1.50000000E+00  8.00000000E-01
  8.00000000E-01  1.50000000E+00  8.00000000E-01  8.00000000E-01  1.50000000E+00
  8.00000000E-01  8.00000000E-01  1.50000000E+00  8.00000000E-01  8.00000000E-01
  1.50000000E+00  8.00000000E-01  8.00000000E-01  1.50000000E+00  8.00000000E-01
  8.00000000E-01  1.50000000E+00  8.00000000E-01  8.00000000E-01  1.50000000E+00
  8.00000000E-01  8.00000000E-01  1.50000000E+00  8.00000000E-01  8.00000000E-01
  1.50000000E+00  8.00000000E-01  8.00000000E-01  1.50000000E+00  8.00000000E-01
  8.00000000E-01  1.50000000E+00  8.00000000E-01  8.00000000E-01  1.50000000E+00
  8.00000000E-01  8.00000000E-01  1.50000000E+00  8.00000000E-01  8.00000000E-01
  1.50000000E+00  8.00000000E-01  8.00000000E-01  1.50000000E+00  8.00000000E-01
  8.00000000E-01  1.50000000E+00  8.00000000E-01  8.00000000E-01  1.50000000E+00
  8.00000000E-01  8.00000000E-01  1.50000000E+00  8.00000000E-01  8.00000000E-01
  1.50000000E+00  8.00000000E-01  8.00000000E-01  1.50000000E+00  8.00000000E-01
  8.00000000E-01  1.50000000E+00  8.00000000E-01  8.00000000E-01  1.50000000E+00
  8.00000000E-01  8.00000000E-01  1.50000000E+00  8.00000000E-01  8.00000000E-01
  1.50000000E+00  8.00000000E-01  8.00000000E-01  1.50000000E+00  8.00000000E-01
  8.00000000E-01  1.50000000E+00  8.00000000E-01  8.00000000E-01  1.50000000E+00
  8.00000000E-01  8.00000000E-01  1.50000000E+00  8.00000000E-01  8.00000000E-01
  1.50000000E+00  8.00000000E-01  8.00000000E-01  1.50000000E+00  8.00000000E-01
  8.00000000E-01  1.50000000E+00  8.00000000E-01  8.00000000E-01  1.50000000E+00
  8.00000000E-01  8.00000000E-01  1.50000000E+00  8.00000000E-01  8.00000000E-01
  1.50000000E+00  8.00000000E-01  8.00000000E-01  1.50000000E+00  8.00000000E-01
  8.00000000E-01  1.50000000E+00  8.00000000E-01  8.00000000E-01  1.50000000E+00
  8.00000000E-01  8.00000000E-01  1.50000000E+00  8.00000000E-01  8.00000000E-01
  1.50000000E+00  8.00000000E-01  8.00000000E-01  1.50000000E+00  8.00000000E-01
  8.00000000E-01  1.50000000E+00  8.00000000E-01  8.00000000E-01  1.50000000E+00
  8.00000000E-01  8.00000000E-01  1.50000000E+00  8.00000000E-01  8.00000000E-01
  1.50000000E+00  8.00000000E-01  8.00000000E-01  1.50000000E+00  8.00000000E-01
  8.00000000E-01  1.50000000E+00  8.00000000E-01  8.00000000E-01  1.50000000E+00
  8.00000000E-01  8.00000000E-01  1.50000000E+00  8.00000000E-01  8.00000000E-01
  1.50000000E+00  8.00000000E-01  8.00000000E-01  1.50000000E+00  8.00000000E-01
  8.00000000E-01  1.50000000E+00  8.00000000E-01  8.00000000E-01  1.50000000E+00
  8.00000000E-01  8.00000000E-01  1.50000000E+00  8.00000000E-01  8.00000000E-01
  1.50000000E+00  8.00000000E-01  8.00000000E-01  1.50000000E+00  8.00000000E-01
  8.00000000E-01  1.50000000E+00  8.00000000E-01  8.00000000E-01  1.50000000E+00
  8.00000000E-01  8.00000000E-01  1.50000000E+00  8.00000000E-01  8.00000000E-01
  1.50000000E+00  8.00000000E-01  8.00000000E-01  1.50000000E+00  8.00000000E-01
  8.00000000E-01  1.50000000E+00  8.00000000E-01  8.00000000E-01  1.50000000E+00
  8.00000000E-01  8.00000000E-01  1.50000000E+00  8.00000000E-01  8.00000000E-01
  1.50000000E+00  8.00000000E-01  8.00000000E-01  1.50000000E+00  8.00000000E-01
  8.00000000E-01  1.50000000E+00  8.00000000E-01  8.00000000E-01  1.50000000E+00
  8.00000000E-01  8.00000000E-01  1.50000000E+00  8.00000000E-01  8.00000000E-01
  1.50000000E+00  8.00000000E-01  8.00000000E-01  1.50000000E+00  8.00000000E-01
  8.00000000E-01  1.50000000E+00  8.00000000E-01  8.00000000E-01  1.50000000E+00
  8.00000000E-01  8.00000000E-01  1.50000000E+00  8.00000000E-01  8.00000000E-01
  1.50000000E+00  8.00000000E-01  8.00000000E-01  1.50000000E+00  8.00000000E-01
  8.00000000E-01  1.50000000E+00  8.00000000E-01  8.00000000E-01  1.50000000E+00
  8.00000000E-01  8.00000000E-01  1.50000000E+00  8.00000000E-01  8.00000000E-01
  1.50000000E+00  8.00000000E-01  8.00000000E-01  1.50000000E+00  8.00000000E-01
  8.00000000E-01  1.50000000E+00  8.00000000E-01  8.00000000E-01  1.50000000E+00
  8.00000000E-01  8.00000000E-01  1.50000000E+00  8.00000000E-01  8.00000000E-01
  1.50000000E+00  8.00000000E-01  8.00000000E-01  1.50000000E+00  8.00000000E-01
  8.00000000E-01  1.50000000E+00  8.00000000E-01  8.00000000E-01  1.50000000E+00
  8.00000000E-01  8.00000000E-01  1.50000000E+00  8.00000000E-01  8.00000000E-01
  1.50000000E+00  8.00000000E-01  8.00000000E-01  1.50000000E+00  8.00000000E-01
  8.00000000E-01  1.50000000E+00  8.00000000E-01  8.00000000E-01  1.50000000E+00
  8.00000000E-01  8.00000000E-01  1.50000000E+00  8.00000000E-01  8.00000000E-01
  1.50000000E+00  8.00000000E-01  8.00000000E-01  1.50000000E+00  8.00000000E-01
  8.00000000E-01  1.50000000E+00  8.00000000E-01  8.00000000E-01  1.50000000E+00
  8.00000000E-01  8.00000000E-01  1.50000000E+00  8.00000000E-01  8.00000000E-01
  1.50000000E+00  8.00000000E-01  8.00000000E-01  1.50000000E+00  8.00000000E-01
  8.00000000E-01  1.50000000E+00  8.00000000E-01  8.00000000E-01  1.50000000E+00
  8.00000000E-01  8.00000000E-01  1.50000000E+00  8.00000000E-01  8.00000000E-01
  1.50000000E+00  8.00000000E-01  8.00000000E-01  1.50000000E+00  8.00000000E-01
  8.00000000E-01  1.50000000E+00  8.00000000E-01  8.00000000E-01  1.50000000E+00
  8.00000000E-01  8.00000000E-01  1.50000000E+00  8.00000000E-01  8.00000000E-01
  1.50000000E+00  8.00000000E-01  8.00000000E-01  1.50000000E+00  8.00000000E-01
  8.00000000E-01  1.50000000E+00  8.00000000E-01  8.00000000E-01  1.50000000E+00
  8.00000000E-01  8.00000000E-01  1.50000000E+00  8.00000000E-01  8.00000000E-01
  1.50000000E+00  8.00000000E-01  8.00000000E-01  1.50000000E+00  8.00000000E-01
  8.00000000E-01  1.50000000E+00  8.00000000E-01  8.00000000E-01  1.50000000E+00
  8.00000000E-01  8.00000000E-01  1.50000000E+00  8.00000000E-01  8.00000000E-01
  1.50000000E+00  8.00000000E-01  8.00000000E-01  1.50000000E+00  8.00000000E-01
  8.00000000E-01  1.50000000E+00  8.00000000E-01  8.00000000E-01  1.50000000E+00
  8.00000000E-01  8.00000000E-01  1.50000000E+00  8.00000000E-01  8.00000000E-01
  1.50000000E+00  8.00000000E-01  8.00000000E-01  1.50000000E+00  8.00000000E-01
  8.00000000E-01  1.50000000E+00  8.00000000E-01  8.00000000E-01  1.50000000E+00
  8.00000000E-01  8.00000000E-01  1.50000000E+00  8.00000000E-01  8.00000000E-01
  1.50000000E+00  8.00000000E-01  8.00000000E-01  1.50000000E+00  8.00000000E-01
  8.00000000E-01  1.50000000E+00  8.00000000E-01  8.00000000E-01  1.50000000E+00
  8.00000000E-01  8.00000000E-01  1.50000000E+00  8.00000000E-01  8.00000000E-01
  1.50000000E+00  8.00000000E-01  8.00000000E-01  1.50000000E+00  8.00000000E-01
  8.00000000E-01  1.50000000E+00  8.00000000E-01  8.00000000E-01  1.50000000E+00
  8.00000000E-01  8.00000000E-01  1.50000000E+00  8.00000000E-01  8.00000000E-01
  1.50000000E+00  8.00000000E-01  8.00000000E-01  1.50000000E+00  8.00000000E-01
  8.00000000E-01  1.50000000E+00  8.00000000E-01  8.00000000E-01  1.50000000E+00
  8.00000000E-01  8.00000000E-01  1.50000000E+00  8.00000000E-01  8.00000000E-01
  1.50000000E+00  8.00000000E-01  8.00000000E-01  1.50000000E+00  8.00000000E-01
  8.00000000E-01  1.50000000E+00  8.00000000E-01  8.00000000E-01  1.50000000E+00
  8.00000000E-01  8.00000000E-01  1.50000000E+00  8.00000000E-01  8.00000000E-01
  1.50000000E+00  8.00000000E-01  8.00000000E-01  1.50000000E+00  8.00000000E-01
  8.00000000E-01  1.50000000E+00  8.00000000E-01  8.00000000E-01  1.50000000E+00
  8.00000000E-01  8.00000000E-01  1.50000000E+00  8.00000000E-01  8.00000000E-01
  1.50000000E+00  8.00000000E-01  8.00000000E-01  1.50000000E+00  8.00000000E-01
  8.00000000E-01  1.50000000E+00  8.00000000E-01  8.00000000E-01  1.50000000E+00
  8.00000000E-01  8.00000000E-01  1.50000000E+00  8.00000000E-01  8.00000000E-01
  1.50000000E+00  8.00000000E-01  8.00000000E-01  1.50000000E+00  8.00000000E-01
  8.00000000E-01  1.50000000E+00  8.00000000E-01  8.00000000E-01  1.50000000E+00
  8.00000000E-01  8.00000000E-01  1.50000000E+00  8.00000000E-01  8.00000000E-01
  1.50000000E+00  8.00000000E-01  8.00000000E-01  1.50000000E+00  8.00000000E-01
  8.00000000E-01  1.50000000E+00  8.00000000E-01  8.00000000E-01  1.50000000E+00
  8.00000000E-01  8.00000000E-01  1.50000000E+00  8.00000000E-01  8.00000000E-01
  1.50000000E+00  8.00000000E-01  8.00000000E-01  1.50000000E+00  8.00000000E-01
  8.00000000E-01  1.50000000E+00  8.00000000E-01  8.00000000E-01  1.50000000E+00
  8.00000000E-01  8.00000000E-01  1.50000000E+00  8.00000000E-01  8.00000000E-01
  1.50000000E+00  8.00000000E-01  8.00000000E-01  1.50000000E+00  8.00000000E-01
  8.00000000E-01  1.50000000E+00  8.00000000E-01  8.00000000E-01  1.50000000E+00
  8.00000000E-01  8.00000000E-01  1.50000000E+00  8.00000000E-01  8.00000000E-01
  1.50000000E+00  8.00000000E-01  8.00000000E-01  1.50000000E+00  8.00000000E-01
  8.00000000E-01  1.50000000E+00  8.00000000E-01  8.00000000E-01  1.50000000E+00
  8.00000000E-01  8.00000000E-01  1.50000000E+00  8.00000000E-01  8.00000000E-01
  1.50000000E+00  8.00000000E-01  8.00000000E-01  1.50000000E+00  8.00000000E-01
  8.00000000E-01  1.50000000E+00  8.00000000E-01  8.00000000E-01  1.50000000E+00
  8.00000000E-01  8.00000000E-01  1.50000000E+00  8.00000000E-01  8.00000000E-01
  1.50000000E+00  8.00000000E-01  8.00000000E-01  1.50000000E+00  8.00000000E-01
  8.00000000E-01  1.50000000E+00  8.00000000E-01  8.00000000E-01  1.50000000E+00
  8.00000000E-01  8.00000000E-01  1.50000000E+00  8.00000000E-01  8.00000000E-01
  1.50000000E+00  8.00000000E-01  8.00000000E-01  1.50000000E+00  8.00000000E-01
  8.00000000E-01  1.50000000E+00  8.00000000E-01  8.00000000E-01  1.50000000E+00
  8.00000000E-01  8.00000000E-01  1.50000000E+00  8.00000000E-01  8.00000000E-01
  1.50000000E+00  8.00000000E-01  8.00000000E-01  1.50000000E+00  8.00000000E-01
  8.00000000E-01  1.50000000E+00  8.00000000E-01  8.00000000E-01  1.50000000E+00
  8.00000000E-01  8.00000000E-01  1.50000000E+00  8.00000000E-01  8.00000000E-01
  1.50000000E+00  8.00000000E-01  8.00000000E-01  1.50000000E+00  8.00000000E-01
  8.00000000E-01  1.50000000E+00  8.00000000E-01  8.00000000E-01  1.50000000E+00
  8.00000000E-01  8.00000000E-01  1.50000000E+00  8.00000000E-01  8.00000000E-01
  1.50000000E+00  8.00000000E-01  8.00000000E-01  1.50000000E+00  8.00000000E-01
  8.00000000E-01  1.50000000E+00  8.00000000E-01  8.00000000E-01  1.50000000E+00
  8.00000000E-01  8.00000000E-01  1.50000000E+00  8.00000000E-01  8.00000000E-01
  1.50000000E+00  8.00000000E-01  8.00000000E-01  1.50000000E+00  8.00000000E-01
  8.00000000E-01  1.50000000E+00  8.00000000E-01  8.00000000E-01  1.50000000E+00
  8.00000000E-01  8.00000000E-01  1.50000000E+00  8.00000000E-01  8.00000000E-01
  1.50000000E+00  8.00000000E-01  8.00000000E-01  1.50000000E+00  8.00000000E-01
  8.00000000E-01  1.50000000E+00  8.00000000E-01  8.00000000E-01  1.50000000E+00
  8.00000000E-01  8.00000000E-01  1.50000000E+00  8.00000000E-01  8.00000000E-01
  1.50000000E+00  8.00000000E-01  8.00000000E-01  1.50000000E+00  8.00000000E-01
  8.00000000E-01  1.50000000E+00  8.00000000E-01  8.00000000E-01  1.50000000E+00
  8.00000000E-01  8.00000000E-01  1.50000000E+00  8.00000000E-01  8.00000000E-01
  1.50000000E+00  8.00000000E-01  8.00000000E-01  1.50000000E+00  8.00000000E-01
  8.00000000E-01  1.50000000E+00  8.00000000E-01  8.00000000E-01  1.50000000E+00
  8.00000000E-01  8.00000000E-01  1.50000000E+00  8.00000000E-01  8.00000000E-01
  1.50000000E+00  8.00000000E-01  8.00000000E-01  1.50000000E+00  8.00000000E-01
  8.00000000E-01  1.50000000E+00  8.00000000E-01  8.00000000E-01  1.50000000E+00
  8.00000000E-01  8.00000000E-01  1.50000000E+00  8.00000000E-01  8.00000000E-01
  1.50000000E+00  8.00000000E-01  8.00000000E-01  1.50000000E+00  8.00000000E-01
  8.00000000E-01  1.50000000E+00  8.00000000E-01  8.00000000E-01  1.50000000E+00
  8.00000000E-01  8.00000000E-01  1.50000000E+00  8.00000000E-01  8.00000000E-01
  1.50000000E+00  8.00000000E-01  8.00000000E-01  1.50000000E+00  8.00000000E-01
  8.00000000E-01  1.50000000E+00  8.00000000E-01  8.00000000E-01  1.50000000E+00
  8.00000000E-01  8.00000000E-01  1.50000000E+00  8.00000000E-01  8.00000000E-01
  1.50000000E+00  8.00000000E-01  8.00000000E-01  1.50000000E+00  8.00000000E-01
  8.00000000E-01  1.50000000E+00  8.00000000E-01  8.00000000E-01  1.50000000E+00
  8.00000000E-01  8.00000000E-01  1.50000000E+00  8.00000000E-01  8.00000000E-01
  1.50000000E+00  8.00000000E-01  8.00000000E-01  1.50000000E+00  8.00000000E-01
  8.00000000E-01  1.50000000E+00  8.00000000E-01  8.00000000E-01  1.50000000E+00
  8.00000000E-01  8.00000000E-01  1.50000000E+00  8.00000000E-01  8.00000000E-01
  1.50000000E+00  8.00000000E-01  8.00000000E-01  1.50000000E+00  8.00000000E-01
  8.00000000E-01  1.50000000E+00  8.00000000E-01  8.00000000E-01  1.50000000E+00
  8.00000000E-01  8.00000000E-01  1.50000000E+00  8.00000000E-01  8.00000000E-01
  1.50000000E+00  8.00000000E-01  8.00000000E-01  1.50000000E+00  8.00000000E-01
  8.00000000E-01  1.50000000E+00  8.00000000E-01  8.00000000E-01  1.50000000E+00
  8.00000000E-01  8.00000000E-01  1.50000000E+00  8.00000000E-01  8.00000000E-01
  1.50000000E+00  8.00000000E-01  8.00000000E-01  1.50000000E+00  8.00000000E-01
  8.00000000E-01  1.50000000E+00  8.00000000E-01  8.00000000E-01  1.50000000E+00
  8.00000000E-01  8.00000000E-01  1.50000000E+00  8.00000000E-01  8.00000000E-01
  1.50000000E+00  8.00000000E-01  8.00000000E-01  1.50000000E+00  8.00000000E-01
  8.00000000E-01  1.50000000E+00  8.00000000E-01  8.00000000E-01  1.50000000E+00
  8.00000000E-01  8.00000000E-01  1.50000000E+00  8.00000000E-01  8.00000000E-01
  1.50000000E+00  8.00000000E-01  8.00000000E-01  1.50000000E+00  8.00000000E-01
  8.00000000E-01  1.50000000E+00  8.00000000E-01  8.00000000E-01  1.50000000E+00
  8.00000000E-01  8.00000000E-01  1.50000000E+00  8.00000000E-01  8.00000000E-01
  1.50000000E+00  8.00000000E-01  8.00000000E-01  1.50000000E+00  8.00000000E-01
  8.00000000E-01  1.50000000E+00  8.00000000E-01  8.00000000E-01  1.50000000E+00
  8.00000000E-01  8.00000000E-01  1.50000000E+00  8.00000000E-01  8.00000000E-01
  1.50000000E+00  8.00000000E-01  8.00000000E-01  1.50000000E+00  8.00000000E-01
  8.00000000E-01  1.50000000E+00  8.00000000E-01  8.00000000E-01  1.50000000E+00
  8.00000000E-01  8.00000000E-01  1.50000000E+00  8.00000000E-01  8.00000000E-01
  1.50000000E+00  8.00000000E-01  8.00000000E-01  1.50000000E+00  8.00000000E-01
  8.00000000E-01  1.50000000E+00  8.00000000E-01  8.00000000E-01  1.50000000E+00
  8.00000000E-01  8.00000000E-01  1.50000000E+00  8.00000000E-01  8.00000000E-01
  1.50000000E+00  8.00000000E-01  8.00000000E-01  1.50000000E+00  8.00000000E-01
  8.00000000E-01  1.50000000E+00  8.00000000E-01  8.00000000E-01  1.50000000E+00
  8.00000000E-01  8.00000000E-01  1.50000000E+00  8.00000000E-01  8.00000000E-01
  1.50000000E+00  8.00000000E-01  8.00000000E-01  1.50000000E+00  8.00000000E-01
  8.00000000E-01  1.50000000E+00  8.00000000E-01  8.00000000E-01  1.50000000E+00
  8.00000000E-01  8.00000000E-01  1.50000000E+00  8.00000000E-01  8.00000000E-01
  1.50000000E+00  8.00000000E-01  8.00000000E-01  1.50000000E+00  8.00000000E-01
  8.00000000E-01  1.50000000E+00  8.00000000E-01  8.00000000E-01  1.50000000E+00
  8.00000000E-01  8.00000000E-01  1.50000000E+00  8.00000000E-01  8.00000000E-01
  1.50000000E+00  8.00000000E-01  8.00000000E-01  1.50000000E+00  8.00000000E-01
  8.00000000E-01  1.50000000E+00  8.00000000E-01  8.00000000E-01  1.50000000E+00
  8.00000000E-01  8.00000000E-01  1.50000000E+00  8.00000000E-01  8.00000000E-01
  1.50000000E+00  8.00000000E-01  8.00000000E-01  1.50000000E+00  8.00000000E-01
  8.00000000E-01  1.50000000E+00  8.00000000E-01  8.00000000E-01  1.50000000E+00
  8.00000000E-01  8.00000000E-01  1.50000000E+00  8.00000000E-01  8.00000000E-01
  1.50000000E+00  8.00000000E-01  8.00000000E-01  1.50000000E+00  8.00000000E-01
  8.00000000E-01  1.50000000E+00  8.00000000E-01  8.00000000E-01  1.50000000E+00
  8.00000000E-01  8.00000000E-01  1.50000000E+00  8.00000000E-01  8.00000000E-01
  1.50000000E+00  8.00000000E-01  8.00000000E-01  1.50000000E+00  8.00000000E-01
  8.00000000E-01  1.50000000E+00  8.00000000E-01  8.00000000E-01  1.50000000E+00
  8.00000000E-01  8.00000000E-01  1.50000000E+00  8.00000000E-01  8.00000000E-01
  1.50000000E+00  8.00000000E-01  8.00000000E-01  1.50000000E+00  8.00000000E-01
  8.00000000E-01  1.50000000E+00  8.00000000E-01  8.00000000E-01  1.50000000E+00
  8.00000000E-01  8.00000000E-01  1.50000000E+00  8.00000000E-01  8.00000000E-01
  1.50000000E+00  8.00000000E-01  8.00000000E-01  1.50000000E+00  8.00000000E-01
  8.00000000E-01  1.50000000E+00  8.00000000E-01  8.00000000E-01  1.50000000E+00
  8.00000000E-01  8.00000000E-01  1.50000000E+00  8.00000000E-01  8.00000000E-01
  1.50000000E+00  8.00000000E-01  8.00000000E-01  1.50000000E+00  8.00000000E-01
  8.00000000E-01  1.50000000E+00  8.00000000E-01  8.00000000E-01  1.50000000E+00
  8.00000000E-01  8.00000000E-01  1.50000000E+00  8.00000000E-01  8.00000000E-01
  1.50000000E+00  8.00000000E-01  8.00000000E-01  1.50000000E+00  8.00000000E-01
  8.00000000E-01  1.50000000E+00  8.00000000E-01  8.00000000E-01  1.50000000E+00
  8.00000000E-01  8.00000000E-01  1.50000000E+00  8.00000000E-01  8.00000000E-01
  1.50000000E+00  8.00000000E-01  8.00000000E-01  1.50000000E+00  8.00000000E-01
  8.00000000E-01  1.50000000E+00  8.00000000E-01  8.00000000E-01  1.50000000E+00
  8.00000000E-01  8.00000000E-01  1.50000000E+00  8.00000000E-01  8.00000000E-01
  1.50000000E+00  8.00000000E-01  8.00000000E-01  1.50000000E+00  8.00000000E-01
  8.00000000E-01  1.50000000E+00  8.00000000E-01  8.00000000E-01  1.50000000E+00
  8.00000000E-01  8.00000000E-01  1.50000000E+00  8.00000000E-01  8.00000000E-01
  1.50000000E+00  8.00000000E-01  8.00000000E-01  1.50000000E+00  8.00000000E-01
  8.00000000E-01  1.50000000E+00  8.00000000E-01  8.00000000E-01  1.50000000E+00
  8.00000000E-01  8.00000000E-01  1.50000000E+00  8.00000000E-01  8.00000000E-01
  1.50000000E+00  8.00000000E-01  8.00000000E-01  1.50000000E+00  8.00000000E-01
  8.00000000E-01  1.50000000E+00  8.00000000E-01  8.00000000E-01  1.50000000E+00
  8.00000000E-01  8.00000000E-01  1.50000000E+00  8.00000000E-01  8.00000000E-01
  1.50000000E+00  8.00000000E-01  8.00000000E-01  1.50000000E+00  8.00000000E-01
  8.00000000E-01  1.50000000E+00  8.00000000E-01  8.00000000E-01  1.50000000E+00
  8.00000000E-01  8.00000000E-01  1.50000000E+00  8.00000000E-01  8.00000000E-01
  1.50000000E+00  8.00000000E-01  8.00000000E-01  1.50000000E+00  8.00000000E-01
  8.00000000E-01  1.50000000E+00  8.00000000E-01  8.00000000E-01  1.50000000E+00
  8.00000000E-01  8.00000000E-01  1.50000000E+00  8.00000000E-01  8.00000000E-01
  1.50000000E+00  8.00000000E-01  8.00000000E-01  1.50000000E+00  8.00000000E-01
  8.00000000E-01  1.50000000E+00  8.00000000E-01  8.00000000E-01  1.50000000E+00
  8.00000000E-01  8.00000000E-01  1.50000000E+00  8.00000000E-01  8.00000000E-01
  1.50000000E+00  8.00000000E-01  8.00000000E-01  1.50000000E+00  8.00000000E-01
  8.00000000E-01  1.50000000E+00  8.00000000E-01  8.00000000E-01  1.50000000E+00
  8.00000000E-01  8.00000000E-01  1.50000000E+00  8.00000000E-01  8.00000000E-01
  1.50000000E+00  8.00000000E-01  8.00000000E-01  1.50000000E+00  8.00000000E-01
  8.00000000E-01  1.50000000E+00  8.00000000E-01  8.00000000E-01  1.50000000E+00
  8.00000000E-01  8.00000000E-01  1.50000000E+00  8.00000000E-01  8.00000000E-01
  1.50000000E+00  8.00000000E-01  8.00000000E-01  1.50000000E+00  8.00000000E-01
  8.00000000E-01  1.50000000E+00  8.00000000E-01  8.00000000E-01  1.50000000E+00
  8.00000000E-01  8.00000000E-01  1.50000000E+00  8.00000000E-01  8.00000000E-01
  1.50000000E+00  8.00000000E-01  8.00000000E-01  1.50000000E+00  8.00000000E-01
  8.00000000E-01  1.50000000E+00  8.00000000E-01  8.00000000E-01  1.50000000E+00
  8.00000000E-01  8.00000000E-01  1.50000000E+00  8.00000000E-01  8.00000000E-01
  1.50000000E+00  8.00000000E-01  8.00000000E-01  1.50000000E+00  8.00000000E-01
  8.00000000E-01  1.50000000E+00  8.00000000E-01  8.00000000E-01  1.50000000E+00
  8.00000000E-01  8.00000000E-01  1.50000000E+00  8.00000000E-01  8.00000000E-01
  1.50000000E+00  8.00000000E-01  8.00000000E-01  1.50000000E+00  8.00000000E-01
  8.00000000E-01  1.50000000E+00  8.00000000E-01  8.00000000E-01  1.50000000E+00
  8.00000000E-01  8.00000000E-01  1.50000000E+00  8.00000000E-01  8.00000000E-01
  1.50000000E+00  8.00000000E-01  8.00000000E-01  1.50000000E+00  8.00000000E-01
  8.00000000E-01  1.50000000E+00  8.00000000E-01  8.00000000E-01  1.50000000E+00
  8.00000000E-01  8.00000000E-01  1.50000000E+00  8.00000000E-01  8.00000000E-01
  1.50000000E+00  8.00000000E-01  8.00000000E-01  1.50000000E+00  8.00000000E-01
  8.00000000E-01  1.50000000E+00  8.00000000E-01  8.00000000E-01  1.50000000E+00
  8.00000000E-01  8.00000000E-01  1.50000000E+00  8.00000000E-01  8.00000000E-01
  1.50000000E+00  8.00000000E-01  8.00000000E-01  1.50000000E+00  8.00000000E-01
  8.00000000E-01  1.50000000E+00  8.00000000E-01  8.00000000E-01  1.50000000E+00
  8.00000000E-01  8.00000000E-01  1.50000000E+00  8.00000000E-01  8.00000000E-01
  1.50000000E+00  8.00000000E-01  8.00000000E-01  1.50000000E+00  8.00000000E-01
  8.00000000E-01  1.50000000E+00  8.00000000E-01  8.00000000E-01  1.50000000E+00
  8.00000000E-01  8.00000000E-01  1.50000000E+00  8.00000000E-01  8.00000000E-01
  1.50000000E+00  8.00000000E-01  8.00000000E-01  1.50000000E+00  8.00000000E-01
  8.00000000E-01  1.50000000E+00  8.00000000E-01  8.00000000E-01  1.50000000E+00
  8.00000000E-01  8.00000000E-01  1.50000000E+00  8.00000000E-01  8.00000000E-01
  1.50000000E+00  8.00000000E-01  8.00000000E-01  1.50000000E+00  8.00000000E-01
  8.00000000E-01  1.50000000E+00  8.00000000E-01  8.00000000E-01  1.50000000E+00
  8.00000000E-01  8.00000000E-01  1.50000000E+00  8.00000000E-01  8.00000000E-01
  1.50000000E+00  8.00000000E-01  8.00000000E-01  1.50000000E+00  8.00000000E-01
  8.00000000E-01  1.50000000E+00  8.00000000E-01  8.00000000E-01  1.50000000E+00
  8.00000000E-01  8.00000000E-01  1.50000000E+00  8.00000000E-01  8.00000000E-01
  1.50000000E+00  8.00000000E-01  8.00000000E-01  1.50000000E+00  8.00000000E-01
  8.00000000E-01  1.50000000E+00  8.00000000E-01  8.00000000E-01  1.50000000E+00
  8.00000000E-01  8.00000000E-01  1.50000000E+00  8.00000000E-01  8.00000000E-01
  1.50000000E+00  8.00000000E-01  8.00000000E-01  1.50000000E+00  8.00000000E-01
  8.00000000E-01  1.50000000E+00  8.00000000E-01  8.00000000E-01  1.50000000E+00
  8.00000000E-01  8.00000000E-01  1.50000000E+00  8.00000000E-01  8.00000000E-01
  1.50000000E+00  8.00000000E-01  8.00000000E-01  1.50000000E+00  8.00000000E-01
  8.00000000E-01  1.50000000E+00  8.00000000E-01  8.00000000E-01  1.50000000E+00
  8.00000000E-01  8.00000000E-01  1.50000000E+00  8.00000000E-01  8.00000000E-01
  1.50000000E+00  8.00000000E-01  8.00000000E-01  1.50000000E+00  8.00000000E-01
  8.00000000E-01  1.50000000E+00  8.00000000E-01  8.00000000E-01  1.50000000E+00
  8.00000000E-01  8.00000000E-01  1.50000000E+00  8.00000000E-01  8.00000000E-01
  1.50000000E+00  8.00000000E-01  8.00000000E-01  1.50000000E+00  8.00000000E-01
  8.00000000E-01  1.50000000E+00  8.00000000E-01  8.00000000E-01  1.50000000E+00
  8.00000000E-01  8.00000000E-01  1.50000000E+00  8.00000000E-01  8.00000000E-01
  1.50000000E+00  8.00000000E-01  8.00000000E-01  1.50000000E+00  8.00000000E-01
  8.00000000E-01  1.50000000E+00  8.00000000E-01  8.00000000E-01  1.50000000E+00
  8.00000000E-01  8.00000000E-01  1.50000000E+00  8.00000000E-01  8.00000000E-01
  1.50000000E+00  8.00000000E-01  8.00000000E-01  1.50000000E+00  8.00000000E-01
  8.00000000E-01  1.50000000E+00  8.00000000E-01  8.00000000E-01  1.50000000E+00
  8.00000000E-01  8.00000000E-01  1.50000000E+00  8.00000000E-01  8.00000000E-01
  1.50000000E+00  8.00000000E-01  8.00000000E-01  1.50000000E+00  8.00000000E-01
  8.00000000E-01  1.50000000E+00  8.00000000E-01  8.00000000E-01  1.50000000E+00
  8.00000000E-01  8.00000000E-01  1.50000000E+00  8.00000000E-01  8.00000000E-01
  1.50000000E+00  8.00000000E-01  8.00000000E-01  1.50000000E+00  8.00000000E-01
  8.00000000E-01  1.50000000E+00  8.00000000E-01  8.00000000E-01  1.50000000E+00
  8.00000000E-01  8.00000000E-01  1.50000000E+00  8.00000000E-01  8.00000000E-01
  1.50000000E+00  8.00000000E-01  8.00000000E-01  1.50000000E+00  8.00000000E-01
  8.00000000E-01  1.50000000E+00  8.00000000E-01  8.00000000E-01  1.50000000E+00
  8.00000000E-01  8.00000000E-01  1.50000000E+00  8.00000000E-01  8.00000000E-01
  1.50000000E+00  8.00000000E-01  8.00000000E-01  1.50000000E+00  8.00000000E-01
  8.00000000E-01  1.50000000E+00  8.00000000E-01  8.00000000E-01  1.50000000E+00
  8.00000000E-01  8.00000000E-01  1.50000000E+00  8.00000000E-01  8.00000000E-01
  1.50000000E+00  8.00000000E-01  8.00000000E-01  1.50000000E+00  8.00000000E-01
  8.00000000E-01  1.50000000E+00  8.00000000E-01  8.00000000E-01  1.50000000E+00
  8.00000000E-01  8.00000000E-01  1.50000000E+00  8.00000000E-01  8.00000000E-01
  1.50000000E+00  8.00000000E-01  8.00000000E-01  1.50000000E+00  8.00000000E-01
  8.00000000E-01  1.50000000E+00  8.00000000E-01  8.00000000E-01  1.50000000E+00
  8.00000000E-01  8.00000000E-01  1.50000000E+00  8.00000000E-01  8.00000000E-01
  1.50000000E+00  8.00000000E-01  8.00000000E-01  1.50000000E+00  8.00000000E-01
  8.00000000E-01  1.50000000E+00  8.00000000E-01  8.00000000E-01  1.50000000E+00
  8.00000000E-01  8.00000000E-01  1.50000000E+00  8.00000000E-01  8.00000000E-01
  1.50000000E+00  8.00000000E-01  8.00000000E-01  1.50000000E+00  8.00000000E-01
  8.00000000E-01  1.50000000E+00  8.00000000E-01  8.00000000E-01  1.50000000E+00
  8.00000000E-01  8.00000000E-01  1.50000000E+00  8.00000000E-01  8.00000000E-01
  1.50000000E+00  8.00000000E-01  8.00000000E-01  1.50000000E+00  8.00000000E-01
  8.00000000E-01  1.50000000E+00  8.00000000E-01  8.00000000E-01  1.50000000E+00
  8.00000000E-01  8.00000000E-01  1.50000000E+00  8.00000000E-01  8.00000000E-01
  1.50000000E+00  8.00000000E-01  8.00000000E-01  1.50000000E+00  8.00000000E-01
  8.00000000E-01  1.50000000E+00  8.00000000E-01  8.00000000E-01  1.50000000E+00
  8.00000000E-01  8.00000000E-01  1.50000000E+00  8.00000000E-01  8.00000000E-01
  1.50000000E+00  8.00000000E-01  8.00000000E-01  1.50000000E+00  8.00000000E-01
  8.00000000E-01  1.50000000E+00  8.00000000E-01  8.00000000E-01  1.50000000E+00
  8.00000000E-01  8.00000000E-01  1.50000000E+00  8.00000000E-01  8.00000000E-01
  1.50000000E+00  8.00000000E-01  8.00000000E-01  1.50000000E+00  8.00000000E-01
  8.00000000E-01  1.50000000E+00  8.00000000E-01  8.00000000E-01  1.50000000E+00
  8.00000000E-01  8.00000000E-01  1.50000000E+00  8.00000000E-01  8.00000000E-01
  1.50000000E+00  8.00000000E-01  8.00000000E-01  1.50000000E+00  8.00000000E-01
  8.00000000E-01  1.50000000E+00  8.00000000E-01  8.00000000E-01  1.50000000E+00
  8.00000000E-01  8.00000000E-01  1.50000000E+00  8.00000000E-01  8.00000000E-01
  1.50000000E+00  8.00000000E-01  8.00000000E-01  1.50000000E+00  8.00000000E-01
  8.00000000E-01  1.50000000E+00  8.00000000E-01  8.00000000E-01  1.50000000E+00
  8.00000000E-01  8.00000000E-01  1.50000000E+00  8.00000000E-01  8.00000000E-01
  1.50000000E+00  8.00000000E-01  8.00000000E-01  1.50000000E+00  8.00000000E-01
  8.00000000E-01  1.50000000E+00  8.00000000E-01  8.00000000E-01  1.50000000E+00
  8.00000000E-01  8.00000000E-01  1.50000000E+00  8.00000000E-01  8.00000000E-01
  1.50000000E+00  8.00000000E-01  8.00000000E-01  1.50000000E+00  8.00000000E-01
  8.00000000E-01  1.50000000E+00  8.00000000E-01  8.00000000E-01  1.50000000E+00
  8.00000000E-01  8.00000000E-01  1.50000000E+00  8.00000000E-01  8.00000000E-01
  1.50000000E+00  8.00000000E-01  8.00000000E-01  1.50000000E+00  8.00000000E-01
  8.00000000E-01  1.50000000E+00  8.00000000E-01  8.00000000E-01  1.50000000E+00
  8.00000000E-01  8.00000000E-01  1.50000000E+00  8.00000000E-01  8.00000000E-01
  1.50000000E+00  8.00000000E-01  8.00000000E-01  1.50000000E+00  8.00000000E-01
  8.00000000E-01  1.50000000E+00  8.00000000E-01  8.00000000E-01  1.50000000E+00
  8.00000000E-01  8.00000000E-01  1.50000000E+00  8.00000000E-01  8.00000000E-01
  1.50000000E+00  8.00000000E-01  8.00000000E-01  1.50000000E+00  8.00000000E-01
  8.00000000E-01  1.50000000E+00  8.00000000E-01  8.00000000E-01  1.50000000E+00
  8.00000000E-01  8.00000000E-01  1.50000000E+00  8.00000000E-01  8.00000000E-01
  1.50000000E+00  8.00000000E-01  8.00000000E-01  1.50000000E+00  8.00000000E-01
  8.00000000E-01  1.50000000E+00  8.00000000E-01  8.00000000E-01  1.50000000E+00
  8.00000000E-01  8.00000000E-01  1.50000000E+00  8.00000000E-01  8.00000000E-01
  1.50000000E+00  8.00000000E-01  8.00000000E-01  1.50000000E+00  8.00000000E-01
  8.00000000E-01  1.50000000E+00  8.00000000E-01  8.00000000E-01  1.50000000E+00
  8.00000000E-01  8.00000000E-01  1.50000000E+00  8.00000000E-01  8.00000000E-01
  1.50000000E+00  8.00000000E-01  8.00000000E-01  1.50000000E+00  8.00000000E-01
  8.00000000E-01  1.50000000E+00  8.00000000E-01  8.00000000E-01  1.50000000E+00
  8.00000000E-01  8.00000000E-01  1.50000000E+00  8.00000000E-01  8.00000000E-01
  1.50000000E+00  8.00000000E-01  8.00000000E-01  1.50000000E+00  8.00000000E-01
  8.00000000E-01  1.50000000E+00  8.00000000E-01  8.00000000E-01  1.50000000E+00
  8.00000000E-01  8.00000000E-01  1.50000000E+00  8.00000000E-01  8.00000000E-01
  1.50000000E+00  8.00000000E-01  8.00000000E-01  1.50000000E+00  8.00000000E-01
  8.00000000E-01  1.50000000E+00  8.00000000E-01  8.00000000E-01  1.50000000E+00
  8.00000000E-01  8.00000000E-01  1.50000000E+00  8.00000000E-01  8.00000000E-01
  1.50000000E+00  8.00000000E-01  8.00000000E-01  1.50000000E+00  8.00000000E-01
  8.00000000E-01  1.50000000E+00  8.00000000E-01  8.00000000E-01  1.50000000E+00
  8.00000000E-01  8.00000000E-01  1.50000000E+00  8.00000000E-01  8.00000000E-01
  1.50000000E+00  8.00000000E-01  8.00000000E-01  1.50000000E+00  8.00000000E-01
  8.00000000E-01  1.50000000E+00  8.00000000E-01  8.00000000E-01  1.50000000E+00
  8.00000000E-01  8.00000000E-01  1.50000000E+00  8.00000000E-01  8.00000000E-01
  1.50000000E+00  8.00000000E-01  8.00000000E-01  1.50000000E+00  8.00000000E-01
  8.00000000E-01  1.50000000E+00  8.00000000E-01  8.00000000E-01  1.50000000E+00
  8.00000000E-01  8.00000000E-01  1.50000000E+00  8.00000000E-01  8.00000000E-01
  1.50000000E+00  8.00000000E-01  8.00000000E-01  1.50000000E+00  8.00000000E-01
  8.00000000E-01  1.50000000E+00  8.00000000E-01  8.00000000E-01  1.50000000E+00
  8.00000000E-01  8.00000000E-01  1.50000000E+00  8.00000000E-01  8.00000000E-01
  1.50000000E+00  8.00000000E-01  8.00000000E-01  1.50000000E+00  8.00000000E-01
  8.00000000E-01  1.50000000E+00  8.00000000E-01  8.00000000E-01  1.50000000E+00
  8.00000000E-01  8.00000000E-01  1.50000000E+00  8.00000000E-01  8.00000000E-01
  1.50000000E+00  8.00000000E-01  8.00000000E-01  1.50000000E+00  8.00000000E-01
  8.00000000E-01  1.50000000E+00  8.00000000E-01  8.00000000E-01  1.50000000E+00
  8.00000000E-01  8.00000000E-01  1.50000000E+00  8.00000000E-01  8.00000000E-01
  1.50000000E+00  8.00000000E-01  8.00000000E-01  1.50000000E+00  8.00000000E-01
  8.00000000E-01  1.50000000E+00  8.00000000E-01  8.00000000E-01  1.50000000E+00
  8.00000000E-01  8.00000000E-01  1.50000000E+00  8.00000000E-01  8.00000000E-01
  1.50000000E+00  8.00000000E-01  8.00000000E-01  1.50000000E+00  8.00000000E-01
  8.00000000E-01  1.50000000E+00  8.00000000E-01  8.00000000E-01  1.50000000E+00
  8.00000000E-01  8.00000000E-01  1.50000000E+00  8.00000000E-01  8.00000000E-01
  1.50000000E+00  8.00000000E-01  8.00000000E-01  1.50000000E+00  8.00000000E-01
  8.00000000E-01  1.50000000E+00  8.00000000E-01  8.00000000E-01  1.50000000E+00
  8.00000000E-01  8.00000000E-01  1.50000000E+00  8.00000000E-01  8.00000000E-01
  1.50000000E+00  8.00000000E-01  8.00000000E-01  1.50000000E+00  8.00000000E-01
  8.00000000E-01  1.50000000E+00  8.00000000E-01  8.00000000E-01  1.50000000E+00
  8.00000000E-01  8.00000000E-01  1.50000000E+00  8.00000000E-01  8.00000000E-01
  1.50000000E+00  8.00000000E-01  8.00000000E-01  1.50000000E+00  8.00000000E-01
  8.00000000E-01  1.50000000E+00  8.00000000E-01  8.00000000E-01  1.50000000E+00
  8.00000000E-01  8.00000000E-01  1.50000000E+00  8.00000000E-01  8.00000000E-01
  1.50000000E+00  8.00000000E-01  8.00000000E-01  1.50000000E+00  8.00000000E-01
  8.00000000E-01  1.50000000E+00  8.00000000E-01  8.00000000E-01  1.50000000E+00
  8.00000000E-01  8.00000000E-01  1.50000000E+00  8.00000000E-01  8.00000000E-01
  1.50000000E+00  8.00000000E-01  8.00000000E-01  1.50000000E+00  8.00000000E-01
  8.00000000E-01  1.50000000E+00  8.00000000E-01  8.00000000E-01  1.50000000E+00
  8.00000000E-01  8.00000000E-01  1.50000000E+00  8.00000000E-01  8.00000000E-01
  1.50000000E+00  8.00000000E-01  8.00000000E-01  1.50000000E+00  8.00000000E-01
  8.00000000E-01  1.50000000E+00  8.00000000E-01  8.00000000E-01  1.50000000E+00
  8.00000000E-01  8.00000000E-01  1.50000000E+00  8.00000000E-01  8.00000000E-01
  1.50000000E+00  8.00000000E-01  8.00000000E-01  1.50000000E+00  8.00000000E-01
  8.00000000E-01  1.50000000E+00  8.00000000E-01  8.00000000E-01  1.50000000E+00
  8.00000000E-01  8.00000000E-01  1.50000000E+00  8.00000000E-01  8.00000000E-01
  1.50000000E+00  8.00000000E-01  8.00000000E-01  1.50000000E+00  8.00000000E-01
  8.00000000E-01  1.50000000E+00  8.00000000E-01  8.00000000E-01  1.50000000E+00
  8.00000000E-01  8.00000000E-01  1.50000000E+00  8.00000000E-01  8.00000000E-01
  1.50000000E+00  8.00000000E-01  8.00000000E-01  1.50000000E+00  8.00000000E-01
  8.00000000E-01  1.50000000E+00  8.00000000E-01  8.00000000E-01  1.50000000E+00
  8.00000000E-01  8.00000000E-01  1.50000000E+00  8.00000000E-01  8.00000000E-01
  1.50000000E+00  8.00000000E-01  8.00000000E-01  1.50000000E+00  8.00000000E-01
  8.00000000E-01  1.50000000E+00  8.00000000E-01  8.00000000E-01  1.50000000E+00
  8.00000000E-01  8.00000000E-01  1.50000000E+00  8.00000000E-01  8.00000000E-01
  1.50000000E+00  8.00000000E-01  8.00000000E-01  1.50000000E+00  8.00000000E-01
  8.00000000E-01  1.50000000E+00  8.00000000E-01  8.00000000E-01  1.50000000E+00
  8.00000000E-01  8.00000000E-01  1.50000000E+00  8.00000000E-01  8.00000000E-01
  1.50000000E+00  8.00000000E-01  8.00000000E-01  1.50000000E+00  8.00000000E-01
  8.00000000E-01  1.50000000E+00  8.00000000E-01  8.00000000E-01  1.50000000E+00
  8.00000000E-01  8.00000000E-01  1.50000000E+00  8.00000000E-01  8.00000000E-01
  1.50000000E+00  8.00000000E-01  8.00000000E-01  1.50000000E+00  8.00000000E-01
  8.00000000E-01  1.50000000E+00  8.00000000E-01  8.00000000E-01  1.50000000E+00
  8.00000000E-01  8.00000000E-01  1.50000000E+00  8.00000000E-01  8.00000000E-01
  1.50000000E+00  8.00000000E-01  8.00000000E-01  1.50000000E+00  8.00000000E-01
  8.00000000E-01  1.50000000E+00  8.00000000E-01  8.00000000E-01  1.50000000E+00
  8.00000000E-01  8.00000000E-01  1.50000000E+00  8.00000000E-01  8.00000000E-01
  1.50000000E+00  8.00000000E-01  8.00000000E-01  1.50000000E+00  8.00000000E-01
  8.00000000E-01  1.50000000E+00  8.00000000E-01  8.00000000E-01  1.50000000E+00
  8.00000000E-01  8.00000000E-01  1.50000000E+00  8.00000000E-01  8.00000000E-01
  1.50000000E+00  8.00000000E-01  8.00000000E-01  1.50000000E+00  8.00000000E-01
  8.00000000E-01  1.50000000E+00  8.00000000E-01  8.00000000E-01  1.50000000E+00
  8.00000000E-01  8.00000000E-01  1.50000000E+00  8.00000000E-01  8.00000000E-01
  1.50000000E+00  8.00000000E-01  8.00000000E-01  1.50000000E+00  8.00000000E-01
  8.00000000E-01  1.50000000E+00  8.00000000E-01  8.00000000E-01  1.50000000E+00
  8.00000000E-01  8.00000000E-01  1.50000000E+00  8.00000000E-01  8.00000000E-01
  1.50000000E+00  8.00000000E-01  8.00000000E-01  1.50000000E+00  8.00000000E-01
  8.00000000E-01  1.50000000E+00  8.00000000E-01  8.00000000E-01  1.50000000E+00
  8.00000000E-01  8.00000000E-01  1.50000000E+00  8.00000000E-01  8.00000000E-01
  1.50000000E+00  8.00000000E-01  8.00000000E-01  1.50000000E+00  8.00000000E-01
  8.00000000E-01  1.50000000E+00  8.00000000E-01  8.00000000E-01  1.50000000E+00
  8.00000000E-01  8.00000000E-01  1.50000000E+00  8.00000000E-01  8.00000000E-01
  1.50000000E+00  8.00000000E-01  8.00000000E-01  1.50000000E+00  8.00000000E-01
  8.00000000E-01  1.50000000E+00  8.00000000E-01  8.00000000E-01  1.50000000E+00
  8.00000000E-01  8.00000000E-01  1.50000000E+00  8.00000000E-01  8.00000000E-01
  1.50000000E+00  8.00000000E-01  8.00000000E-01  1.50000000E+00  8.00000000E-01
  8.00000000E-01  1.50000000E+00  8.00000000E-01  8.00000000E-01  1.50000000E+00
  8.00000000E-01  8.00000000E-01  1.50000000E+00  8.00000000E-01  8.00000000E-01
  1.50000000E+00  8.00000000E-01  8.00000000E-01  1.50000000E+00  8.00000000E-01
  8.00000000E-01  1.50000000E+00  8.00000000E-01  8.00000000E-01  1.50000000E+00
  8.00000000E-01  8.00000000E-01  1.50000000E+00  8.00000000E-01  8.00000000E-01
  1.50000000E+00  8.00000000E-01  8.00000000E-01  1.50000000E+00  8.00000000E-01
  8.00000000E-01  1.50000000E+00  8.00000000E-01  8.00000000E-01  1.50000000E+00
  8.00000000E-01  8.00000000E-01  1.50000000E+00  8.00000000E-01  8.00000000E-01
  1.50000000E+00  8.00000000E-01  8.00000000E-01  1.50000000E+00  8.00000000E-01
  8.00000000E-01  1.50000000E+00  8.00000000E-01  8.00000000E-01  1.50000000E+00
  8.00000000E-01  8.00000000E-01  1.50000000E+00  8.00000000E-01  8.00000000E-01
  1.50000000E+00  8.00000000E-01  8.00000000E-01  1.50000000E+00  8.00000000E-01
  8.00000000E-01  1.50000000E+00  8.00000000E-01  8.00000000E-01  1.50000000E+00
  8.00000000E-01  8.00000000E-01  1.50000000E+00  8.00000000E-01  8.00000000E-01
  1.50000000E+00  8.00000000E-01  8.00000000E-01  1.50000000E+00  8.00000000E-01
  8.00000000E-01  1.50000000E+00  8.00000000E-01  8.00000000E-01  1.50000000E+00
  8.00000000E-01  8.00000000E-01  1.50000000E+00  8.00000000E-01  8.00000000E-01
  1.50000000E+00  8.00000000E-01  8.00000000E-01  1.50000000E+00  8.00000000E-01
  8.00000000E-01  1.50000000E+00  8.00000000E-01  8.00000000E-01  1.50000000E+00
  8.00000000E-01  8.00000000E-01  1.50000000E+00  8.00000000E-01  8.00000000E-01
  1.50000000E+00  8.00000000E-01  8.00000000E-01  1.50000000E+00  8.00000000E-01
  8.00000000E-01  1.50000000E+00  8.00000000E-01  8.00000000E-01  1.50000000E+00
  8.00000000E-01  8.00000000E-01  1.50000000E+00  8.00000000E-01  8.00000000E-01
  1.50000000E+00  8.00000000E-01  8.00000000E-01  1.50000000E+00  8.00000000E-01
  8.00000000E-01  1.50000000E+00  8.00000000E-01  8.00000000E-01  1.50000000E+00
  8.00000000E-01  8.00000000E-01  1.50000000E+00  8.00000000E-01  8.00000000E-01
  1.50000000E+00  8.00000000E-01  8.00000000E-01  1.50000000E+00  8.00000000E-01
  8.00000000E-01  1.50000000E+00  8.00000000E-01  8.00000000E-01  1.50000000E+00
  8.00000000E-01  8.00000000E-01  1.50000000E+00  8.00000000E-01  8.00000000E-01
  1.50000000E+00  8.00000000E-01  8.00000000E-01  1.50000000E+00  8.00000000E-01
  8.00000000E-01  1.50000000E+00  8.00000000E-01  8.00000000E-01  1.50000000E+00
  8.00000000E-01  8.00000000E-01  1.50000000E+00  8.00000000E-01  8.00000000E-01
  1.50000000E+00  8.00000000E-01  8.00000000E-01  1.50000000E+00  8.00000000E-01
  8.00000000E-01  1.50000000E+00  8.00000000E-01  8.00000000E-01  1.50000000E+00
  8.00000000E-01  8.00000000E-01  1.50000000E+00  8.00000000E-01  8.00000000E-01
  1.50000000E+00  8.00000000E-01  8.00000000E-01  1.50000000E+00  8.00000000E-01
  8.00000000E-01  1.50000000E+00  8.00000000E-01  8.00000000E-01  1.50000000E+00
  8.00000000E-01  8.00000000E-01  1.50000000E+00  8.00000000E-01  8.00000000E-01
  1.50000000E+00  8.00000000E-01  8.00000000E-01  1.50000000E+00  8.00000000E-01
  8.00000000E-01  1.50000000E+00  8.00000000E-01  8.00000000E-01  1.50000000E+00
  8.00000000E-01  8.00000000E-01  1.50000000E+00  8.00000000E-01  8.00000000E-01
  1.50000000E+00  8.00000000E-01  8.00000000E-01  1.50000000E+00  8.00000000E-01
  8.00000000E-01  1.50000000E+00  8.00000000E-01  8.00000000E-01  1.50000000E+00
  8.00000000E-01  8.00000000E-01  1.50000000E+00  8.00000000E-01  8.00000000E-01
  1.50000000E+00  8.00000000E-01  8.00000000E-01  1.50000000E+00  8.00000000E-01
  8.00000000E-01  1.50000000E+00  8.00000000E-01  8.00000000E-01  1.50000000E+00
  8.00000000E-01  8.00000000E-01  1.50000000E+00  8.00000000E-01  8.00000000E-01
  1.50000000E+00  8.00000000E-01  8.00000000E-01  1.50000000E+00  8.00000000E-01
  8.00000000E-01  1.50000000E+00  8.00000000E-01  8.00000000E-01  1.50000000E+00
  8.00000000E-01  8.00000000E-01  1.50000000E+00  8.00000000E-01  8.00000000E-01
  1.50000000E+00  8.00000000E-01  8.00000000E-01  1.50000000E+00  8.00000000E-01
  8.00000000E-01  1.50000000E+00  8.00000000E-01  8.00000000E-01  1.50000000E+00
  8.00000000E-01  8.00000000E-01  1.50000000E+00  8.00000000E-01  8.00000000E-01
  1.50000000E+00  8.00000000E-01  8.00000000E-01  1.50000000E+00  8.00000000E-01
  8.00000000E-01  1.50000000E+00  8.00000000E-01  8.00000000E-01  1.50000000E+00
  8.00000000E-01  8.00000000E-01  1.50000000E+00  8.00000000E-01  8.00000000E-01
  1.50000000E+00  8.00000000E-01  8.00000000E-01  1.50000000E+00  8.00000000E-01
  8.00000000E-01  1.50000000E+00  8.00000000E-01  8.00000000E-01  1.50000000E+00
  8.00000000E-01  8.00000000E-01  1.50000000E+00  8.00000000E-01  8.00000000E-01
  1.50000000E+00  8.00000000E-01  8.00000000E-01  1.50000000E+00  8.00000000E-01
  8.00000000E-01  1.50000000E+00  8.00000000E-01  8.00000000E-01  1.50000000E+00
  8.00000000E-01  8.00000000E-01  1.50000000E+00  8.00000000E-01  8.00000000E-01
  1.50000000E+00  8.00000000E-01  8.00000000E-01  1.50000000E+00  8.00000000E-01
  8.00000000E-01  1.50000000E+00  8.00000000E-01  8.00000000E-01  1.50000000E+00
  8.00000000E-01  8.00000000E-01  1.50000000E+00  8.00000000E-01  8.00000000E-01
  1.50000000E+00  8.00000000E-01  8.00000000E-01  1.50000000E+00  8.00000000E-01
  8.00000000E-01  1.50000000E+00  8.00000000E-01  8.00000000E-01  1.50000000E+00
  8.00000000E-01  8.00000000E-01  1.50000000E+00  8.00000000E-01  8.00000000E-01
  1.50000000E+00  8.00000000E-01  8.00000000E-01  1.50000000E+00  8.00000000E-01
  8.00000000E-01  1.50000000E+00  8.00000000E-01  8.00000000E-01  1.50000000E+00
  8.00000000E-01  8.00000000E-01  1.50000000E+00  8.00000000E-01  8.00000000E-01
  1.50000000E+00  8.00000000E-01  8.00000000E-01  1.50000000E+00  8.00000000E-01
  8.00000000E-01  1.50000000E+00  8.00000000E-01  8.00000000E-01  1.50000000E+00
  8.00000000E-01  8.00000000E-01  1.50000000E+00  8.00000000E-01  8.00000000E-01
  1.50000000E+00  8.00000000E-01  8.00000000E-01  1.50000000E+00  8.00000000E-01
  8.00000000E-01  1.50000000E+00  8.00000000E-01  8.00000000E-01  1.50000000E+00
  8.00000000E-01  8.00000000E-01  1.50000000E+00  8.00000000E-01  8.00000000E-01
  1.50000000E+00  8.00000000E-01  8.00000000E-01  1.50000000E+00  8.00000000E-01
  8.00000000E-01  1.50000000E+00  8.00000000E-01  8.00000000E-01  1.50000000E+00
  8.00000000E-01  8.00000000E-01  1.50000000E+00  8.00000000E-01  8.00000000E-01
  1.50000000E+00  8.00000000E-01  8.00000000E-01  1.50000000E+00  8.00000000E-01
  8.00000000E-01  1.50000000E+00  8.00000000E-01  8.00000000E-01  1.50000000E+00
  8.00000000E-01  8.00000000E-01  1.50000000E+00  8.00000000E-01  8.00000000E-01
  1.50000000E+00  8.00000000E-01  8.00000000E-01  1.50000000E+00  8.00000000E-01
  8.00000000E-01  1.50000000E+00  8.00000000E-01  8.00000000E-01  1.50000000E+00
  8.00000000E-01  8.00000000E-01  1.50000000E+00  8.00000000E-01  8.00000000E-01
  1.50000000E+00  8.00000000E-01  8.00000000E-01  1.50000000E+00  8.00000000E-01
  8.00000000E-01  1.50000000E+00  8.00000000E-01  8.00000000E-01  1.50000000E+00
  8.00000000E-01  8.00000000E-01  1.50000000E+00  8.00000000E-01  8.00000000E-01
  1.50000000E+00  8.00000000E-01  8.00000000E-01  1.50000000E+00  8.00000000E-01
  8.00000000E-01  1.50000000E+00  8.00000000E-01  8.00000000E-01  1.50000000E+00
  8.00000000E-01  8.00000000E-01  1.50000000E+00  8.00000000E-01  8.00000000E-01
  1.50000000E+00  8.00000000E-01  8.00000000E-01  1.50000000E+00  8.00000000E-01
  8.00000000E-01  1.50000000E+00  8.00000000E-01  8.00000000E-01  1.50000000E+00
  8.00000000E-01  8.00000000E-01  1.50000000E+00  8.00000000E-01  8.00000000E-01
  1.50000000E+00  8.00000000E-01  8.00000000E-01  1.50000000E+00  8.00000000E-01
  8.00000000E-01  1.50000000E+00  8.00000000E-01  8.00000000E-01  1.50000000E+00
  8.00000000E-01  8.00000000E-01  1.50000000E+00  8.00000000E-01  8.00000000E-01
  1.50000000E+00  8.00000000E-01  8.00000000E-01  1.50000000E+00  8.00000000E-01
  8.00000000E-01  1.50000000E+00  8.00000000E-01  8.00000000E-01  1.50000000E+00
  8.00000000E-01  8.00000000E-01  1.50000000E+00  8.00000000E-01  8.00000000E-01
  1.50000000E+00  8.00000000E-01  8.00000000E-01  1.50000000E+00  8.00000000E-01
  8.00000000E-01  1.50000000E+00  8.00000000E-01  8.00000000E-01  1.50000000E+00
  8.00000000E-01  8.00000000E-01  1.50000000E+00  8.00000000E-01  8.00000000E-01
  1.50000000E+00  8.00000000E-01  8.00000000E-01  1.50000000E+00  8.00000000E-01
  8.00000000E-01  1.50000000E+00  8.00000000E-01  8.00000000E-01  1.50000000E+00
  8.00000000E-01  8.00000000E-01  1.50000000E+00  8.00000000E-01  8.00000000E-01
  1.50000000E+00  8.00000000E-01  8.00000000E-01  1.50000000E+00  8.00000000E-01
  8.00000000E-01  1.50000000E+00  8.00000000E-01  8.00000000E-01  1.50000000E+00
  8.00000000E-01  8.00000000E-01  1.50000000E+00  8.00000000E-01  8.00000000E-01
  1.50000000E+00  8.00000000E-01  8.00000000E-01  1.50000000E+00  8.00000000E-01
  8.00000000E-01  1.50000000E+00  8.00000000E-01  8.00000000E-01  1.50000000E+00
  8.00000000E-01  8.00000000E-01  1.50000000E+00  8.00000000E-01  8.00000000E-01
  1.50000000E+00  8.00000000E-01  8.00000000E-01  1.50000000E+00  8.00000000E-01
  8.00000000E-01  1.50000000E+00  8.00000000E-01  8.00000000E-01  1.50000000E+00
  8.00000000E-01  8.00000000E-01  1.50000000E+00  8.00000000E-01  8.00000000E-01
  1.50000000E+00  8.00000000E-01  8.00000000E-01  1.50000000E+00  8.00000000E-01
  8.00000000E-01  1.50000000E+00  8.00000000E-01  8.00000000E-01  1.50000000E+00
  8.00000000E-01  8.00000000E-01  1.50000000E+00  8.00000000E-01  8.00000000E-01
  1.50000000E+00  8.00000000E-01  8.00000000E-01  1.50000000E+00  8.00000000E-01
  8.00000000E-01  1.50000000E+00  8.00000000E-01  8.00000000E-01  1.50000000E+00
  8.00000000E-01  8.00000000E-01  1.50000000E+00  8.00000000E-01  8.00000000E-01
  1.50000000E+00  8.00000000E-01  8.00000000E-01  1.50000000E+00  8.00000000E-01
  8.00000000E-01  1.50000000E+00  8.00000000E-01  8.00000000E-01  1.50000000E+00
  8.00000000E-01  8.00000000E-01  1.50000000E+00  8.00000000E-01  8.00000000E-01
  1.50000000E+00  8.00000000E-01  8.00000000E-01  1.50000000E+00  8.00000000E-01
  8.00000000E-01  1.50000000E+00  8.00000000E-01  8.00000000E-01  1.50000000E+00
  8.00000000E-01  8.00000000E-01  1.50000000E+00  8.00000000E-01  8.00000000E-01
  1.50000000E+00  8.00000000E-01  8.00000000E-01  1.50000000E+00  8.00000000E-01
  8.00000000E-01  1.50000000E+00  8.00000000E-01  8.00000000E-01  1.50000000E+00
  8.00000000E-01  8.00000000E-01  1.50000000E+00  8.00000000E-01  8.00000000E-01
  1.50000000E+00  8.00000000E-01  8.00000000E-01  1.50000000E+00  8.00000000E-01
  8.00000000E-01  1.50000000E+00  8.00000000E-01  8.00000000E-01  1.50000000E+00
  8.00000000E-01  8.00000000E-01  1.50000000E+00  8.00000000E-01  8.00000000E-01
  1.50000000E+00  8.00000000E-01  8.00000000E-01  1.50000000E+00  8.00000000E-01
  8.00000000E-01  1.50000000E+00  8.00000000E-01  8.00000000E-01  1.50000000E+00
  8.00000000E-01  8.00000000E-01  1.50000000E+00  8.00000000E-01  8.00000000E-01
  1.50000000E+00  8.00000000E-01  8.00000000E-01  1.50000000E+00  8.00000000E-01
  8.00000000E-01  1.50000000E+00  8.00000000E-01  8.00000000E-01  1.50000000E+00
  8.00000000E-01  8.00000000E-01  1.50000000E+00  8.00000000E-01  8.00000000E-01
  1.50000000E+00  8.00000000E-01  8.00000000E-01  1.50000000E+00  8.00000000E-01
  8.00000000E-01  1.50000000E+00  8.00000000E-01  8.00000000E-01  1.50000000E+00
  8.00000000E-01  8.00000000E-01  1.50000000E+00  8.00000000E-01  8.00000000E-01
  1.50000000E+00  8.00000000E-01  8.00000000E-01  1.50000000E+00  8.00000000E-01
  8.00000000E-01  1.50000000E+00  8.00000000E-01  8.00000000E-01  1.50000000E+00
  8.00000000E-01  8.00000000E-01  1.50000000E+00  8.00000000E-01  8.00000000E-01
  1.50000000E+00  8.00000000E-01  8.00000000E-01  1.50000000E+00  8.00000000E-01
  8.00000000E-01  1.50000000E+00  8.00000000E-01  8.00000000E-01  1.50000000E+00
  8.00000000E-01  8.00000000E-01  1.50000000E+00  8.00000000E-01  8.00000000E-01
  1.50000000E+00  8.00000000E-01  8.00000000E-01  1.50000000E+00  8.00000000E-01
  8.00000000E-01  1.50000000E+00  8.00000000E-01  8.00000000E-01  1.50000000E+00
  8.00000000E-01  8.00000000E-01  1.50000000E+00  8.00000000E-01  8.00000000E-01
  1.50000000E+00  8.00000000E-01  8.00000000E-01  1.50000000E+00  8.00000000E-01
  8.00000000E-01  1.50000000E+00  8.00000000E-01  8.00000000E-01  1.50000000E+00
  8.00000000E-01  8.00000000E-01  1.50000000E+00  8.00000000E-01  8.00000000E-01
  1.50000000E+00  8.00000000E-01  8.00000000E-01  1.50000000E+00  8.00000000E-01
  8.00000000E-01  1.50000000E+00  8.00000000E-01  8.00000000E-01  1.50000000E+00
  8.00000000E-01  8.00000000E-01  1.50000000E+00  8.00000000E-01  8.00000000E-01
  1.50000000E+00  8.00000000E-01  8.00000000E-01  1.50000000E+00  8.00000000E-01
  8.00000000E-01  1.50000000E+00  8.00000000E-01  8.00000000E-01  1.50000000E+00
  8.00000000E-01  8.00000000E-01  1.50000000E+00  8.00000000E-01  8.00000000E-01
  1.50000000E+00  8.00000000E-01  8.00000000E-01  1.50000000E+00  8.00000000E-01
  8.00000000E-01  1.50000000E+00  8.00000000E-01  8.00000000E-01  1.50000000E+00
  8.00000000E-01  8.00000000E-01  1.50000000E+00  8.00000000E-01  8.00000000E-01
  1.50000000E+00  8.00000000E-01  8.00000000E-01  1.50000000E+00  8.00000000E-01
  8.00000000E-01  1.50000000E+00  8.00000000E-01  8.00000000E-01  1.50000000E+00
  8.00000000E-01  8.00000000E-01  1.50000000E+00  8.00000000E-01  8.00000000E-01
  1.50000000E+00  8.00000000E-01  8.00000000E-01  1.50000000E+00  8.00000000E-01
  8.00000000E-01  1.50000000E+00  8.00000000E-01  8.00000000E-01  1.50000000E+00
  8.00000000E-01  8.00000000E-01  1.50000000E+00  8.00000000E-01  8.00000000E-01
  1.50000000E+00  8.00000000E-01  8.00000000E-01  1.50000000E+00  8.00000000E-01
  8.00000000E-01  1.50000000E+00  8.00000000E-01  8.00000000E-01  1.50000000E+00
  8.00000000E-01  8.00000000E-01  1.50000000E+00  8.00000000E-01  8.00000000E-01
  1.50000000E+00  8.00000000E-01  8.00000000E-01  1.50000000E+00  8.00000000E-01
  8.00000000E-01  1.50000000E+00  8.00000000E-01  8.00000000E-01  1.50000000E+00
  8.00000000E-01  8.00000000E-01  1.50000000E+00  8.00000000E-01  8.00000000E-01
  1.50000000E+00  8.00000000E-01  8.00000000E-01  1.50000000E+00  8.00000000E-01
  8.00000000E-01  1.50000000E+00  8.00000000E-01  8.00000000E-01  1.50000000E+00
  8.00000000E-01  8.00000000E-01  1.50000000E+00  8.00000000E-01  8.00000000E-01
  1.50000000E+00  8.00000000E-01  8.00000000E-01  1.50000000E+00  8.00000000E-01
  8.00000000E-01  1.50000000E+00  8.00000000E-01  8.00000000E-01  1.50000000E+00
  8.00000000E-01  8.00000000E-01  1.50000000E+00  8.00000000E-01  8.00000000E-01
  1.50000000E+00  8.00000000E-01  8.00000000E-01  1.50000000E+00  8.00000000E-01
  8.00000000E-01  1.50000000E+00  8.00000000E-01  8.00000000E-01  1.50000000E+00
  8.00000000E-01  8.00000000E-01  1.50000000E+00  8.00000000E-01  8.00000000E-01
  1.50000000E+00  8.00000000E-01  8.00000000E-01  1.50000000E+00  8.00000000E-01
  8.00000000E-01  1.50000000E+00  8.00000000E-01  8.00000000E-01  1.50000000E+00
  8.00000000E-01  8.00000000E-01  1.50000000E+00  8.00000000E-01  8.00000000E-01
  1.50000000E+00  8.00000000E-01  8.00000000E-01  1.50000000E+00  8.00000000E-01
  8.00000000E-01  1.50000000E+00  8.00000000E-01  8.00000000E-01  1.50000000E+00
  8.00000000E-01  8.00000000E-01  1.50000000E+00  8.00000000E-01  8.00000000E-01
  1.50000000E+00  8.00000000E-01  8.00000000E-01  1.50000000E+00  8.00000000E-01
  8.00000000E-01  1.50000000E+00  8.00000000E-01  8.00000000E-01  1.50000000E+00
  8.00000000E-01  8.00000000E-01  1.50000000E+00  8.00000000E-01  8.00000000E-01
  1.50000000E+00  8.00000000E-01  8.00000000E-01  1.50000000E+00  8.00000000E-01
  8.00000000E-01  1.50000000E+00  8.00000000E-01  8.00000000E-01  1.50000000E+00
  8.00000000E-01  8.00000000E-01  1.50000000E+00  8.00000000E-01  8.00000000E-01
  1.50000000E+00  8.00000000E-01  8.00000000E-01  1.50000000E+00  8.00000000E-01
  8.00000000E-01  1.50000000E+00  8.00000000E-01  8.00000000E-01  1.50000000E+00
  8.00000000E-01  8.00000000E-01  1.50000000E+00  8.00000000E-01  8.00000000E-01
  1.50000000E+00  8.00000000E-01  8.00000000E-01  1.50000000E+00  8.00000000E-01
  8.00000000E-01  1.50000000E+00  8.00000000E-01  8.00000000E-01  1.50000000E+00
  8.00000000E-01  8.00000000E-01  1.50000000E+00  8.00000000E-01  8.00000000E-01
  1.50000000E+00  8.00000000E-01  8.00000000E-01  1.50000000E+00  8.00000000E-01
  8.00000000E-01  1.50000000E+00  8.00000000E-01  8.00000000E-01  1.50000000E+00
  8.00000000E-01  8.00000000E-01  1.50000000E+00  8.00000000E-01  8.00000000E-01
  1.50000000E+00  8.00000000E-01  8.00000000E-01  1.50000000E+00  8.00000000E-01
  8.00000000E-01  1.50000000E+00  8.00000000E-01  8.00000000E-01  1.50000000E+00
  8.00000000E-01  8.00000000E-01  1.50000000E+00  8.00000000E-01  8.00000000E-01
  1.50000000E+00  8.00000000E-01  8.00000000E-01  1.50000000E+00  8.00000000E-01
  8.00000000E-01  1.50000000E+00  8.00000000E-01  8.00000000E-01  1.50000000E+00
  8.00000000E-01  8.00000000E-01  1.50000000E+00  8.00000000E-01  8.00000000E-01
  1.50000000E+00  8.00000000E-01  8.00000000E-01  1.50000000E+00  8.00000000E-01
  8.00000000E-01  1.50000000E+00  8.00000000E-01  8.00000000E-01  1.50000000E+00
  8.00000000E-01  8.00000000E-01  1.50000000E+00  8.00000000E-01  8.00000000E-01
  1.50000000E+00  8.00000000E-01  8.00000000E-01  1.50000000E+00  8.00000000E-01
  8.00000000E-01  1.50000000E+00  8.00000000E-01  8.00000000E-01  1.50000000E+00
  8.00000000E-01  8.00000000E-01  1.50000000E+00  8.00000000E-01  8.00000000E-01
  1.50000000E+00  8.00000000E-01  8.00000000E-01  1.50000000E+00  8.00000000E-01
  8.00000000E-01  1.50000000E+00  8.00000000E-01  8.00000000E-01  1.50000000E+00
  8.00000000E-01  8.00000000E-01  1.50000000E+00  8.00000000E-01  8.00000000E-01
  1.50000000E+00  8.00000000E-01  8.00000000E-01  1.50000000E+00  8.00000000E-01
  8.00000000E-01  1.50000000E+00  8.00000000E-01  8.00000000E-01  1.50000000E+00
  8.00000000E-01  8.00000000E-01  1.50000000E+00  8.00000000E-01  8.00000000E-01
  1.50000000E+00  8.00000000E-01  8.00000000E-01  1.50000000E+00  8.00000000E-01
  8.00000000E-01  1.50000000E+00  8.00000000E-01  8.00000000E-01  1.50000000E+00
  8.00000000E-01  8.00000000E-01  1.50000000E+00  8.00000000E-01  8.00000000E-01
  1.50000000E+00  8.00000000E-01  8.00000000E-01  1.50000000E+00  8.00000000E-01
  8.00000000E-01  1.50000000E+00  8.00000000E-01  8.00000000E-01  1.50000000E+00
  8.00000000E-01  8.00000000E-01  1.50000000E+00  8.00000000E-01  8.00000000E-01
  1.50000000E+00  8.00000000E-01  8.00000000E-01  1.50000000E+00  8.00000000E-01
  8.00000000E-01  1.50000000E+00  8.00000000E-01  8.00000000E-01  1.50000000E+00
  8.00000000E-01  8.00000000E-01  1.50000000E+00  8.00000000E-01  8.00000000E-01
  1.50000000E+00  8.00000000E-01  8.00000000E-01  1.50000000E+00  8.00000000E-01
  8.00000000E-01  1.50000000E+00  8.00000000E-01  8.00000000E-01  1.50000000E+00
  8.00000000E-01  8.00000000E-01  1.50000000E+00  8.00000000E-01  8.00000000E-01
  1.50000000E+00  8.00000000E-01  8.00000000E-01  1.50000000E+00  8.00000000E-01
  8.00000000E-01  1.50000000E+00  8.00000000E-01  8.00000000E-01  1.50000000E+00
  8.00000000E-01  8.00000000E-01  1.50000000E+00  8.00000000E-01  8.00000000E-01
  1.50000000E+00  8.00000000E-01  8.00000000E-01  1.50000000E+00  8.00000000E-01
  8.00000000E-01  1.50000000E+00  8.00000000E-01  8.00000000E-01  1.50000000E+00
  8.00000000E-01  8.00000000E-01  1.50000000E+00  8.00000000E-01  8.00000000E-01
  1.50000000E+00  8.00000000E-01  8.00000000E-01  1.50000000E+00  8.00000000E-01
  8.00000000E-01  1.50000000E+00  8.00000000E-01  8.00000000E-01  1.50000000E+00
  8.00000000E-01  8.00000000E-01  1.50000000E+00  8.00000000E-01  8.00000000E-01
  1.50000000E+00  8.00000000E-01  8.00000000E-01  1.50000000E+00  8.00000000E-01
  8.00000000E-01  1.50000000E+00  8.00000000E-01  8.00000000E-01  1.50000000E+00
  8.00000000E-01  8.00000000E-01  1.50000000E+00  8.00000000E-01  8.00000000E-01
  1.50000000E+00  8.00000000E-01  8.00000000E-01  1.50000000E+00  8.00000000E-01
  8.00000000E-01  1.50000000E+00  8.00000000E-01  8.00000000E-01  1.50000000E+00
  8.00000000E-01  8.00000000E-01  1.50000000E+00  8.00000000E-01  8.00000000E-01
  1.50000000E+00  8.00000000E-01  8.00000000E-01  1.50000000E+00  8.00000000E-01
  8.00000000E-01  1.50000000E+00  8.00000000E-01  8.00000000E-01  1.50000000E+00
  8.00000000E-01  8.00000000E-01  1.50000000E+00  8.00000000E-01  8.00000000E-01
  1.50000000E+00  8.00000000E-01  8.00000000E-01  1.50000000E+00  8.00000000E-01
  8.00000000E-01  1.50000000E+00  8.00000000E-01  8.00000000E-01  1.50000000E+00
  8.00000000E-01  8.00000000E-01  1.50000000E+00  8.00000000E-01  8.00000000E-01
  1.50000000E+00  8.00000000E-01  8.00000000E-01  1.50000000E+00  8.00000000E-01
  8.00000000E-01  1.50000000E+00  8.00000000E-01  8.00000000E-01  1.50000000E+00
  8.00000000E-01  8.00000000E-01  1.50000000E+00  8.00000000E-01  8.00000000E-01
  1.50000000E+00  8.00000000E-01  8.00000000E-01  1.50000000E+00  8.00000000E-01
  8.00000000E-01  1.50000000E+00  8.00000000E-01  8.00000000E-01  1.50000000E+00
  8.00000000E-01  8.00000000E-01  1.50000000E+00  8.00000000E-01  8.00000000E-01
  1.50000000E+00  8.00000000E-01  8.00000000E-01  1.50000000E+00  8.00000000E-01
  8.00000000E-01  1.50000000E+00  8.00000000E-01  8.00000000E-01  1.50000000E+00
  8.00000000E-01  8.00000000E-01  1.50000000E+00  8.00000000E-01  8.00000000E-01
  1.50000000E+00  8.00000000E-01  8.00000000E-01  1.50000000E+00  8.00000000E-01
  8.00000000E-01  1.50000000E+00  8.00000000E-01  8.00000000E-01  1.50000000E+00
  8.00000000E-01  8.00000000E-01  1.50000000E+00  8.00000000E-01  8.00000000E-01
  1.50000000E+00  8.00000000E-01  8.00000000E-01  1.50000000E+00  8.00000000E-01
  8.00000000E-01  1.50000000E+00  8.00000000E-01  8.00000000E-01  1.50000000E+00
  8.00000000E-01  8.00000000E-01  1.50000000E+00  8.00000000E-01  8.00000000E-01
  1.50000000E+00  8.00000000E-01  8.00000000E-01  1.50000000E+00  8.00000000E-01
  8.00000000E-01  1.50000000E+00  8.00000000E-01  8.00000000E-01  1.50000000E+00
  8.00000000E-01  8.00000000E-01  1.50000000E+00  8.00000000E-01  8.00000000E-01
  1.50000000E+00  8.00000000E-01  8.00000000E-01  1.50000000E+00  8.00000000E-01
  8.00000000E-01  1.50000000E+00  8.00000000E-01  8.00000000E-01  1.50000000E+00
  8.00000000E-01  8.00000000E-01  1.50000000E+00  8.00000000E-01  8.00000000E-01
  1.50000000E+00  8.00000000E-01  8.00000000E-01  1.50000000E+00  8.00000000E-01
  8.00000000E-01  1.50000000E+00  8.00000000E-01  8.00000000E-01  1.50000000E+00
  8.00000000E-01  8.00000000E-01  1.50000000E+00  8.00000000E-01  8.00000000E-01
  1.50000000E+00  8.00000000E-01  8.00000000E-01  1.50000000E+00  8.00000000E-01
  8.00000000E-01  1.50000000E+00  8.00000000E-01  8.00000000E-01  1.50000000E+00
  8.00000000E-01  8.00000000E-01  1.50000000E+00  8.00000000E-01  8.00000000E-01
  1.50000000E+00  8.00000000E-01  8.00000000E-01  1.50000000E+00  8.00000000E-01
  8.00000000E-01  1.50000000E+00  8.00000000E-01  8.00000000E-01  1.50000000E+00
  8.00000000E-01  8.00000000E-01  1.50000000E+00  8.00000000E-01  8.00000000E-01
  1.50000000E+00  8.00000000E-01  8.00000000E-01  1.50000000E+00  8.00000000E-01
  8.00000000E-01  1.50000000E+00  8.00000000E-01  8.00000000E-01  1.50000000E+00
  8.00000000E-01  8.00000000E-01  1.50000000E+00  8.00000000E-01  8.00000000E-01
  1.50000000E+00  8.00000000E-01  8.00000000E-01  1.50000000E+00  8.00000000E-01
  8.00000000E-01  1.50000000E+00  8.00000000E-01  8.00000000E-01  1.50000000E+00
  8.00000000E-01  8.00000000E-01  1.50000000E+00  8.00000000E-01  8.00000000E-01
  1.50000000E+00  8.00000000E-01  8.00000000E-01  1.50000000E+00  8.00000000E-01
  8.00000000E-01  1.50000000E+00  8.00000000E-01  8.00000000E-01  1.50000000E+00
  8.00000000E-01  8.00000000E-01  1.50000000E+00  8.00000000E-01  8.00000000E-01
  1.50000000E+00  8.00000000E-01  8.00000000E-01  1.50000000E+00  8.00000000E-01
  8.00000000E-01  1.50000000E+00  8.00000000E-01  8.00000000E-01  1.50000000E+00
  8.00000000E-01  8.00000000E-01  1.50000000E+00  8.00000000E-01  8.00000000E-01
  1.50000000E+00  8.00000000E-01  8.00000000E-01  1.50000000E+00  8.00000000E-01
  8.00000000E-01  1.50000000E+00  8.00000000E-01  8.00000000E-01  1.50000000E+00
  8.00000000E-01  8.00000000E-01  1.50000000E+00  8.00000000E-01  8.00000000E-01
  1.50000000E+00  8.00000000E-01  8.00000000E-01  1.50000000E+00  8.00000000E-01
  8.00000000E-01  1.50000000E+00  8.00000000E-01  8.00000000E-01  1.50000000E+00
  8.00000000E-01  8.00000000E-01  1.50000000E+00  8.00000000E-01  8.00000000E-01
  1.50000000E+00  8.00000000E-01  8.00000000E-01  1.50000000E+00  8.00000000E-01
  8.00000000E-01  1.50000000E+00  8.00000000E-01  8.00000000E-01  1.50000000E+00
  8.00000000E-01  8.00000000E-01  1.50000000E+00  8.00000000E-01  8.00000000E-01
  1.50000000E+00  8.00000000E-01  8.00000000E-01  1.50000000E+00  8.00000000E-01
  8.00000000E-01  1.50000000E+00  8.00000000E-01  8.00000000E-01  1.50000000E+00
  8.00000000E-01  8.00000000E-01  1.50000000E+00  8.00000000E-01  8.00000000E-01
  1.50000000E+00  8.00000000E-01  8.00000000E-01  1.50000000E+00  8.00000000E-01
  8.00000000E-01  1.50000000E+00  8.00000000E-01  8.00000000E-01  1.50000000E+00
  8.00000000E-01  8.00000000E-01  1.50000000E+00  8.00000000E-01  8.00000000E-01
  1.50000000E+00  8.00000000E-01  8.00000000E-01  1.50000000E+00  8.00000000E-01
  8.00000000E-01  1.50000000E+00  8.00000000E-01  8.00000000E-01  1.50000000E+00
  8.00000000E-01  8.00000000E-01  1.50000000E+00  8.00000000E-01  8.00000000E-01
  1.50000000E+00  8.00000000E-01  8.00000000E-01  1.50000000E+00  8.00000000E-01
  8.00000000E-01  1.50000000E+00  8.00000000E-01  8.00000000E-01  1.50000000E+00
  8.00000000E-01  8.00000000E-01  1.50000000E+00  8.00000000E-01  8.00000000E-01
  1.50000000E+00  8.00000000E-01  8.00000000E-01  1.50000000E+00  8.00000000E-01
  8.00000000E-01  1.50000000E+00  8.00000000E-01  8.00000000E-01  1.50000000E+00
  8.00000000E-01  8.00000000E-01  1.50000000E+00  8.00000000E-01  8.00000000E-01
  1.50000000E+00  8.00000000E-01  8.00000000E-01  1.50000000E+00  8.00000000E-01
  8.00000000E-01  1.50000000E+00  8.00000000E-01  8.00000000E-01  1.50000000E+00
  8.00000000E-01  8.00000000E-01  1.50000000E+00  8.00000000E-01  8.00000000E-01
  1.50000000E+00  8.00000000E-01  8.00000000E-01  1.50000000E+00  8.00000000E-01
  8.00000000E-01  1.50000000E+00  8.00000000E-01  8.00000000E-01  1.50000000E+00
  8.00000000E-01  8.00000000E-01  1.50000000E+00  8.00000000E-01  8.00000000E-01
  1.50000000E+00  8.00000000E-01  8.00000000E-01  1.50000000E+00  8.00000000E-01
  8.00000000E-01  1.50000000E+00  8.00000000E-01  8.00000000E-01  1.50000000E+00
  8.00000000E-01  8.00000000E-01  1.50000000E+00  8.00000000E-01  8.00000000E-01
  1.50000000E+00  8.00000000E-01  8.00000000E-01  1.50000000E+00  8.00000000E-01
  8.00000000E-01  1.50000000E+00  8.00000000E-01  8.00000000E-01  1.50000000E+00
  8.00000000E-01  8.00000000E-01  1.50000000E+00  8.00000000E-01  8.00000000E-01
  1.50000000E+00  8.00000000E-01  8.00000000E-01  1.50000000E+00  8.00000000E-01
  8.00000000E-01  1.50000000E+00  8.00000000E-01  8.00000000E-01  1.50000000E+00
  8.00000000E-01  8.00000000E-01  1.50000000E+00  8.00000000E-01  8.00000000E-01
  1.50000000E+00  8.00000000E-01  8.00000000E-01  1.50000000E+00  8.00000000E-01
  8.00000000E-01  1.50000000E+00  8.00000000E-01  8.00000000E-01  1.50000000E+00
  8.00000000E-01  8.00000000E-01  1.50000000E+00  8.00000000E-01  8.00000000E-01
  1.50000000E+00  8.00000000E-01  8.00000000E-01  1.50000000E+00  8.00000000E-01
  8.00000000E-01  1.50000000E+00  8.00000000E-01  8.00000000E-01  1.50000000E+00
  8.00000000E-01  8.00000000E-01  1.50000000E+00  8.00000000E-01  8.00000000E-01
  1.50000000E+00  8.00000000E-01  8.00000000E-01  1.50000000E+00  8.00000000E-01
  8.00000000E-01  1.50000000E+00  8.00000000E-01  8.00000000E-01  1.50000000E+00
  8.00000000E-01  8.00000000E-01  1.50000000E+00  8.00000000E-01  8.00000000E-01
  1.50000000E+00  8.00000000E-01  8.00000000E-01  1.50000000E+00  8.00000000E-01
  8.00000000E-01  1.50000000E+00  8.00000000E-01  8.00000000E-01  1.50000000E+00
  8.00000000E-01  8.00000000E-01  1.50000000E+00  8.00000000E-01  8.00000000E-01
  1.50000000E+00  8.00000000E-01  8.00000000E-01  1.50000000E+00  8.00000000E-01
  8.00000000E-01  1.50000000E+00  8.00000000E-01  8.00000000E-01  1.50000000E+00
  8.00000000E-01  8.00000000E-01  1.50000000E+00  8.00000000E-01  8.00000000E-01
  1.50000000E+00  8.00000000E-01  8.00000000E-01  1.50000000E+00  8.00000000E-01
  8.00000000E-01  1.50000000E+00  8.00000000E-01  8.00000000E-01  1.50000000E+00
  8.00000000E-01  8.00000000E-01  1.50000000E+00  8.00000000E-01  8.00000000E-01
  1.50000000E+00  8.00000000E-01  8.00000000E-01  1.50000000E+00  8.00000000E-01
  8.00000000E-01  1.50000000E+00  8.00000000E-01  8.00000000E-01  1.50000000E+00
  8.00000000E-01  8.00000000E-01  1.50000000E+00  8.00000000E-01  8.00000000E-01
  1.50000000E+00  8.00000000E-01  8.00000000E-01  1.50000000E+00  8.00000000E-01
  8.00000000E-01  1.50000000E+00  8.00000000E-01  8.00000000E-01  1.50000000E+00
  8.00000000E-01  8.00000000E-01  1.50000000E+00  8.00000000E-01  8.00000000E-01
  1.50000000E+00  8.00000000E-01  8.00000000E-01  1.50000000E+00  8.00000000E-01
  8.00000000E-01  1.50000000E+00  8.00000000E-01  8.00000000E-01  1.50000000E+00
  8.00000000E-01  8.00000000E-01  1.50000000E+00  8.00000000E-01  8.00000000E-01
  1.50000000E+00  8.00000000E-01  8.00000000E-01  1.50000000E+00  8.00000000E-01
  8.00000000E-01  1.50000000E+00  8.00000000E-01  8.00000000E-01  1.50000000E+00
  8.00000000E-01  8.00000000E-01  1.50000000E+00  8.00000000E-01  8.00000000E-01
  1.50000000E+00  8.00000000E-01  8.00000000E-01  1.50000000E+00  8.00000000E-01
  8.00000000E-01  1.50000000E+00  8.00000000E-01  8.00000000E-01  1.50000000E+00
  8.00000000E-01  8.00000000E-01  1.50000000E+00  8.00000000E-01  8.00000000E-01
  1.50000000E+00  8.00000000E-01  8.00000000E-01  1.50000000E+00  8.00000000E-01
  8.00000000E-01  1.50000000E+00  8.00000000E-01  8.00000000E-01  1.50000000E+00
  8.00000000E-01  8.00000000E-01  1.50000000E+00  8.00000000E-01  8.00000000E-01
  1.50000000E+00  8.00000000E-01  8.00000000E-01  1.50000000E+00  8.00000000E-01
  8.00000000E-01  1.50000000E+00  8.00000000E-01  8.00000000E-01  1.50000000E+00
  8.00000000E-01  8.00000000E-01  1.50000000E+00  8.00000000E-01  8.00000000E-01
  1.50000000E+00  8.00000000E-01  8.00000000E-01  1.50000000E+00  8.00000000E-01
  8.00000000E-01  1.50000000E+00  8.00000000E-01  8.00000000E-01  1.50000000E+00
  8.00000000E-01  8.00000000E-01  1.50000000E+00  8.00000000E-01  8.00000000E-01
  1.50000000E+00  8.00000000E-01  8.00000000E-01  1.50000000E+00  8.00000000E-01
  8.00000000E-01  1.50000000E+00  8.00000000E-01  8.00000000E-01  1.50000000E+00
  8.00000000E-01  8.00000000E-01  1.50000000E+00  8.00000000E-01  8.00000000E-01
  1.50000000E+00  8.00000000E-01  8.00000000E-01  1.50000000E+00  8.00000000E-01
  8.00000000E-01  1.50000000E+00  8.00000000E-01  8.00000000E-01  1.50000000E+00
  8.00000000E-01  8.00000000E-01  1.50000000E+00  8.00000000E-01  8.00000000E-01
  1.50000000E+00  8.00000000E-01  8.00000000E-01  1.50000000E+00  8.00000000E-01
  8.00000000E-01  1.50000000E+00  8.00000000E-01  8.00000000E-01  1.50000000E+00
  8.00000000E-01  8.00000000E-01  1.50000000E+00  8.00000000E-01  8.00000000E-01
  1.50000000E+00  8.00000000E-01  8.00000000E-01  1.50000000E+00  8.00000000E-01
  8.00000000E-01  1.50000000E+00  8.00000000E-01  8.00000000E-01  1.50000000E+00
  8.00000000E-01  8.00000000E-01  1.50000000E+00  8.00000000E-01  8.00000000E-01
  1.50000000E+00  8.00000000E-01  8.00000000E-01  1.50000000E+00  8.00000000E-01
  8.00000000E-01  1.50000000E+00  8.00000000E-01  8.00000000E-01  1.50000000E+00
  8.00000000E-01  8.00000000E-01  1.50000000E+00  8.00000000E-01  8.00000000E-01
  1.50000000E+00  8.00000000E-01  8.00000000E-01  1.50000000E+00  8.00000000E-01
  8.00000000E-01  1.50000000E+00  8.00000000E-01  8.00000000E-01  1.50000000E+00
  8.00000000E-01  8.00000000E-01  1.50000000E+00  8.00000000E-01  8.00000000E-01
  1.50000000E+00  8.00000000E-01  8.00000000E-01  1.50000000E+00  8.00000000E-01
  8.00000000E-01  1.50000000E+00  8.00000000E-01  8.00000000E-01  1.50000000E+00
  8.00000000E-01  8.00000000E-01  1.50000000E+00  8.00000000E-01  8.00000000E-01
  1.50000000E+00  8.00000000E-01  8.00000000E-01  1.50000000E+00  8.00000000E-01
  8.00000000E-01  1.50000000E+00  8.00000000E-01  8.00000000E-01  1.50000000E+00
  8.00000000E-01  8.00000000E-01  1.50000000E+00  8.00000000E-01  8.00000000E-01
  1.50000000E+00  8.00000000E-01  8.00000000E-01  1.50000000E+00  8.00000000E-01
  8.00000000E-01  1.50000000E+00  8.00000000E-01  8.00000000E-01  1.50000000E+00
  8.00000000E-01  8.00000000E-01  1.50000000E+00  8.00000000E-01  8.00000000E-01
  1.50000000E+00  8.00000000E-01  8.00000000E-01  1.50000000E+00  8.00000000E-01
  8.00000000E-01  1.50000000E+00  8.00000000E-01  8.00000000E-01  1.50000000E+00
  8.00000000E-01  8.00000000E-01  1.50000000E+00  8.00000000E-01  8.00000000E-01
  1.50000000E+00  8.00000000E-01  8.00000000E-01  1.50000000E+00  8.00000000E-01
  8.00000000E-01  1.50000000E+00  8.00000000E-01  8.00000000E-01  1.50000000E+00
  8.00000000E-01  8.00000000E-01  1.50000000E+00  8.00000000E-01  8.00000000E-01
  1.50000000E+00  8.00000000E-01  8.00000000E-01  1.50000000E+00  8.00000000E-01
  8.00000000E-01  1.50000000E+00  8.00000000E-01  8.00000000E-01  1.50000000E+00
  8.00000000E-01  8.00000000E-01  1.50000000E+00  8.00000000E-01  8.00000000E-01
  1.50000000E+00  8.00000000E-01  8.00000000E-01  1.50000000E+00  8.00000000E-01
  8.00000000E-01  1.50000000E+00  8.00000000E-01  8.00000000E-01  1.50000000E+00
  8.00000000E-01  8.00000000E-01  1.50000000E+00  8.00000000E-01  8.00000000E-01
  1.50000000E+00  8.00000000E-01  8.00000000E-01  1.50000000E+00  8.00000000E-01
  8.00000000E-01  1.50000000E+00  8.00000000E-01  8.00000000E-01  1.50000000E+00
  8.00000000E-01  8.00000000E-01  1.50000000E+00  8.00000000E-01  8.00000000E-01
  1.50000000E+00  8.00000000E-01  8.00000000E-01  1.50000000E+00  8.00000000E-01
  8.00000000E-01  1.50000000E+00  8.00000000E-01  8.00000000E-01  1.50000000E+00
  8.00000000E-01  8.00000000E-01  1.50000000E+00  8.00000000E-01  8.00000000E-01
  1.50000000E+00  8.00000000E-01  8.00000000E-01  1.50000000E+00  8.00000000E-01
  8.00000000E-01  1.50000000E+00  8.00000000E-01  8.00000000E-01  1.50000000E+00
  8.00000000E-01  8.00000000E-01  1.50000000E+00  8.00000000E-01  8.00000000E-01
  1.50000000E+00  8.00000000E-01  8.00000000E-01  1.50000000E+00  8.00000000E-01
  8.00000000E-01  1.50000000E+00  8.00000000E-01  8.00000000E-01  1.50000000E+00
  8.00000000E-01  8.00000000E-01  1.50000000E+00  8.00000000E-01  8.00000000E-01
  1.50000000E+00  8.00000000E-01  8.00000000E-01  1.50000000E+00  8.00000000E-01
  8.00000000E-01  1.50000000E+00  8.00000000E-01  8.00000000E-01  1.50000000E+00
  8.00000000E-01  8.00000000E-01  1.50000000E+00  8.00000000E-01  8.00000000E-01
  1.50000000E+00  8.00000000E-01  8.00000000E-01  1.50000000E+00  8.00000000E-01
  8.00000000E-01  1.50000000E+00  8.00000000E-01  8.00000000E-01  1.50000000E+00
  8.00000000E-01  8.00000000E-01  1.50000000E+00  8.00000000E-01  8.00000000E-01
  1.50000000E+00  8.00000000E-01  8.00000000E-01  1.50000000E+00  8.00000000E-01
  8.00000000E-01  1.50000000E+00  8.00000000E-01  8.00000000E-01  1.50000000E+00
  8.00000000E-01  8.00000000E-01  1.50000000E+00  8.00000000E-01  8.00000000E-01
  1.50000000E+00  8.00000000E-01  8.00000000E-01  1.50000000E+00  8.00000000E-01
  8.00000000E-01  1.50000000E+00  8.00000000E-01  8.00000000E-01  1.50000000E+00
  8.00000000E-01  8.00000000E-01  1.50000000E+00  8.00000000E-01  8.00000000E-01
  1.50000000E+00  8.00000000E-01  8.00000000E-01  1.50000000E+00  8.00000000E-01
  8.00000000E-01  1.50000000E+00  8.00000000E-01  8.00000000E-01  1.50000000E+00
  8.00000000E-01  8.00000000E-01  1.50000000E+00  8.00000000E-01  8.00000000E-01
  1.50000000E+00  8.00000000E-01  8.00000000E-01  1.50000000E+00  8.00000000E-01
  8.00000000E-01  1.50000000E+00  8.00000000E-01  8.00000000E-01  1.50000000E+00
  8.00000000E-01  8.00000000E-01  1.50000000E+00  8.00000000E-01  8.00000000E-01
  1.50000000E+00  8.00000000E-01  8.00000000E-01  1.50000000E+00  8.00000000E-01
  8.00000000E-01  1.50000000E+00  8.00000000E-01  8.00000000E-01  1.50000000E+00
  8.00000000E-01  8.00000000E-01  1.50000000E+00  8.00000000E-01  8.00000000E-01
  1.50000000E+00  8.00000000E-01  8.00000000E-01  1.50000000E+00  8.00000000E-01
  8.00000000E-01  1.50000000E+00  8.00000000E-01  8.00000000E-01  1.50000000E+00
  8.00000000E-01  8.00000000E-01  1.50000000E+00  8.00000000E-01  8.00000000E-01
  1.50000000E+00  8.00000000E-01  8.00000000E-01  1.50000000E+00  8.00000000E-01
  8.00000000E-01  1.50000000E+00  8.00000000E-01  8.00000000E-01  1.50000000E+00
  8.00000000E-01  8.00000000E-01  1.50000000E+00  8.00000000E-01  8.00000000E-01
  1.50000000E+00  8.00000000E-01  8.00000000E-01  1.50000000E+00  8.00000000E-01
  8.00000000E-01  1.50000000E+00  8.00000000E-01  8.00000000E-01  1.50000000E+00
  8.00000000E-01  8.00000000E-01  1.50000000E+00  8.00000000E-01  8.00000000E-01
  1.50000000E+00  8.00000000E-01  8.00000000E-01  1.50000000E+00  8.00000000E-01
  8.00000000E-01  1.50000000E+00  8.00000000E-01  8.00000000E-01  1.50000000E+00
  8.00000000E-01  8.00000000E-01  1.50000000E+00  8.00000000E-01  8.00000000E-01
  1.50000000E+00  8.00000000E-01  8.00000000E-01  1.50000000E+00  8.00000000E-01
  8.00000000E-01  1.50000000E+00  8.00000000E-01  8.00000000E-01  1.50000000E+00
  8.00000000E-01  8.00000000E-01  1.50000000E+00  8.00000000E-01  8.00000000E-01
  1.50000000E+00  8.00000000E-01  8.00000000E-01  1.50000000E+00  8.00000000E-01
  8.00000000E-01  1.50000000E+00  8.00000000E-01  8.00000000E-01  1.50000000E+00
  8.00000000E-01  8.00000000E-01  1.50000000E+00  8.00000000E-01  8.00000000E-01
  1.50000000E+00  8.00000000E-01  8.00000000E-01  1.50000000E+00  8.00000000E-01
  8.00000000E-01  1.50000000E+00  8.00000000E-01  8.00000000E-01  1.50000000E+00
  8.00000000E-01  8.00000000E-01  1.50000000E+00  8.00000000E-01  8.00000000E-01
  1.50000000E+00  8.00000000E-01  8.00000000E-01  1.50000000E+00  8.00000000E-01
  8.00000000E-01  1.50000000E+00  8.00000000E-01  8.00000000E-01  1.50000000E+00
  8.00000000E-01  8.00000000E-01  1.50000000E+00  8.00000000E-01  8.00000000E-01
  1.50000000E+00  8.00000000E-01  8.00000000E-01  1.50000000E+00  8.00000000E-01
  8.00000000E-01  1.50000000E+00  8.00000000E-01  8.00000000E-01  1.50000000E+00
  8.00000000E-01  8.00000000E-01  1.50000000E+00  8.00000000E-01  8.00000000E-01
  1.50000000E+00  8.00000000E-01  8.00000000E-01  1.50000000E+00  8.00000000E-01
  8.00000000E-01  1.50000000E+00  8.00000000E-01  8.00000000E-01  1.50000000E+00
  8.00000000E-01  8.00000000E-01  1.50000000E+00  8.00000000E-01  8.00000000E-01
  1.50000000E+00  8.00000000E-01  8.00000000E-01  1.50000000E+00  8.00000000E-01
  8.00000000E-01  1.50000000E+00  8.00000000E-01  8.00000000E-01  1.50000000E+00
  8.00000000E-01  8.00000000E-01  1.50000000E+00  8.00000000E-01  8.00000000E-01
  1.50000000E+00  8.00000000E-01  8.00000000E-01  1.50000000E+00  8.00000000E-01
  8.00000000E-01  1.50000000E+00  8.00000000E-01  8.00000000E-01  1.50000000E+00
  8.00000000E-01  8.00000000E-01  1.50000000E+00  8.00000000E-01  8.00000000E-01
  1.50000000E+00  8.00000000E-01  8.00000000E-01  1.50000000E+00  8.00000000E-01
  8.00000000E-01  1.50000000E+00  8.00000000E-01  8.00000000E-01  1.50000000E+00
  8.00000000E-01  8.00000000E-01  1.50000000E+00  8.00000000E-01  8.00000000E-01
  1.50000000E+00  8.00000000E-01  8.00000000E-01  1.50000000E+00  8.00000000E-01
  8.00000000E-01  1.50000000E+00  8.00000000E-01  8.00000000E-01  1.50000000E+00
  8.00000000E-01  8.00000000E-01  1.50000000E+00  8.00000000E-01  8.00000000E-01
  1.50000000E+00  8.00000000E-01  8.00000000E-01  1.50000000E+00  8.00000000E-01
  8.00000000E-01  1.50000000E+00  8.00000000E-01  8.00000000E-01  1.50000000E+00
  8.00000000E-01  8.00000000E-01  1.50000000E+00  8.00000000E-01  8.00000000E-01
  1.50000000E+00  8.00000000E-01  8.00000000E-01  1.50000000E+00  8.00000000E-01
  8.00000000E-01  1.50000000E+00  8.00000000E-01  8.00000000E-01  1.50000000E+00
  8.00000000E-01  8.00000000E-01  1.50000000E+00  8.00000000E-01  8.00000000E-01
  1.50000000E+00  8.00000000E-01  8.00000000E-01  1.50000000E+00  8.00000000E-01
  8.00000000E-01  1.50000000E+00  8.00000000E-01  8.00000000E-01  1.50000000E+00
  8.00000000E-01  8.00000000E-01  1.50000000E+00  8.00000000E-01  8.00000000E-01
  1.50000000E+00  8.00000000E-01  8.00000000E-01  1.50000000E+00  8.00000000E-01
  8.00000000E-01  1.50000000E+00  8.00000000E-01  8.00000000E-01  1.50000000E+00
  8.00000000E-01  8.00000000E-01  1.50000000E+00  8.00000000E-01  8.00000000E-01
  1.50000000E+00  8.00000000E-01  8.00000000E-01  1.50000000E+00  8.00000000E-01
  8.00000000E-01  1.50000000E+00  8.00000000E-01  8.00000000E-01  1.50000000E+00
  8.00000000E-01  8.00000000E-01  1.50000000E+00  8.00000000E-01  8.00000000E-01
  1.50000000E+00  8.00000000E-01  8.00000000E-01  1.50000000E+00  8.00000000E-01
  8.00000000E-01  1.50000000E+00  8.00000000E-01  8.00000000E-01  1.50000000E+00
  8.00000000E-01  8.00000000E-01  1.50000000E+00  8.00000000E-01  8.00000000E-01
  1.50000000E+00  8.00000000E-01  8.00000000E-01  1.50000000E+00  8.00000000E-01
  8.00000000E-01  1.50000000E+00  8.00000000E-01  8.00000000E-01  1.50000000E+00
  8.00000000E-01  8.00000000E-01  1.50000000E+00  8.00000000E-01  8.00000000E-01
  1.50000000E+00  8.00000000E-01  8.00000000E-01  1.50000000E+00  8.00000000E-01
  8.00000000E-01  1.50000000E+00  8.00000000E-01  8.00000000E-01  1.50000000E+00
  8.00000000E-01  8.00000000E-01  1.50000000E+00  8.00000000E-01  8.00000000E-01
  1.50000000E+00  8.00000000E-01  8.00000000E-01  1.50000000E+00  8.00000000E-01
  8.00000000E-01  1.50000000E+00  8.00000000E-01  8.00000000E-01  1.50000000E+00
  8.00000000E-01  8.00000000E-01  1.50000000E+00  8.00000000E-01  8.00000000E-01
  1.50000000E+00  8.00000000E-01  8.00000000E-01  1.50000000E+00  8.00000000E-01
  8.00000000E-01  1.50000000E+00  8.00000000E-01  8.00000000E-01  1.50000000E+00
  8.00000000E-01  8.00000000E-01  1.50000000E+00  8.00000000E-01  8.00000000E-01
  1.50000000E+00  8.00000000E-01  8.00000000E-01  1.50000000E+00  8.00000000E-01
  8.00000000E-01  1.50000000E+00  8.00000000E-01  8.00000000E-01  1.50000000E+00
  8.00000000E-01  8.00000000E-01  1.50000000E+00  8.00000000E-01  8.00000000E-01
  1.50000000E+00  8.00000000E-01  8.00000000E-01  1.50000000E+00  8.00000000E-01
  8.00000000E-01  1.50000000E+00  8.00000000E-01  8.00000000E-01  1.50000000E+00
  8.00000000E-01  8.00000000E-01  1.50000000E+00  8.00000000E-01  8.00000000E-01
  1.50000000E+00  8.00000000E-01  8.00000000E-01  1.50000000E+00  8.00000000E-01
  8.00000000E-01  1.50000000E+00  8.00000000E-01  8.00000000E-01  1.50000000E+00
  8.00000000E-01  8.00000000E-01  1.50000000E+00  8.00000000E-01  8.00000000E-01
  1.50000000E+00  8.00000000E-01  8.00000000E-01  1.50000000E+00  8.00000000E-01
  8.00000000E-01  1.50000000E+00  8.00000000E-01  8.00000000E-01  1.50000000E+00
  8.00000000E-01  8.00000000E-01  1.50000000E+00  8.00000000E-01  8.00000000E-01
  1.50000000E+00  8.00000000E-01  8.00000000E-01  1.50000000E+00  8.00000000E-01
  8.00000000E-01  1.50000000E+00  8.00000000E-01  8.00000000E-01  1.50000000E+00
  8.00000000E-01  8.00000000E-01  1.50000000E+00  8.00000000E-01  8.00000000E-01
  1.50000000E+00  8.00000000E-01  8.00000000E-01  1.50000000E+00  8.00000000E-01
  8.00000000E-01  1.50000000E+00  8.00000000E-01  8.00000000E-01  1.50000000E+00
  8.00000000E-01  8.00000000E-01  1.50000000E+00  8.00000000E-01  8.00000000E-01
  1.50000000E+00  8.00000000E-01  8.00000000E-01  1.50000000E+00  8.00000000E-01
  8.00000000E-01  1.50000000E+00  8.00000000E-01  8.00000000E-01  1.50000000E+00
  8.00000000E-01  8.00000000E-01  1.50000000E+00  8.00000000E-01  8.00000000E-01
  1.50000000E+00  8.00000000E-01  8.00000000E-01  1.50000000E+00  8.00000000E-01
  8.00000000E-01  1.50000000E+00  8.00000000E-01  8.00000000E-01  1.50000000E+00
  8.00000000E-01  8.00000000E-01  1.50000000E+00  8.00000000E-01  8.00000000E-01
  1.50000000E+00  8.00000000E-01  8.00000000E-01  1.50000000E+00  8.00000000E-01
  8.00000000E-01  1.50000000E+00  8.00000000E-01  8.00000000E-01  1.50000000E+00
  8.00000000E-01  8.00000000E-01  1.50000000E+00  8.00000000E-01  8.00000000E-01
  1.50000000E+00  8.00000000E-01  8.00000000E-01  1.50000000E+00  8.00000000E-01
  8.00000000E-01  1.50000000E+00  8.00000000E-01  8.00000000E-01  1.50000000E+00
  8.00000000E-01  8.00000000E-01  1.50000000E+00  8.00000000E-01  8.00000000E-01
  1.50000000E+00  8.00000000E-01  8.00000000E-01  1.50000000E+00  8.00000000E-01
  8.00000000E-01  1.50000000E+00  8.00000000E-01  8.00000000E-01  1.50000000E+00
  8.00000000E-01  8.00000000E-01  1.50000000E+00  8.00000000E-01  8.00000000E-01
  1.50000000E+00  8.00000000E-01  8.00000000E-01  1.50000000E+00  8.00000000E-01
  8.00000000E-01  1.50000000E+00  8.00000000E-01  8.00000000E-01  1.50000000E+00
  8.00000000E-01  8.00000000E-01  1.50000000E+00  8.00000000E-01  8.00000000E-01
  1.50000000E+00  8.00000000E-01  8.00000000E-01  1.50000000E+00  8.00000000E-01
  8.00000000E-01  1.50000000E+00  8.00000000E-01  8.00000000E-01  1.50000000E+00
  8.00000000E-01  8.00000000E-01  1.50000000E+00  8.00000000E-01  8.00000000E-01
  1.50000000E+00  8.00000000E-01  8.00000000E-01  1.50000000E+00  8.00000000E-01
  8.00000000E-01  1.50000000E+00  8.00000000E-01  8.00000000E-01  1.50000000E+00
  8.00000000E-01  8.00000000E-01  1.50000000E+00  8.00000000E-01  8.00000000E-01
  1.50000000E+00  8.00000000E-01  8.00000000E-01  1.50000000E+00  8.00000000E-01
  8.00000000E-01  1.50000000E+00  8.00000000E-01  8.00000000E-01  1.50000000E+00
  8.00000000E-01  8.00000000E-01  1.50000000E+00  8.00000000E-01  8.00000000E-01
  1.50000000E+00  8.00000000E-01  8.00000000E-01  1.50000000E+00  8.00000000E-01
  8.00000000E-01  1.50000000E+00  8.00000000E-01  8.00000000E-01  1.50000000E+00
  8.00000000E-01  8.00000000E-01  1.50000000E+00  8.00000000E-01  8.00000000E-01
  1.50000000E+00  8.00000000E-01  8.00000000E-01  1.50000000E+00  8.00000000E-01
  8.00000000E-01  1.50000000E+00  8.00000000E-01  8.00000000E-01  1.50000000E+00
  8.00000000E-01  8.00000000E-01  1.50000000E+00  8.00000000E-01  8.00000000E-01
  1.50000000E+00  8.00000000E-01  8.00000000E-01  1.50000000E+00  8.00000000E-01
  8.00000000E-01  1.50000000E+00  8.00000000E-01  8.00000000E-01  1.50000000E+00
  8.00000000E-01  8.00000000E-01  1.50000000E+00  8.00000000E-01  8.00000000E-01
  1.50000000E+00  8.00000000E-01  8.00000000E-01  1.50000000E+00  8.00000000E-01
  8.00000000E-01  1.50000000E+00  8.00000000E-01  8.00000000E-01  1.50000000E+00
  8.00000000E-01  8.00000000E-01  1.50000000E+00  8.00000000E-01  8.00000000E-01
  1.50000000E+00  8.00000000E-01  8.00000000E-01  1.50000000E+00  8.00000000E-01
  8.00000000E-01  1.50000000E+00  8.00000000E-01  8.00000000E-01  1.50000000E+00
  8.00000000E-01  8.00000000E-01  1.50000000E+00  8.00000000E-01  8.00000000E-01
  1.50000000E+00  8.00000000E-01  8.00000000E-01  1.50000000E+00  8.00000000E-01
  8.00000000E-01  1.50000000E+00  8.00000000E-01  8.00000000E-01  1.50000000E+00
  8.00000000E-01  8.00000000E-01  1.50000000E+00  8.00000000E-01  8.00000000E-01
  1.50000000E+00  8.00000000E-01  8.00000000E-01  1.50000000E+00  8.00000000E-01
  8.00000000E-01  1.50000000E+00  8.00000000E-01  8.00000000E-01  1.50000000E+00
  8.00000000E-01  8.00000000E-01  1.50000000E+00  8.00000000E-01  8.00000000E-01
  1.50000000E+00  8.00000000E-01  8.00000000E-01  1.50000000E+00  8.00000000E-01
  8.00000000E-01  1.50000000E+00  8.00000000E-01  8.00000000E-01  1.50000000E+00
  8.00000000E-01  8.00000000E-01  1.50000000E+00  8.00000000E-01  8.00000000E-01
  1.50000000E+00  8.00000000E-01  8.00000000E-01  1.50000000E+00  8.00000000E-01
  8.00000000E-01  1.50000000E+00  8.00000000E-01  8.00000000E-01  1.50000000E+00
  8.00000000E-01  8.00000000E-01  1.50000000E+00  8.00000000E-01  8.00000000E-01
  1.50000000E+00  8.00000000E-01  8.00000000E-01  1.50000000E+00  8.00000000E-01
  8.00000000E-01  1.50000000E+00  8.00000000E-01  8.00000000E-01  1.50000000E+00
  8.00000000E-01  8.00000000E-01  1.50000000E+00  8.00000000E-01  8.00000000E-01
  1.50000000E+00  8.00000000E-01  8.00000000E-01  1.50000000E+00  8.00000000E-01
  8.00000000E-01  1.50000000E+00  8.00000000E-01  8.00000000E-01  1.50000000E+00
  8.00000000E-01  8.00000000E-01  1.50000000E+00  8.00000000E-01  8.00000000E-01
  1.50000000E+00  8.00000000E-01  8.00000000E-01  1.50000000E+00  8.00000000E-01
  8.00000000E-01  1.50000000E+00  8.00000000E-01  8.00000000E-01  1.50000000E+00
  8.00000000E-01  8.00000000E-01  1.50000000E+00  8.00000000E-01  8.00000000E-01
  1.50000000E+00  8.00000000E-01  8.00000000E-01  1.50000000E+00  8.00000000E-01
  8.00000000E-01  1.50000000E+00  8.00000000E-01  8.00000000E-01  1.50000000E+00
  8.00000000E-01  8.00000000E-01  1.50000000E+00  8.00000000E-01  8.00000000E-01
  1.50000000E+00  8.00000000E-01  8.00000000E-01  1.50000000E+00  8.00000000E-01
  8.00000000E-01  1.50000000E+00  8.00000000E-01  8.00000000E-01  1.50000000E+00
  8.00000000E-01  8.00000000E-01  1.50000000E+00  8.00000000E-01  8.00000000E-01
  1.50000000E+00  8.00000000E-01  8.00000000E-01  1.50000000E+00  8.00000000E-01
  8.00000000E-01  1.50000000E+00  8.00000000E-01  8.00000000E-01  1.50000000E+00
  8.00000000E-01  8.00000000E-01  1.50000000E+00  8.00000000E-01  8.00000000E-01
  1.50000000E+00  8.00000000E-01  8.00000000E-01  1.50000000E+00  8.00000000E-01
  8.00000000E-01  1.50000000E+00  8.00000000E-01  8.00000000E-01  1.50000000E+00
  8.00000000E-01  8.00000000E-01  1.50000000E+00  8.00000000E-01  8.00000000E-01
  1.50000000E+00  8.00000000E-01  8.00000000E-01  1.50000000E+00  8.00000000E-01
  8.00000000E-01  1.50000000E+00  8.00000000E-01  8.00000000E-01  1.50000000E+00
  8.00000000E-01  8.00000000E-01  1.50000000E+00  8.00000000E-01  8.00000000E-01
  1.50000000E+00  8.00000000E-01  8.00000000E-01  1.50000000E+00  8.00000000E-01
  8.00000000E-01  1.50000000E+00  8.00000000E-01  8.00000000E-01  1.50000000E+00
  8.00000000E-01  8.00000000E-01  1.50000000E+00  8.00000000E-01  8.00000000E-01
  1.50000000E+00  8.00000000E-01  8.00000000E-01  1.50000000E+00  8.00000000E-01
  8.00000000E-01  1.50000000E+00  8.00000000E-01  8.00000000E-01  1.50000000E+00
  8.00000000E-01  8.00000000E-01  1.50000000E+00  8.00000000E-01  8.00000000E-01
  1.50000000E+00  8.00000000E-01  8.00000000E-01  1.50000000E+00  8.00000000E-01
  8.00000000E-01  1.50000000E+00  8.00000000E-01  8.00000000E-01  1.50000000E+00
  8.00000000E-01  8.00000000E-01  1.50000000E+00  8.00000000E-01  8.00000000E-01
  1.50000000E+00  8.00000000E-01  8.00000000E-01  1.50000000E+00  8.00000000E-01
  8.00000000E-01  1.50000000E+00  8.00000000E-01  8.00000000E-01  1.50000000E+00
  8.00000000E-01  8.00000000E-01  1.50000000E+00  8.00000000E-01  8.00000000E-01
  1.50000000E+00  8.00000000E-01  8.00000000E-01  1.50000000E+00  8.00000000E-01
  8.00000000E-01  1.50000000E+00  8.00000000E-01  8.00000000E-01  1.50000000E+00
  8.00000000E-01  8.00000000E-01  1.50000000E+00  8.00000000E-01  8.00000000E-01
  1.50000000E+00  8.00000000E-01  8.00000000E-01  1.50000000E+00  8.00000000E-01
  8.00000000E-01  1.50000000E+00  8.00000000E-01  8.00000000E-01  1.50000000E+00
  8.00000000E-01  8.00000000E-01  1.50000000E+00  8.00000000E-01  8.00000000E-01
  1.50000000E+00  8.00000000E-01  8.00000000E-01  1.50000000E+00  8.00000000E-01
  8.00000000E-01  1.50000000E+00  8.00000000E-01  8.00000000E-01  1.50000000E+00
  8.00000000E-01  8.00000000E-01  1.50000000E+00  8.00000000E-01  8.00000000E-01
  1.50000000E+00  8.00000000E-01  8.00000000E-01  1.50000000E+00  8.00000000E-01
  8.00000000E-01  1.50000000E+00  8.00000000E-01  8.00000000E-01  1.50000000E+00
  8.00000000E-01  8.00000000E-01  1.50000000E+00  8.00000000E-01  8.00000000E-01
  1.50000000E+00  8.00000000E-01  8.00000000E-01  1.50000000E+00  8.00000000E-01
  8.00000000E-01  1.50000000E+00  8.00000000E-01  8.00000000E-01  1.50000000E+00
  8.00000000E-01  8.00000000E-01  1.50000000E+00  8.00000000E-01  8.00000000E-01
  1.50000000E+00  8.00000000E-01  8.00000000E-01  1.50000000E+00  8.00000000E-01
  8.00000000E-01  1.50000000E+00  8.00000000E-01  8.00000000E-01  1.50000000E+00
  8.00000000E-01  8.00000000E-01  1.50000000E+00  8.00000000E-01  8.00000000E-01
  1.50000000E+00  8.00000000E-01  8.00000000E-01  1.50000000E+00  8.00000000E-01
  8.00000000E-01  1.50000000E+00  8.00000000E-01  8.00000000E-01  1.50000000E+00
  8.00000000E-01  8.00000000E-01  1.50000000E+00  8.00000000E-01  8.00000000E-01
  1.50000000E+00  8.00000000E-01  8.00000000E-01  1.50000000E+00  8.00000000E-01
  8.00000000E-01  1.50000000E+00  8.00000000E-01  8.00000000E-01  1.50000000E+00
  8.00000000E-01  8.00000000E-01  1.50000000E+00  8.00000000E-01  8.00000000E-01
  1.50000000E+00  8.00000000E-01  8.00000000E-01  1.50000000E+00  8.00000000E-01
  8.00000000E-01  1.50000000E+00  8.00000000E-01  8.00000000E-01  1.50000000E+00
  8.00000000E-01  8.00000000E-01  1.50000000E+00  8.00000000E-01  8.00000000E-01
  1.50000000E+00  8.00000000E-01  8.00000000E-01  1.50000000E+00  8.00000000E-01
  8.00000000E-01  1.50000000E+00  8.00000000E-01  8.00000000E-01  1.50000000E+00
  8.00000000E-01  8.00000000E-01  1.50000000E+00  8.00000000E-01  8.00000000E-01
  1.50000000E+00  8.00000000E-01  8.00000000E-01  1.50000000E+00  8.00000000E-01
  8.00000000E-01  1.50000000E+00  8.00000000E-01  8.00000000E-01  1.50000000E+00
  8.00000000E-01  8.00000000E-01  1.50000000E+00  8.00000000E-01  8.00000000E-01
  1.50000000E+00  8.00000000E-01  8.00000000E-01  1.50000000E+00  8.00000000E-01
  8.00000000E-01  1.50000000E+00  8.00000000E-01  8.00000000E-01  1.50000000E+00
  8.00000000E-01  8.00000000E-01  1.50000000E+00  8.00000000E-01  8.00000000E-01
  1.50000000E+00  8.00000000E-01  8.00000000E-01  1.50000000E+00  8.00000000E-01
  8.00000000E-01  1.50000000E+00  8.00000000E-01  8.00000000E-01  1.50000000E+00
  8.00000000E-01  8.00000000E-01  1.50000000E+00  8.00000000E-01  8.00000000E-01
  1.50000000E+00  8.00000000E-01  8.00000000E-01  1.50000000E+00  8.00000000E-01
  8.00000000E-01  1.50000000E+00  8.00000000E-01  8.00000000E-01  1.50000000E+00
  8.00000000E-01  8.00000000E-01  1.50000000E+00  8.00000000E-01  8.00000000E-01
  1.50000000E+00  8.00000000E-01  8.00000000E-01  1.50000000E+00  8.00000000E-01
  8.00000000E-01  1.50000000E+00  8.00000000E-01  8.00000000E-01  1.50000000E+00
  8.00000000E-01  8.00000000E-01  1.50000000E+00  8.00000000E-01  8.00000000E-01
  1.50000000E+00  8.00000000E-01  8.00000000E-01  1.50000000E+00  8.00000000E-01
  8.00000000E-01  1.50000000E+00  8.00000000E-01  8.00000000E-01  1.50000000E+00
  8.00000000E-01  8.00000000E-01  1.50000000E+00  8.00000000E-01  8.00000000E-01
  1.50000000E+00  8.00000000E-01  8.00000000E-01  1.50000000E+00  8.00000000E-01
  8.00000000E-01  1.50000000E+00  8.00000000E-01  8.00000000E-01  1.50000000E+00
  8.00000000E-01  8.00000000E-01  1.50000000E+00  8.00000000E-01  8.00000000E-01
  1.50000000E+00  8.00000000E-01  8.00000000E-01  1.50000000E+00  8.00000000E-01
  8.00000000E-01  1.50000000E+00  8.00000000E-01  8.00000000E-01  1.50000000E+00
  8.00000000E-01  8.00000000E-01  1.50000000E+00  8.00000000E-01  8.00000000E-01
  1.50000000E+00  8.00000000E-01  8.00000000E-01  1.50000000E+00  8.00000000E-01
  8.00000000E-01  1.50000000E+00  8.00000000E-01  8.00000000E-01  1.50000000E+00
  8.00000000E-01  8.00000000E-01  1.50000000E+00  8.00000000E-01  8.00000000E-01
  1.50000000E+00  8.00000000E-01  8.00000000E-01  1.50000000E+00  8.00000000E-01
  8.00000000E-01  1.50000000E+00  8.00000000E-01  8.00000000E-01  1.50000000E+00
  8.00000000E-01  8.00000000E-01  1.50000000E+00  8.00000000E-01  8.00000000E-01
  1.50000000E+00  8.00000000E-01  8.00000000E-01  1.50000000E+00  8.00000000E-01
  8.00000000E-01  1.50000000E+00  8.00000000E-01  8.00000000E-01  1.50000000E+00
  8.00000000E-01  8.00000000E-01  1.50000000E+00  8.00000000E-01  8.00000000E-01
  1.50000000E+00  8.00000000E-01  8.00000000E-01  1.50000000E+00  8.00000000E-01
  8.00000000E-01  1.50000000E+00  8.00000000E-01  8.00000000E-01  1.50000000E+00
  8.00000000E-01  8.00000000E-01  1.50000000E+00  8.00000000E-01  8.00000000E-01
  1.50000000E+00  8.00000000E-01  8.00000000E-01  1.50000000E+00  8.00000000E-01
  8.00000000E-01  1.50000000E+00  8.00000000E-01  8.00000000E-01  1.50000000E+00
  8.00000000E-01  8.00000000E-01  1.50000000E+00  8.00000000E-01  8.00000000E-01
  1.50000000E+00  8.00000000E-01  8.00000000E-01  1.50000000E+00  8.00000000E-01
  8.00000000E-01  1.50000000E+00  8.00000000E-01  8.00000000E-01  1.50000000E+00
  8.00000000E-01  8.00000000E-01  1.50000000E+00  8.00000000E-01  8.00000000E-01
  1.50000000E+00  8.00000000E-01  8.00000000E-01  1.50000000E+00  8.00000000E-01
  8.00000000E-01  1.50000000E+00  8.00000000E-01  8.00000000E-01  1.50000000E+00
  8.00000000E-01  8.00000000E-01  1.50000000E+00  8.00000000E-01  8.00000000E-01
  1.50000000E+00  8.00000000E-01  8.00000000E-01  1.50000000E+00  8.00000000E-01
  8.00000000E-01  1.50000000E+00  8.00000000E-01  8.00000000E-01  1.50000000E+00
  8.00000000E-01  8.00000000E-01  1.50000000E+00  8.00000000E-01  8.00000000E-01
  1.50000000E+00  8.00000000E-01  8.00000000E-01  1.50000000E+00  8.00000000E-01
  8.00000000E-01  1.50000000E+00  8.00000000E-01  8.00000000E-01  1.50000000E+00
  8.00000000E-01  8.00000000E-01  1.50000000E+00  8.00000000E-01  8.00000000E-01
  1.50000000E+00  8.00000000E-01  8.00000000E-01  1.50000000E+00  8.00000000E-01
  8.00000000E-01  1.50000000E+00  8.00000000E-01  8.00000000E-01  1.50000000E+00
  8.00000000E-01  8.00000000E-01  1.50000000E+00  8.00000000E-01  8.00000000E-01
  1.50000000E+00  8.00000000E-01  8.00000000E-01  1.50000000E+00  8.00000000E-01
  8.00000000E-01  1.50000000E+00  8.00000000E-01  8.00000000E-01  1.50000000E+00
  8.00000000E-01  8.00000000E-01  1.50000000E+00  8.00000000E-01  8.00000000E-01
  1.50000000E+00  8.00000000E-01  8.00000000E-01  1.50000000E+00  8.00000000E-01
  8.00000000E-01  1.50000000E+00  8.00000000E-01  8.00000000E-01  1.50000000E+00
  8.00000000E-01  8.00000000E-01  1.50000000E+00  8.00000000E-01  8.00000000E-01
  1.50000000E+00  8.00000000E-01  8.00000000E-01  1.50000000E+00  8.00000000E-01
  8.00000000E-01  1.50000000E+00  8.00000000E-01  8.00000000E-01  1.50000000E+00
  8.00000000E-01  8.00000000E-01  1.50000000E+00  8.00000000E-01  8.00000000E-01
  1.50000000E+00  8.00000000E-01  8.00000000E-01  1.50000000E+00  8.00000000E-01
  8.00000000E-01  1.50000000E+00  8.00000000E-01  8.00000000E-01  1.50000000E+00
  8.00000000E-01  8.00000000E-01  1.50000000E+00  8.00000000E-01  8.00000000E-01
  1.50000000E+00  8.00000000E-01  8.00000000E-01  1.50000000E+00  8.00000000E-01
  8.00000000E-01  1.50000000E+00  8.00000000E-01  8.00000000E-01  1.50000000E+00
  8.00000000E-01  8.00000000E-01  1.50000000E+00  8.00000000E-01  8.00000000E-01
  1.50000000E+00  8.00000000E-01  8.00000000E-01  1.50000000E+00  8.00000000E-01
  8.00000000E-01  1.50000000E+00  8.00000000E-01  8.00000000E-01  1.50000000E+00
  8.00000000E-01  8.00000000E-01  1.50000000E+00  8.00000000E-01  8.00000000E-01
  1.50000000E+00  8.00000000E-01  8.00000000E-01  1.50000000E+00  8.00000000E-01
  8.00000000E-01  1.50000000E+00  8.00000000E-01  8.00000000E-01  1.50000000E+00
  8.00000000E-01  8.00000000E-01  1.50000000E+00  8.00000000E-01  8.00000000E-01
  1.50000000E+00  8.00000000E-01  8.00000000E-01  1.50000000E+00  8.00000000E-01
  8.00000000E-01  1.50000000E+00  8.00000000E-01  8.00000000E-01  1.50000000E+00
  8.00000000E-01  8.00000000E-01  1.50000000E+00  8.00000000E-01  8.00000000E-01
  1.50000000E+00  8.00000000E-01  8.00000000E-01  1.50000000E+00  8.00000000E-01
  8.00000000E-01  1.50000000E+00  8.00000000E-01  8.00000000E-01  1.50000000E+00
  8.00000000E-01  8.00000000E-01  1.50000000E+00  8.00000000E-01  8.00000000E-01
  1.50000000E+00  8.00000000E-01  8.00000000E-01  1.50000000E+00  8.00000000E-01
  8.00000000E-01  1.50000000E+00  8.00000000E-01  8.00000000E-01  1.50000000E+00
  8.00000000E-01  8.00000000E-01  1.50000000E+00  8.00000000E-01  8.00000000E-01
  1.50000000E+00  8.00000000E-01  8.00000000E-01  1.50000000E+00  8.00000000E-01
  8.00000000E-01  1.50000000E+00  8.00000000E-01  8.00000000E-01  1.50000000E+00
  8.00000000E-01  8.00000000E-01  1.50000000E+00  8.00000000E-01  8.00000000E-01
  1.50000000E+00  8.00000000E-01  8.00000000E-01  1.50000000E+00  8.00000000E-01
  8.00000000E-01  1.50000000E+00  8.00000000E-01  8.00000000E-01  1.50000000E+00
  8.00000000E-01  8.00000000E-01  1.50000000E+00  8.00000000E-01  8.00000000E-01
  1.50000000E+00  8.00000000E-01  8.00000000E-01  1.50000000E+00  8.00000000E-01
  8.00000000E-01  1.50000000E+00  8.00000000E-01  8.00000000E-01  1.50000000E+00
  8.00000000E-01  8.00000000E-01  1.50000000E+00  8.00000000E-01  8.00000000E-01
  1.50000000E+00  8.00000000E-01  8.00000000E-01  1.50000000E+00  8.00000000E-01
  8.00000000E-01  1.50000000E+00  8.00000000E-01  8.00000000E-01  1.50000000E+00
  8.00000000E-01  8.00000000E-01  1.50000000E+00  8.00000000E-01  8.00000000E-01
  1.50000000E+00  8.00000000E-01  8.00000000E-01  1.50000000E+00  8.00000000E-01
  8.00000000E-01  1.50000000E+00  8.00000000E-01  8.00000000E-01  1.50000000E+00
  8.00000000E-01  8.00000000E-01  1.50000000E+00  8.00000000E-01  8.00000000E-01
  1.50000000E+00  8.00000000E-01  8.00000000E-01  1.50000000E+00  8.00000000E-01
  8.00000000E-01  1.50000000E+00  8.00000000E-01  8.00000000E-01  1.50000000E+00
  8.00000000E-01  8.00000000E-01  1.50000000E+00  8.00000000E-01  8.00000000E-01
  1.50000000E+00  8.00000000E-01  8.00000000E-01  1.50000000E+00  8.00000000E-01
  8.00000000E-01  1.50000000E+00  8.00000000E-01  8.00000000E-01  1.50000000E+00
  8.00000000E-01  8.00000000E-01  1.50000000E+00  8.00000000E-01  8.00000000E-01
  1.50000000E+00  8.00000000E-01  8.00000000E-01  1.50000000E+00  8.00000000E-01
  8.00000000E-01  1.50000000E+00  8.00000000E-01  8.00000000E-01  1.50000000E+00
  8.00000000E-01  8.00000000E-01  1.50000000E+00  8.00000000E-01  8.00000000E-01
  1.50000000E+00  8.00000000E-01  8.00000000E-01  1.50000000E+00  8.00000000E-01
  8.00000000E-01  1.50000000E+00  8.00000000E-01  8.00000000E-01  1.50000000E+00
  8.00000000E-01  8.00000000E-01  1.50000000E+00  8.00000000E-01  8.00000000E-01
  1.50000000E+00  8.00000000E-01  8.00000000E-01  1.50000000E+00  8.00000000E-01
  8.00000000E-01  1.50000000E+00  8.00000000E-01  8.00000000E-01  1.50000000E+00
  8.00000000E-01  8.00000000E-01  1.50000000E+00  8.00000000E-01  8.00000000E-01
  1.50000000E+00  8.00000000E-01  8.00000000E-01  1.50000000E+00  8.00000000E-01
  8.00000000E-01  1.50000000E+00  8.00000000E-01  8.00000000E-01  1.50000000E+00
  8.00000000E-01  8.00000000E-01  1.50000000E+00  8.00000000E-01  8.00000000E-01
  1.50000000E+00  8.00000000E-01  8.00000000E-01  1.50000000E+00  8.00000000E-01
  8.00000000E-01  1.50000000E+00  8.00000000E-01  8.00000000E-01  1.50000000E+00
  8.00000000E-01  8.00000000E-01  1.50000000E+00  8.00000000E-01  8.00000000E-01
  1.50000000E+00  8.00000000E-01  8.00000000E-01  1.50000000E+00  8.00000000E-01
  8.00000000E-01  1.50000000E+00  8.00000000E-01  8.00000000E-01  1.50000000E+00
  8.00000000E-01  8.00000000E-01  1.50000000E+00  8.00000000E-01  8.00000000E-01
  1.50000000E+00  8.00000000E-01  8.00000000E-01  1.50000000E+00  8.00000000E-01
  8.00000000E-01  1.50000000E+00  8.00000000E-01  8.00000000E-01  1.50000000E+00
  8.00000000E-01  8.00000000E-01  1.50000000E+00  8.00000000E-01  8.00000000E-01
  1.50000000E+00  8.00000000E-01  8.00000000E-01  1.50000000E+00  8.00000000E-01
  8.00000000E-01  1.50000000E+00  8.00000000E-01  8.00000000E-01  1.50000000E+00
  8.00000000E-01  8.00000000E-01  1.50000000E+00  8.00000000E-01  8.00000000E-01
  1.50000000E+00  8.00000000E-01  8.00000000E-01  1.50000000E+00  8.00000000E-01
  8.00000000E-01  1.50000000E+00  8.00000000E-01  8.00000000E-01  1.50000000E+00
  8.00000000E-01  8.00000000E-01  1.50000000E+00  8.00000000E-01  8.00000000E-01
  1.50000000E+00  8.00000000E-01  8.00000000E-01  1.50000000E+00  8.00000000E-01
  8.00000000E-01  1.50000000E+00  8.00000000E-01  8.00000000E-01  1.50000000E+00
  8.00000000E-01  8.00000000E-01  1.50000000E+00  8.00000000E-01  8.00000000E-01
  1.50000000E+00  8.00000000E-01  8.00000000E-01  1.50000000E+00  8.00000000E-01
  8.00000000E-01  1.50000000E+00  8.00000000E-01  8.00000000E-01  1.50000000E+00
  8.00000000E-01  8.00000000E-01  1.50000000E+00  8.00000000E-01  8.00000000E-01
  1.50000000E+00  8.00000000E-01  8.00000000E-01  1.50000000E+00  8.00000000E-01
  8.00000000E-01  1.50000000E+00  8.00000000E-01  8.00000000E-01  1.50000000E+00
  8.00000000E-01  8.00000000E-01  1.50000000E+00  8.00000000E-01  8.00000000E-01
  1.50000000E+00  8.00000000E-01  8.00000000E-01  1.50000000E+00  8.00000000E-01
  8.00000000E-01  1.50000000E+00  8.00000000E-01  8.00000000E-01  1.50000000E+00
  8.00000000E-01  8.00000000E-01  1.50000000E+00  8.00000000E-01  8.00000000E-01
  1.50000000E+00  8.00000000E-01  8.00000000E-01  1.50000000E+00  8.00000000E-01
  8.00000000E-01  1.50000000E+00  8.00000000E-01  8.00000000E-01  1.50000000E+00
  8.00000000E-01  8.00000000E-01  1.50000000E+00  8.00000000E-01  8.00000000E-01
  1.50000000E+00  8.00000000E-01  8.00000000E-01  1.50000000E+00  8.00000000E-01
  8.00000000E-01  1.50000000E+00  8.00000000E-01  8.00000000E-01  1.50000000E+00
  8.00000000E-01  8.00000000E-01  1.50000000E+00  8.00000000E-01  8.00000000E-01
  1.50000000E+00  8.00000000E-01  8.00000000E-01  1.50000000E+00  8.00000000E-01
  8.00000000E-01  1.50000000E+00  8.00000000E-01  8.00000000E-01  1.50000000E+00
  8.00000000E-01  8.00000000E-01  1.50000000E+00  8.00000000E-01  8.00000000E-01
  1.50000000E+00  8.00000000E-01  8.00000000E-01  1.50000000E+00  8.00000000E-01
  8.00000000E-01  1.50000000E+00  8.00000000E-01  8.00000000E-01  1.50000000E+00
  8.00000000E-01  8.00000000E-01  1.50000000E+00  8.00000000E-01  8.00000000E-01
  1.50000000E+00  8.00000000E-01  8.00000000E-01  1.50000000E+00  8.00000000E-01
  8.00000000E-01  1.50000000E+00  8.00000000E-01  8.00000000E-01  1.50000000E+00
  8.00000000E-01  8.00000000E-01  1.50000000E+00  8.00000000E-01  8.00000000E-01
  1.50000000E+00  8.00000000E-01  8.00000000E-01  1.50000000E+00  8.00000000E-01
  8.00000000E-01  1.50000000E+00  8.00000000E-01  8.00000000E-01  1.50000000E+00
  8.00000000E-01  8.00000000E-01  1.50000000E+00  8.00000000E-01  8.00000000E-01
  1.50000000E+00  8.00000000E-01  8.00000000E-01  1.50000000E+00  8.00000000E-01
  8.00000000E-01  1.50000000E+00  8.00000000E-01  8.00000000E-01  1.50000000E+00
  8.00000000E-01  8.00000000E-01  1.50000000E+00  8.00000000E-01  8.00000000E-01
  1.50000000E+00  8.00000000E-01  8.00000000E-01  1.50000000E+00  8.00000000E-01
  8.00000000E-01  1.50000000E+00  8.00000000E-01  8.00000000E-01  1.50000000E+00
  8.00000000E-01  8.00000000E-01  1.50000000E+00  8.00000000E-01  8.00000000E-01
  1.50000000E+00  8.00000000E-01  8.00000000E-01  1.50000000E+00  8.00000000E-01
  8.00000000E-01  1.50000000E+00  8.00000000E-01  8.00000000E-01  1.50000000E+00
  8.00000000E-01  8.00000000E-01  1.50000000E+00  8.00000000E-01  8.00000000E-01
  1.50000000E+00  8.00000000E-01  8.00000000E-01  1.50000000E+00  8.00000000E-01
  8.00000000E-01  1.50000000E+00  8.00000000E-01  8.00000000E-01  1.50000000E+00
  8.00000000E-01  8.00000000E-01  1.50000000E+00  8.00000000E-01  8.00000000E-01
  1.50000000E+00  8.00000000E-01  8.00000000E-01  1.50000000E+00  8.00000000E-01
  8.00000000E-01  1.50000000E+00  8.00000000E-01  8.00000000E-01  1.50000000E+00
  8.00000000E-01  8.00000000E-01  1.50000000E+00  8.00000000E-01  8.00000000E-01
  1.50000000E+00  8.00000000E-01  8.00000000E-01  1.50000000E+00  8.00000000E-01
  8.00000000E-01  1.50000000E+00  8.00000000E-01  8.00000000E-01  1.50000000E+00
  8.00000000E-01  8.00000000E-01  1.50000000E+00  8.00000000E-01  8.00000000E-01
  1.50000000E+00  8.00000000E-01  8.00000000E-01  1.50000000E+00  8.00000000E-01
  8.00000000E-01  1.50000000E+00  8.00000000E-01  8.00000000E-01  1.50000000E+00
  8.00000000E-01  8.00000000E-01  1.50000000E+00  8.00000000E-01  8.00000000E-01
  1.50000000E+00  8.00000000E-01  8.00000000E-01  1.50000000E+00  8.00000000E-01
  8.00000000E-01  1.50000000E+00  8.00000000E-01  8.00000000E-01  1.50000000E+00
  8.00000000E-01  8.00000000E-01  1.50000000E+00  8.00000000E-01  8.00000000E-01
  1.50000000E+00  8.00000000E-01  8.00000000E-01  1.50000000E+00  8.00000000E-01
  8.00000000E-01  1.50000000E+00  8.00000000E-01  8.00000000E-01  1.50000000E+00
  8.00000000E-01  8.00000000E-01  1.50000000E+00  8.00000000E-01  8.00000000E-01
  1.50000000E+00  8.00000000E-01  8.00000000E-01  1.50000000E+00  8.00000000E-01
  8.00000000E-01  1.50000000E+00  8.00000000E-01  8.00000000E-01  1.50000000E+00
  8.00000000E-01  8.00000000E-01  1.50000000E+00  8.00000000E-01  8.00000000E-01
  1.50000000E+00  8.00000000E-01  8.00000000E-01  1.50000000E+00  8.00000000E-01
  8.00000000E-01  1.50000000E+00  8.00000000E-01  8.00000000E-01  1.50000000E+00
  8.00000000E-01  8.00000000E-01  1.50000000E+00  8.00000000E-01  8.00000000E-01
  1.50000000E+00  8.00000000E-01  8.00000000E-01  1.50000000E+00  8.00000000E-01
  8.00000000E-01  1.50000000E+00  8.00000000E-01  8.00000000E-01  1.50000000E+00
  8.00000000E-01  8.00000000E-01  1.50000000E+00  8.00000000E-01  8.00000000E-01
  1.50000000E+00  8.00000000E-01  8.00000000E-01  1.50000000E+00  8.00000000E-01
  8.00000000E-01  1.50000000E+00  8.00000000E-01  8.00000000E-01  1.50000000E+00
  8.00000000E-01  8.00000000E-01  1.50000000E+00  8.00000000E-01  8.00000000E-01
  1.50000000E+00  8.00000000E-01  8.00000000E-01  1.50000000E+00  8.00000000E-01
  8.00000000E-01  1.50000000E+00  8.00000000E-01  8.00000000E-01  1.50000000E+00
  8.00000000E-01  8.00000000E-01  1.50000000E+00  8.00000000E-01  8.00000000E-01
  1.50000000E+00  8.00000000E-01  8.00000000E-01  1.50000000E+00  8.00000000E-01
  8.00000000E-01  1.50000000E+00  8.00000000E-01  8.00000000E-01  1.50000000E+00
  8.00000000E-01  8.00000000E-01  1.50000000E+00  8.00000000E-01  8.00000000E-01
  1.50000000E+00  8.00000000E-01  8.00000000E-01  1.50000000E+00  8.00000000E-01
  8.00000000E-01  1.50000000E+00  8.00000000E-01  8.00000000E-01  1.50000000E+00
  8.00000000E-01  8.00000000E-01  1.50000000E+00  8.00000000E-01  8.00000000E-01
  1.50000000E+00  8.00000000E-01  8.00000000E-01  1.50000000E+00  8.00000000E-01
  8.00000000E-01  1.50000000E+00  8.00000000E-01  8.00000000E-01  1.50000000E+00
  8.00000000E-01  8.00000000E-01  1.50000000E+00  8.00000000E-01  8.00000000E-01
  1.50000000E+00  8.00000000E-01  8.00000000E-01  1.50000000E+00  8.00000000E-01
  8.00000000E-01  1.50000000E+00  8.00000000E-01  8.00000000E-01  1.50000000E+00
  8.00000000E-01  8.00000000E-01  1.50000000E+00  8.00000000E-01  8.00000000E-01
  1.50000000E+00  8.00000000E-01  8.00000000E-01  1.50000000E+00  8.00000000E-01
  8.00000000E-01  1.50000000E+00  8.00000000E-01  8.00000000E-01  1.50000000E+00
  8.00000000E-01  8.00000000E-01  1.50000000E+00  8.00000000E-01  8.00000000E-01
  1.50000000E+00  8.00000000E-01  8.00000000E-01  1.50000000E+00  8.00000000E-01
  8.00000000E-01  1.50000000E+00  8.00000000E-01  8.00000000E-01  1.50000000E+00
  8.00000000E-01  8.00000000E-01  1.50000000E+00  8.00000000E-01  8.00000000E-01
  1.50000000E+00  8.00000000E-01  8.00000000E-01  1.50000000E+00  8.00000000E-01
  8.00000000E-01  1.50000000E+00  8.00000000E-01  8.00000000E-01  1.50000000E+00
  8.00000000E-01  8.00000000E-01  1.50000000E+00  8.00000000E-01  8.00000000E-01
  1.50000000E+00  8.00000000E-01  8.00000000E-01  1.50000000E+00  8.00000000E-01
  8.00000000E-01  1.50000000E+00  8.00000000E-01  8.00000000E-01  1.50000000E+00
  8.00000000E-01  8.00000000E-01  1.50000000E+00  8.00000000E-01  8.00000000E-01
  1.50000000E+00  8.00000000E-01  8.00000000E-01  1.50000000E+00  8.00000000E-01
  8.00000000E-01  1.50000000E+00  8.00000000E-01  8.00000000E-01  1.50000000E+00
  8.00000000E-01  8.00000000E-01  1.50000000E+00  8.00000000E-01  8.00000000E-01
  1.50000000E+00  8.00000000E-01  8.00000000E-01  1.50000000E+00  8.00000000E-01
  8.00000000E-01  1.50000000E+00  8.00000000E-01  8.00000000E-01  1.50000000E+00
  8.00000000E-01  8.00000000E-01  1.50000000E+00  8.00000000E-01  8.00000000E-01
  1.50000000E+00  8.00000000E-01  8.00000000E-01  1.50000000E+00  8.00000000E-01
  8.00000000E-01  1.50000000E+00  8.00000000E-01  8.00000000E-01  1.50000000E+00
  8.00000000E-01  8.00000000E-01  1.50000000E+00  8.00000000E-01  8.00000000E-01
  1.50000000E+00  8.00000000E-01  8.00000000E-01  1.50000000E+00  8.00000000E-01
  8.00000000E-01  1.50000000E+00  8.00000000E-01  8.00000000E-01  1.50000000E+00
  8.00000000E-01  8.00000000E-01  1.50000000E+00  8.00000000E-01  8.00000000E-01
  1.50000000E+00  8.00000000E-01  8.00000000E-01  1.50000000E+00  8.00000000E-01
  8.00000000E-01  1.50000000E+00  8.00000000E-01  8.00000000E-01  1.50000000E+00
  8.00000000E-01  8.00000000E-01  1.50000000E+00  8.00000000E-01  8.00000000E-01
  1.50000000E+00  8.00000000E-01  8.00000000E-01  1.50000000E+00  8.00000000E-01
  8.00000000E-01  1.50000000E+00  8.00000000E-01  8.00000000E-01  1.50000000E+00
  8.00000000E-01  8.00000000E-01  1.50000000E+00  8.00000000E-01  8.00000000E-01
  1.50000000E+00  8.00000000E-01  8.00000000E-01  1.50000000E+00  8.00000000E-01
  8.00000000E-01  1.50000000E+00  8.00000000E-01  8.00000000E-01  1.50000000E+00
  8.00000000E-01  8.00000000E-01  1.50000000E+00  8.00000000E-01  8.00000000E-01
  1.50000000E+00  8.00000000E-01  8.00000000E-01  1.50000000E+00  8.00000000E-01
  8.00000000E-01  1.50000000E+00  8.00000000E-01  8.00000000E-01  1.50000000E+00
  8.00000000E-01  8.00000000E-01  1.50000000E+00  8.00000000E-01  8.00000000E-01
  1.50000000E+00  8.00000000E-01  8.00000000E-01  1.50000000E+00  8.00000000E-01
  8.00000000E-01  1.50000000E+00  8.00000000E-01  8.00000000E-01  1.50000000E+00
  8.00000000E-01  8.00000000E-01  1.50000000E+00  8.00000000E-01  8.00000000E-01
  1.50000000E+00  8.00000000E-01  8.00000000E-01  1.50000000E+00  8.00000000E-01
  8.00000000E-01  1.50000000E+00  8.00000000E-01  8.00000000E-01  1.50000000E+00
  8.00000000E-01  8.00000000E-01  1.50000000E+00  8.00000000E-01  8.00000000E-01
  1.50000000E+00  8.00000000E-01  8.00000000E-01  1.50000000E+00  8.00000000E-01
  8.00000000E-01  1.50000000E+00  8.00000000E-01  8.00000000E-01  1.50000000E+00
  8.00000000E-01  8.00000000E-01  1.50000000E+00  8.00000000E-01  8.00000000E-01
  1.50000000E+00  8.00000000E-01  8.00000000E-01  1.50000000E+00  8.00000000E-01
  8.00000000E-01  1.50000000E+00  8.00000000E-01  8.00000000E-01  1.50000000E+00
  8.00000000E-01  8.00000000E-01  1.50000000E+00  8.00000000E-01  8.00000000E-01
  1.50000000E+00  8.00000000E-01  8.00000000E-01  1.50000000E+00  8.00000000E-01
  8.00000000E-01  1.50000000E+00  8.00000000E-01  8.00000000E-01  1.50000000E+00
  8.00000000E-01  8.00000000E-01  1.50000000E+00  8.00000000E-01  8.00000000E-01
  1.50000000E+00  8.00000000E-01  8.00000000E-01  1.50000000E+00  8.00000000E-01
  8.00000000E-01  1.50000000E+00  8.00000000E-01  8.00000000E-01  1.50000000E+00
  8.00000000E-01  8.00000000E-01  1.50000000E+00  8.00000000E-01  8.00000000E-01
  1.50000000E+00  8.00000000E-01  8.00000000E-01  1.50000000E+00  8.00000000E-01
  8.00000000E-01  1.50000000E+00  8.00000000E-01  8.00000000E-01  1.50000000E+00
  8.00000000E-01  8.00000000E-01  1.50000000E+00  8.00000000E-01  8.00000000E-01
  1.50000000E+00  8.00000000E-01  8.00000000E-01  1.50000000E+00  8.00000000E-01
  8.00000000E-01  1.50000000E+00  8.00000000E-01  8.00000000E-01  1.50000000E+00
  8.00000000E-01  8.00000000E-01  1.50000000E+00  8.00000000E-01  8.00000000E-01
  1.50000000E+00  8.00000000E-01  8.00000000E-01  1.50000000E+00  8.00000000E-01
  8.00000000E-01  1.50000000E+00  8.00000000E-01  8.00000000E-01  1.50000000E+00
  8.00000000E-01  8.00000000E-01  1.50000000E+00  8.00000000E-01  8.00000000E-01
  1.50000000E+00  8.00000000E-01  8.00000000E-01  1.50000000E+00  8.00000000E-01
  8.00000000E-01  1.50000000E+00  8.00000000E-01  8.00000000E-01  1.50000000E+00
  8.00000000E-01  8.00000000E-01  1.50000000E+00  8.00000000E-01  8.00000000E-01
  1.50000000E+00  8.00000000E-01  8.00000000E-01  1.50000000E+00  8.00000000E-01
  8.00000000E-01  1.50000000E+00  8.00000000E-01  8.00000000E-01  1.50000000E+00
  8.00000000E-01  8.00000000E-01  1.50000000E+00  8.00000000E-01  8.00000000E-01
  1.50000000E+00  8.00000000E-01  8.00000000E-01  1.50000000E+00  8.00000000E-01
  8.00000000E-01  1.50000000E+00  8.00000000E-01  8.00000000E-01  1.50000000E+00
  8.00000000E-01  8.00000000E-01  1.50000000E+00  8.00000000E-01  8.00000000E-01
  1.50000000E+00  8.00000000E-01  8.00000000E-01  1.50000000E+00  8.00000000E-01
  8.00000000E-01  1.50000000E+00  8.00000000E-01  8.00000000E-01  1.50000000E+00
  8.00000000E-01  8.00000000E-01  1.50000000E+00  8.00000000E-01  8.00000000E-01
  1.50000000E+00  8.00000000E-01  8.00000000E-01  1.50000000E+00  8.00000000E-01
  8.00000000E-01  1.50000000E+00  8.00000000E-01  8.00000000E-01  1.50000000E+00
  8.00000000E-01  8.00000000E-01  1.50000000E+00  8.00000000E-01  8.00000000E-01
  1.50000000E+00  8.00000000E-01  8.00000000E-01  1.50000000E+00  8.00000000E-01
  8.00000000E-01  1.50000000E+00  8.00000000E-01  8.00000000E-01  1.50000000E+00
  8.00000000E-01  8.00000000E-01  1.50000000E+00  8.00000000E-01  8.00000000E-01
  1.50000000E+00  8.00000000E-01  8.00000000E-01  1.50000000E+00  8.00000000E-01
  8.00000000E-01  1.50000000E+00  8.00000000E-01  8.00000000E-01  1.50000000E+00
  8.00000000E-01  8.00000000E-01  1.50000000E+00  8.00000000E-01  8.00000000E-01
  1.50000000E+00  8.00000000E-01  8.00000000E-01  1.50000000E+00  8.00000000E-01
  8.00000000E-01  1.50000000E+00  8.00000000E-01  8.00000000E-01  1.50000000E+00
  8.00000000E-01  8.00000000E-01  1.50000000E+00  8.00000000E-01  8.00000000E-01
  1.50000000E+00  8.00000000E-01  8.00000000E-01  1.50000000E+00  8.00000000E-01
  8.00000000E-01  1.50000000E+00  8.00000000E-01  8.00000000E-01  1.50000000E+00
  8.00000000E-01  8.00000000E-01  1.50000000E+00  8.00000000E-01  8.00000000E-01
  1.50000000E+00  8.00000000E-01  8.00000000E-01  1.50000000E+00  8.00000000E-01
  8.00000000E-01  1.50000000E+00  8.00000000E-01  8.00000000E-01  1.50000000E+00
  8.00000000E-01  8.00000000E-01  1.50000000E+00  8.00000000E-01  8.00000000E-01
  1.50000000E+00  8.00000000E-01  8.00000000E-01  1.50000000E+00  8.00000000E-01
  8.00000000E-01  1.50000000E+00  8.00000000E-01  8.00000000E-01  1.50000000E+00
  8.00000000E-01  8.00000000E-01  1.50000000E+00  8.00000000E-01  8.00000000E-01
  1.50000000E+00  8.00000000E-01  8.00000000E-01  1.50000000E+00  8.00000000E-01
  8.00000000E-01  1.50000000E+00  8.00000000E-01  8.00000000E-01  1.50000000E+00
  8.00000000E-01  8.00000000E-01  1.50000000E+00  8.00000000E-01  8.00000000E-01
  1.50000000E+00  8.00000000E-01  8.00000000E-01  1.50000000E+00  8.00000000E-01
  8.00000000E-01  1.50000000E+00  8.00000000E-01  8.00000000E-01  1.50000000E+00
  8.00000000E-01  8.00000000E-01  1.50000000E+00  8.00000000E-01  8.00000000E-01
  1.50000000E+00  8.00000000E-01  8.00000000E-01  1.50000000E+00  8.00000000E-01
  8.00000000E-01  1.50000000E+00  8.00000000E-01  8.00000000E-01  1.50000000E+00
  8.00000000E-01  8.00000000E-01  1.50000000E+00  8.00000000E-01  8.00000000E-01
  1.50000000E+00  8.00000000E-01  8.00000000E-01  1.50000000E+00  8.00000000E-01
  8.00000000E-01  1.50000000E+00  8.00000000E-01  8.00000000E-01  1.50000000E+00
  8.00000000E-01  8.00000000E-01  1.50000000E+00  8.00000000E-01  8.00000000E-01
  1.50000000E+00  8.00000000E-01  8.00000000E-01  1.50000000E+00  8.00000000E-01
  8.00000000E-01  1.50000000E+00  8.00000000E-01  8.00000000E-01  1.50000000E+00
  8.00000000E-01  8.00000000E-01  1.50000000E+00  8.00000000E-01  8.00000000E-01
  1.50000000E+00  8.00000000E-01  8.00000000E-01  1.50000000E+00  8.00000000E-01
  8.00000000E-01  1.50000000E+00  8.00000000E-01  8.00000000E-01  1.50000000E+00
  8.00000000E-01  8.00000000E-01  1.50000000E+00  8.00000000E-01  8.00000000E-01
  1.50000000E+00  8.00000000E-01  8.00000000E-01  1.50000000E+00  8.00000000E-01
  8.00000000E-01  1.50000000E+00  8.00000000E-01  8.00000000E-01  1.50000000E+00
  8.00000000E-01  8.00000000E-01  1.50000000E+00  8.00000000E-01  8.00000000E-01
  1.50000000E+00  8.00000000E-01  8.00000000E-01  1.50000000E+00  8.00000000E-01
  8.00000000E-01  1.50000000E+00  8.00000000E-01  8.00000000E-01  1.50000000E+00
  8.00000000E-01  8.00000000E-01  1.50000000E+00  8.00000000E-01  8.00000000E-01
  1.50000000E+00  8.00000000E-01  8.00000000E-01  1.50000000E+00  8.00000000E-01
  8.00000000E-01  1.50000000E+00  8.00000000E-01  8.00000000E-01  1.50000000E+00
  8.00000000E-01  8.00000000E-01  1.50000000E+00  8.00000000E-01  8.00000000E-01
  1.50000000E+00  8.00000000E-01  8.00000000E-01  1.50000000E+00  8.00000000E-01
  8.00000000E-01  1.50000000E+00  8.00000000E-01  8.00000000E-01  1.50000000E+00
  8.00000000E-01  8.00000000E-01  1.50000000E+00  8.00000000E-01  8.00000000E-01
  1.50000000E+00  8.00000000E-01  8.00000000E-01  1.50000000E+00  8.00000000E-01
  8.00000000E-01  1.50000000E+00  8.00000000E-01  8.00000000E-01  1.50000000E+00
  8.00000000E-01  8.00000000E-01  1.50000000E+00  8.00000000E-01  8.00000000E-01
  1.50000000E+00  8.00000000E-01  8.00000000E-01  1.50000000E+00  8.00000000E-01
  8.00000000E-01  1.50000000E+00  8.00000000E-01  8.00000000E-01  1.50000000E+00
  8.00000000E-01  8.00000000E-01  1.50000000E+00  8.00000000E-01  8.00000000E-01
  1.50000000E+00  8.00000000E-01  8.00000000E-01  1.50000000E+00  8.00000000E-01
  8.00000000E-01  1.50000000E+00  8.00000000E-01  8.00000000E-01  1.50000000E+00
  8.00000000E-01  8.00000000E-01  1.50000000E+00  8.00000000E-01  8.00000000E-01
  1.50000000E+00  8.00000000E-01  8.00000000E-01  1.50000000E+00  8.00000000E-01
  8.00000000E-01  1.50000000E+00  8.00000000E-01  8.00000000E-01  1.50000000E+00
  8.00000000E-01  8.00000000E-01  1.50000000E+00  8.00000000E-01  8.00000000E-01
  1.50000000E+00  8.00000000E-01  8.00000000E-01  1.50000000E+00  8.00000000E-01
  8.00000000E-01  1.50000000E+00  8.00000000E-01  8.00000000E-01  1.50000000E+00
  8.00000000E-01  8.00000000E-01  1.50000000E+00  8.00000000E-01  8.00000000E-01
  1.50000000E+00  8.00000000E-01  8.00000000E-01  1.50000000E+00  8.00000000E-01
  8.00000000E-01  1.50000000E+00  8.00000000E-01  8.00000000E-01  1.50000000E+00
  8.00000000E-01  8.00000000E-01  1.50000000E+00  8.00000000E-01  8.00000000E-01
  1.50000000E+00  8.00000000E-01  8.00000000E-01  1.50000000E+00  8.00000000E-01
  8.00000000E-01  1.50000000E+00  8.00000000E-01  8.00000000E-01  1.50000000E+00
  8.00000000E-01  8.00000000E-01  1.50000000E+00  8.00000000E-01  8.00000000E-01
  1.50000000E+00  8.00000000E-01  8.00000000E-01  1.50000000E+00  8.00000000E-01
  8.00000000E-01  1.50000000E+00  8.00000000E-01  8.00000000E-01  1.50000000E+00
  8.00000000E-01  8.00000000E-01  1.50000000E+00  8.00000000E-01  8.00000000E-01
  1.50000000E+00  8.00000000E-01  8.00000000E-01  1.50000000E+00  8.00000000E-01
  8.00000000E-01  1.50000000E+00  8.00000000E-01  8.00000000E-01  1.50000000E+00
  8.00000000E-01  8.00000000E-01  1.50000000E+00  8.00000000E-01  8.00000000E-01
  1.50000000E+00  8.00000000E-01  8.00000000E-01  1.50000000E+00  8.00000000E-01
  8.00000000E-01  1.50000000E+00  8.00000000E-01  8.00000000E-01  1.50000000E+00
  8.00000000E-01  8.00000000E-01  1.50000000E+00  8.00000000E-01  8.00000000E-01
  1.50000000E+00  8.00000000E-01  8.00000000E-01  1.50000000E+00  8.00000000E-01
  8.00000000E-01  1.50000000E+00  8.00000000E-01  8.00000000E-01  1.50000000E+00
  8.00000000E-01  8.00000000E-01  1.50000000E+00  8.00000000E-01  8.00000000E-01
  1.50000000E+00  8.00000000E-01  8.00000000E-01  1.50000000E+00  8.00000000E-01
  8.00000000E-01  1.50000000E+00  8.00000000E-01  8.00000000E-01  1.50000000E+00
  8.00000000E-01  8.00000000E-01  1.50000000E+00  8.00000000E-01  8.00000000E-01
  1.50000000E+00  8.00000000E-01  8.00000000E-01  1.50000000E+00  8.00000000E-01
  8.00000000E-01  1.50000000E+00  8.00000000E-01  8.00000000E-01  1.50000000E+00
  8.00000000E-01  8.00000000E-01  1.50000000E+00  8.00000000E-01  8.00000000E-01
  1.50000000E+00  8.00000000E-01  8.00000000E-01  1.50000000E+00  8.00000000E-01
  8.00000000E-01  1.50000000E+00  8.00000000E-01  8.00000000E-01  1.50000000E+00
  8.00000000E-01  8.00000000E-01  1.50000000E+00  8.00000000E-01  8.00000000E-01
  1.50000000E+00  8.00000000E-01  8.00000000E-01  1.50000000E+00  8.00000000E-01
  8.00000000E-01  1.50000000E+00  8.00000000E-01  8.00000000E-01  1.50000000E+00
  8.00000000E-01  8.00000000E-01  1.50000000E+00  8.00000000E-01  8.00000000E-01
  1.50000000E+00  8.00000000E-01  8.00000000E-01  1.50000000E+00  8.00000000E-01
  8.00000000E-01  1.50000000E+00  8.00000000E-01  8.00000000E-01  1.50000000E+00
  8.00000000E-01  8.00000000E-01  1.50000000E+00  8.00000000E-01  8.00000000E-01
  1.50000000E+00  8.00000000E-01  8.00000000E-01  1.50000000E+00  8.00000000E-01
  8.00000000E-01  1.50000000E+00  8.00000000E-01  8.00000000E-01  1.50000000E+00
  8.00000000E-01  8.00000000E-01  1.50000000E+00  8.00000000E-01  8.00000000E-01
  1.50000000E+00  8.00000000E-01  8.00000000E-01  1.50000000E+00  8.00000000E-01
  8.00000000E-01  1.50000000E+00  8.00000000E-01  8.00000000E-01  1.50000000E+00
  8.00000000E-01  8.00000000E-01  1.50000000E+00  8.00000000E-01  8.00000000E-01
  1.50000000E+00  8.00000000E-01  8.00000000E-01  1.50000000E+00  8.00000000E-01
  8.00000000E-01  1.50000000E+00  8.00000000E-01  8.00000000E-01  1.50000000E+00
  8.00000000E-01  8.00000000E-01  1.50000000E+00  8.00000000E-01  8.00000000E-01
  1.50000000E+00  8.00000000E-01  8.00000000E-01  1.50000000E+00  8.00000000E-01
  8.00000000E-01  1.50000000E+00  8.00000000E-01  8.00000000E-01  1.50000000E+00
  8.00000000E-01  8.00000000E-01  1.50000000E+00  8.00000000E-01  8.00000000E-01
  1.50000000E+00  8.00000000E-01  8.00000000E-01  1.50000000E+00  8.00000000E-01
  8.00000000E-01  1.50000000E+00  8.00000000E-01  8.00000000E-01  1.50000000E+00
  8.00000000E-01  8.00000000E-01  1.50000000E+00  8.00000000E-01  8.00000000E-01
  1.50000000E+00  8.00000000E-01  8.00000000E-01  1.50000000E+00  8.00000000E-01
  8.00000000E-01  1.50000000E+00  8.00000000E-01  8.00000000E-01  1.50000000E+00
  8.00000000E-01  8.00000000E-01  1.50000000E+00  8.00000000E-01  8.00000000E-01
  1.50000000E+00  8.00000000E-01  8.00000000E-01  1.50000000E+00  8.00000000E-01
  8.00000000E-01  1.50000000E+00  8.00000000E-01  8.00000000E-01  1.50000000E+00
  8.00000000E-01  8.00000000E-01  1.50000000E+00  8.00000000E-01  8.00000000E-01
  1.50000000E+00  8.00000000E-01  8.00000000E-01  1.50000000E+00  8.00000000E-01
  8.00000000E-01  1.50000000E+00  8.00000000E-01  8.00000000E-01  1.50000000E+00
  8.00000000E-01  8.00000000E-01  1.50000000E+00  8.00000000E-01  8.00000000E-01
  1.50000000E+00  8.00000000E-01  8.00000000E-01  1.50000000E+00  8.00000000E-01
  8.00000000E-01  1.50000000E+00  8.00000000E-01  8.00000000E-01  1.50000000E+00
  8.00000000E-01  8.00000000E-01  1.50000000E+00  8.00000000E-01  8.00000000E-01
  1.50000000E+00  8.00000000E-01  8.00000000E-01  1.50000000E+00  8.00000000E-01
  8.00000000E-01  1.50000000E+00  8.00000000E-01  8.00000000E-01  1.50000000E+00
  8.00000000E-01  8.00000000E-01  1.50000000E+00  8.00000000E-01  8.00000000E-01
  1.50000000E+00  8.00000000E-01  8.00000000E-01  1.50000000E+00  8.00000000E-01
  8.00000000E-01  1.50000000E+00  8.00000000E-01  8.00000000E-01  1.50000000E+00
  8.00000000E-01  8.00000000E-01  1.50000000E+00  8.00000000E-01  8.00000000E-01
  1.50000000E+00  8.00000000E-01  8.00000000E-01  1.50000000E+00  8.00000000E-01
  8.00000000E-01  1.50000000E+00  8.00000000E-01  8.00000000E-01  1.50000000E+00
  8.00000000E-01  8.00000000E-01  1.50000000E+00  8.00000000E-01  8.00000000E-01
  1.50000000E+00  8.00000000E-01  8.00000000E-01  1.50000000E+00  8.00000000E-01
  8.00000000E-01  1.50000000E+00  8.00000000E-01  8.00000000E-01  1.50000000E+00
  8.00000000E-01  8.00000000E-01  1.50000000E+00  8.00000000E-01  8.00000000E-01
  1.50000000E+00  8.00000000E-01  8.00000000E-01  1.50000000E+00  8.00000000E-01
  8.00000000E-01  1.50000000E+00  8.00000000E-01  8.00000000E-01  1.50000000E+00
  8.00000000E-01  8.00000000E-01  1.50000000E+00  8.00000000E-01  8.00000000E-01
  1.50000000E+00  8.00000000E-01  8.00000000E-01  1.50000000E+00  8.00000000E-01
  8.00000000E-01  1.50000000E+00  8.00000000E-01  8.00000000E-01  1.50000000E+00
  8.00000000E-01  8.00000000E-01  1.50000000E+00  8.00000000E-01  8.00000000E-01
  1.50000000E+00  8.00000000E-01  8.00000000E-01  1.50000000E+00  8.00000000E-01
  8.00000000E-01  1.50000000E+00  8.00000000E-01  8.00000000E-01  1.50000000E+00
  8.00000000E-01  8.00000000E-01  1.50000000E+00  8.00000000E-01  8.00000000E-01
  1.50000000E+00  8.00000000E-01  8.00000000E-01  1.50000000E+00  8.00000000E-01
  8.00000000E-01  1.50000000E+00  8.00000000E-01  8.00000000E-01  1.50000000E+00
  8.00000000E-01  8.00000000E-01  1.50000000E+00  8.00000000E-01  8.00000000E-01
  1.50000000E+00  8.00000000E-01  8.00000000E-01  1.50000000E+00  8.00000000E-01
  8.00000000E-01  1.50000000E+00  8.00000000E-01  8.00000000E-01  1.50000000E+00
  8.00000000E-01  8.00000000E-01  1.50000000E+00  8.00000000E-01  8.00000000E-01
  1.50000000E+00  8.00000000E-01  8.00000000E-01  1.50000000E+00  8.00000000E-01
  8.00000000E-01  1.50000000E+00  8.00000000E-01  8.00000000E-01  1.50000000E+00
  8.00000000E-01  8.00000000E-01  1.50000000E+00  8.00000000E-01  8.00000000E-01
  1.50000000E+00  8.00000000E-01  8.00000000E-01  1.50000000E+00  8.00000000E-01
  8.00000000E-01  1.50000000E+00  8.00000000E-01  8.00000000E-01  1.50000000E+00
  8.00000000E-01  8.00000000E-01  1.50000000E+00  8.00000000E-01  8.00000000E-01
  1.50000000E+00  8.00000000E-01  8.00000000E-01  1.50000000E+00  8.00000000E-01
  8.00000000E-01  1.50000000E+00  8.00000000E-01  8.00000000E-01  1.50000000E+00
  8.00000000E-01  8.00000000E-01  1.50000000E+00  8.00000000E-01  8.00000000E-01
  1.50000000E+00  8.00000000E-01  8.00000000E-01  1.50000000E+00  8.00000000E-01
  8.00000000E-01  1.50000000E+00  8.00000000E-01  8.00000000E-01  1.50000000E+00
  8.00000000E-01  8.00000000E-01  1.50000000E+00  8.00000000E-01  8.00000000E-01
  1.50000000E+00  8.00000000E-01  8.00000000E-01  1.50000000E+00  8.00000000E-01
  8.00000000E-01  1.50000000E+00  8.00000000E-01  8.00000000E-01  1.50000000E+00
  8.00000000E-01  8.00000000E-01  1.50000000E+00  8.00000000E-01  8.00000000E-01
  1.50000000E+00  8.00000000E-01  8.00000000E-01  1.50000000E+00  8.00000000E-01
  8.00000000E-01  1.50000000E+00  8.00000000E-01  8.00000000E-01  1.50000000E+00
  8.00000000E-01  8.00000000E-01  1.50000000E+00  8.00000000E-01  8.00000000E-01
  1.50000000E+00  8.00000000E-01  8.00000000E-01  1.50000000E+00  8.00000000E-01
  8.00000000E-01  1.50000000E+00  8.00000000E-01  8.00000000E-01  1.50000000E+00
  8.00000000E-01  8.00000000E-01  1.50000000E+00  8.00000000E-01  8.00000000E-01
  1.50000000E+00  8.00000000E-01  8.00000000E-01  1.50000000E+00  8.00000000E-01
  8.00000000E-01  1.50000000E+00  8.00000000E-01  8.00000000E-01  1.50000000E+00
  8.00000000E-01  8.00000000E-01  1.50000000E+00  8.00000000E-01  8.00000000E-01
  1.50000000E+00  8.00000000E-01  8.00000000E-01  1.50000000E+00  8.00000000E-01
  8.00000000E-01  1.50000000E+00  8.00000000E-01  8.00000000E-01  1.50000000E+00
  8.00000000E-01  8.00000000E-01  1.50000000E+00  8.00000000E-01  8.00000000E-01
  1.50000000E+00  8.00000000E-01  8.00000000E-01  1.50000000E+00  8.00000000E-01
  8.00000000E-01  1.50000000E+00  8.00000000E-01  8.00000000E-01  1.50000000E+00
  8.00000000E-01  8.00000000E-01  1.50000000E+00  8.00000000E-01  8.00000000E-01
  1.50000000E+00  8.00000000E-01  8.00000000E-01  1.50000000E+00  8.00000000E-01
  8.00000000E-01  1.50000000E+00  8.00000000E-01  8.00000000E-01  1.50000000E+00
  8.00000000E-01  8.00000000E-01  1.50000000E+00  8.00000000E-01  8.00000000E-01
  1.50000000E+00  8.00000000E-01  8.00000000E-01  1.50000000E+00  8.00000000E-01
  8.00000000E-01  1.50000000E+00  8.00000000E-01  8.00000000E-01  1.50000000E+00
  8.00000000E-01  8.00000000E-01  1.50000000E+00  8.00000000E-01  8.00000000E-01
  1.50000000E+00  8.00000000E-01  8.00000000E-01  1.50000000E+00  8.00000000E-01
  8.00000000E-01  1.50000000E+00  8.00000000E-01  8.00000000E-01  1.50000000E+00
  8.00000000E-01  8.00000000E-01  1.50000000E+00  8.00000000E-01  8.00000000E-01
  1.50000000E+00  8.00000000E-01  8.00000000E-01  1.50000000E+00  8.00000000E-01
  8.00000000E-01  1.50000000E+00  8.00000000E-01  8.00000000E-01  1.50000000E+00
  8.00000000E-01  8.00000000E-01  1.50000000E+00  8.00000000E-01  8.00000000E-01
  1.50000000E+00  8.00000000E-01  8.00000000E-01  1.50000000E+00  8.00000000E-01
  8.00000000E-01  1.50000000E+00  8.00000000E-01  8.00000000E-01  1.50000000E+00
  8.00000000E-01  8.00000000E-01  1.50000000E+00  8.00000000E-01  8.00000000E-01
  1.50000000E+00  8.00000000E-01  8.00000000E-01  1.50000000E+00  8.00000000E-01
  8.00000000E-01  1.50000000E+00  8.00000000E-01  8.00000000E-01  1.50000000E+00
  8.00000000E-01  8.00000000E-01  1.50000000E+00  8.00000000E-01  8.00000000E-01
  1.50000000E+00  8.00000000E-01  8.00000000E-01  1.50000000E+00  8.00000000E-01
  8.00000000E-01  1.50000000E+00  8.00000000E-01  8.00000000E-01  1.50000000E+00
  8.00000000E-01  8.00000000E-01  1.50000000E+00  8.00000000E-01  8.00000000E-01
  1.50000000E+00  8.00000000E-01  8.00000000E-01  1.50000000E+00  8.00000000E-01
  8.00000000E-01  1.50000000E+00  8.00000000E-01  8.00000000E-01  1.50000000E+00
  8.00000000E-01  8.00000000E-01  1.50000000E+00  8.00000000E-01  8.00000000E-01
  1.50000000E+00  8.00000000E-01  8.00000000E-01  1.50000000E+00  8.00000000E-01
  8.00000000E-01  1.50000000E+00  8.00000000E-01  8.00000000E-01  1.50000000E+00
  8.00000000E-01  8.00000000E-01  1.50000000E+00  8.00000000E-01  8.00000000E-01
  1.50000000E+00  8.00000000E-01  8.00000000E-01  1.50000000E+00  8.00000000E-01
  8.00000000E-01  1.50000000E+00  8.00000000E-01  8.00000000E-01  1.50000000E+00
  8.00000000E-01  8.00000000E-01  1.50000000E+00  8.00000000E-01  8.00000000E-01
  1.50000000E+00  8.00000000E-01  8.00000000E-01  1.50000000E+00  8.00000000E-01
  8.00000000E-01  1.50000000E+00  8.00000000E-01  8.00000000E-01  1.50000000E+00
  8.00000000E-01  8.00000000E-01  1.50000000E+00  8.00000000E-01  8.00000000E-01
  1.50000000E+00  8.00000000E-01  8.00000000E-01  1.50000000E+00  8.00000000E-01
  8.00000000E-01  1.50000000E+00  8.00000000E-01  8.00000000E-01  1.50000000E+00
  8.00000000E-01  8.00000000E-01  1.50000000E+00  8.00000000E-01  8.00000000E-01
  1.50000000E+00  8.00000000E-01  8.00000000E-01  1.50000000E+00  8.00000000E-01
  8.00000000E-01  1.50000000E+00  8.00000000E-01  8.00000000E-01  1.50000000E+00
  8.00000000E-01  8.00000000E-01  1.50000000E+00  8.00000000E-01  8.00000000E-01
  1.50000000E+00  8.00000000E-01  8.00000000E-01  1.50000000E+00  8.00000000E-01
  8.00000000E-01  1.50000000E+00  8.00000000E-01  8.00000000E-01  1.50000000E+00
  8.00000000E-01  8.00000000E-01  1.50000000E+00  8.00000000E-01  8.00000000E-01
  1.50000000E+00  8.00000000E-01  8.00000000E-01  1.50000000E+00  8.00000000E-01
  8.00000000E-01  1.50000000E+00  8.00000000E-01  8.00000000E-01  1.50000000E+00
  8.00000000E-01  8.00000000E-01  1.50000000E+00  8.00000000E-01  8.00000000E-01
  1.50000000E+00  8.00000000E-01  8.00000000E-01  1.50000000E+00  8.00000000E-01
  8.00000000E-01  1.50000000E+00  8.00000000E-01  8.00000000E-01  1.50000000E+00
  8.00000000E-01  8.00000000E-01  1.50000000E+00  8.00000000E-01  8.00000000E-01
  1.50000000E+00  8.00000000E-01  8.00000000E-01  1.50000000E+00  8.00000000E-01
  8.00000000E-01  1.50000000E+00  8.00000000E-01  8.00000000E-01  1.50000000E+00
  8.00000000E-01  8.00000000E-01  1.50000000E+00  8.00000000E-01  8.00000000E-01
  1.50000000E+00  8.00000000E-01  8.00000000E-01  1.50000000E+00  8.00000000E-01
  8.00000000E-01  1.50000000E+00  8.00000000E-01  8.00000000E-01  1.50000000E+00
  8.00000000E-01  8.00000000E-01  1.50000000E+00  8.00000000E-01  8.00000000E-01
  1.50000000E+00  8.00000000E-01  8.00000000E-01  1.50000000E+00  8.00000000E-01
  8.00000000E-01  1.50000000E+00  8.00000000E-01  8.00000000E-01  1.50000000E+00
  8.00000000E-01  8.00000000E-01  1.50000000E+00  8.00000000E-01  8.00000000E-01
  1.50000000E+00  8.00000000E-01  8.00000000E-01  1.50000000E+00  8.00000000E-01
  8.00000000E-01  1.50000000E+00  8.00000000E-01  8.00000000E-01  1.50000000E+00
  8.00000000E-01  8.00000000E-01  1.50000000E+00  8.00000000E-01  8.00000000E-01
  1.50000000E+00  8.00000000E-01  8.00000000E-01  1.50000000E+00  8.00000000E-01
  8.00000000E-01  1.50000000E+00  8.00000000E-01  8.00000000E-01  1.50000000E+00
  8.00000000E-01  8.00000000E-01  1.50000000E+00  8.00000000E-01  8.00000000E-01
  1.50000000E+00  8.00000000E-01  8.00000000E-01  1.50000000E+00  8.00000000E-01
  8.00000000E-01  1.50000000E+00  8.00000000E-01  8.00000000E-01  1.50000000E+00
  8.00000000E-01  8.00000000E-01  1.50000000E+00  8.00000000E-01  8.00000000E-01
  1.50000000E+00  8.00000000E-01  8.00000000E-01  1.50000000E+00  8.00000000E-01
  8.00000000E-01  1.50000000E+00  8.00000000E-01  8.00000000E-01  1.50000000E+00
  8.00000000E-01  8.00000000E-01  1.50000000E+00  8.00000000E-01  8.00000000E-01
  1.50000000E+00  8.00000000E-01  8.00000000E-01  1.50000000E+00  8.00000000E-01
  8.00000000E-01  1.50000000E+00  8.00000000E-01  8.00000000E-01  1.50000000E+00
  8.00000000E-01  8.00000000E-01  1.50000000E+00  8.00000000E-01  8.00000000E-01
  1.50000000E+00  8.00000000E-01  8.00000000E-01  1.50000000E+00  8.00000000E-01
  8.00000000E-01  1.50000000E+00  8.00000000E-01  8.00000000E-01  1.50000000E+00
  8.00000000E-01  8.00000000E-01  1.50000000E+00  8.00000000E-01  8.00000000E-01
  1.50000000E+00  8.00000000E-01  8.00000000E-01  1.50000000E+00  8.00000000E-01
  8.00000000E-01  1.50000000E+00  8.00000000E-01  8.00000000E-01  1.50000000E+00
  8.00000000E-01  8.00000000E-01  1.50000000E+00  8.00000000E-01  8.00000000E-01
  1.50000000E+00  8.00000000E-01  8.00000000E-01  1.50000000E+00  8.00000000E-01
  8.00000000E-01  1.50000000E+00  8.00000000E-01  8.00000000E-01  1.50000000E+00
  8.00000000E-01  8.00000000E-01  1.50000000E+00  8.00000000E-01  8.00000000E-01
  1.50000000E+00  8.00000000E-01  8.00000000E-01  1.50000000E+00  8.00000000E-01
  8.00000000E-01  1.50000000E+00  8.00000000E-01  8.00000000E-01  1.50000000E+00
  8.00000000E-01  8.00000000E-01  1.50000000E+00  8.00000000E-01  8.00000000E-01
  1.50000000E+00  8.00000000E-01  8.00000000E-01  1.50000000E+00  8.00000000E-01
  8.00000000E-01  1.50000000E+00  8.00000000E-01  8.00000000E-01  1.50000000E+00
  8.00000000E-01  8.00000000E-01  1.50000000E+00  8.00000000E-01  8.00000000E-01
  1.50000000E+00  8.00000000E-01  8.00000000E-01  1.50000000E+00  8.00000000E-01
  8.00000000E-01  1.50000000E+00  8.00000000E-01  8.00000000E-01  1.50000000E+00
  8.00000000E-01  8.00000000E-01  1.50000000E+00  8.00000000E-01  8.00000000E-01
  1.50000000E+00  8.00000000E-01  8.00000000E-01  1.50000000E+00  8.00000000E-01
  8.00000000E-01  1.50000000E+00  8.00000000E-01  8.00000000E-01  1.50000000E+00
  8.00000000E-01  8.00000000E-01  1.50000000E+00  8.00000000E-01  8.00000000E-01
  1.50000000E+00  8.00000000E-01  8.00000000E-01  1.50000000E+00  8.00000000E-01
  8.00000000E-01  1.50000000E+00  8.00000000E-01  8.00000000E-01  1.50000000E+00
  8.00000000E-01  8.00000000E-01  1.50000000E+00  8.00000000E-01  8.00000000E-01
  1.50000000E+00  8.00000000E-01  8.00000000E-01  1.50000000E+00  8.00000000E-01
  8.00000000E-01  1.50000000E+00  8.00000000E-01  8.00000000E-01  1.50000000E+00
  8.00000000E-01  8.00000000E-01  1.50000000E+00  8.00000000E-01  8.00000000E-01
  1.50000000E+00  8.00000000E-01  8.00000000E-01  1.50000000E+00  8.00000000E-01
  8.00000000E-01  1.50000000E+00  8.00000000E-01  8.00000000E-01  1.50000000E+00
  8.00000000E-01  8.00000000E-01  1.50000000E+00  8.00000000E-01  8.00000000E-01
  1.50000000E+00  8.00000000E-01  8.00000000E-01  1.50000000E+00  8.00000000E-01
  8.00000000E-01  1.50000000E+00  8.00000000E-01  8.00000000E-01  1.50000000E+00
  8.00000000E-01  8.00000000E-01  1.50000000E+00  8.00000000E-01  8.00000000E-01
  1.50000000E+00  8.00000000E-01  8.00000000E-01  1.50000000E+00  8.00000000E-01
  8.00000000E-01  1.50000000E+00  8.00000000E-01  8.00000000E-01  1.50000000E+00
  8.00000000E-01  8.00000000E-01  1.50000000E+00  8.00000000E-01  8.00000000E-01
  1.50000000E+00  8.00000000E-01  8.00000000E-01  1.50000000E+00  8.00000000E-01
  8.00000000E-01  1.50000000E+00  8.00000000E-01  8.00000000E-01  1.50000000E+00
  8.00000000E-01  8.00000000E-01  1.50000000E+00  8.00000000E-01  8.00000000E-01
  1.50000000E+00  8.00000000E-01  8.00000000E-01  1.50000000E+00  8.00000000E-01
  8.00000000E-01  1.50000000E+00  8.00000000E-01  8.00000000E-01  1.50000000E+00
  8.00000000E-01  8.00000000E-01  1.50000000E+00  8.00000000E-01  8.00000000E-01
  1.50000000E+00  8.00000000E-01  8.00000000E-01  1.50000000E+00  8.00000000E-01
  8.00000000E-01  1.50000000E+00  8.00000000E-01  8.00000000E-01  1.50000000E+00
  8.00000000E-01  8.00000000E-01  1.50000000E+00  8.00000000E-01  8.00000000E-01
  1.50000000E+00  8.00000000E-01  8.00000000E-01  1.50000000E+00  8.00000000E-01
  8.00000000E-01  1.50000000E+00  8.00000000E-01  8.00000000E-01  1.50000000E+00
  8.00000000E-01  8.00000000E-01  1.50000000E+00  8.00000000E-01  8.00000000E-01
  1.50000000E+00  8.00000000E-01  8.00000000E-01  1.50000000E+00  8.00000000E-01
  8.00000000E-01  1.50000000E+00  8.00000000E-01  8.00000000E-01  1.50000000E+00
  8.00000000E-01  8.00000000E-01  1.50000000E+00  8.00000000E-01  8.00000000E-01
  1.50000000E+00  8.00000000E-01  8.00000000E-01  1.50000000E+00  8.00000000E-01
  8.00000000E-01  1.50000000E+00  8.00000000E-01  8.00000000E-01  1.50000000E+00
  8.00000000E-01  8.00000000E-01  1.50000000E+00  8.00000000E-01  8.00000000E-01
  1.50000000E+00  8.00000000E-01  8.00000000E-01  1.50000000E+00  8.00000000E-01
  8.00000000E-01  1.50000000E+00  8.00000000E-01  8.00000000E-01  1.50000000E+00
  8.00000000E-01  8.00000000E-01  1.50000000E+00  8.00000000E-01  8.00000000E-01
  1.50000000E+00  8.00000000E-01  8.00000000E-01  1.50000000E+00  8.00000000E-01
  8.00000000E-01  1.50000000E+00  8.00000000E-01  8.00000000E-01  1.50000000E+00
  8.00000000E-01  8.00000000E-01  1.50000000E+00  8.00000000E-01  8.00000000E-01
  1.50000000E+00  8.00000000E-01  8.00000000E-01  1.50000000E+00  8.00000000E-01
  8.00000000E-01  1.50000000E+00  8.00000000E-01  8.00000000E-01  1.50000000E+00
  8.00000000E-01  8.00000000E-01  1.50000000E+00  8.00000000E-01  8.00000000E-01
  1.50000000E+00  8.00000000E-01  8.00000000E-01  1.50000000E+00  8.00000000E-01
  8.00000000E-01  1.50000000E+00  8.00000000E-01  8.00000000E-01  1.50000000E+00
  8.00000000E-01  8.00000000E-01  1.50000000E+00  8.00000000E-01  8.00000000E-01
  1.50000000E+00  8.00000000E-01  8.00000000E-01  1.50000000E+00  8.00000000E-01
  8.00000000E-01  1.50000000E+00  8.00000000E-01  8.00000000E-01  1.50000000E+00
  8.00000000E-01  8.00000000E-01  1.50000000E+00  8.00000000E-01  8.00000000E-01
  1.50000000E+00  8.00000000E-01  8.00000000E-01  1.50000000E+00  8.00000000E-01
  8.00000000E-01  1.50000000E+00  8.00000000E-01  8.00000000E-01  1.50000000E+00
  8.00000000E-01  8.00000000E-01  1.50000000E+00  8.00000000E-01  8.00000000E-01
  1.50000000E+00  8.00000000E-01  8.00000000E-01  1.50000000E+00  8.00000000E-01
  8.00000000E-01  1.50000000E+00  8.00000000E-01  8.00000000E-01  1.50000000E+00
  8.00000000E-01  8.00000000E-01  1.50000000E+00  8.00000000E-01  8.00000000E-01
  1.50000000E+00  8.00000000E-01  8.00000000E-01  1.50000000E+00  8.00000000E-01
  8.00000000E-01  1.50000000E+00  8.00000000E-01  8.00000000E-01  1.50000000E+00
  8.00000000E-01  8.00000000E-01  1.50000000E+00  8.00000000E-01  8.00000000E-01
  1.50000000E+00  8.00000000E-01  8.00000000E-01  1.50000000E+00  8.00000000E-01
  8.00000000E-01  1.50000000E+00  8.00000000E-01  8.00000000E-01  1.50000000E+00
  8.00000000E-01  8.00000000E-01  1.50000000E+00  8.00000000E-01  8.00000000E-01
  1.50000000E+00  8.00000000E-01  8.00000000E-01  1.50000000E+00  8.00000000E-01
  8.00000000E-01  1.50000000E+00  8.00000000E-01  8.00000000E-01  1.50000000E+00
  8.00000000E-01  8.00000000E-01  1.50000000E+00  8.00000000E-01  8.00000000E-01
  1.50000000E+00  8.00000000E-01  8.00000000E-01  1.50000000E+00  8.00000000E-01
  8.00000000E-01  1.50000000E+00  8.00000000E-01  8.00000000E-01  1.50000000E+00
  8.00000000E-01  8.00000000E-01  1.50000000E+00  8.00000000E-01  8.00000000E-01
  1.50000000E+00  8.00000000E-01  8.00000000E-01  1.50000000E+00  8.00000000E-01
  8.00000000E-01  1.50000000E+00  8.00000000E-01  8.00000000E-01  1.50000000E+00
  8.00000000E-01  8.00000000E-01  1.50000000E+00  8.00000000E-01  8.00000000E-01
  1.50000000E+00  8.00000000E-01  8.00000000E-01  1.50000000E+00  8.00000000E-01
  8.00000000E-01  1.50000000E+00  8.00000000E-01  8.00000000E-01  1.50000000E+00
  8.00000000E-01  8.00000000E-01  1.50000000E+00  8.00000000E-01  8.00000000E-01
  1.50000000E+00  8.00000000E-01  8.00000000E-01  1.50000000E+00  8.00000000E-01
  8.00000000E-01  1.50000000E+00  8.00000000E-01  8.00000000E-01  1.50000000E+00
  8.00000000E-01  8.00000000E-01  1.50000000E+00  8.00000000E-01  8.00000000E-01
  1.50000000E+00  8.00000000E-01  8.00000000E-01  1.50000000E+00  8.00000000E-01
  8.00000000E-01  1.50000000E+00  8.00000000E-01  8.00000000E-01  1.50000000E+00
  8.00000000E-01  8.00000000E-01  1.50000000E+00  8.00000000E-01  8.00000000E-01
  1.50000000E+00  8.00000000E-01  8.00000000E-01  1.50000000E+00  8.00000000E-01
  8.00000000E-01  1.50000000E+00  8.00000000E-01  8.00000000E-01  1.50000000E+00
  8.00000000E-01  8.00000000E-01  1.50000000E+00  8.00000000E-01  8.00000000E-01
  1.50000000E+00  8.00000000E-01  8.00000000E-01  1.50000000E+00  8.00000000E-01
  8.00000000E-01  1.50000000E+00  8.00000000E-01  8.00000000E-01  1.50000000E+00
  8.00000000E-01  8.00000000E-01  1.50000000E+00  8.00000000E-01  8.00000000E-01
  1.50000000E+00  8.00000000E-01  8.00000000E-01  1.50000000E+00  8.00000000E-01
  8.00000000E-01  1.50000000E+00  8.00000000E-01  8.00000000E-01  1.50000000E+00
  8.00000000E-01  8.00000000E-01  1.50000000E+00  8.00000000E-01  8.00000000E-01
  1.50000000E+00  8.00000000E-01  8.00000000E-01  1.50000000E+00  8.00000000E-01
  8.00000000E-01  1.50000000E+00  8.00000000E-01  8.00000000E-01  1.50000000E+00
  8.00000000E-01  8.00000000E-01  1.50000000E+00  8.00000000E-01  8.00000000E-01
  1.50000000E+00  8.00000000E-01  8.00000000E-01  1.50000000E+00  8.00000000E-01
  8.00000000E-01  1.50000000E+00  8.00000000E-01  8.00000000E-01  1.50000000E+00
  8.00000000E-01  8.00000000E-01  1.50000000E+00  8.00000000E-01  8.00000000E-01
  1.50000000E+00  8.00000000E-01  8.00000000E-01  1.50000000E+00  8.00000000E-01
  8.00000000E-01  1.50000000E+00  8.00000000E-01  8.00000000E-01  1.50000000E+00
  8.00000000E-01  8.00000000E-01  1.50000000E+00  8.00000000E-01  8.00000000E-01
  1.50000000E+00  8.00000000E-01  8.00000000E-01  1.50000000E+00  8.00000000E-01
  8.00000000E-01  1.50000000E+00  8.00000000E-01  8.00000000E-01  1.50000000E+00
  8.00000000E-01  8.00000000E-01  1.50000000E+00  8.00000000E-01  8.00000000E-01
  1.50000000E+00  8.00000000E-01  8.00000000E-01  1.50000000E+00  8.00000000E-01
  8.00000000E-01  1.50000000E+00  8.00000000E-01  8.00000000E-01  1.50000000E+00
  8.00000000E-01  8.00000000E-01  1.50000000E+00  8.00000000E-01  8.00000000E-01
  1.50000000E+00  8.00000000E-01  8.00000000E-01  1.50000000E+00  8.00000000E-01
  8.00000000E-01  1.50000000E+00  8.00000000E-01  8.00000000E-01  1.50000000E+00
  8.00000000E-01  8.00000000E-01  1.50000000E+00  8.00000000E-01  8.00000000E-01
  1.50000000E+00  8.00000000E-01  8.00000000E-01  1.50000000E+00  8.00000000E-01
  8.00000000E-01  1.50000000E+00  8.00000000E-01  8.00000000E-01  1.50000000E+00
  8.00000000E-01  8.00000000E-01  1.50000000E+00  8.00000000E-01  8.00000000E-01
  1.50000000E+00  8.00000000E-01  8.00000000E-01  1.50000000E+00  8.00000000E-01
  8.00000000E-01  1.50000000E+00  8.00000000E-01  8.00000000E-01  1.50000000E+00
  8.00000000E-01  8.00000000E-01  1.50000000E+00  8.00000000E-01  8.00000000E-01
  1.50000000E+00  8.00000000E-01  8.00000000E-01  1.50000000E+00  8.00000000E-01
  8.00000000E-01  1.50000000E+00  8.00000000E-01  8.00000000E-01  1.50000000E+00
  8.00000000E-01  8.00000000E-01  1.50000000E+00  8.00000000E-01  8.00000000E-01
  1.50000000E+00  8.00000000E-01  8.00000000E-01  1.50000000E+00  8.00000000E-01
  8.00000000E-01  1.50000000E+00  8.00000000E-01  8.00000000E-01  1.50000000E+00
  8.00000000E-01  8.00000000E-01  1.50000000E+00  8.00000000E-01  8.00000000E-01
  1.50000000E+00  8.00000000E-01  8.00000000E-01  1.50000000E+00  8.00000000E-01
  8.00000000E-01  1.50000000E+00  8.00000000E-01  8.00000000E-01  1.50000000E+00
  8.00000000E-01  8.00000000E-01  1.50000000E+00  8.00000000E-01  8.00000000E-01
  1.50000000E+00  8.00000000E-01  8.00000000E-01  1.50000000E+00  8.00000000E-01
  8.00000000E-01  1.50000000E+00  8.00000000E-01  8.00000000E-01  1.50000000E+00
  8.00000000E-01  8.00000000E-01  1.50000000E+00  8.00000000E-01  8.00000000E-01
  1.50000000E+00  8.00000000E-01  8.00000000E-01  1.50000000E+00  8.00000000E-01
  8.00000000E-01  1.50000000E+00  8.00000000E-01  8.00000000E-01  1.50000000E+00
  8.00000000E-01  8.00000000E-01  1.50000000E+00  8.00000000E-01  8.00000000E-01
  1.50000000E+00  8.00000000E-01  8.00000000E-01  1.50000000E+00  8.00000000E-01
  8.00000000E-01  1.50000000E+00  8.00000000E-01  8.00000000E-01  1.50000000E+00
  8.00000000E-01  8.00000000E-01  1.50000000E+00  8.00000000E-01  8.00000000E-01
  1.50000000E+00  8.00000000E-01  8.00000000E-01  1.50000000E+00  8.00000000E-01
  8.00000000E-01  1.50000000E+00  8.00000000E-01  8.00000000E-01  1.50000000E+00
  8.00000000E-01  8.00000000E-01  1.50000000E+00  8.00000000E-01  8.00000000E-01
  1.50000000E+00  8.00000000E-01  8.00000000E-01  1.50000000E+00  8.00000000E-01
  8.00000000E-01  1.50000000E+00  8.00000000E-01  8.00000000E-01  1.50000000E+00
  8.00000000E-01  8.00000000E-01  1.50000000E+00  8.00000000E-01  8.00000000E-01
  1.50000000E+00  8.00000000E-01  8.00000000E-01  1.50000000E+00  8.00000000E-01
  8.00000000E-01  1.50000000E+00  8.00000000E-01  8.00000000E-01  1.50000000E+00
  8.00000000E-01  8.00000000E-01  1.50000000E+00  8.00000000E-01  8.00000000E-01
  1.50000000E+00  8.00000000E-01  8.00000000E-01  1.50000000E+00  8.00000000E-01
  8.00000000E-01  1.50000000E+00  8.00000000E-01  8.00000000E-01  1.50000000E+00
  8.00000000E-01  8.00000000E-01  1.50000000E+00  8.00000000E-01  8.00000000E-01
  1.50000000E+00  8.00000000E-01  8.00000000E-01  1.50000000E+00  8.00000000E-01
  8.00000000E-01  1.50000000E+00  8.00000000E-01  8.00000000E-01  1.50000000E+00
  8.00000000E-01  8.00000000E-01  1.50000000E+00  8.00000000E-01  8.00000000E-01
  1.50000000E+00  8.00000000E-01  8.00000000E-01  1.50000000E+00  8.00000000E-01
  8.00000000E-01  1.50000000E+00  8.00000000E-01  8.00000000E-01  1.50000000E+00
  8.00000000E-01  8.00000000E-01  1.50000000E+00  8.00000000E-01  8.00000000E-01
  1.50000000E+00  8.00000000E-01  8.00000000E-01  1.50000000E+00  8.00000000E-01
  8.00000000E-01  1.50000000E+00  8.00000000E-01  8.00000000E-01  1.50000000E+00
  8.00000000E-01  8.00000000E-01  1.50000000E+00  8.00000000E-01  8.00000000E-01
  1.50000000E+00  8.00000000E-01  8.00000000E-01  1.50000000E+00  8.00000000E-01
  8.00000000E-01  1.50000000E+00  8.00000000E-01  8.00000000E-01  1.50000000E+00
  8.00000000E-01  8.00000000E-01  1.50000000E+00  8.00000000E-01  8.00000000E-01
  1.50000000E+00  8.00000000E-01  8.00000000E-01  1.50000000E+00  8.00000000E-01
  8.00000000E-01  1.50000000E+00  8.00000000E-01  8.00000000E-01  1.50000000E+00
  8.00000000E-01  8.00000000E-01  1.50000000E+00  8.00000000E-01  8.00000000E-01
  1.50000000E+00  8.00000000E-01  8.00000000E-01  1.50000000E+00  8.00000000E-01
  8.00000000E-01  1.50000000E+00  8.00000000E-01  8.00000000E-01  1.50000000E+00
  8.00000000E-01  8.00000000E-01  1.50000000E+00  8.00000000E-01  8.00000000E-01
  1.50000000E+00  8.00000000E-01  8.00000000E-01  1.50000000E+00  8.00000000E-01
  8.00000000E-01  1.50000000E+00  8.00000000E-01  8.00000000E-01  1.50000000E+00
  8.00000000E-01  8.00000000E-01  1.50000000E+00  8.00000000E-01  8.00000000E-01
  1.50000000E+00  8.00000000E-01  8.00000000E-01  1.50000000E+00  8.00000000E-01
  8.00000000E-01  1.50000000E+00  8.00000000E-01  8.00000000E-01  1.50000000E+00
  8.00000000E-01  8.00000000E-01  1.50000000E+00  8.00000000E-01  8.00000000E-01
  1.50000000E+00  8.00000000E-01  8.00000000E-01  1.50000000E+00  8.00000000E-01
  8.00000000E-01  1.50000000E+00  8.00000000E-01  8.00000000E-01  1.50000000E+00
  8.00000000E-01  8.00000000E-01  1.50000000E+00  8.00000000E-01  8.00000000E-01
  1.50000000E+00  8.00000000E-01  8.00000000E-01  1.50000000E+00  8.00000000E-01
  8.00000000E-01  1.50000000E+00  8.00000000E-01  8.00000000E-01  1.50000000E+00
  8.00000000E-01  8.00000000E-01  1.50000000E+00  8.00000000E-01  8.00000000E-01
  1.50000000E+00  8.00000000E-01  8.00000000E-01  1.50000000E+00  8.00000000E-01
  8.00000000E-01  1.50000000E+00  8.00000000E-01  8.00000000E-01  1.50000000E+00
  8.00000000E-01  8.00000000E-01  1.50000000E+00  8.00000000E-01  8.00000000E-01
  1.50000000E+00  8.00000000E-01  8.00000000E-01  1.50000000E+00  8.00000000E-01
  8.00000000E-01  1.50000000E+00  8.00000000E-01  8.00000000E-01  1.50000000E+00
  8.00000000E-01  8.00000000E-01  1.50000000E+00  8.00000000E-01  8.00000000E-01
  1.50000000E+00  8.00000000E-01  8.00000000E-01  1.50000000E+00  8.00000000E-01
  8.00000000E-01  1.50000000E+00  8.00000000E-01  8.00000000E-01  1.50000000E+00
  8.00000000E-01  8.00000000E-01  1.50000000E+00  8.00000000E-01  8.00000000E-01
  1.50000000E+00  8.00000000E-01  8.00000000E-01  1.50000000E+00  8.00000000E-01
  8.00000000E-01  1.50000000E+00  8.00000000E-01  8.00000000E-01  1.50000000E+00
  8.00000000E-01  8.00000000E-01  1.50000000E+00  8.00000000E-01  8.00000000E-01
  1.50000000E+00  8.00000000E-01  8.00000000E-01  1.50000000E+00  8.00000000E-01
  8.00000000E-01  1.50000000E+00  8.00000000E-01  8.00000000E-01  1.50000000E+00
  8.00000000E-01  8.00000000E-01  1.50000000E+00  8.00000000E-01  8.00000000E-01
  1.50000000E+00  8.00000000E-01  8.00000000E-01  1.50000000E+00  8.00000000E-01
  8.00000000E-01  1.50000000E+00  8.00000000E-01  8.00000000E-01  1.50000000E+00
  8.00000000E-01  8.00000000E-01  1.50000000E+00  8.00000000E-01  8.00000000E-01
  1.50000000E+00  8.00000000E-01  8.00000000E-01  1.50000000E+00  8.00000000E-01
  8.00000000E-01  1.50000000E+00  8.00000000E-01  8.00000000E-01  1.50000000E+00
  8.00000000E-01  8.00000000E-01  1.50000000E+00  8.00000000E-01  8.00000000E-01
  1.50000000E+00  8.00000000E-01  8.00000000E-01  1.50000000E+00  8.00000000E-01
  8.00000000E-01  1.50000000E+00  8.00000000E-01  8.00000000E-01  1.50000000E+00
  8.00000000E-01  8.00000000E-01  1.50000000E+00  8.00000000E-01  8.00000000E-01
  1.50000000E+00  8.00000000E-01  8.00000000E-01  1.50000000E+00  8.00000000E-01
  8.00000000E-01  1.50000000E+00  8.00000000E-01  8.00000000E-01  1.50000000E+00
  8.00000000E-01  8.00000000E-01  1.50000000E+00  8.00000000E-01  8.00000000E-01
  1.50000000E+00  8.00000000E-01  8.00000000E-01  1.50000000E+00  8.00000000E-01
  8.00000000E-01  1.50000000E+00  8.00000000E-01  8.00000000E-01  1.50000000E+00
  8.00000000E-01  8.00000000E-01  1.50000000E+00  8.00000000E-01  8.00000000E-01
  1.50000000E+00  8.00000000E-01  8.00000000E-01  1.50000000E+00  8.00000000E-01
  8.00000000E-01  1.50000000E+00  8.00000000E-01  8.00000000E-01  1.50000000E+00
  8.00000000E-01  8.00000000E-01  1.50000000E+00  8.00000000E-01  8.00000000E-01
  1.50000000E+00  8.00000000E-01  8.00000000E-01  1.50000000E+00  8.00000000E-01
  8.00000000E-01  1.50000000E+00  8.00000000E-01  8.00000000E-01  1.50000000E+00
  8.00000000E-01  8.00000000E-01  1.50000000E+00  8.00000000E-01  8.00000000E-01
  1.50000000E+00  8.00000000E-01  8.00000000E-01  1.50000000E+00  8.00000000E-01
  8.00000000E-01  1.50000000E+00  8.00000000E-01  8.00000000E-01  1.50000000E+00
  8.00000000E-01  8.00000000E-01  1.50000000E+00  8.00000000E-01  8.00000000E-01
  1.50000000E+00  8.00000000E-01  8.00000000E-01  1.50000000E+00  8.00000000E-01
  8.00000000E-01  1.50000000E+00  8.00000000E-01  8.00000000E-01  1.50000000E+00
  8.00000000E-01  8.00000000E-01  1.50000000E+00  8.00000000E-01  8.00000000E-01
  1.50000000E+00  8.00000000E-01  8.00000000E-01  1.50000000E+00  8.00000000E-01
  8.00000000E-01  1.50000000E+00  8.00000000E-01  8.00000000E-01  1.50000000E+00
  8.00000000E-01  8.00000000E-01  1.50000000E+00  8.00000000E-01  8.00000000E-01
  1.50000000E+00  8.00000000E-01  8.00000000E-01  1.50000000E+00  8.00000000E-01
  8.00000000E-01  1.50000000E+00  8.00000000E-01  8.00000000E-01  1.50000000E+00
  8.00000000E-01  8.00000000E-01  1.50000000E+00  8.00000000E-01  8.00000000E-01
  1.50000000E+00  8.00000000E-01  8.00000000E-01  1.50000000E+00  8.00000000E-01
  8.00000000E-01  1.50000000E+00  8.00000000E-01  8.00000000E-01  1.50000000E+00
  8.00000000E-01  8.00000000E-01  1.50000000E+00  8.00000000E-01  8.00000000E-01
  1.50000000E+00  8.00000000E-01  8.00000000E-01  1.50000000E+00  8.00000000E-01
  8.00000000E-01  1.50000000E+00  8.00000000E-01  8.00000000E-01  1.50000000E+00
  8.00000000E-01  8.00000000E-01  1.50000000E+00  8.00000000E-01  8.00000000E-01
  1.50000000E+00  8.00000000E-01  8.00000000E-01  1.50000000E+00  8.00000000E-01
  8.00000000E-01  1.50000000E+00  8.00000000E-01  8.00000000E-01  1.50000000E+00
  8.00000000E-01  8.00000000E-01  1.50000000E+00  8.00000000E-01  8.00000000E-01
  1.50000000E+00  8.00000000E-01  8.00000000E-01  1.50000000E+00  8.00000000E-01
  8.00000000E-01  1.50000000E+00  8.00000000E-01  8.00000000E-01  1.50000000E+00
  8.00000000E-01  8.00000000E-01  1.50000000E+00  8.00000000E-01  8.00000000E-01
  1.50000000E+00  8.00000000E-01  8.00000000E-01  1.50000000E+00  8.00000000E-01
  8.00000000E-01  1.50000000E+00  8.00000000E-01  8.00000000E-01  1.50000000E+00
  8.00000000E-01  8.00000000E-01  1.50000000E+00  8.00000000E-01  8.00000000E-01
  1.50000000E+00  8.00000000E-01  8.00000000E-01  1.50000000E+00  8.00000000E-01
  8.00000000E-01  1.50000000E+00  8.00000000E-01  8.00000000E-01  1.50000000E+00
  8.00000000E-01  8.00000000E-01  1.50000000E+00  8.00000000E-01  8.00000000E-01
  1.50000000E+00  8.00000000E-01  8.00000000E-01  1.50000000E+00  8.00000000E-01
  8.00000000E-01  1.50000000E+00  8.00000000E-01  8.00000000E-01  1.50000000E+00
  8.00000000E-01  8.00000000E-01  1.50000000E+00  8.00000000E-01  8.00000000E-01
  1.50000000E+00  8.00000000E-01  8.00000000E-01  1.50000000E+00  8.00000000E-01
  8.00000000E-01  1.50000000E+00  8.00000000E-01  8.00000000E-01  1.50000000E+00
  8.00000000E-01  8.00000000E-01  1.50000000E+00  8.00000000E-01  8.00000000E-01
  1.50000000E+00  8.00000000E-01  8.00000000E-01  1.50000000E+00  8.00000000E-01
  8.00000000E-01  1.50000000E+00  8.00000000E-01  8.00000000E-01  1.50000000E+00
  8.00000000E-01  8.00000000E-01  1.50000000E+00  8.00000000E-01  8.00000000E-01
  1.50000000E+00  8.00000000E-01  8.00000000E-01  1.50000000E+00  8.00000000E-01
  8.00000000E-01  1.50000000E+00  8.00000000E-01  8.00000000E-01  1.50000000E+00
  8.00000000E-01  8.00000000E-01  1.50000000E+00  8.00000000E-01  8.00000000E-01
  1.50000000E+00  8.00000000E-01  8.00000000E-01  1.50000000E+00  8.00000000E-01
  8.00000000E-01  1.50000000E+00  8.00000000E-01  8.00000000E-01  1.50000000E+00
  8.00000000E-01  8.00000000E-01  1.50000000E+00  8.00000000E-01  8.00000000E-01
  1.50000000E+00  8.00000000E-01  8.00000000E-01  1.50000000E+00  8.00000000E-01
  8.00000000E-01  1.50000000E+00  8.00000000E-01  8.00000000E-01  1.50000000E+00
  8.00000000E-01  8.00000000E-01  1.50000000E+00  8.00000000E-01  8.00000000E-01
  1.50000000E+00  8.00000000E-01  8.00000000E-01  1.50000000E+00  8.00000000E-01
  8.00000000E-01  1.50000000E+00  8.00000000E-01  8.00000000E-01  1.50000000E+00
  8.00000000E-01  8.00000000E-01  1.50000000E+00  8.00000000E-01  8.00000000E-01
  1.50000000E+00  8.00000000E-01  8.00000000E-01  1.50000000E+00  8.00000000E-01
  8.00000000E-01  1.50000000E+00  8.00000000E-01  8.00000000E-01  1.50000000E+00
  8.00000000E-01  8.00000000E-01  1.50000000E+00  8.00000000E-01  8.00000000E-01
  1.50000000E+00  8.00000000E-01  8.00000000E-01  1.50000000E+00  8.00000000E-01
  8.00000000E-01  1.50000000E+00  8.00000000E-01  8.00000000E-01  1.50000000E+00
  8.00000000E-01  8.00000000E-01  1.50000000E+00  8.00000000E-01  8.00000000E-01
  1.50000000E+00  8.00000000E-01  8.00000000E-01  1.50000000E+00  8.00000000E-01
  8.00000000E-01  1.50000000E+00  8.00000000E-01  8.00000000E-01  1.50000000E+00
  8.00000000E-01  8.00000000E-01  1.50000000E+00  8.00000000E-01  8.00000000E-01
  1.50000000E+00  8.00000000E-01  8.00000000E-01  1.50000000E+00  8.00000000E-01
  8.00000000E-01  1.50000000E+00  8.00000000E-01  8.00000000E-01  1.50000000E+00
  8.00000000E-01  8.00000000E-01  1.50000000E+00  8.00000000E-01  8.00000000E-01
  1.50000000E+00  8.00000000E-01  8.00000000E-01  1.50000000E+00  8.00000000E-01
  8.00000000E-01  1.50000000E+00  8.00000000E-01  8.00000000E-01  1.50000000E+00
  8.00000000E-01  8.00000000E-01  1.50000000E+00  8.00000000E-01  8.00000000E-01
  1.50000000E+00  8.00000000E-01  8.00000000E-01  1.50000000E+00  8.00000000E-01
  8.00000000E-01  1.50000000E+00  8.00000000E-01  8.00000000E-01  1.50000000E+00
  8.00000000E-01  8.00000000E-01  1.50000000E+00  8.00000000E-01  8.00000000E-01
  1.50000000E+00  8.00000000E-01  8.00000000E-01  1.50000000E+00  8.00000000E-01
  8.00000000E-01  1.50000000E+00  8.00000000E-01  8.00000000E-01  1.50000000E+00
  8.00000000E-01  8.00000000E-01  1.50000000E+00  8.00000000E-01  8.00000000E-01
  1.50000000E+00  8.00000000E-01  8.00000000E-01  1.50000000E+00  8.00000000E-01
  8.00000000E-01  1.50000000E+00  8.00000000E-01  8.00000000E-01  1.50000000E+00
  8.00000000E-01  8.00000000E-01  1.50000000E+00  8.00000000E-01  8.00000000E-01
  1.50000000E+00  8.00000000E-01  8.00000000E-01  1.50000000E+00  8.00000000E-01
  8.00000000E-01  1.50000000E+00  8.00000000E-01  8.00000000E-01  1.50000000E+00
  8.00000000E-01  8.00000000E-01  1.50000000E+00  8.00000000E-01  8.00000000E-01
  1.50000000E+00  8.00000000E-01  8.00000000E-01  1.50000000E+00  8.00000000E-01
  8.00000000E-01  1.50000000E+00  8.00000000E-01  8.00000000E-01  1.50000000E+00
  8.00000000E-01  8.00000000E-01  1.50000000E+00  8.00000000E-01  8.00000000E-01
  1.50000000E+00  8.00000000E-01  8.00000000E-01  1.50000000E+00  8.00000000E-01
  8.00000000E-01  1.50000000E+00  8.00000000E-01  8.00000000E-01  1.50000000E+00
  8.00000000E-01  8.00000000E-01  1.50000000E+00  8.00000000E-01  8.00000000E-01
  1.50000000E+00  8.00000000E-01  8.00000000E-01  1.50000000E+00  8.00000000E-01
  8.00000000E-01  1.50000000E+00  8.00000000E-01  8.00000000E-01  1.50000000E+00
  8.00000000E-01  8.00000000E-01  1.50000000E+00  8.00000000E-01  8.00000000E-01
  1.50000000E+00  8.00000000E-01  8.00000000E-01  1.50000000E+00  8.00000000E-01
  8.00000000E-01  1.50000000E+00  8.00000000E-01  8.00000000E-01  1.50000000E+00
  8.00000000E-01  8.00000000E-01  1.50000000E+00  8.00000000E-01  8.00000000E-01
  1.50000000E+00  8.00000000E-01  8.00000000E-01  1.50000000E+00  8.00000000E-01
  8.00000000E-01  1.50000000E+00  8.00000000E-01  8.00000000E-01  1.50000000E+00
  8.00000000E-01  8.00000000E-01  1.50000000E+00  8.00000000E-01  8.00000000E-01
  1.50000000E+00  8.00000000E-01  8.00000000E-01  1.50000000E+00  8.00000000E-01
  8.00000000E-01  1.50000000E+00  8.00000000E-01  8.00000000E-01  1.50000000E+00
  8.00000000E-01  8.00000000E-01  1.50000000E+00  8.00000000E-01  8.00000000E-01
  1.50000000E+00  8.00000000E-01  8.00000000E-01  1.50000000E+00  8.00000000E-01
  8.00000000E-01  1.50000000E+00  8.00000000E-01  8.00000000E-01  1.50000000E+00
  8.00000000E-01  8.00000000E-01  1.50000000E+00  8.00000000E-01  8.00000000E-01
  1.50000000E+00  8.00000000E-01  8.00000000E-01  1.50000000E+00  8.00000000E-01
  8.00000000E-01  1.50000000E+00  8.00000000E-01  8.00000000E-01  1.50000000E+00
  8.00000000E-01  8.00000000E-01  1.50000000E+00  8.00000000E-01  8.00000000E-01
  1.50000000E+00  8.00000000E-01  8.00000000E-01  1.50000000E+00  8.00000000E-01
  8.00000000E-01  1.50000000E+00  8.00000000E-01  8.00000000E-01  1.50000000E+00
  8.00000000E-01  8.00000000E-01  1.50000000E+00  8.00000000E-01  8.00000000E-01
  1.50000000E+00  8.00000000E-01  8.00000000E-01  1.50000000E+00  8.00000000E-01
  8.00000000E-01  1.50000000E+00  8.00000000E-01  8.00000000E-01  1.50000000E+00
  8.00000000E-01  8.00000000E-01  1.50000000E+00  8.00000000E-01  8.00000000E-01
  1.50000000E+00  8.00000000E-01  8.00000000E-01  1.50000000E+00  8.00000000E-01
  8.00000000E-01  1.50000000E+00  8.00000000E-01  8.00000000E-01  1.50000000E+00
  8.00000000E-01  8.00000000E-01  1.50000000E+00  8.00000000E-01  8.00000000E-01
  1.50000000E+00  8.00000000E-01  8.00000000E-01  1.50000000E+00  8.00000000E-01
  8.00000000E-01  1.50000000E+00  8.00000000E-01  8.00000000E-01  1.50000000E+00
  8.00000000E-01  8.00000000E-01  1.50000000E+00  8.00000000E-01  8.00000000E-01
  1.50000000E+00  8.00000000E-01  8.00000000E-01  1.50000000E+00  8.00000000E-01
  8.00000000E-01  1.50000000E+00  8.00000000E-01  8.00000000E-01  1.50000000E+00
  8.00000000E-01  8.00000000E-01  1.50000000E+00  8.00000000E-01  8.00000000E-01
  1.50000000E+00  8.00000000E-01  8.00000000E-01  1.50000000E+00  8.00000000E-01
  8.00000000E-01  1.50000000E+00  8.00000000E-01  8.00000000E-01  1.50000000E+00
  8.00000000E-01  8.00000000E-01  1.50000000E+00  8.00000000E-01  8.00000000E-01
  1.50000000E+00  8.00000000E-01  8.00000000E-01  1.50000000E+00  8.00000000E-01
  8.00000000E-01  1.50000000E+00  8.00000000E-01  8.00000000E-01  1.50000000E+00
  8.00000000E-01  8.00000000E-01  1.50000000E+00  8.00000000E-01  8.00000000E-01
  1.50000000E+00  8.00000000E-01  8.00000000E-01  1.50000000E+00  8.00000000E-01
  8.00000000E-01  1.50000000E+00  8.00000000E-01  8.00000000E-01  1.50000000E+00
  8.00000000E-01  8.00000000E-01  1.50000000E+00  8.00000000E-01  8.00000000E-01
  1.50000000E+00  8.00000000E-01  8.00000000E-01  1.50000000E+00  8.00000000E-01
  8.00000000E-01  1.50000000E+00  8.00000000E-01  8.00000000E-01  1.50000000E+00
  8.00000000E-01  8.00000000E-01  1.50000000E+00  8.00000000E-01  8.00000000E-01
  1.50000000E+00  8.00000000E-01  8.00000000E-01  1.50000000E+00  8.00000000E-01
  8.00000000E-01  1.50000000E+00  8.00000000E-01  8.00000000E-01  1.50000000E+00
  8.00000000E-01  8.00000000E-01  1.50000000E+00  8.00000000E-01  8.00000000E-01
  1.50000000E+00  8.00000000E-01  8.00000000E-01  1.50000000E+00  8.00000000E-01
  8.00000000E-01  1.50000000E+00  8.00000000E-01  8.00000000E-01  1.50000000E+00
  8.00000000E-01  8.00000000E-01  1.50000000E+00  8.00000000E-01  8.00000000E-01
  1.50000000E+00  8.00000000E-01  8.00000000E-01  1.50000000E+00  8.00000000E-01
  8.00000000E-01  1.50000000E+00  8.00000000E-01  8.00000000E-01  1.50000000E+00
  8.00000000E-01  8.00000000E-01  1.50000000E+00  8.00000000E-01  8.00000000E-01
  1.50000000E+00  8.00000000E-01  8.00000000E-01  1.50000000E+00  8.00000000E-01
  8.00000000E-01  1.50000000E+00  8.00000000E-01  8.00000000E-01  1.50000000E+00
  8.00000000E-01  8.00000000E-01  1.50000000E+00  8.00000000E-01  8.00000000E-01
  1.50000000E+00  8.00000000E-01  8.00000000E-01  1.50000000E+00  8.00000000E-01
  8.00000000E-01  1.50000000E+00  8.00000000E-01  8.00000000E-01  1.50000000E+00
  8.00000000E-01  8.00000000E-01  1.50000000E+00  8.00000000E-01  8.00000000E-01
  1.50000000E+00  8.00000000E-01  8.00000000E-01  1.50000000E+00  8.00000000E-01
  8.00000000E-01  1.50000000E+00  8.00000000E-01  8.00000000E-01  1.50000000E+00
  8.00000000E-01  8.00000000E-01  1.50000000E+00  8.00000000E-01  8.00000000E-01
  1.50000000E+00  8.00000000E-01  8.00000000E-01  1.50000000E+00  8.00000000E-01
  8.00000000E-01  1.50000000E+00  8.00000000E-01  8.00000000E-01  1.50000000E+00
  8.00000000E-01  8.00000000E-01  1.50000000E+00  8.00000000E-01  8.00000000E-01
  1.50000000E+00  8.00000000E-01  8.00000000E-01  1.50000000E+00  8.00000000E-01
  8.00000000E-01  1.50000000E+00  8.00000000E-01  8.00000000E-01  1.50000000E+00
  8.00000000E-01  8.00000000E-01  1.50000000E+00  8.00000000E-01  8.00000000E-01
  1.50000000E+00  8.00000000E-01  8.00000000E-01  1.50000000E+00  8.00000000E-01
  8.00000000E-01  1.50000000E+00  8.00000000E-01  8.00000000E-01  1.50000000E+00
  8.00000000E-01  8.00000000E-01  1.50000000E+00  8.00000000E-01  8.00000000E-01
  1.50000000E+00  8.00000000E-01  8.00000000E-01  1.50000000E+00  8.00000000E-01
  8.00000000E-01  1.50000000E+00  8.00000000E-01  8.00000000E-01  1.50000000E+00
  8.00000000E-01  8.00000000E-01  1.50000000E+00  8.00000000E-01  8.00000000E-01
  1.50000000E+00  8.00000000E-01  8.00000000E-01  1.50000000E+00  8.00000000E-01
  8.00000000E-01  1.50000000E+00  8.00000000E-01  8.00000000E-01  1.50000000E+00
  8.00000000E-01  8.00000000E-01  1.50000000E+00  8.00000000E-01  8.00000000E-01
  1.50000000E+00  8.00000000E-01  8.00000000E-01  1.50000000E+00  8.00000000E-01
  8.00000000E-01  1.50000000E+00  8.00000000E-01  8.00000000E-01  1.50000000E+00
  8.00000000E-01  8.00000000E-01  1.50000000E+00  8.00000000E-01  8.00000000E-01
  1.50000000E+00  8.00000000E-01  8.00000000E-01  1.50000000E+00  8.00000000E-01
  8.00000000E-01  1.50000000E+00  8.00000000E-01  8.00000000E-01  1.50000000E+00
  8.00000000E-01  8.00000000E-01  1.50000000E+00  8.00000000E-01  8.00000000E-01
  1.50000000E+00  8.00000000E-01  8.00000000E-01  1.50000000E+00  8.00000000E-01
  8.00000000E-01  1.50000000E+00  8.00000000E-01  8.00000000E-01  1.50000000E+00
  8.00000000E-01  8.00000000E-01  1.50000000E+00  8.00000000E-01  8.00000000E-01
  1.50000000E+00  8.00000000E-01  8.00000000E-01  1.50000000E+00  8.00000000E-01
  8.00000000E-01  1.50000000E+00  8.00000000E-01  8.00000000E-01  1.50000000E+00
  8.00000000E-01  8.00000000E-01  1.50000000E+00  8.00000000E-01  8.00000000E-01
  1.50000000E+00  8.00000000E-01  8.00000000E-01  1.50000000E+00  8.00000000E-01
  8.00000000E-01  1.50000000E+00  8.00000000E-01  8.00000000E-01  1.50000000E+00
  8.00000000E-01  8.00000000E-01  1.50000000E+00  8.00000000E-01  8.00000000E-01
  1.50000000E+00  8.00000000E-01  8.00000000E-01  1.50000000E+00  8.00000000E-01
  8.00000000E-01  1.50000000E+00  8.00000000E-01  8.00000000E-01  1.50000000E+00
  8.00000000E-01  8.00000000E-01  1.50000000E+00  8.00000000E-01  8.00000000E-01
  1.50000000E+00  8.00000000E-01  8.00000000E-01  1.50000000E+00  8.00000000E-01
  8.00000000E-01  1.50000000E+00  8.00000000E-01  8.00000000E-01  1.50000000E+00
  8.00000000E-01  8.00000000E-01  1.50000000E+00  8.00000000E-01  8.00000000E-01
  1.50000000E+00  8.00000000E-01  8.00000000E-01  1.50000000E+00  8.00000000E-01
  8.00000000E-01  1.50000000E+00  8.00000000E-01  8.00000000E-01  1.50000000E+00
  8.00000000E-01  8.00000000E-01  1.50000000E+00  8.00000000E-01  8.00000000E-01
  1.50000000E+00  8.00000000E-01  8.00000000E-01  1.50000000E+00  8.00000000E-01
  8.00000000E-01  1.50000000E+00  8.00000000E-01  8.00000000E-01  1.50000000E+00
  8.00000000E-01  8.00000000E-01  1.50000000E+00  8.00000000E-01  8.00000000E-01
  1.50000000E+00  8.00000000E-01  8.00000000E-01  1.50000000E+00  8.00000000E-01
  8.00000000E-01  1.50000000E+00  8.00000000E-01  8.00000000E-01  1.50000000E+00
  8.00000000E-01  8.00000000E-01  1.50000000E+00  8.00000000E-01  8.00000000E-01
  1.50000000E+00  8.00000000E-01  8.00000000E-01  1.50000000E+00  8.00000000E-01
  8.00000000E-01  1.50000000E+00  8.00000000E-01  8.00000000E-01  1.50000000E+00
  8.00000000E-01  8.00000000E-01  1.50000000E+00  8.00000000E-01  8.00000000E-01
  1.50000000E+00  8.00000000E-01  8.00000000E-01  1.50000000E+00  8.00000000E-01
  8.00000000E-01  1.50000000E+00  8.00000000E-01  8.00000000E-01  1.50000000E+00
  8.00000000E-01  8.00000000E-01  1.50000000E+00  8.00000000E-01  8.00000000E-01
  1.50000000E+00  8.00000000E-01  8.00000000E-01  1.50000000E+00  8.00000000E-01
  8.00000000E-01  1.50000000E+00  8.00000000E-01  8.00000000E-01  1.50000000E+00
  8.00000000E-01  8.00000000E-01  1.50000000E+00  8.00000000E-01  8.00000000E-01
  1.50000000E+00  8.00000000E-01  8.00000000E-01  1.50000000E+00  8.00000000E-01
  8.00000000E-01  1.50000000E+00  8.00000000E-01  8.00000000E-01  1.50000000E+00
  8.00000000E-01  8.00000000E-01  1.50000000E+00  8.00000000E-01  8.00000000E-01
  1.50000000E+00  8.00000000E-01  8.00000000E-01  1.50000000E+00  8.00000000E-01
  8.00000000E-01  1.50000000E+00  8.00000000E-01  8.00000000E-01  1.50000000E+00
  8.00000000E-01  8.00000000E-01  1.50000000E+00  8.00000000E-01  8.00000000E-01
  1.50000000E+00  8.00000000E-01  8.00000000E-01  1.50000000E+00  8.00000000E-01
  8.00000000E-01  1.50000000E+00  8.00000000E-01  8.00000000E-01  1.50000000E+00
  8.00000000E-01  8.00000000E-01  1.50000000E+00  8.00000000E-01  8.00000000E-01
  1.50000000E+00  8.00000000E-01  8.00000000E-01  1.50000000E+00  8.00000000E-01
  8.00000000E-01  1.50000000E+00  8.00000000E-01  8.00000000E-01  1.50000000E+00
  8.00000000E-01  8.00000000E-01  1.50000000E+00  8.00000000E-01  8.00000000E-01
  1.50000000E+00  8.00000000E-01  8.00000000E-01  1.50000000E+00  8.00000000E-01
  8.00000000E-01  1.50000000E+00  8.00000000E-01  8.00000000E-01  1.50000000E+00
  8.00000000E-01  8.00000000E-01  1.50000000E+00  8.00000000E-01  8.00000000E-01
  1.50000000E+00  8.00000000E-01  8.00000000E-01  1.50000000E+00  8.00000000E-01
  8.00000000E-01  1.50000000E+00  8.00000000E-01  8.00000000E-01  1.50000000E+00
  8.00000000E-01  8.00000000E-01  1.50000000E+00  8.00000000E-01  8.00000000E-01
  1.50000000E+00  8.00000000E-01  8.00000000E-01  1.50000000E+00  8.00000000E-01
  8.00000000E-01  1.50000000E+00  8.00000000E-01  8.00000000E-01  1.50000000E+00
  8.00000000E-01  8.00000000E-01  1.50000000E+00  8.00000000E-01  8.00000000E-01
  1.50000000E+00  8.00000000E-01  8.00000000E-01  1.50000000E+00  8.00000000E-01
  8.00000000E-01  1.50000000E+00  8.00000000E-01  8.00000000E-01  1.50000000E+00
  8.00000000E-01  8.00000000E-01  1.50000000E+00  8.00000000E-01  8.00000000E-01
  1.50000000E+00  8.00000000E-01  8.00000000E-01  1.50000000E+00  8.00000000E-01
  8.00000000E-01  1.50000000E+00  8.00000000E-01  8.00000000E-01  1.50000000E+00
  8.00000000E-01  8.00000000E-01  1.50000000E+00  8.00000000E-01  8.00000000E-01
  1.50000000E+00  8.00000000E-01  8.00000000E-01  1.50000000E+00  8.00000000E-01
  8.00000000E-01  1.50000000E+00  8.00000000E-01  8.00000000E-01  1.50000000E+00
  8.00000000E-01  8.00000000E-01  1.50000000E+00  8.00000000E-01  8.00000000E-01
  1.50000000E+00  8.00000000E-01  8.00000000E-01  1.50000000E+00  8.00000000E-01
  8.00000000E-01  1.50000000E+00  8.00000000E-01  8.00000000E-01  1.50000000E+00
  8.00000000E-01  8.00000000E-01  1.50000000E+00  8.00000000E-01  8.00000000E-01
  1.50000000E+00  8.00000000E-01  8.00000000E-01  1.50000000E+00  8.00000000E-01
  8.00000000E-01  1.50000000E+00  8.00000000E-01  8.00000000E-01  1.50000000E+00
  8.00000000E-01  8.00000000E-01  1.50000000E+00  8.00000000E-01  8.00000000E-01
  1.50000000E+00  8.00000000E-01  8.00000000E-01  1.50000000E+00  8.00000000E-01
  8.00000000E-01  1.50000000E+00  8.00000000E-01  8.00000000E-01  1.50000000E+00
  8.00000000E-01  8.00000000E-01  1.50000000E+00  8.00000000E-01  8.00000000E-01
  1.50000000E+00  8.00000000E-01  8.00000000E-01  1.50000000E+00  8.00000000E-01
  8.00000000E-01  1.50000000E+00  8.00000000E-01  8.00000000E-01  1.50000000E+00
  8.00000000E-01  8.00000000E-01  1.50000000E+00  8.00000000E-01  8.00000000E-01
  1.50000000E+00  8.00000000E-01  8.00000000E-01  1.50000000E+00  8.00000000E-01
  8.00000000E-01  1.50000000E+00  8.00000000E-01  8.00000000E-01  1.50000000E+00
  8.00000000E-01  8.00000000E-01  1.50000000E+00  8.00000000E-01  8.00000000E-01
  1.50000000E+00  8.00000000E-01  8.00000000E-01  1.50000000E+00  8.00000000E-01
  8.00000000E-01  1.50000000E+00  8.00000000E-01  8.00000000E-01  1.50000000E+00
  8.00000000E-01  8.00000000E-01  1.50000000E+00  8.00000000E-01  8.00000000E-01
  1.50000000E+00  8.00000000E-01  8.00000000E-01  1.50000000E+00  8.00000000E-01
  8.00000000E-01  1.50000000E+00  8.00000000E-01  8.00000000E-01  1.50000000E+00
  8.00000000E-01  8.00000000E-01  1.50000000E+00  8.00000000E-01  8.00000000E-01
  1.50000000E+00  8.00000000E-01  8.00000000E-01  1.50000000E+00  8.00000000E-01
  8.00000000E-01  1.50000000E+00  8.00000000E-01  8.00000000E-01  1.50000000E+00
  8.00000000E-01  8.00000000E-01  1.50000000E+00  8.00000000E-01  8.00000000E-01
  1.50000000E+00  8.00000000E-01  8.00000000E-01  1.50000000E+00  8.00000000E-01
  8.00000000E-01  1.50000000E+00  8.00000000E-01  8.00000000E-01  1.50000000E+00
  8.00000000E-01  8.00000000E-01  1.50000000E+00  8.00000000E-01  8.00000000E-01
  1.50000000E+00  8.00000000E-01  8.00000000E-01  1.50000000E+00  8.00000000E-01
  8.00000000E-01  1.50000000E+00  8.00000000E-01  8.00000000E-01  1.50000000E+00
  8.00000000E-01  8.00000000E-01  1.50000000E+00  8.00000000E-01  8.00000000E-01
  1.50000000E+00  8.00000000E-01  8.00000000E-01  1.50000000E+00  8.00000000E-01
  8.00000000E-01  1.50000000E+00  8.00000000E-01  8.00000000E-01  1.50000000E+00
  8.00000000E-01  8.00000000E-01  1.50000000E+00  8.00000000E-01  8.00000000E-01
  1.50000000E+00  8.00000000E-01  8.00000000E-01  1.50000000E+00  8.00000000E-01
  8.00000000E-01  1.50000000E+00  8.00000000E-01  8.00000000E-01  1.50000000E+00
  8.00000000E-01  8.00000000E-01  1.50000000E+00  8.00000000E-01  8.00000000E-01
  1.50000000E+00  8.00000000E-01  8.00000000E-01  1.50000000E+00  8.00000000E-01
  8.00000000E-01  1.50000000E+00  8.00000000E-01  8.00000000E-01  1.50000000E+00
  8.00000000E-01  8.00000000E-01  1.50000000E+00  8.00000000E-01  8.00000000E-01
  1.50000000E+00  8.00000000E-01  8.00000000E-01  1.50000000E+00  8.00000000E-01
  8.00000000E-01  1.50000000E+00  8.00000000E-01  8.00000000E-01  1.50000000E+00
  8.00000000E-01  8.00000000E-01  1.50000000E+00  8.00000000E-01  8.00000000E-01
  1.50000000E+00  8.00000000E-01  8.00000000E-01  1.50000000E+00  8.00000000E-01
  8.00000000E-01  1.50000000E+00  8.00000000E-01  8.00000000E-01  1.50000000E+00
  8.00000000E-01  8.00000000E-01  1.50000000E+00  8.00000000E-01  8.00000000E-01
  1.50000000E+00  8.00000000E-01  8.00000000E-01  1.50000000E+00  8.00000000E-01
  8.00000000E-01  1.50000000E+00  8.00000000E-01  8.00000000E-01  1.50000000E+00
  8.00000000E-01  8.00000000E-01  1.50000000E+00  8.00000000E-01  8.00000000E-01
  1.50000000E+00  8.00000000E-01  8.00000000E-01  1.50000000E+00  8.00000000E-01
  8.00000000E-01  1.50000000E+00  8.00000000E-01  8.00000000E-01  1.50000000E+00
  8.00000000E-01  8.00000000E-01  1.50000000E+00  8.00000000E-01  8.00000000E-01
  1.50000000E+00  8.00000000E-01  8.00000000E-01  1.50000000E+00  8.00000000E-01
  8.00000000E-01  1.50000000E+00  8.00000000E-01  8.00000000E-01  1.50000000E+00
  8.00000000E-01  8.00000000E-01  1.50000000E+00  8.00000000E-01  8.00000000E-01
  1.50000000E+00  8.00000000E-01  8.00000000E-01  1.50000000E+00  8.00000000E-01
  8.00000000E-01  1.50000000E+00  8.00000000E-01  8.00000000E-01  1.50000000E+00
  8.00000000E-01  8.00000000E-01  1.50000000E+00  8.00000000E-01  8.00000000E-01
  1.50000000E+00  8.00000000E-01  8.00000000E-01  1.50000000E+00  8.00000000E-01
  8.00000000E-01  1.50000000E+00  8.00000000E-01  8.00000000E-01  1.50000000E+00
  8.00000000E-01  8.00000000E-01  1.50000000E+00  8.00000000E-01  8.00000000E-01
  1.50000000E+00  8.00000000E-01  8.00000000E-01  1.50000000E+00  8.00000000E-01
  8.00000000E-01  1.50000000E+00  8.00000000E-01  8.00000000E-01  1.50000000E+00
  8.00000000E-01  8.00000000E-01  1.50000000E+00  8.00000000E-01  8.00000000E-01
  1.50000000E+00  8.00000000E-01  8.00000000E-01  1.50000000E+00  8.00000000E-01
  8.00000000E-01  1.50000000E+00  8.00000000E-01  8.00000000E-01  1.50000000E+00
  8.00000000E-01  8.00000000E-01  1.50000000E+00  8.00000000E-01  8.00000000E-01
  1.50000000E+00  8.00000000E-01  8.00000000E-01  1.50000000E+00  8.00000000E-01
  8.00000000E-01  1.50000000E+00  8.00000000E-01  8.00000000E-01  1.50000000E+00
  8.00000000E-01  8.00000000E-01  1.50000000E+00  8.00000000E-01  8.00000000E-01
  1.50000000E+00  8.00000000E-01  8.00000000E-01  1.50000000E+00  8.00000000E-01
  8.00000000E-01  1.50000000E+00  8.00000000E-01  8.00000000E-01  1.50000000E+00
  8.00000000E-01  8.00000000E-01  1.50000000E+00  8.00000000E-01  8.00000000E-01
  1.50000000E+00  8.00000000E-01  8.00000000E-01  1.50000000E+00  8.00000000E-01
  8.00000000E-01  1.50000000E+00  8.00000000E-01  8.00000000E-01  1.50000000E+00
  8.00000000E-01  8.00000000E-01  1.50000000E+00  8.00000000E-01  8.00000000E-01
  1.50000000E+00  8.00000000E-01  8.00000000E-01  1.50000000E+00  8.00000000E-01
  8.00000000E-01  1.50000000E+00  8.00000000E-01  8.00000000E-01  1.50000000E+00
  8.00000000E-01  8.00000000E-01  1.50000000E+00  8.00000000E-01  8.00000000E-01
  1.50000000E+00  8.00000000E-01  8.00000000E-01  1.50000000E+00  8.00000000E-01
  8.00000000E-01  1.50000000E+00  8.00000000E-01  8.00000000E-01  1.50000000E+00
  8.00000000E-01  8.00000000E-01  1.50000000E+00  8.00000000E-01  8.00000000E-01
  1.50000000E+00  8.00000000E-01  8.00000000E-01  1.50000000E+00  8.00000000E-01
  8.00000000E-01  1.50000000E+00  8.00000000E-01  8.00000000E-01  1.50000000E+00
  8.00000000E-01  8.00000000E-01  1.50000000E+00  8.00000000E-01  8.00000000E-01
  1.50000000E+00  8.00000000E-01  8.00000000E-01  1.50000000E+00  8.00000000E-01
  8.00000000E-01  1.50000000E+00  8.00000000E-01  8.00000000E-01  1.50000000E+00
  8.00000000E-01  8.00000000E-01  1.50000000E+00  8.00000000E-01  8.00000000E-01
  1.50000000E+00  8.00000000E-01  8.00000000E-01  1.50000000E+00  8.00000000E-01
  8.00000000E-01  1.50000000E+00  8.00000000E-01  8.00000000E-01  1.50000000E+00
  8.00000000E-01  8.00000000E-01  1.50000000E+00  8.00000000E-01  8.00000000E-01
  1.50000000E+00  8.00000000E-01  8.00000000E-01  1.50000000E+00  8.00000000E-01
  8.00000000E-01  1.50000000E+00  8.00000000E-01  8.00000000E-01  1.50000000E+00
  8.00000000E-01  8.00000000E-01  1.50000000E+00  8.00000000E-01  8.00000000E-01
  1.50000000E+00  8.00000000E-01  8.00000000E-01  1.50000000E+00  8.00000000E-01
  8.00000000E-01  1.50000000E+00  8.00000000E-01  8.00000000E-01  1.50000000E+00
  8.00000000E-01  8.00000000E-01  1.50000000E+00  8.00000000E-01  8.00000000E-01
  1.50000000E+00  8.00000000E-01  8.00000000E-01  1.50000000E+00  8.00000000E-01
  8.00000000E-01  1.50000000E+00  8.00000000E-01  8.00000000E-01  1.50000000E+00
  8.00000000E-01  8.00000000E-01  1.50000000E+00  8.00000000E-01  8.00000000E-01
  1.50000000E+00  8.00000000E-01  8.00000000E-01  1.50000000E+00  8.00000000E-01
  8.00000000E-01  1.50000000E+00  8.00000000E-01  8.00000000E-01  1.50000000E+00
  8.00000000E-01  8.00000000E-01  1.50000000E+00  8.00000000E-01  8.00000000E-01
  1.50000000E+00  8.00000000E-01  8.00000000E-01  1.50000000E+00  8.00000000E-01
  8.00000000E-01  1.50000000E+00  8.00000000E-01  8.00000000E-01  1.50000000E+00
  8.00000000E-01  8.00000000E-01  1.50000000E+00  8.00000000E-01  8.00000000E-01
  1.50000000E+00  8.00000000E-01  8.00000000E-01  1.50000000E+00  8.00000000E-01
  8.00000000E-01  1.50000000E+00  8.00000000E-01  8.00000000E-01  1.50000000E+00
  8.00000000E-01  8.00000000E-01  1.50000000E+00  8.00000000E-01  8.00000000E-01
  1.50000000E+00  8.00000000E-01  8.00000000E-01  1.50000000E+00  8.00000000E-01
  8.00000000E-01  1.50000000E+00  8.00000000E-01  8.00000000E-01  1.50000000E+00
  8.00000000E-01  8.00000000E-01  1.50000000E+00  8.00000000E-01  8.00000000E-01
  1.50000000E+00  8.00000000E-01  8.00000000E-01  1.50000000E+00  8.00000000E-01
  8.00000000E-01  1.50000000E+00  8.00000000E-01  8.00000000E-01  1.50000000E+00
  8.00000000E-01  8.00000000E-01  1.50000000E+00  8.00000000E-01  8.00000000E-01
  1.50000000E+00  8.00000000E-01  8.00000000E-01  1.50000000E+00  8.00000000E-01
  8.00000000E-01  1.50000000E+00  8.00000000E-01  8.00000000E-01  1.50000000E+00
  8.00000000E-01  8.00000000E-01  1.50000000E+00  8.00000000E-01  8.00000000E-01
  1.50000000E+00  8.00000000E-01  8.00000000E-01  1.50000000E+00  8.00000000E-01
  8.00000000E-01  1.50000000E+00  8.00000000E-01  8.00000000E-01  1.50000000E+00
  8.00000000E-01  8.00000000E-01  1.50000000E+00  8.00000000E-01  8.00000000E-01
  1.50000000E+00  8.00000000E-01  8.00000000E-01  1.50000000E+00  8.00000000E-01
  8.00000000E-01  1.50000000E+00  8.00000000E-01  8.00000000E-01  1.50000000E+00
  8.00000000E-01  8.00000000E-01  1.50000000E+00  8.00000000E-01  8.00000000E-01
  1.50000000E+00  8.00000000E-01  8.00000000E-01  1.50000000E+00  8.00000000E-01
  8.00000000E-01  1.50000000E+00  8.00000000E-01  8.00000000E-01  1.50000000E+00
  8.00000000E-01  8.00000000E-01  1.50000000E+00  8.00000000E-01  8.00000000E-01
  1.50000000E+00  8.00000000E-01  8.00000000E-01  1.50000000E+00  8.00000000E-01
  8.00000000E-01  1.50000000E+00  8.00000000E-01  8.00000000E-01  1.50000000E+00
  8.00000000E-01  8.00000000E-01  1.50000000E+00  8.00000000E-01  8.00000000E-01
  1.50000000E+00  8.00000000E-01  8.00000000E-01  1.50000000E+00  8.00000000E-01
  8.00000000E-01  1.50000000E+00  8.00000000E-01  8.00000000E-01  1.50000000E+00
  8.00000000E-01  8.00000000E-01  1.50000000E+00  8.00000000E-01  8.00000000E-01
  1.50000000E+00  8.00000000E-01  8.00000000E-01  1.50000000E+00  8.00000000E-01
  8.00000000E-01  1.50000000E+00  8.00000000E-01  8.00000000E-01  1.50000000E+00
  8.00000000E-01  8.00000000E-01  1.50000000E+00  8.00000000E-01  8.00000000E-01
  1.50000000E+00  8.00000000E-01  8.00000000E-01  1.50000000E+00  8.00000000E-01
  8.00000000E-01  1.50000000E+00  8.00000000E-01  8.00000000E-01  1.50000000E+00
  8.00000000E-01  8.00000000E-01  1.50000000E+00  8.00000000E-01  8.00000000E-01
  1.50000000E+00  8.00000000E-01  8.00000000E-01  1.50000000E+00  8.00000000E-01
  8.00000000E-01  1.50000000E+00  8.00000000E-01  8.00000000E-01  1.50000000E+00
  8.00000000E-01  8.00000000E-01  1.50000000E+00  8.00000000E-01  8.00000000E-01
  1.50000000E+00  8.00000000E-01  8.00000000E-01  1.50000000E+00  8.00000000E-01
  8.00000000E-01  1.50000000E+00  8.00000000E-01  8.00000000E-01  1.50000000E+00
  8.00000000E-01  8.00000000E-01  1.50000000E+00  8.00000000E-01  8.00000000E-01
  1.50000000E+00  8.00000000E-01  8.00000000E-01  1.50000000E+00  8.00000000E-01
  8.00000000E-01  1.50000000E+00  8.00000000E-01  8.00000000E-01  1.50000000E+00
  8.00000000E-01  8.00000000E-01  1.50000000E+00  8.00000000E-01  8.00000000E-01
  1.50000000E+00  8.00000000E-01  8.00000000E-01  1.50000000E+00  8.00000000E-01
  8.00000000E-01  1.50000000E+00  8.00000000E-01  8.00000000E-01  1.50000000E+00
  8.00000000E-01  8.00000000E-01  1.50000000E+00  8.00000000E-01  8.00000000E-01
  1.50000000E+00  8.00000000E-01  8.00000000E-01  1.50000000E+00  8.00000000E-01
  8.00000000E-01  1.50000000E+00  8.00000000E-01  8.00000000E-01  1.50000000E+00
  8.00000000E-01  8.00000000E-01  1.50000000E+00  8.00000000E-01  8.00000000E-01
  1.50000000E+00  8.00000000E-01  8.00000000E-01  1.50000000E+00  8.00000000E-01
  8.00000000E-01  1.50000000E+00  8.00000000E-01  8.00000000E-01  1.50000000E+00
  8.00000000E-01  8.00000000E-01  1.50000000E+00  8.00000000E-01  8.00000000E-01
  1.50000000E+00  8.00000000E-01  8.00000000E-01  1.50000000E+00  8.00000000E-01
  8.00000000E-01  1.50000000E+00  8.00000000E-01  8.00000000E-01  1.50000000E+00
  8.00000000E-01  8.00000000E-01  1.50000000E+00  8.00000000E-01  8.00000000E-01
  1.50000000E+00  8.00000000E-01  8.00000000E-01  1.50000000E+00  8.00000000E-01
  8.00000000E-01  1.50000000E+00  8.00000000E-01  8.00000000E-01  1.50000000E+00
  8.00000000E-01  8.00000000E-01  1.50000000E+00  8.00000000E-01  8.00000000E-01
  1.50000000E+00  8.00000000E-01  8.00000000E-01  1.50000000E+00  8.00000000E-01
  8.00000000E-01  1.50000000E+00  8.00000000E-01  8.00000000E-01  1.50000000E+00
  8.00000000E-01  8.00000000E-01  1.50000000E+00  8.00000000E-01  8.00000000E-01
  1.50000000E+00  8.00000000E-01  8.00000000E-01  1.50000000E+00  8.00000000E-01
  8.00000000E-01  1.50000000E+00  8.00000000E-01  8.00000000E-01  1.50000000E+00
  8.00000000E-01  8.00000000E-01  1.50000000E+00  8.00000000E-01  8.00000000E-01
  1.50000000E+00  8.00000000E-01  8.00000000E-01  1.50000000E+00  8.00000000E-01
  8.00000000E-01  1.50000000E+00  8.00000000E-01  8.00000000E-01  1.50000000E+00
  8.00000000E-01  8.00000000E-01  1.50000000E+00  8.00000000E-01  8.00000000E-01
  1.50000000E+00  8.00000000E-01  8.00000000E-01  1.50000000E+00  8.00000000E-01
  8.00000000E-01  1.50000000E+00  8.00000000E-01  8.00000000E-01  1.50000000E+00
  8.00000000E-01  8.00000000E-01  1.50000000E+00  8.00000000E-01  8.00000000E-01
  1.50000000E+00  8.00000000E-01  8.00000000E-01  1.50000000E+00  8.00000000E-01
  8.00000000E-01  1.50000000E+00  8.00000000E-01  8.00000000E-01  1.50000000E+00
  8.00000000E-01  8.00000000E-01  1.50000000E+00  8.00000000E-01  8.00000000E-01
  1.50000000E+00  8.00000000E-01  8.00000000E-01  1.50000000E+00  8.00000000E-01
  8.00000000E-01  1.50000000E+00  8.00000000E-01  8.00000000E-01  1.50000000E+00
  8.00000000E-01  8.00000000E-01  1.50000000E+00  8.00000000E-01  8.00000000E-01
  1.50000000E+00  8.00000000E-01  8.00000000E-01  1.50000000E+00  8.00000000E-01
  8.00000000E-01  1.50000000E+00  8.00000000E-01  8.00000000E-01  1.50000000E+00
  8.00000000E-01  8.00000000E-01  1.50000000E+00  8.00000000E-01  8.00000000E-01
  1.50000000E+00  8.00000000E-01  8.00000000E-01  1.50000000E+00  8.00000000E-01
  8.00000000E-01  1.50000000E+00  8.00000000E-01  8.00000000E-01  1.50000000E+00
  8.00000000E-01  8.00000000E-01  1.50000000E+00  8.00000000E-01  8.00000000E-01
  1.50000000E+00  8.00000000E-01  8.00000000E-01  1.50000000E+00  8.00000000E-01
  8.00000000E-01  1.50000000E+00  8.00000000E-01  8.00000000E-01  1.50000000E+00
  8.00000000E-01  8.00000000E-01  1.50000000E+00  8.00000000E-01  8.00000000E-01
  1.50000000E+00  8.00000000E-01  8.00000000E-01  1.50000000E+00  8.00000000E-01
  8.00000000E-01  1.50000000E+00  8.00000000E-01  8.00000000E-01  1.50000000E+00
  8.00000000E-01  8.00000000E-01  1.50000000E+00  8.00000000E-01  8.00000000E-01
  1.50000000E+00  8.00000000E-01  8.00000000E-01  1.50000000E+00  8.00000000E-01
  8.00000000E-01  1.50000000E+00  8.00000000E-01  8.00000000E-01  1.50000000E+00
  8.00000000E-01  8.00000000E-01  1.50000000E+00  8.00000000E-01  8.00000000E-01
  1.50000000E+00  8.00000000E-01  8.00000000E-01  1.50000000E+00  8.00000000E-01
  8.00000000E-01  1.50000000E+00  8.00000000E-01  8.00000000E-01  1.50000000E+00
  8.00000000E-01  8.00000000E-01  1.50000000E+00  8.00000000E-01  8.00000000E-01
  1.50000000E+00  8.00000000E-01  8.00000000E-01  1.50000000E+00  8.00000000E-01
  8.00000000E-01  1.50000000E+00  8.00000000E-01  8.00000000E-01  1.50000000E+00
  8.00000000E-01  8.00000000E-01  1.50000000E+00  8.00000000E-01  8.00000000E-01
  1.50000000E+00  8.00000000E-01  8.00000000E-01  1.50000000E+00  8.00000000E-01
  8.00000000E-01  1.50000000E+00  8.00000000E-01  8.00000000E-01  1.50000000E+00
  8.00000000E-01  8.00000000E-01  1.50000000E+00  8.00000000E-01  8.00000000E-01
  1.50000000E+00  8.00000000E-01  8.00000000E-01  1.50000000E+00  8.00000000E-01
  8.00000000E-01  1.50000000E+00  8.00000000E-01  8.00000000E-01  1.50000000E+00
  8.00000000E-01  8.00000000E-01  1.50000000E+00  8.00000000E-01  8.00000000E-01
  1.50000000E+00  8.00000000E-01  8.00000000E-01  1.50000000E+00  8.00000000E-01
  8.00000000E-01  1.50000000E+00  8.00000000E-01  8.00000000E-01  1.50000000E+00
  8.00000000E-01  8.00000000E-01  1.50000000E+00  8.00000000E-01  8.00000000E-01
  1.50000000E+00  8.00000000E-01  8.00000000E-01  1.50000000E+00  8.00000000E-01
  8.00000000E-01  1.50000000E+00  8.00000000E-01  8.00000000E-01  1.50000000E+00
  8.00000000E-01  8.00000000E-01  1.50000000E+00  8.00000000E-01  8.00000000E-01
  1.50000000E+00  8.00000000E-01  8.00000000E-01  1.50000000E+00  8.00000000E-01
  8.00000000E-01  1.50000000E+00  8.00000000E-01  8.00000000E-01  1.50000000E+00
  8.00000000E-01  8.00000000E-01  1.50000000E+00  8.00000000E-01  8.00000000E-01
  1.50000000E+00  8.00000000E-01  8.00000000E-01  1.50000000E+00  8.00000000E-01
  8.00000000E-01  1.50000000E+00  8.00000000E-01  8.00000000E-01  1.50000000E+00
  8.00000000E-01  8.00000000E-01  1.50000000E+00  8.00000000E-01  8.00000000E-01
  1.50000000E+00  8.00000000E-01  8.00000000E-01  1.50000000E+00  8.00000000E-01
  8.00000000E-01  1.50000000E+00  8.00000000E-01  8.00000000E-01  1.50000000E+00
  8.00000000E-01  8.00000000E-01  1.50000000E+00  8.00000000E-01  8.00000000E-01
  1.50000000E+00  8.00000000E-01  8.00000000E-01  1.50000000E+00  8.00000000E-01
  8.00000000E-01  1.50000000E+00  8.00000000E-01  8.00000000E-01  1.50000000E+00
  8.00000000E-01  8.00000000E-01  1.50000000E+00  8.00000000E-01  8.00000000E-01
  1.50000000E+00  8.00000000E-01  8.00000000E-01  1.50000000E+00  8.00000000E-01
  8.00000000E-01  1.50000000E+00  8.00000000E-01  8.00000000E-01  1.50000000E+00
  8.00000000E-01  8.00000000E-01  1.50000000E+00  8.00000000E-01  8.00000000E-01
  1.50000000E+00  8.00000000E-01  8.00000000E-01  1.50000000E+00  8.00000000E-01
  8.00000000E-01  1.50000000E+00  8.00000000E-01  8.00000000E-01  1.50000000E+00
  8.00000000E-01  8.00000000E-01  1.50000000E+00  8.00000000E-01  8.00000000E-01
  1.50000000E+00  8.00000000E-01  8.00000000E-01  1.50000000E+00  8.00000000E-01
  8.00000000E-01  1.50000000E+00  8.00000000E-01  8.00000000E-01  1.50000000E+00
  8.00000000E-01  8.00000000E-01  1.50000000E+00  8.00000000E-01  8.00000000E-01
  1.50000000E+00  8.00000000E-01  8.00000000E-01  1.50000000E+00  8.00000000E-01
  8.00000000E-01  1.50000000E+00  8.00000000E-01  8.00000000E-01  1.50000000E+00
  8.00000000E-01  8.00000000E-01  1.50000000E+00  8.00000000E-01  8.00000000E-01
  1.50000000E+00  8.00000000E-01  8.00000000E-01  1.50000000E+00  8.00000000E-01
  8.00000000E-01  1.50000000E+00  8.00000000E-01  8.00000000E-01  1.50000000E+00
  8.00000000E-01  8.00000000E-01  1.50000000E+00  8.00000000E-01  8.00000000E-01
  1.50000000E+00  8.00000000E-01  8.00000000E-01  1.50000000E+00  8.00000000E-01
  8.00000000E-01  1.50000000E+00  8.00000000E-01  8.00000000E-01  1.50000000E+00
  8.00000000E-01  8.00000000E-01  1.50000000E+00  8.00000000E-01  8.00000000E-01
  1.50000000E+00  8.00000000E-01  8.00000000E-01  1.50000000E+00  8.00000000E-01
  8.00000000E-01  1.50000000E+00  8.00000000E-01  8.00000000E-01  1.50000000E+00
  8.00000000E-01  8.00000000E-01  1.50000000E+00  8.00000000E-01  8.00000000E-01
  1.50000000E+00  8.00000000E-01  8.00000000E-01  1.50000000E+00  8.00000000E-01
  8.00000000E-01  1.50000000E+00  8.00000000E-01  8.00000000E-01  1.50000000E+00
  8.00000000E-01  8.00000000E-01  1.50000000E+00  8.00000000E-01  8.00000000E-01
  1.50000000E+00  8.00000000E-01  8.00000000E-01  1.50000000E+00  8.00000000E-01
  8.00000000E-01  1.50000000E+00  8.00000000E-01  8.00000000E-01  1.50000000E+00
  8.00000000E-01  8.00000000E-01  1.50000000E+00  8.00000000E-01  8.00000000E-01
  1.50000000E+00  8.00000000E-01  8.00000000E-01  1.50000000E+00  8.00000000E-01
  8.00000000E-01  1.50000000E+00  8.00000000E-01  8.00000000E-01  1.50000000E+00
  8.00000000E-01  8.00000000E-01  1.50000000E+00  8.00000000E-01  8.00000000E-01
  1.50000000E+00  8.00000000E-01  8.00000000E-01  1.50000000E+00  8.00000000E-01
  8.00000000E-01  1.50000000E+00  8.00000000E-01  8.00000000E-01  1.50000000E+00
  8.00000000E-01  8.00000000E-01  1.50000000E+00  8.00000000E-01  8.00000000E-01
  1.50000000E+00  8.00000000E-01  8.00000000E-01  1.50000000E+00  8.00000000E-01
  8.00000000E-01  1.50000000E+00  8.00000000E-01  8.00000000E-01  1.50000000E+00
  8.00000000E-01  8.00000000E-01  1.50000000E+00  8.00000000E-01  8.00000000E-01
  1.50000000E+00  8.00000000E-01  8.00000000E-01  1.50000000E+00  8.00000000E-01
  8.00000000E-01  1.50000000E+00  8.00000000E-01  8.00000000E-01  1.50000000E+00
  8.00000000E-01  8.00000000E-01  1.50000000E+00  8.00000000E-01  8.00000000E-01
  1.50000000E+00  8.00000000E-01  8.00000000E-01  1.50000000E+00  8.00000000E-01
  8.00000000E-01  1.50000000E+00  8.00000000E-01  8.00000000E-01  1.50000000E+00
  8.00000000E-01  8.00000000E-01  1.50000000E+00  8.00000000E-01  8.00000000E-01
  1.50000000E+00  8.00000000E-01  8.00000000E-01  1.50000000E+00  8.00000000E-01
  8.00000000E-01  1.50000000E+00  8.00000000E-01  8.00000000E-01  1.50000000E+00
  8.00000000E-01  8.00000000E-01  1.50000000E+00  8.00000000E-01  8.00000000E-01
  1.50000000E+00  8.00000000E-01  8.00000000E-01  1.50000000E+00  8.00000000E-01
  8.00000000E-01  1.50000000E+00  8.00000000E-01  8.00000000E-01  1.50000000E+00
  8.00000000E-01  8.00000000E-01  1.50000000E+00  8.00000000E-01  8.00000000E-01
  1.50000000E+00  8.00000000E-01  8.00000000E-01  1.50000000E+00  8.00000000E-01
  8.00000000E-01  1.50000000E+00  8.00000000E-01  8.00000000E-01  1.50000000E+00
  8.00000000E-01  8.00000000E-01  1.50000000E+00  8.00000000E-01  8.00000000E-01
  1.50000000E+00  8.00000000E-01  8.00000000E-01  1.50000000E+00  8.00000000E-01
  8.00000000E-01  1.50000000E+00  8.00000000E-01  8.00000000E-01  1.50000000E+00
  8.00000000E-01  8.00000000E-01  1.50000000E+00  8.00000000E-01  8.00000000E-01
  1.50000000E+00  8.00000000E-01  8.00000000E-01  1.50000000E+00  8.00000000E-01
  8.00000000E-01  1.50000000E+00  8.00000000E-01  8.00000000E-01  1.50000000E+00
  8.00000000E-01  8.00000000E-01  1.50000000E+00  8.00000000E-01  8.00000000E-01
  1.50000000E+00  8.00000000E-01  8.00000000E-01  1.50000000E+00  8.00000000E-01
  8.00000000E-01  1.50000000E+00  8.00000000E-01  8.00000000E-01  1.50000000E+00
  8.00000000E-01  8.00000000E-01  1.50000000E+00  8.00000000E-01  8.00000000E-01
  1.50000000E+00  8.00000000E-01  8.00000000E-01  1.50000000E+00  8.00000000E-01
  8.00000000E-01  1.50000000E+00  8.00000000E-01  8.00000000E-01  1.50000000E+00
  8.00000000E-01  8.00000000E-01  1.50000000E+00  8.00000000E-01  8.00000000E-01
  1.50000000E+00  8.00000000E-01  8.00000000E-01  1.50000000E+00  8.00000000E-01
  8.00000000E-01  1.50000000E+00  8.00000000E-01  8.00000000E-01  1.50000000E+00
  8.00000000E-01  8.00000000E-01  1.50000000E+00  8.00000000E-01  8.00000000E-01
  1.50000000E+00  8.00000000E-01  8.00000000E-01  1.50000000E+00  8.00000000E-01
  8.00000000E-01  1.50000000E+00  8.00000000E-01  8.00000000E-01  1.50000000E+00
  8.00000000E-01  8.00000000E-01  1.50000000E+00  8.00000000E-01  8.00000000E-01
  1.50000000E+00  8.00000000E-01  8.00000000E-01  1.50000000E+00  8.00000000E-01
  8.00000000E-01  1.50000000E+00  8.00000000E-01  8.00000000E-01  1.50000000E+00
  8.00000000E-01  8.00000000E-01  1.50000000E+00  8.00000000E-01  8.00000000E-01
  1.50000000E+00  8.00000000E-01  8.00000000E-01  1.50000000E+00  8.00000000E-01
  8.00000000E-01  1.50000000E+00  8.00000000E-01  8.00000000E-01  1.50000000E+00
  8.00000000E-01  8.00000000E-01  1.50000000E+00  8.00000000E-01  8.00000000E-01
  1.50000000E+00  8.00000000E-01  8.00000000E-01  1.50000000E+00  8.00000000E-01
  8.00000000E-01  1.50000000E+00  8.00000000E-01  8.00000000E-01  1.50000000E+00
  8.00000000E-01  8.00000000E-01  1.50000000E+00  8.00000000E-01  8.00000000E-01
  1.50000000E+00  8.00000000E-01  8.00000000E-01  1.50000000E+00  8.00000000E-01
  8.00000000E-01  1.50000000E+00  8.00000000E-01  8.00000000E-01  1.50000000E+00
  8.00000000E-01  8.00000000E-01  1.50000000E+00  8.00000000E-01  8.00000000E-01
  1.50000000E+00  8.00000000E-01  8.00000000E-01  1.50000000E+00  8.00000000E-01
  8.00000000E-01  1.50000000E+00  8.00000000E-01  8.00000000E-01  1.50000000E+00
  8.00000000E-01  8.00000000E-01  1.50000000E+00  8.00000000E-01  8.00000000E-01
  1.50000000E+00  8.00000000E-01  8.00000000E-01  1.50000000E+00  8.00000000E-01
  8.00000000E-01  1.50000000E+00  8.00000000E-01  8.00000000E-01  1.50000000E+00
  8.00000000E-01  8.00000000E-01  1.50000000E+00  8.00000000E-01  8.00000000E-01
  1.50000000E+00  8.00000000E-01  8.00000000E-01  1.50000000E+00  8.00000000E-01
  8.00000000E-01  1.50000000E+00  8.00000000E-01  8.00000000E-01  1.50000000E+00
  8.00000000E-01  8.00000000E-01  1.50000000E+00  8.00000000E-01  8.00000000E-01
  1.50000000E+00  8.00000000E-01  8.00000000E-01  1.50000000E+00  8.00000000E-01
  8.00000000E-01  1.50000000E+00  8.00000000E-01  8.00000000E-01  1.50000000E+00
  8.00000000E-01  8.00000000E-01  1.50000000E+00  8.00000000E-01  8.00000000E-01
  1.50000000E+00  8.00000000E-01  8.00000000E-01  1.50000000E+00  8.00000000E-01
  8.00000000E-01  1.50000000E+00  8.00000000E-01  8.00000000E-01  1.50000000E+00
  8.00000000E-01  8.00000000E-01  1.50000000E+00  8.00000000E-01  8.00000000E-01
  1.50000000E+00  8.00000000E-01  8.00000000E-01  1.50000000E+00  8.00000000E-01
  8.00000000E-01  1.50000000E+00  8.00000000E-01  8.00000000E-01  1.50000000E+00
  8.00000000E-01  8.00000000E-01  1.50000000E+00  8.00000000E-01  8.00000000E-01
  1.50000000E+00  8.00000000E-01  8.00000000E-01  1.50000000E+00  8.00000000E-01
  8.00000000E-01  1.50000000E+00  8.00000000E-01  8.00000000E-01  1.50000000E+00
  8.00000000E-01  8.00000000E-01  1.50000000E+00  8.00000000E-01  8.00000000E-01
  1.50000000E+00  8.00000000E-01  8.00000000E-01  1.50000000E+00  8.00000000E-01
  8.00000000E-01  1.50000000E+00  8.00000000E-01  8.00000000E-01  1.50000000E+00
  8.00000000E-01  8.00000000E-01  1.50000000E+00  8.00000000E-01  8.00000000E-01
  1.50000000E+00  8.00000000E-01  8.00000000E-01  1.50000000E+00  8.00000000E-01
  8.00000000E-01  1.50000000E+00  8.00000000E-01  8.00000000E-01  1.50000000E+00
  8.00000000E-01  8.00000000E-01  1.50000000E+00  8.00000000E-01  8.00000000E-01
  1.50000000E+00  8.00000000E-01  8.00000000E-01  1.50000000E+00  8.00000000E-01
  8.00000000E-01  1.50000000E+00  8.00000000E-01  8.00000000E-01  1.50000000E+00
  8.00000000E-01  8.00000000E-01  1.50000000E+00  8.00000000E-01  8.00000000E-01
  1.50000000E+00  8.00000000E-01  8.00000000E-01  1.50000000E+00  8.00000000E-01
  8.00000000E-01  1.50000000E+00  8.00000000E-01  8.00000000E-01  1.50000000E+00
  8.00000000E-01  8.00000000E-01  1.50000000E+00  8.00000000E-01  8.00000000E-01
  1.50000000E+00  8.00000000E-01  8.00000000E-01  1.50000000E+00  8.00000000E-01
  8.00000000E-01  1.50000000E+00  8.00000000E-01  8.00000000E-01  1.50000000E+00
  8.00000000E-01  8.00000000E-01  1.50000000E+00  8.00000000E-01  8.00000000E-01
  1.50000000E+00  8.00000000E-01  8.00000000E-01  1.50000000E+00  8.00000000E-01
  8.00000000E-01  1.50000000E+00  8.00000000E-01  8.00000000E-01  1.50000000E+00
  8.00000000E-01  8.00000000E-01  1.50000000E+00  8.00000000E-01  8.00000000E-01
  1.50000000E+00  8.00000000E-01  8.00000000E-01  1.50000000E+00  8.00000000E-01
  8.00000000E-01  1.50000000E+00  8.00000000E-01  8.00000000E-01  1.50000000E+00
  8.00000000E-01  8.00000000E-01  1.50000000E+00  8.00000000E-01  8.00000000E-01
  1.50000000E+00  8.00000000E-01  8.00000000E-01  1.50000000E+00  8.00000000E-01
  8.00000000E-01  1.50000000E+00  8.00000000E-01  8.00000000E-01  1.50000000E+00
  8.00000000E-01  8.00000000E-01  1.50000000E+00  8.00000000E-01  8.00000000E-01
  1.50000000E+00  8.00000000E-01  8.00000000E-01  1.50000000E+00  8.00000000E-01
  8.00000000E-01  1.50000000E+00  8.00000000E-01  8.00000000E-01  1.50000000E+00
  8.00000000E-01  8.00000000E-01  1.50000000E+00  8.00000000E-01  8.00000000E-01
  1.50000000E+00  8.00000000E-01  8.00000000E-01  1.50000000E+00  8.00000000E-01
  8.00000000E-01  1.50000000E+00  8.00000000E-01  8.00000000E-01  1.50000000E+00
  8.00000000E-01  8.00000000E-01  1.50000000E+00  8.00000000E-01  8.00000000E-01
  1.50000000E+00  8.00000000E-01  8.00000000E-01  1.50000000E+00  8.00000000E-01
  8.00000000E-01  1.50000000E+00  8.00000000E-01  8.00000000E-01  1.50000000E+00
  8.00000000E-01  8.00000000E-01  1.50000000E+00  8.00000000E-01  8.00000000E-01
  1.50000000E+00  8.00000000E-01  8.00000000E-01  1.50000000E+00  8.00000000E-01
  8.00000000E-01  1.50000000E+00  8.00000000E-01  8.00000000E-01  1.50000000E+00
  8.00000000E-01  8.00000000E-01  1.50000000E+00  8.00000000E-01  8.00000000E-01
  1.50000000E+00  8.00000000E-01  8.00000000E-01  1.50000000E+00  8.00000000E-01
  8.00000000E-01  1.50000000E+00  8.00000000E-01  8.00000000E-01  1.50000000E+00
  8.00000000E-01  8.00000000E-01  1.50000000E+00  8.00000000E-01  8.00000000E-01
  1.50000000E+00  8.00000000E-01  8.00000000E-01  1.50000000E+00  8.00000000E-01
  8.00000000E-01  1.50000000E+00  8.00000000E-01  8.00000000E-01  1.50000000E+00
  8.00000000E-01  8.00000000E-01  1.50000000E+00  8.00000000E-01  8.00000000E-01
  1.50000000E+00  8.00000000E-01  8.00000000E-01  1.50000000E+00  8.00000000E-01
  8.00000000E-01  1.50000000E+00  8.00000000E-01  8.00000000E-01  1.50000000E+00
  8.00000000E-01  8.00000000E-01  1.50000000E+00  8.00000000E-01  8.00000000E-01
  1.50000000E+00  8.00000000E-01  8.00000000E-01  1.50000000E+00  8.00000000E-01
  8.00000000E-01  1.50000000E+00  8.00000000E-01  8.00000000E-01  1.50000000E+00
  8.00000000E-01  8.00000000E-01  1.50000000E+00  8.00000000E-01  8.00000000E-01
  1.50000000E+00  8.00000000E-01  8.00000000E-01  1.50000000E+00  8.00000000E-01
  8.00000000E-01  1.50000000E+00  8.00000000E-01  8.00000000E-01  1.50000000E+00
  8.00000000E-01  8.00000000E-01  1.50000000E+00  8.00000000E-01  8.00000000E-01
  1.50000000E+00  8.00000000E-01  8.00000000E-01  1.50000000E+00  8.00000000E-01
  8.00000000E-01  1.50000000E+00  8.00000000E-01  8.00000000E-01  1.50000000E+00
  8.00000000E-01  8.00000000E-01  1.50000000E+00  8.00000000E-01  8.00000000E-01
  1.50000000E+00  8.00000000E-01  8.00000000E-01  1.50000000E+00  8.00000000E-01
  8.00000000E-01  1.50000000E+00  8.00000000E-01  8.00000000E-01  1.50000000E+00
  8.00000000E-01  8.00000000E-01  1.50000000E+00  8.00000000E-01  8.00000000E-01
  1.50000000E+00  8.00000000E-01  8.00000000E-01  1.50000000E+00  8.00000000E-01
  8.00000000E-01  1.50000000E+00  8.00000000E-01  8.00000000E-01  1.50000000E+00
  8.00000000E-01  8.00000000E-01  1.50000000E+00  8.00000000E-01  8.00000000E-01
  1.50000000E+00  8.00000000E-01  8.00000000E-01  1.50000000E+00  8.00000000E-01
  8.00000000E-01  1.50000000E+00  8.00000000E-01  8.00000000E-01  1.50000000E+00
  8.00000000E-01  8.00000000E-01  1.50000000E+00  8.00000000E-01  8.00000000E-01
  1.50000000E+00  8.00000000E-01  8.00000000E-01  1.50000000E+00  8.00000000E-01
  8.00000000E-01  1.50000000E+00  8.00000000E-01  8.00000000E-01  1.50000000E+00
  8.00000000E-01  8.00000000E-01  1.50000000E+00  8.00000000E-01  8.00000000E-01
  1.50000000E+00  8.00000000E-01  8.00000000E-01  1.50000000E+00  8.00000000E-01
  8.00000000E-01  1.50000000E+00  8.00000000E-01  8.00000000E-01  1.50000000E+00
  8.00000000E-01  8.00000000E-01  1.50000000E+00  8.00000000E-01  8.00000000E-01
  1.50000000E+00  8.00000000E-01  8.00000000E-01  1.50000000E+00  8.00000000E-01
  8.00000000E-01  1.50000000E+00  8.00000000E-01  8.00000000E-01  1.50000000E+00
  8.00000000E-01  8.00000000E-01  1.50000000E+00  8.00000000E-01  8.00000000E-01
  1.50000000E+00  8.00000000E-01  8.00000000E-01  1.50000000E+00  8.00000000E-01
  8.00000000E-01  1.50000000E+00  8.00000000E-01  8.00000000E-01  1.50000000E+00
  8.00000000E-01  8.00000000E-01  1.50000000E+00  8.00000000E-01  8.00000000E-01
  1.50000000E+00  8.00000000E-01  8.00000000E-01  1.50000000E+00  8.00000000E-01
  8.00000000E-01  1.50000000E+00  8.00000000E-01  8.00000000E-01  1.50000000E+00
  8.00000000E-01  8.00000000E-01  1.50000000E+00  8.00000000E-01  8.00000000E-01
  1.50000000E+00  8.00000000E-01  8.00000000E-01  1.50000000E+00  8.00000000E-01
  8.00000000E-01  1.50000000E+00  8.00000000E-01  8.00000000E-01  1.50000000E+00
  8.00000000E-01  8.00000000E-01  1.50000000E+00  8.00000000E-01  8.00000000E-01
  1.50000000E+00  8.00000000E-01  8.00000000E-01  1.50000000E+00  8.00000000E-01
  8.00000000E-01  1.50000000E+00  8.00000000E-01  8.00000000E-01  1.50000000E+00
  8.00000000E-01  8.00000000E-01  1.50000000E+00  8.00000000E-01  8.00000000E-01
  1.50000000E+00  8.00000000E-01  8.00000000E-01  1.50000000E+00  8.00000000E-01
  8.00000000E-01  1.50000000E+00  8.00000000E-01  8.00000000E-01  1.50000000E+00
  8.00000000E-01  8.00000000E-01  1.50000000E+00  8.00000000E-01  8.00000000E-01
  1.50000000E+00  8.00000000E-01  8.00000000E-01  1.50000000E+00  8.00000000E-01
  8.00000000E-01  1.50000000E+00  8.00000000E-01  8.00000000E-01  1.50000000E+00
  8.00000000E-01  8.00000000E-01  1.50000000E+00  8.00000000E-01  8.00000000E-01
  1.50000000E+00  8.00000000E-01  8.00000000E-01  1.50000000E+00  8.00000000E-01
  8.00000000E-01  1.50000000E+00  8.00000000E-01  8.00000000E-01  1.50000000E+00
  8.00000000E-01  8.00000000E-01  1.50000000E+00  8.00000000E-01  8.00000000E-01
  1.50000000E+00  8.00000000E-01  8.00000000E-01  1.50000000E+00  8.00000000E-01
  8.00000000E-01  1.50000000E+00  8.00000000E-01  8.00000000E-01  1.50000000E+00
  8.00000000E-01  8.00000000E-01  1.50000000E+00  8.00000000E-01  8.00000000E-01
  1.50000000E+00  8.00000000E-01  8.00000000E-01  1.50000000E+00  8.00000000E-01
  8.00000000E-01  1.50000000E+00  8.00000000E-01  8.00000000E-01  1.50000000E+00
  8.00000000E-01  8.00000000E-01  1.50000000E+00  8.00000000E-01  8.00000000E-01
  1.50000000E+00  8.00000000E-01  8.00000000E-01  1.50000000E+00  8.00000000E-01
  8.00000000E-01  1.50000000E+00  8.00000000E-01  8.00000000E-01  1.50000000E+00
  8.00000000E-01  8.00000000E-01  1.50000000E+00  8.00000000E-01  8.00000000E-01
  1.50000000E+00  8.00000000E-01  8.00000000E-01  1.50000000E+00  8.00000000E-01
  8.00000000E-01  1.50000000E+00  8.00000000E-01  8.00000000E-01  1.50000000E+00
  8.00000000E-01  8.00000000E-01  1.50000000E+00  8.00000000E-01  8.00000000E-01
  1.50000000E+00  8.00000000E-01  8.00000000E-01  1.50000000E+00  8.00000000E-01
  8.00000000E-01  1.50000000E+00  8.00000000E-01  8.00000000E-01  1.50000000E+00
  8.00000000E-01  8.00000000E-01  1.50000000E+00  8.00000000E-01  8.00000000E-01
  1.50000000E+00  8.00000000E-01  8.00000000E-01  1.50000000E+00  8.00000000E-01
  8.00000000E-01  1.50000000E+00  8.00000000E-01  8.00000000E-01  1.50000000E+00
  8.00000000E-01  8.00000000E-01  1.50000000E+00  8.00000000E-01  8.00000000E-01
  1.50000000E+00  8.00000000E-01  8.00000000E-01  1.50000000E+00  8.00000000E-01
  8.00000000E-01  1.50000000E+00  8.00000000E-01  8.00000000E-01  1.50000000E+00
  8.00000000E-01  8.00000000E-01  1.50000000E+00  8.00000000E-01  8.00000000E-01
  1.50000000E+00  8.00000000E-01  8.00000000E-01  1.50000000E+00  8.00000000E-01
  8.00000000E-01  1.50000000E+00  8.00000000E-01  8.00000000E-01  1.50000000E+00
  8.00000000E-01  8.00000000E-01  1.50000000E+00  8.00000000E-01  8.00000000E-01
  1.50000000E+00  8.00000000E-01  8.00000000E-01  1.50000000E+00  8.00000000E-01
  8.00000000E-01  1.50000000E+00  8.00000000E-01  8.00000000E-01  1.50000000E+00
  8.00000000E-01  8.00000000E-01  1.50000000E+00  8.00000000E-01  8.00000000E-01
  1.50000000E+00  8.00000000E-01  8.00000000E-01  1.50000000E+00  8.00000000E-01
  8.00000000E-01  1.50000000E+00  8.00000000E-01  8.00000000E-01  1.50000000E+00
  8.00000000E-01  8.00000000E-01  1.50000000E+00  8.00000000E-01  8.00000000E-01
  1.50000000E+00  8.00000000E-01  8.00000000E-01  1.50000000E+00  8.00000000E-01
  8.00000000E-01  1.50000000E+00  8.00000000E-01  8.00000000E-01  1.50000000E+00
  8.00000000E-01  8.00000000E-01  1.50000000E+00  8.00000000E-01  8.00000000E-01
  1.50000000E+00  8.00000000E-01  8.00000000E-01  1.50000000E+00  8.00000000E-01
  8.00000000E-01  1.50000000E+00  8.00000000E-01  8.00000000E-01  1.50000000E+00
  8.00000000E-01  8.00000000E-01  1.50000000E+00  8.00000000E-01  8.00000000E-01
  1.50000000E+00  8.00000000E-01  8.00000000E-01  1.50000000E+00  8.00000000E-01
  8.00000000E-01  1.50000000E+00  8.00000000E-01  8.00000000E-01  1.50000000E+00
  8.00000000E-01  8.00000000E-01  1.50000000E+00  8.00000000E-01  8.00000000E-01
  1.50000000E+00  8.00000000E-01  8.00000000E-01  1.50000000E+00  8.00000000E-01
  8.00000000E-01  1.50000000E+00  8.00000000E-01  8.00000000E-01  1.50000000E+00
  8.00000000E-01  8.00000000E-01  1.50000000E+00  8.00000000E-01  8.00000000E-01
  1.50000000E+00  8.00000000E-01  8.00000000E-01  1.50000000E+00  8.00000000E-01
  8.00000000E-01  1.50000000E+00  8.00000000E-01  8.00000000E-01  1.50000000E+00
  8.00000000E-01  8.00000000E-01  1.50000000E+00  8.00000000E-01  8.00000000E-01
  1.50000000E+00  8.00000000E-01  8.00000000E-01  1.50000000E+00  8.00000000E-01
  8.00000000E-01  1.50000000E+00  8.00000000E-01  8.00000000E-01  1.50000000E+00
  8.00000000E-01  8.00000000E-01  1.50000000E+00  8.00000000E-01  8.00000000E-01
  1.50000000E+00  8.00000000E-01  8.00000000E-01  1.50000000E+00  8.00000000E-01
  8.00000000E-01  1.50000000E+00  8.00000000E-01  8.00000000E-01  1.50000000E+00
  8.00000000E-01  8.00000000E-01  1.50000000E+00  8.00000000E-01  8.00000000E-01
  1.50000000E+00  8.00000000E-01  8.00000000E-01  1.50000000E+00  8.00000000E-01
  8.00000000E-01  1.50000000E+00  8.00000000E-01  8.00000000E-01  1.50000000E+00
  8.00000000E-01  8.00000000E-01  1.50000000E+00  8.00000000E-01  8.00000000E-01
  1.50000000E+00  8.00000000E-01  8.00000000E-01  1.50000000E+00  8.00000000E-01
  8.00000000E-01  1.50000000E+00  8.00000000E-01  8.00000000E-01  1.50000000E+00
  8.00000000E-01  8.00000000E-01  1.50000000E+00  8.00000000E-01  8.00000000E-01
  1.50000000E+00  8.00000000E-01  8.00000000E-01  1.50000000E+00  8.00000000E-01
  8.00000000E-01  1.50000000E+00  8.00000000E-01  8.00000000E-01  1.50000000E+00
  8.00000000E-01  8.00000000E-01  1.50000000E+00  8.00000000E-01  8.00000000E-01
  1.50000000E+00  8.00000000E-01  8.00000000E-01  1.50000000E+00  8.00000000E-01
  8.00000000E-01  1.50000000E+00  8.00000000E-01  8.00000000E-01  1.50000000E+00
  8.00000000E-01  8.00000000E-01  1.50000000E+00  8.00000000E-01  8.00000000E-01
  1.50000000E+00  8.00000000E-01  8.00000000E-01  1.50000000E+00  8.00000000E-01
  8.00000000E-01  1.50000000E+00  8.00000000E-01  8.00000000E-01  1.50000000E+00
  8.00000000E-01  8.00000000E-01  1.50000000E+00  8.00000000E-01  8.00000000E-01
  1.50000000E+00  8.00000000E-01  8.00000000E-01  1.50000000E+00  8.00000000E-01
  8.00000000E-01  1.50000000E+00  8.00000000E-01  8.00000000E-01  1.50000000E+00
  8.00000000E-01  8.00000000E-01  1.50000000E+00  8.00000000E-01  8.00000000E-01
  1.50000000E+00  8.00000000E-01  8.00000000E-01  1.50000000E+00  8.00000000E-01
  8.00000000E-01  1.50000000E+00  8.00000000E-01  8.00000000E-01  1.50000000E+00
  8.00000000E-01  8.00000000E-01  1.50000000E+00  8.00000000E-01  8.00000000E-01
  1.50000000E+00  8.00000000E-01  8.00000000E-01  1.50000000E+00  8.00000000E-01
  8.00000000E-01  1.50000000E+00  8.00000000E-01  8.00000000E-01  1.50000000E+00
  8.00000000E-01  8.00000000E-01  1.50000000E+00  8.00000000E-01  8.00000000E-01
  1.50000000E+00  8.00000000E-01  8.00000000E-01  1.50000000E+00  8.00000000E-01
  8.00000000E-01  1.50000000E+00  8.00000000E-01  8.00000000E-01  1.50000000E+00
  8.00000000E-01  8.00000000E-01  1.50000000E+00  8.00000000E-01  8.00000000E-01
  1.50000000E+00  8.00000000E-01  8.00000000E-01  1.50000000E+00  8.00000000E-01
  8.00000000E-01  1.50000000E+00  8.00000000E-01  8.00000000E-01  1.50000000E+00
  8.00000000E-01  8.00000000E-01  1.50000000E+00  8.00000000E-01  8.00000000E-01
  1.50000000E+00  8.00000000E-01  8.00000000E-01  1.50000000E+00  8.00000000E-01
  8.00000000E-01  1.50000000E+00  8.00000000E-01  8.00000000E-01  1.50000000E+00
  8.00000000E-01  8.00000000E-01  1.50000000E+00  8.00000000E-01  8.00000000E-01
  1.50000000E+00  8.00000000E-01  8.00000000E-01  1.50000000E+00  8.00000000E-01
  8.00000000E-01  1.50000000E+00  8.00000000E-01  8.00000000E-01  1.50000000E+00
  8.00000000E-01  8.00000000E-01  1.50000000E+00  8.00000000E-01  8.00000000E-01
  1.50000000E+00  8.00000000E-01  8.00000000E-01  1.50000000E+00  8.00000000E-01
  8.00000000E-01  1.50000000E+00  8.00000000E-01  8.00000000E-01  1.50000000E+00
  8.00000000E-01  8.00000000E-01  1.50000000E+00  8.00000000E-01  8.00000000E-01
  1.50000000E+00  8.00000000E-01  8.00000000E-01  1.50000000E+00  8.00000000E-01
  8.00000000E-01  1.50000000E+00  8.00000000E-01  8.00000000E-01  1.50000000E+00
  8.00000000E-01  8.00000000E-01  1.50000000E+00  8.00000000E-01  8.00000000E-01
  1.50000000E+00  8.00000000E-01  8.00000000E-01  1.50000000E+00  8.00000000E-01
  8.00000000E-01  1.50000000E+00  8.00000000E-01  8.00000000E-01  1.50000000E+00
  8.00000000E-01  8.00000000E-01  1.50000000E+00  8.00000000E-01  8.00000000E-01
  1.50000000E+00  8.00000000E-01  8.00000000E-01  1.50000000E+00  8.00000000E-01
  8.00000000E-01  1.50000000E+00  8.00000000E-01  8.00000000E-01  1.50000000E+00
  8.00000000E-01  8.00000000E-01  1.50000000E+00  8.00000000E-01  8.00000000E-01
  1.50000000E+00  8.00000000E-01  8.00000000E-01  1.50000000E+00  8.00000000E-01
  8.00000000E-01  1.50000000E+00  8.00000000E-01  8.00000000E-01  1.50000000E+00
  8.00000000E-01  8.00000000E-01  1.50000000E+00  8.00000000E-01  8.00000000E-01
  1.50000000E+00  8.00000000E-01  8.00000000E-01  1.50000000E+00  8.00000000E-01
  8.00000000E-01  1.50000000E+00  8.00000000E-01  8.00000000E-01  1.50000000E+00
  8.00000000E-01  8.00000000E-01  1.50000000E+00  8.00000000E-01  8.00000000E-01
  1.50000000E+00  8.00000000E-01  8.00000000E-01  1.50000000E+00  8.00000000E-01
  8.00000000E-01  1.50000000E+00  8.00000000E-01  8.00000000E-01  1.50000000E+00
  8.00000000E-01  8.00000000E-01  1.50000000E+00  8.00000000E-01  8.00000000E-01
  1.50000000E+00  8.00000000E-01  8.00000000E-01  1.50000000E+00  8.00000000E-01
  8.00000000E-01  1.50000000E+00  8.00000000E-01  8.00000000E-01  1.50000000E+00
  8.00000000E-01  8.00000000E-01  1.50000000E+00  8.00000000E-01  8.00000000E-01
  1.50000000E+00  8.00000000E-01  8.00000000E-01  1.50000000E+00  8.00000000E-01
  8.00000000E-01  1.50000000E+00  8.00000000E-01  8.00000000E-01  1.50000000E+00
  8.00000000E-01  8.00000000E-01  1.50000000E+00  8.00000000E-01  8.00000000E-01
  1.50000000E+00  8.00000000E-01  8.00000000E-01  1.50000000E+00  8.00000000E-01
  8.00000000E-01  1.50000000E+00  8.00000000E-01  8.00000000E-01  1.50000000E+00
  8.00000000E-01  8.00000000E-01  1.50000000E+00  8.00000000E-01  8.00000000E-01
  1.50000000E+00  8.00000000E-01  8.00000000E-01  1.50000000E+00  8.00000000E-01
  8.00000000E-01  1.50000000E+00  8.00000000E-01  8.00000000E-01  1.50000000E+00
  8.00000000E-01  8.00000000E-01  1.50000000E+00  8.00000000E-01  8.00000000E-01
  1.50000000E+00  8.00000000E-01  8.00000000E-01  1.50000000E+00  8.00000000E-01
  8.00000000E-01  1.50000000E+00  8.00000000E-01  8.00000000E-01  1.50000000E+00
  8.00000000E-01  8.00000000E-01  1.50000000E+00  8.00000000E-01  8.00000000E-01
  1.50000000E+00  8.00000000E-01  8.00000000E-01  1.50000000E+00  8.00000000E-01
  8.00000000E-01  1.50000000E+00  8.00000000E-01  8.00000000E-01  1.50000000E+00
  8.00000000E-01  8.00000000E-01  1.50000000E+00  8.00000000E-01  8.00000000E-01
  1.50000000E+00  8.00000000E-01  8.00000000E-01  1.50000000E+00  8.00000000E-01
  8.00000000E-01  1.50000000E+00  8.00000000E-01  8.00000000E-01  1.50000000E+00
  8.00000000E-01  8.00000000E-01  1.50000000E+00  8.00000000E-01  8.00000000E-01
  1.50000000E+00  8.00000000E-01  8.00000000E-01  1.50000000E+00  8.00000000E-01
  8.00000000E-01  1.50000000E+00  8.00000000E-01  8.00000000E-01  1.50000000E+00
  8.00000000E-01  8.00000000E-01  1.50000000E+00  8.00000000E-01  8.00000000E-01
  1.50000000E+00  8.00000000E-01  8.00000000E-01  1.50000000E+00  8.00000000E-01
  8.00000000E-01  1.50000000E+00  8.00000000E-01  8.00000000E-01  1.50000000E+00
  8.00000000E-01  8.00000000E-01  1.50000000E+00  8.00000000E-01  8.00000000E-01
  1.50000000E+00  8.00000000E-01  8.00000000E-01  1.50000000E+00  8.00000000E-01
  8.00000000E-01  1.50000000E+00  8.00000000E-01  8.00000000E-01  1.50000000E+00
  8.00000000E-01  8.00000000E-01  1.50000000E+00  8.00000000E-01  8.00000000E-01
  1.50000000E+00  8.00000000E-01  8.00000000E-01  1.50000000E+00  8.00000000E-01
  8.00000000E-01  1.50000000E+00  8.00000000E-01  8.00000000E-01  1.50000000E+00
  8.00000000E-01  8.00000000E-01  1.50000000E+00  8.00000000E-01  8.00000000E-01
  1.50000000E+00  8.00000000E-01  8.00000000E-01  1.50000000E+00  8.00000000E-01
  8.00000000E-01  1.50000000E+00  8.00000000E-01  8.00000000E-01  1.50000000E+00
  8.00000000E-01  8.00000000E-01  1.50000000E+00  8.00000000E-01  8.00000000E-01
  1.50000000E+00  8.00000000E-01  8.00000000E-01  1.50000000E+00  8.00000000E-01
  8.00000000E-01  1.50000000E+00  8.00000000E-01  8.00000000E-01  1.50000000E+00
  8.00000000E-01  8.00000000E-01  1.50000000E+00  8.00000000E-01  8.00000000E-01
  1.50000000E+00  8.00000000E-01  8.00000000E-01  1.50000000E+00  8.00000000E-01
  8.00000000E-01  1.50000000E+00  8.00000000E-01  8.00000000E-01  1.50000000E+00
  8.00000000E-01  8.00000000E-01  1.50000000E+00  8.00000000E-01  8.00000000E-01
  1.50000000E+00  8.00000000E-01  8.00000000E-01  1.50000000E+00  8.00000000E-01
  8.00000000E-01  1.50000000E+00  8.00000000E-01  8.00000000E-01  1.50000000E+00
  8.00000000E-01  8.00000000E-01  1.50000000E+00  8.00000000E-01  8.00000000E-01
  1.50000000E+00  8.00000000E-01  8.00000000E-01  1.50000000E+00  8.00000000E-01
  8.00000000E-01  1.50000000E+00  8.00000000E-01  8.00000000E-01  1.50000000E+00
  8.00000000E-01  8.00000000E-01  1.50000000E+00  8.00000000E-01  8.00000000E-01
  1.50000000E+00  8.00000000E-01  8.00000000E-01  1.50000000E+00  8.00000000E-01
  8.00000000E-01  1.50000000E+00  8.00000000E-01  8.00000000E-01  1.50000000E+00
  8.00000000E-01  8.00000000E-01  1.50000000E+00  8.00000000E-01  8.00000000E-01
  1.50000000E+00  8.00000000E-01  8.00000000E-01  1.50000000E+00  8.00000000E-01
  8.00000000E-01  1.50000000E+00  8.00000000E-01  8.00000000E-01  1.50000000E+00
  8.00000000E-01  8.00000000E-01  1.50000000E+00  8.00000000E-01  8.00000000E-01
  1.50000000E+00  8.00000000E-01  8.00000000E-01  1.50000000E+00  8.00000000E-01
  8.00000000E-01  1.50000000E+00  8.00000000E-01  8.00000000E-01  1.50000000E+00
  8.00000000E-01  8.00000000E-01  1.50000000E+00  8.00000000E-01  8.00000000E-01
  1.50000000E+00  8.00000000E-01  8.00000000E-01  1.50000000E+00  8.00000000E-01
  8.00000000E-01  1.50000000E+00  8.00000000E-01  8.00000000E-01  1.50000000E+00
  8.00000000E-01  8.00000000E-01  1.50000000E+00  8.00000000E-01  8.00000000E-01
  1.50000000E+00  8.00000000E-01  8.00000000E-01  1.50000000E+00  8.00000000E-01
  8.00000000E-01  1.50000000E+00  8.00000000E-01  8.00000000E-01  1.50000000E+00
  8.00000000E-01  8.00000000E-01  1.50000000E+00  8.00000000E-01  8.00000000E-01
  1.50000000E+00  8.00000000E-01  8.00000000E-01  1.50000000E+00  8.00000000E-01
  8.00000000E-01  1.50000000E+00  8.00000000E-01  8.00000000E-01  1.50000000E+00
  8.00000000E-01  8.00000000E-01  1.50000000E+00  8.00000000E-01  8.00000000E-01
  1.50000000E+00  8.00000000E-01  8.00000000E-01  1.50000000E+00  8.00000000E-01
  8.00000000E-01  1.50000000E+00  8.00000000E-01  8.00000000E-01  1.50000000E+00
  8.00000000E-01  8.00000000E-01  1.50000000E+00  8.00000000E-01  8.00000000E-01
  1.50000000E+00  8.00000000E-01  8.00000000E-01  1.50000000E+00  8.00000000E-01
  8.00000000E-01  1.50000000E+00  8.00000000E-01  8.00000000E-01  1.50000000E+00
  8.00000000E-01  8.00000000E-01  1.50000000E+00  8.00000000E-01  8.00000000E-01
  1.50000000E+00  8.00000000E-01  8.00000000E-01  1.50000000E+00  8.00000000E-01
  8.00000000E-01  1.50000000E+00  8.00000000E-01  8.00000000E-01  1.50000000E+00
  8.00000000E-01  8.00000000E-01  1.50000000E+00  8.00000000E-01  8.00000000E-01
  1.50000000E+00  8.00000000E-01  8.00000000E-01  1.50000000E+00  8.00000000E-01
  8.00000000E-01  1.50000000E+00  8.00000000E-01  8.00000000E-01  1.50000000E+00
  8.00000000E-01  8.00000000E-01  1.50000000E+00  8.00000000E-01  8.00000000E-01
  1.50000000E+00  8.00000000E-01  8.00000000E-01  1.50000000E+00  8.00000000E-01
  8.00000000E-01  1.50000000E+00  8.00000000E-01  8.00000000E-01  1.50000000E+00
  8.00000000E-01  8.00000000E-01  1.50000000E+00  8.00000000E-01  8.00000000E-01
  1.50000000E+00  8.00000000E-01  8.00000000E-01  1.50000000E+00  8.00000000E-01
  8.00000000E-01  1.50000000E+00  8.00000000E-01  8.00000000E-01  1.50000000E+00
  8.00000000E-01  8.00000000E-01  1.50000000E+00  8.00000000E-01  8.00000000E-01
  1.50000000E+00  8.00000000E-01  8.00000000E-01  1.50000000E+00  8.00000000E-01
  8.00000000E-01  1.50000000E+00  8.00000000E-01  8.00000000E-01  1.50000000E+00
  8.00000000E-01  8.00000000E-01  1.50000000E+00  8.00000000E-01  8.00000000E-01
  1.50000000E+00  8.00000000E-01  8.00000000E-01  1.50000000E+00  8.00000000E-01
  8.00000000E-01  1.50000000E+00  8.00000000E-01  8.00000000E-01  1.50000000E+00
  8.00000000E-01  8.00000000E-01  1.50000000E+00  8.00000000E-01  8.00000000E-01
  1.50000000E+00  8.00000000E-01  8.00000000E-01  1.50000000E+00  8.00000000E-01
  8.00000000E-01  1.50000000E+00  8.00000000E-01  8.00000000E-01  1.50000000E+00
  8.00000000E-01  8.00000000E-01  1.50000000E+00  8.00000000E-01  8.00000000E-01
  1.50000000E+00  8.00000000E-01  8.00000000E-01  1.50000000E+00  8.00000000E-01
  8.00000000E-01  1.50000000E+00  8.00000000E-01  8.00000000E-01  1.50000000E+00
  8.00000000E-01  8.00000000E-01  1.50000000E+00  8.00000000E-01  8.00000000E-01
  1.50000000E+00  8.00000000E-01  8.00000000E-01  1.50000000E+00  8.00000000E-01
  8.00000000E-01  1.50000000E+00  8.00000000E-01  8.00000000E-01  1.50000000E+00
  8.00000000E-01  8.00000000E-01  1.50000000E+00  8.00000000E-01  8.00000000E-01
  1.50000000E+00  8.00000000E-01  8.00000000E-01  1.50000000E+00  8.00000000E-01
  8.00000000E-01  1.50000000E+00  8.00000000E-01  8.00000000E-01  1.50000000E+00
  8.00000000E-01  8.00000000E-01  1.50000000E+00  8.00000000E-01  8.00000000E-01
  1.50000000E+00  8.00000000E-01  8.00000000E-01  1.50000000E+00  8.00000000E-01
  8.00000000E-01  1.50000000E+00  8.00000000E-01  8.00000000E-01  1.50000000E+00
  8.00000000E-01  8.00000000E-01  1.50000000E+00  8.00000000E-01  8.00000000E-01
  1.50000000E+00  8.00000000E-01  8.00000000E-01  1.50000000E+00  8.00000000E-01
  8.00000000E-01  1.50000000E+00  8.00000000E-01  8.00000000E-01  1.50000000E+00
  8.00000000E-01  8.00000000E-01  1.50000000E+00  8.00000000E-01  8.00000000E-01
  1.50000000E+00  8.00000000E-01  8.00000000E-01  1.50000000E+00  8.00000000E-01
  8.00000000E-01  1.50000000E+00  8.00000000E-01  8.00000000E-01  1.50000000E+00
  8.00000000E-01  8.00000000E-01  1.50000000E+00  8.00000000E-01  8.00000000E-01
  1.50000000E+00  8.00000000E-01  8.00000000E-01  1.50000000E+00  8.00000000E-01
  8.00000000E-01  1.50000000E+00  8.00000000E-01  8.00000000E-01  1.50000000E+00
  8.00000000E-01  8.00000000E-01  1.50000000E+00  8.00000000E-01  8.00000000E-01
  1.50000000E+00  8.00000000E-01  8.00000000E-01  1.50000000E+00  8.00000000E-01
  8.00000000E-01  1.50000000E+00  8.00000000E-01  8.00000000E-01  1.50000000E+00
  8.00000000E-01  8.00000000E-01  1.50000000E+00  8.00000000E-01  8.00000000E-01
  1.50000000E+00  8.00000000E-01  8.00000000E-01  1.50000000E+00  8.00000000E-01
  8.00000000E-01  1.50000000E+00  8.00000000E-01  8.00000000E-01  1.50000000E+00
  8.00000000E-01  8.00000000E-01  1.50000000E+00  8.00000000E-01  8.00000000E-01
  1.50000000E+00  8.00000000E-01  8.00000000E-01  1.50000000E+00  8.00000000E-01
  8.00000000E-01  1.50000000E+00  8.00000000E-01  8.00000000E-01  1.50000000E+00
  8.00000000E-01  8.00000000E-01  1.50000000E+00  8.00000000E-01  8.00000000E-01
  1.50000000E+00  8.00000000E-01  8.00000000E-01  1.50000000E+00  8.00000000E-01
  8.00000000E-01  1.50000000E+00  8.00000000E-01  8.00000000E-01  1.50000000E+00
  8.00000000E-01  8.00000000E-01  1.50000000E+00  8.00000000E-01  8.00000000E-01
  1.50000000E+00  8.00000000E-01  8.00000000E-01  1.50000000E+00  8.00000000E-01
  8.00000000E-01  1.50000000E+00  8.00000000E-01  8.00000000E-01  1.50000000E+00
  8.00000000E-01  8.00000000E-01  1.50000000E+00  8.00000000E-01  8.00000000E-01
  1.50000000E+00  8.00000000E-01  8.00000000E-01  1.50000000E+00  8.00000000E-01
  8.00000000E-01  1.50000000E+00  8.00000000E-01  8.00000000E-01  1.50000000E+00
  8.00000000E-01  8.00000000E-01  1.50000000E+00  8.00000000E-01  8.00000000E-01
  1.50000000E+00  8.00000000E-01  8.00000000E-01  1.50000000E+00  8.00000000E-01
  8.00000000E-01  1.50000000E+00  8.00000000E-01  8.00000000E-01  1.50000000E+00
  8.00000000E-01  8.00000000E-01  1.50000000E+00  8.00000000E-01  8.00000000E-01
  1.50000000E+00  8.00000000E-01  8.00000000E-01  1.50000000E+00  8.00000000E-01
  8.00000000E-01  1.50000000E+00  8.00000000E-01  8.00000000E-01  1.50000000E+00
  8.00000000E-01  8.00000000E-01  1.50000000E+00  8.00000000E-01  8.00000000E-01
  1.50000000E+00  8.00000000E-01  8.00000000E-01  1.50000000E+00  8.00000000E-01
  8.00000000E-01  1.50000000E+00  8.00000000E-01  8.00000000E-01  1.50000000E+00
  8.00000000E-01  8.00000000E-01  1.50000000E+00  8.00000000E-01  8.00000000E-01
  1.50000000E+00  8.00000000E-01  8.00000000E-01  1.50000000E+00  8.00000000E-01
  8.00000000E-01  1.50000000E+00  8.00000000E-01  8.00000000E-01  1.50000000E+00
  8.00000000E-01  8.00000000E-01  1.50000000E+00  8.00000000E-01  8.00000000E-01
  1.50000000E+00  8.00000000E-01  8.00000000E-01  1.50000000E+00  8.00000000E-01
  8.00000000E-01  1.50000000E+00  8.00000000E-01  8.00000000E-01  1.50000000E+00
  8.00000000E-01  8.00000000E-01  1.50000000E+00  8.00000000E-01  8.00000000E-01
  1.50000000E+00  8.00000000E-01  8.00000000E-01  1.50000000E+00  8.00000000E-01
  8.00000000E-01  1.50000000E+00  8.00000000E-01  8.00000000E-01  1.50000000E+00
  8.00000000E-01  8.00000000E-01  1.50000000E+00  8.00000000E-01  8.00000000E-01
  1.50000000E+00  8.00000000E-01  8.00000000E-01  1.50000000E+00  8.00000000E-01
  8.00000000E-01  1.50000000E+00  8.00000000E-01  8.00000000E-01  1.50000000E+00
  8.00000000E-01  8.00000000E-01  1.50000000E+00  8.00000000E-01  8.00000000E-01
  1.50000000E+00  8.00000000E-01  8.00000000E-01  1.50000000E+00  8.00000000E-01
  8.00000000E-01  1.50000000E+00  8.00000000E-01  8.00000000E-01  1.50000000E+00
  8.00000000E-01  8.00000000E-01  1.50000000E+00  8.00000000E-01  8.00000000E-01
  1.50000000E+00  8.00000000E-01  8.00000000E-01  1.50000000E+00  8.00000000E-01
  8.00000000E-01  1.50000000E+00  8.00000000E-01  8.00000000E-01  1.50000000E+00
  8.00000000E-01  8.00000000E-01  1.50000000E+00  8.00000000E-01  8.00000000E-01
  1.50000000E+00  8.00000000E-01  8.00000000E-01  1.50000000E+00  8.00000000E-01
  8.00000000E-01  1.50000000E+00  8.00000000E-01  8.00000000E-01  1.50000000E+00
  8.00000000E-01  8.00000000E-01  1.50000000E+00  8.00000000E-01  8.00000000E-01
  1.50000000E+00  8.00000000E-01  8.00000000E-01  1.50000000E+00  8.00000000E-01
  8.00000000E-01  1.50000000E+00  8.00000000E-01  8.00000000E-01  1.50000000E+00
  8.00000000E-01  8.00000000E-01  1.50000000E+00  8.00000000E-01  8.00000000E-01
  1.50000000E+00  8.00000000E-01  8.00000000E-01  1.50000000E+00  8.00000000E-01
  8.00000000E-01  1.50000000E+00  8.00000000E-01  8.00000000E-01  1.50000000E+00
  8.00000000E-01  8.00000000E-01  1.50000000E+00  8.00000000E-01  8.00000000E-01
  1.50000000E+00  8.00000000E-01  8.00000000E-01  1.50000000E+00  8.00000000E-01
  8.00000000E-01  1.50000000E+00  8.00000000E-01  8.00000000E-01  1.50000000E+00
  8.00000000E-01  8.00000000E-01  1.50000000E+00  8.00000000E-01  8.00000000E-01
  1.50000000E+00  8.00000000E-01  8.00000000E-01  1.50000000E+00  8.00000000E-01
  8.00000000E-01  1.50000000E+00  8.00000000E-01  8.00000000E-01  1.50000000E+00
  8.00000000E-01  8.00000000E-01  1.50000000E+00  8.00000000E-01  8.00000000E-01
  1.50000000E+00  8.00000000E-01  8.00000000E-01  1.50000000E+00  8.00000000E-01
  8.00000000E-01  1.50000000E+00  8.00000000E-01  8.00000000E-01  1.50000000E+00
  8.00000000E-01  8.00000000E-01  1.50000000E+00  8.00000000E-01  8.00000000E-01
  1.50000000E+00  8.00000000E-01  8.00000000E-01  1.50000000E+00  8.00000000E-01
  8.00000000E-01  1.50000000E+00  8.00000000E-01  8.00000000E-01  1.50000000E+00
  8.00000000E-01  8.00000000E-01  1.50000000E+00  8.00000000E-01  8.00000000E-01
  1.50000000E+00  8.00000000E-01  8.00000000E-01  1.50000000E+00  8.00000000E-01
  8.00000000E-01  1.50000000E+00  8.00000000E-01  8.00000000E-01  1.50000000E+00
  8.00000000E-01  8.00000000E-01  1.50000000E+00  8.00000000E-01  8.00000000E-01
  1.50000000E+00  8.00000000E-01  8.00000000E-01  1.50000000E+00  8.00000000E-01
  8.00000000E-01  1.50000000E+00  8.00000000E-01  8.00000000E-01  1.50000000E+00
  8.00000000E-01  8.00000000E-01  1.50000000E+00  8.00000000E-01  8.00000000E-01
  1.50000000E+00  8.00000000E-01  8.00000000E-01  1.50000000E+00  8.00000000E-01
  8.00000000E-01  1.50000000E+00  8.00000000E-01  8.00000000E-01  1.50000000E+00
  8.00000000E-01  8.00000000E-01  1.50000000E+00  8.00000000E-01  8.00000000E-01
  1.50000000E+00  8.00000000E-01  8.00000000E-01  1.50000000E+00  8.00000000E-01
  8.00000000E-01  1.50000000E+00  8.00000000E-01  8.00000000E-01  1.50000000E+00
  8.00000000E-01  8.00000000E-01  1.50000000E+00  8.00000000E-01  8.00000000E-01
  1.50000000E+00  8.00000000E-01  8.00000000E-01  1.50000000E+00  8.00000000E-01
  8.00000000E-01  1.50000000E+00  8.00000000E-01  8.00000000E-01  1.50000000E+00
  8.00000000E-01  8.00000000E-01  1.50000000E+00  8.00000000E-01  8.00000000E-01
  1.50000000E+00  8.00000000E-01  8.00000000E-01  1.50000000E+00  8.00000000E-01
  8.00000000E-01  1.50000000E+00  8.00000000E-01  8.00000000E-01  1.50000000E+00
  8.00000000E-01  8.00000000E-01  1.50000000E+00  8.00000000E-01  8.00000000E-01
  1.50000000E+00  8.00000000E-01  8.00000000E-01  1.50000000E+00  8.00000000E-01
  8.00000000E-01  1.50000000E+00  8.00000000E-01  8.00000000E-01  1.50000000E+00
  8.00000000E-01  8.00000000E-01  1.50000000E+00  8.00000000E-01  8.00000000E-01
  1.50000000E+00  8.00000000E-01  8.00000000E-01  1.50000000E+00  8.00000000E-01
  8.00000000E-01  1.50000000E+00  8.00000000E-01  8.00000000E-01  1.50000000E+00
  8.00000000E-01  8.00000000E-01  1.50000000E+00  8.00000000E-01  8.00000000E-01
  1.50000000E+00  8.00000000E-01  8.00000000E-01  1.50000000E+00  8.00000000E-01
  8.00000000E-01  1.50000000E+00  8.00000000E-01  8.00000000E-01  1.50000000E+00
  8.00000000E-01  8.00000000E-01  1.50000000E+00  8.00000000E-01  8.00000000E-01
  1.50000000E+00  8.00000000E-01  8.00000000E-01  1.50000000E+00  8.00000000E-01
  8.00000000E-01  1.50000000E+00  8.00000000E-01  8.00000000E-01  1.50000000E+00
  8.00000000E-01  8.00000000E-01  1.50000000E+00  8.00000000E-01  8.00000000E-01
  1.50000000E+00  8.00000000E-01  8.00000000E-01  1.50000000E+00  8.00000000E-01
  8.00000000E-01  1.50000000E+00  8.00000000E-01  8.00000000E-01  1.50000000E+00
  8.00000000E-01  8.00000000E-01  1.50000000E+00  8.00000000E-01  8.00000000E-01
  1.50000000E+00  8.00000000E-01  8.00000000E-01  1.50000000E+00  8.00000000E-01
  8.00000000E-01  1.50000000E+00  8.00000000E-01  8.00000000E-01  1.50000000E+00
  8.00000000E-01  8.00000000E-01  1.50000000E+00  8.00000000E-01  8.00000000E-01
  1.50000000E+00  8.00000000E-01  8.00000000E-01  1.50000000E+00  8.00000000E-01
  8.00000000E-01  1.50000000E+00  8.00000000E-01  8.00000000E-01  1.50000000E+00
  8.00000000E-01  8.00000000E-01  1.50000000E+00  8.00000000E-01  8.00000000E-01
  1.50000000E+00  8.00000000E-01  8.00000000E-01  1.50000000E+00  8.00000000E-01
  8.00000000E-01  1.50000000E+00  8.00000000E-01  8.00000000E-01  1.50000000E+00
  8.00000000E-01  8.00000000E-01  1.50000000E+00  8.00000000E-01  8.00000000E-01
  1.50000000E+00  8.00000000E-01  8.00000000E-01  1.50000000E+00  8.00000000E-01
  8.00000000E-01  1.50000000E+00  8.00000000E-01  8.00000000E-01  1.50000000E+00
  8.00000000E-01  8.00000000E-01  1.50000000E+00  8.00000000E-01  8.00000000E-01
  1.50000000E+00  8.00000000E-01  8.00000000E-01  1.50000000E+00  8.00000000E-01
  8.00000000E-01  1.50000000E+00  8.00000000E-01  8.00000000E-01  1.50000000E+00
  8.00000000E-01  8.00000000E-01  1.50000000E+00  8.00000000E-01  8.00000000E-01
  1.50000000E+00  8.00000000E-01  8.00000000E-01  1.50000000E+00  8.00000000E-01
  8.00000000E-01  1.50000000E+00  8.00000000E-01  8.00000000E-01  1.50000000E+00
  8.00000000E-01  8.00000000E-01  1.50000000E+00  8.00000000E-01  8.00000000E-01
  1.50000000E+00  8.00000000E-01  8.00000000E-01  1.50000000E+00  8.00000000E-01
  8.00000000E-01  1.50000000E+00  8.00000000E-01  8.00000000E-01  1.50000000E+00
  8.00000000E-01  8.00000000E-01  1.50000000E+00  8.00000000E-01  8.00000000E-01
  1.50000000E+00  8.00000000E-01  8.00000000E-01  1.50000000E+00  8.00000000E-01
  8.00000000E-01  1.50000000E+00  8.00000000E-01  8.00000000E-01  1.50000000E+00
  8.00000000E-01  8.00000000E-01  1.50000000E+00  8.00000000E-01  8.00000000E-01
  1.50000000E+00  8.00000000E-01  8.00000000E-01  1.50000000E+00  8.00000000E-01
  8.00000000E-01  1.50000000E+00  8.00000000E-01  8.00000000E-01  1.50000000E+00
  8.00000000E-01  8.00000000E-01  1.50000000E+00  8.00000000E-01  8.00000000E-01
  1.50000000E+00  8.00000000E-01  8.00000000E-01  1.50000000E+00  8.00000000E-01
  8.00000000E-01  1.50000000E+00  8.00000000E-01  8.00000000E-01  1.50000000E+00
  8.00000000E-01  8.00000000E-01  1.50000000E+00  8.00000000E-01  8.00000000E-01
  1.50000000E+00  8.00000000E-01  8.00000000E-01  1.50000000E+00  8.00000000E-01
  8.00000000E-01  1.50000000E+00  8.00000000E-01  8.00000000E-01  1.50000000E+00
  8.00000000E-01  8.00000000E-01  1.50000000E+00  8.00000000E-01  8.00000000E-01
  1.50000000E+00  8.00000000E-01  8.00000000E-01  1.50000000E+00  8.00000000E-01
  8.00000000E-01  1.50000000E+00  8.00000000E-01  8.00000000E-01  1.50000000E+00
  8.00000000E-01  8.00000000E-01  1.50000000E+00  8.00000000E-01  8.00000000E-01
  1.50000000E+00  8.00000000E-01  8.00000000E-01  1.50000000E+00  8.00000000E-01
  8.00000000E-01  1.50000000E+00  8.00000000E-01  8.00000000E-01  1.50000000E+00
  8.00000000E-01  8.00000000E-01  1.50000000E+00  8.00000000E-01  8.00000000E-01
  1.50000000E+00  8.00000000E-01  8.00000000E-01  1.50000000E+00  8.00000000E-01
  8.00000000E-01  1.50000000E+00  8.00000000E-01  8.00000000E-01  1.50000000E+00
  8.00000000E-01  8.00000000E-01  1.50000000E+00  8.00000000E-01  8.00000000E-01
  1.50000000E+00  8.00000000E-01  8.00000000E-01  1.50000000E+00  8.00000000E-01
  8.00000000E-01  1.50000000E+00  8.00000000E-01  8.00000000E-01  1.50000000E+00
  8.00000000E-01  8.00000000E-01  1.50000000E+00  8.00000000E-01  8.00000000E-01
  1.50000000E+00  8.00000000E-01  8.00000000E-01  1.50000000E+00  8.00000000E-01
  8.00000000E-01  1.50000000E+00  8.00000000E-01  8.00000000E-01  1.50000000E+00
  8.00000000E-01  8.00000000E-01  1.50000000E+00  8.00000000E-01  8.00000000E-01
  1.50000000E+00  8.00000000E-01  8.00000000E-01  1.50000000E+00  8.00000000E-01
  8.00000000E-01  1.50000000E+00  8.00000000E-01  8.00000000E-01  1.50000000E+00
  8.00000000E-01  8.00000000E-01  1.50000000E+00  8.00000000E-01  8.00000000E-01
  1.50000000E+00  8.00000000E-01  8.00000000E-01  1.50000000E+00  8.00000000E-01
  8.00000000E-01  1.50000000E+00  8.00000000E-01  8.00000000E-01  1.50000000E+00
  8.00000000E-01  8.00000000E-01  1.50000000E+00  8.00000000E-01  8.00000000E-01
  1.50000000E+00  8.00000000E-01  8.00000000E-01  1.50000000E+00  8.00000000E-01
  8.00000000E-01  1.50000000E+00  8.00000000E-01  8.00000000E-01  1.50000000E+00
  8.00000000E-01  8.00000000E-01  1.50000000E+00  8.00000000E-01  8.00000000E-01
  1.50000000E+00  8.00000000E-01  8.00000000E-01  1.50000000E+00  8.00000000E-01
  8.00000000E-01  1.50000000E+00  8.00000000E-01  8.00000000E-01  1.50000000E+00
  8.00000000E-01  8.00000000E-01  1.50000000E+00  8.00000000E-01  8.00000000E-01
  1.50000000E+00  8.00000000E-01  8.00000000E-01  1.50000000E+00  8.00000000E-01
  8.00000000E-01  1.50000000E+00  8.00000000E-01  8.00000000E-01  1.50000000E+00
  8.00000000E-01  8.00000000E-01  1.50000000E+00  8.00000000E-01  8.00000000E-01
  1.50000000E+00  8.00000000E-01  8.00000000E-01  1.50000000E+00  8.00000000E-01
  8.00000000E-01  1.50000000E+00  8.00000000E-01  8.00000000E-01  1.50000000E+00
  8.00000000E-01  8.00000000E-01  1.50000000E+00  8.00000000E-01  8.00000000E-01
  1.50000000E+00  8.00000000E-01  8.00000000E-01  1.50000000E+00  8.00000000E-01
  8.00000000E-01  1.50000000E+00  8.00000000E-01  8.00000000E-01  1.50000000E+00
  8.00000000E-01  8.00000000E-01  1.50000000E+00  8.00000000E-01  8.00000000E-01
  1.50000000E+00  8.00000000E-01  8.00000000E-01  1.50000000E+00  8.00000000E-01
  8.00000000E-01  1.50000000E+00  8.00000000E-01  8.00000000E-01  1.50000000E+00
  8.00000000E-01  8.00000000E-01  1.50000000E+00  8.00000000E-01  8.00000000E-01
  1.50000000E+00  8.00000000E-01  8.00000000E-01  1.50000000E+00  8.00000000E-01
  8.00000000E-01  1.50000000E+00  8.00000000E-01  8.00000000E-01  1.50000000E+00
  8.00000000E-01  8.00000000E-01  1.50000000E+00  8.00000000E-01  8.00000000E-01
  1.50000000E+00  8.00000000E-01  8.00000000E-01  1.50000000E+00  8.00000000E-01
  8.00000000E-01  1.50000000E+00  8.00000000E-01  8.00000000E-01  1.50000000E+00
  8.00000000E-01  8.00000000E-01  1.50000000E+00  8.00000000E-01  8.00000000E-01
  1.50000000E+00  8.00000000E-01  8.00000000E-01  1.50000000E+00  8.00000000E-01
  8.00000000E-01  1.50000000E+00  8.00000000E-01  8.00000000E-01  1.50000000E+00
  8.00000000E-01  8.00000000E-01  1.50000000E+00  8.00000000E-01  8.00000000E-01
  1.50000000E+00  8.00000000E-01  8.00000000E-01  1.50000000E+00  8.00000000E-01
  8.00000000E-01  1.50000000E+00  8.00000000E-01  8.00000000E-01  1.50000000E+00
  8.00000000E-01  8.00000000E-01  1.50000000E+00  8.00000000E-01  8.00000000E-01
  1.50000000E+00  8.00000000E-01  8.00000000E-01  1.50000000E+00  8.00000000E-01
  8.00000000E-01  1.50000000E+00  8.00000000E-01  8.00000000E-01  1.50000000E+00
  8.00000000E-01  8.00000000E-01  1.50000000E+00  8.00000000E-01  8.00000000E-01
  1.50000000E+00  8.00000000E-01  8.00000000E-01  1.50000000E+00  8.00000000E-01
  8.00000000E-01  1.50000000E+00  8.00000000E-01  8.00000000E-01  1.50000000E+00
  8.00000000E-01  8.00000000E-01  1.50000000E+00  8.00000000E-01  8.00000000E-01
  1.50000000E+00  8.00000000E-01  8.00000000E-01  1.50000000E+00  8.00000000E-01
  8.00000000E-01  1.50000000E+00  8.00000000E-01  8.00000000E-01  1.50000000E+00
  8.00000000E-01  8.00000000E-01  1.50000000E+00  8.00000000E-01  8.00000000E-01
  1.50000000E+00  8.00000000E-01  8.00000000E-01  1.50000000E+00  8.00000000E-01
  8.00000000E-01  1.50000000E+00  8.00000000E-01  8.00000000E-01  1.50000000E+00
  8.00000000E-01  8.00000000E-01  1.50000000E+00  8.00000000E-01  8.00000000E-01
  1.50000000E+00  8.00000000E-01  8.00000000E-01  1.50000000E+00  8.00000000E-01
  8.00000000E-01  1.50000000E+00  8.00000000E-01  8.00000000E-01  1.50000000E+00
  8.00000000E-01  8.00000000E-01  1.50000000E+00  8.00000000E-01  8.00000000E-01
  1.50000000E+00  8.00000000E-01  8.00000000E-01  1.50000000E+00  8.00000000E-01
  8.00000000E-01  1.50000000E+00  8.00000000E-01  8.00000000E-01  1.50000000E+00
  8.00000000E-01  8.00000000E-01  1.50000000E+00  8.00000000E-01  8.00000000E-01
  1.50000000E+00  8.00000000E-01  8.00000000E-01  1.50000000E+00  8.00000000E-01
  8.00000000E-01  1.50000000E+00  8.00000000E-01  8.00000000E-01  1.50000000E+00
  8.00000000E-01  8.00000000E-01  1.50000000E+00  8.00000000E-01  8.00000000E-01
  1.50000000E+00  8.00000000E-01  8.00000000E-01  1.50000000E+00  8.00000000E-01
  8.00000000E-01  1.50000000E+00  8.00000000E-01  8.00000000E-01  1.50000000E+00
  8.00000000E-01  8.00000000E-01  1.50000000E+00  8.00000000E-01  8.00000000E-01
  1.50000000E+00  8.00000000E-01  8.00000000E-01  1.50000000E+00  8.00000000E-01
  8.00000000E-01  1.50000000E+00  8.00000000E-01  8.00000000E-01  1.50000000E+00
  8.00000000E-01  8.00000000E-01  1.50000000E+00  8.00000000E-01  8.00000000E-01
  1.50000000E+00  8.00000000E-01  8.00000000E-01  1.50000000E+00  8.00000000E-01
  8.00000000E-01  1.50000000E+00  8.00000000E-01  8.00000000E-01  1.50000000E+00
  8.00000000E-01  8.00000000E-01  1.50000000E+00  8.00000000E-01  8.00000000E-01
  1.50000000E+00  8.00000000E-01  8.00000000E-01  1.50000000E+00  8.00000000E-01
  8.00000000E-01  1.50000000E+00  8.00000000E-01  8.00000000E-01  1.50000000E+00
  8.00000000E-01  8.00000000E-01  1.50000000E+00  8.00000000E-01  8.00000000E-01
  1.50000000E+00  8.00000000E-01  8.00000000E-01  1.50000000E+00  8.00000000E-01
  8.00000000E-01  1.50000000E+00  8.00000000E-01  8.00000000E-01  1.50000000E+00
  8.00000000E-01  8.00000000E-01  1.50000000E+00  8.00000000E-01  8.00000000E-01
  1.50000000E+00  8.00000000E-01  8.00000000E-01  1.50000000E+00  8.00000000E-01
  8.00000000E-01  1.50000000E+00  8.00000000E-01  8.00000000E-01  1.50000000E+00
  8.00000000E-01  8.00000000E-01  1.50000000E+00  8.00000000E-01  8.00000000E-01
  1.50000000E+00  8.00000000E-01  8.00000000E-01  1.50000000E+00  8.00000000E-01
  8.00000000E-01  1.50000000E+00  8.00000000E-01  8.00000000E-01  1.50000000E+00
  8.00000000E-01  8.00000000E-01  1.50000000E+00  8.00000000E-01  8.00000000E-01
  1.50000000E+00  8.00000000E-01  8.00000000E-01  1.50000000E+00  8.00000000E-01
  8.00000000E-01  1.50000000E+00  8.00000000E-01  8.00000000E-01  1.50000000E+00
  8.00000000E-01  8.00000000E-01  1.50000000E+00  8.00000000E-01  8.00000000E-01
  1.50000000E+00  8.00000000E-01  8.00000000E-01  1.50000000E+00  8.00000000E-01
  8.00000000E-01  1.50000000E+00  8.00000000E-01  8.00000000E-01  1.50000000E+00
  8.00000000E-01  8.00000000E-01  1.50000000E+00  8.00000000E-01  8.00000000E-01
  1.50000000E+00  8.00000000E-01  8.00000000E-01  1.50000000E+00  8.00000000E-01
  8.00000000E-01  1.50000000E+00  8.00000000E-01  8.00000000E-01  1.50000000E+00
  8.00000000E-01  8.00000000E-01  1.50000000E+00  8.00000000E-01  8.00000000E-01
  1.50000000E+00  8.00000000E-01  8.00000000E-01  1.50000000E+00  8.00000000E-01
  8.00000000E-01  1.50000000E+00  8.00000000E-01  8.00000000E-01  1.50000000E+00
  8.00000000E-01  8.00000000E-01  1.50000000E+00  8.00000000E-01  8.00000000E-01
  1.50000000E+00  8.00000000E-01  8.00000000E-01  1.50000000E+00  8.00000000E-01
  8.00000000E-01  1.50000000E+00  8.00000000E-01  8.00000000E-01  1.50000000E+00
  8.00000000E-01  8.00000000E-01  1.50000000E+00  8.00000000E-01  8.00000000E-01
  1.50000000E+00  8.00000000E-01  8.00000000E-01  1.50000000E+00  8.00000000E-01
  8.00000000E-01  1.50000000E+00  8.00000000E-01  8.00000000E-01  1.50000000E+00
  8.00000000E-01  8.00000000E-01  1.50000000E+00  8.00000000E-01  8.00000000E-01
  1.50000000E+00  8.00000000E-01  8.00000000E-01  1.50000000E+00  8.00000000E-01
  8.00000000E-01  1.50000000E+00  8.00000000E-01  8.00000000E-01  1.50000000E+00
  8.00000000E-01  8.00000000E-01  1.50000000E+00  8.00000000E-01  8.00000000E-01
  1.50000000E+00  8.00000000E-01  8.00000000E-01  1.50000000E+00  8.00000000E-01
  8.00000000E-01  1.50000000E+00  8.00000000E-01  8.00000000E-01  1.50000000E+00
  8.00000000E-01  8.00000000E-01  1.50000000E+00  8.00000000E-01  8.00000000E-01
  1.50000000E+00  8.00000000E-01  8.00000000E-01  1.50000000E+00  8.00000000E-01
  8.00000000E-01  1.50000000E+00  8.00000000E-01  8.00000000E-01  1.50000000E+00
  8.00000000E-01  8.00000000E-01  1.50000000E+00  8.00000000E-01  8.00000000E-01
  1.50000000E+00  8.00000000E-01  8.00000000E-01  1.50000000E+00  8.00000000E-01
  8.00000000E-01  1.50000000E+00  8.00000000E-01  8.00000000E-01  1.50000000E+00
  8.00000000E-01  8.00000000E-01  1.50000000E+00  8.00000000E-01  8.00000000E-01
  1.50000000E+00  8.00000000E-01  8.00000000E-01  1.50000000E+00  8.00000000E-01
  8.00000000E-01  1.50000000E+00  8.00000000E-01  8.00000000E-01  1.50000000E+00
  8.00000000E-01  8.00000000E-01  1.50000000E+00  8.00000000E-01  8.00000000E-01
  1.50000000E+00  8.00000000E-01  8.00000000E-01  1.50000000E+00  8.00000000E-01
  8.00000000E-01  1.50000000E+00  8.00000000E-01  8.00000000E-01  1.50000000E+00
  8.00000000E-01  8.00000000E-01  1.50000000E+00  8.00000000E-01  8.00000000E-01
  1.50000000E+00  8.00000000E-01  8.00000000E-01  1.50000000E+00  8.00000000E-01
  8.00000000E-01  1.50000000E+00  8.00000000E-01  8.00000000E-01  1.50000000E+00
  8.00000000E-01  8.00000000E-01  1.50000000E+00  8.00000000E-01  8.00000000E-01
  1.50000000E+00  8.00000000E-01  8.00000000E-01  1.50000000E+00  8.00000000E-01
  8.00000000E-01  1.50000000E+00  8.00000000E-01  8.00000000E-01  1.50000000E+00
  8.00000000E-01  8.00000000E-01  1.50000000E+00  8.00000000E-01  8.00000000E-01
  1.50000000E+00  8.00000000E-01  8.00000000E-01  1.50000000E+00  8.00000000E-01
  8.00000000E-01  1.50000000E+00  8.00000000E-01  8.00000000E-01  1.50000000E+00
  8.00000000E-01  8.00000000E-01  1.50000000E+00  8.00000000E-01  8.00000000E-01
  1.50000000E+00  8.00000000E-01  8.00000000E-01  1.50000000E+00  8.00000000E-01
  8.00000000E-01  1.50000000E+00  8.00000000E-01  8.00000000E-01  1.50000000E+00
  8.00000000E-01  8.00000000E-01  1.50000000E+00  8.00000000E-01  8.00000000E-01
  1.50000000E+00  8.00000000E-01  8.00000000E-01  1.50000000E+00  8.00000000E-01
  8.00000000E-01  1.50000000E+00  8.00000000E-01  8.00000000E-01  1.50000000E+00
  8.00000000E-01  8.00000000E-01  1.50000000E+00  8.00000000E-01  8.00000000E-01
  1.50000000E+00  8.00000000E-01  8.00000000E-01  1.50000000E+00  8.00000000E-01
  8.00000000E-01  1.50000000E+00  8.00000000E-01  8.00000000E-01  1.50000000E+00
  8.00000000E-01  8.00000000E-01  1.50000000E+00  8.00000000E-01  8.00000000E-01
  1.50000000E+00  8.00000000E-01  8.00000000E-01  1.50000000E+00  8.00000000E-01
  8.00000000E-01  1.50000000E+00  8.00000000E-01  8.00000000E-01  1.50000000E+00
  8.00000000E-01  8.00000000E-01  1.50000000E+00  8.00000000E-01  8.00000000E-01
  1.50000000E+00  8.00000000E-01  8.00000000E-01  1.50000000E+00  8.00000000E-01
  8.00000000E-01  1.50000000E+00  8.00000000E-01  8.00000000E-01  1.50000000E+00
  8.00000000E-01  8.00000000E-01  1.50000000E+00  8.00000000E-01  8.00000000E-01
  1.50000000E+00  8.00000000E-01  8.00000000E-01  1.50000000E+00  8.00000000E-01
  8.00000000E-01  1.50000000E+00  8.00000000E-01  8.00000000E-01  1.50000000E+00
  8.00000000E-01  8.00000000E-01  1.50000000E+00  8.00000000E-01  8.00000000E-01
  1.50000000E+00  8.00000000E-01  8.00000000E-01  1.50000000E+00  8.00000000E-01
  8.00000000E-01  1.50000000E+00  8.00000000E-01  8.00000000E-01  1.50000000E+00
  8.00000000E-01  8.00000000E-01  1.50000000E+00  8.00000000E-01  8.00000000E-01
  1.50000000E+00  8.00000000E-01  8.00000000E-01  1.50000000E+00  8.00000000E-01
  8.00000000E-01  1.50000000E+00  8.00000000E-01  8.00000000E-01  1.50000000E+00
  8.00000000E-01  8.00000000E-01  1.50000000E+00  8.00000000E-01  8.00000000E-01
  1.50000000E+00  8.00000000E-01  8.00000000E-01  1.50000000E+00  8.00000000E-01
  8.00000000E-01  1.50000000E+00  8.00000000E-01  8.00000000E-01  1.50000000E+00
  8.00000000E-01  8.00000000E-01  1.50000000E+00  8.00000000E-01  8.00000000E-01
  1.50000000E+00  8.00000000E-01  8.00000000E-01  1.50000000E+00  8.00000000E-01
  8.00000000E-01  1.50000000E+00  8.00000000E-01  8.00000000E-01  1.50000000E+00
  8.00000000E-01  8.00000000E-01  1.50000000E+00  8.00000000E-01  8.00000000E-01
  1.50000000E+00  8.00000000E-01  8.00000000E-01  1.50000000E+00  8.00000000E-01
  8.00000000E-01  1.50000000E+00  8.00000000E-01  8.00000000E-01  1.50000000E+00
  8.00000000E-01  8.00000000E-01  1.50000000E+00  8.00000000E-01  8.00000000E-01
  1.50000000E+00  8.00000000E-01  8.00000000E-01  1.50000000E+00  8.00000000E-01
  8.00000000E-01  1.50000000E+00  8.00000000E-01  8.00000000E-01  1.50000000E+00
  8.00000000E-01  8.00000000E-01  1.50000000E+00  8.00000000E-01  8.00000000E-01
  1.50000000E+00  8.00000000E-01  8.00000000E-01  1.50000000E+00  8.00000000E-01
  8.00000000E-01  1.50000000E+00  8.00000000E-01  8.00000000E-01  1.50000000E+00
  8.00000000E-01  8.00000000E-01  1.50000000E+00  8.00000000E-01  8.00000000E-01
  1.50000000E+00  8.00000000E-01  8.00000000E-01  1.50000000E+00  8.00000000E-01
  8.00000000E-01  1.50000000E+00  8.00000000E-01  8.00000000E-01  1.50000000E+00
  8.00000000E-01  8.00000000E-01  1.50000000E+00  8.00000000E-01  8.00000000E-01
  1.50000000E+00  8.00000000E-01  8.00000000E-01  1.50000000E+00  8.00000000E-01
  8.00000000E-01  1.50000000E+00  8.00000000E-01  8.00000000E-01  1.50000000E+00
  8.00000000E-01  8.00000000E-01  1.50000000E+00  8.00000000E-01  8.00000000E-01
  1.50000000E+00  8.00000000E-01  8.00000000E-01  1.50000000E+00  8.00000000E-01
  8.00000000E-01  1.50000000E+00  8.00000000E-01  8.00000000E-01  1.50000000E+00
  8.00000000E-01  8.00000000E-01  1.50000000E+00  8.00000000E-01  8.00000000E-01
  1.50000000E+00  8.00000000E-01  8.00000000E-01  1.50000000E+00  8.00000000E-01
  8.00000000E-01  1.50000000E+00  8.00000000E-01  8.00000000E-01  1.50000000E+00
  8.00000000E-01  8.00000000E-01  1.50000000E+00  8.00000000E-01  8.00000000E-01
  1.50000000E+00  8.00000000E-01  8.00000000E-01  1.50000000E+00  8.00000000E-01
  8.00000000E-01  1.50000000E+00  8.00000000E-01  8.00000000E-01  1.50000000E+00
  8.00000000E-01  8.00000000E-01  1.50000000E+00  8.00000000E-01  8.00000000E-01
  1.50000000E+00  8.00000000E-01  8.00000000E-01  1.50000000E+00  8.00000000E-01
  8.00000000E-01  1.50000000E+00  8.00000000E-01  8.00000000E-01  1.50000000E+00
  8.00000000E-01  8.00000000E-01  1.50000000E+00  8.00000000E-01  8.00000000E-01
  1.50000000E+00  8.00000000E-01  8.00000000E-01  1.50000000E+00  8.00000000E-01
  8.00000000E-01  1.50000000E+00  8.00000000E-01  8.00000000E-01  1.50000000E+00
  8.00000000E-01  8.00000000E-01  1.50000000E+00  8.00000000E-01  8.00000000E-01
  1.50000000E+00  8.00000000E-01  8.00000000E-01  1.50000000E+00  8.00000000E-01
  8.00000000E-01  1.50000000E+00  8.00000000E-01  8.00000000E-01  1.50000000E+00
  8.00000000E-01  8.00000000E-01  1.50000000E+00  8.00000000E-01  8.00000000E-01
  1.50000000E+00  8.00000000E-01  8.00000000E-01  1.50000000E+00  8.00000000E-01
  8.00000000E-01  1.50000000E+00  8.00000000E-01  8.00000000E-01  1.50000000E+00
  8.00000000E-01  8.00000000E-01  1.50000000E+00  8.00000000E-01  8.00000000E-01
  1.50000000E+00  8.00000000E-01  8.00000000E-01  1.50000000E+00  8.00000000E-01
  8.00000000E-01  1.50000000E+00  8.00000000E-01  8.00000000E-01  1.50000000E+00
  8.00000000E-01  8.00000000E-01  1.50000000E+00  8.00000000E-01  8.00000000E-01
  1.50000000E+00  8.00000000E-01  8.00000000E-01  1.50000000E+00  8.00000000E-01
  8.00000000E-01  1.50000000E+00  8.00000000E-01  8.00000000E-01  1.50000000E+00
  8.00000000E-01  8.00000000E-01  1.50000000E+00  8.00000000E-01  8.00000000E-01
  1.50000000E+00  8.00000000E-01  8.00000000E-01  1.50000000E+00  8.00000000E-01
  8.00000000E-01  1.50000000E+00  8.00000000E-01  8.00000000E-01  1.50000000E+00
  8.00000000E-01  8.00000000E-01  1.50000000E+00  8.00000000E-01  8.00000000E-01
  1.50000000E+00  8.00000000E-01  8.00000000E-01  1.50000000E+00  8.00000000E-01
  8.00000000E-01  1.50000000E+00  8.00000000E-01  8.00000000E-01  1.50000000E+00
  8.00000000E-01  8.00000000E-01  1.50000000E+00  8.00000000E-01  8.00000000E-01
  1.50000000E+00  8.00000000E-01  8.00000000E-01  1.50000000E+00  8.00000000E-01
  8.00000000E-01  1.50000000E+00  8.00000000E-01  8.00000000E-01  1.50000000E+00
  8.00000000E-01  8.00000000E-01  1.50000000E+00  8.00000000E-01  8.00000000E-01
  1.50000000E+00  8.00000000E-01  8.00000000E-01  1.50000000E+00  8.00000000E-01
  8.00000000E-01  1.50000000E+00  8.00000000E-01  8.00000000E-01  1.50000000E+00
  8.00000000E-01  8.00000000E-01  1.50000000E+00  8.00000000E-01  8.00000000E-01
  1.50000000E+00  8.00000000E-01  8.00000000E-01  1.50000000E+00  8.00000000E-01
  8.00000000E-01  1.50000000E+00  8.00000000E-01  8.00000000E-01  1.50000000E+00
  8.00000000E-01  8.00000000E-01  1.50000000E+00  8.00000000E-01  8.00000000E-01
  1.50000000E+00  8.00000000E-01  8.00000000E-01  1.50000000E+00  8.00000000E-01
  8.00000000E-01  1.50000000E+00  8.00000000E-01  8.00000000E-01  1.50000000E+00
  8.00000000E-01  8.00000000E-01  1.50000000E+00  8.00000000E-01  8.00000000E-01
  1.50000000E+00  8.00000000E-01  8.00000000E-01  1.50000000E+00  8.00000000E-01
  8.00000000E-01  1.50000000E+00  8.00000000E-01  8.00000000E-01  1.50000000E+00
  8.00000000E-01  8.00000000E-01  1.50000000E+00  8.00000000E-01  8.00000000E-01
  1.50000000E+00  8.00000000E-01  8.00000000E-01  1.50000000E+00  8.00000000E-01
  8.00000000E-01  1.50000000E+00  8.00000000E-01  8.00000000E-01  1.50000000E+00
  8.00000000E-01  8.00000000E-01  1.50000000E+00  8.00000000E-01  8.00000000E-01
  1.50000000E+00  8.00000000E-01  8.00000000E-01  1.50000000E+00  8.00000000E-01
  8.00000000E-01  1.50000000E+00  8.00000000E-01  8.00000000E-01  1.50000000E+00
  8.00000000E-01  8.00000000E-01  1.50000000E+00  8.00000000E-01  8.00000000E-01
  1.50000000E+00  8.00000000E-01  8.00000000E-01  1.50000000E+00  8.00000000E-01
  8.00000000E-01  1.50000000E+00  8.00000000E-01  8.00000000E-01  1.50000000E+00
  8.00000000E-01  8.00000000E-01  1.50000000E+00  8.00000000E-01  8.00000000E-01
  1.50000000E+00  8.00000000E-01  8.00000000E-01  1.50000000E+00  8.00000000E-01
  8.00000000E-01  1.50000000E+00  8.00000000E-01  8.00000000E-01  1.50000000E+00
  8.00000000E-01  8.00000000E-01  1.50000000E+00  8.00000000E-01  8.00000000E-01
  1.50000000E+00  8.00000000E-01  8.00000000E-01  1.50000000E+00  8.00000000E-01
  8.00000000E-01  1.50000000E+00  8.00000000E-01  8.00000000E-01  1.50000000E+00
  8.00000000E-01  8.00000000E-01  1.50000000E+00  8.00000000E-01  8.00000000E-01
  1.50000000E+00  8.00000000E-01  8.00000000E-01  1.50000000E+00  8.00000000E-01
  8.00000000E-01  1.50000000E+00  8.00000000E-01  8.00000000E-01  1.50000000E+00
  8.00000000E-01  8.00000000E-01  1.50000000E+00  8.00000000E-01  8.00000000E-01
  1.50000000E+00  8.00000000E-01  8.00000000E-01  1.50000000E+00  8.00000000E-01
  8.00000000E-01  1.50000000E+00  8.00000000E-01  8.00000000E-01  1.50000000E+00
  8.00000000E-01  8.00000000E-01  1.50000000E+00  8.00000000E-01  8.00000000E-01
  1.50000000E+00  8.00000000E-01  8.00000000E-01  1.50000000E+00  8.00000000E-01
  8.00000000E-01  1.50000000E+00  8.00000000E-01  8.00000000E-01  1.50000000E+00
  8.00000000E-01  8.00000000E-01  1.50000000E+00  8.00000000E-01  8.00000000E-01
  1.50000000E+00  8.00000000E-01  8.00000000E-01  1.50000000E+00  8.00000000E-01
  8.00000000E-01  1.50000000E+00  8.00000000E-01  8.00000000E-01  1.50000000E+00
  8.00000000E-01  8.00000000E-01  1.50000000E+00  8.00000000E-01  8.00000000E-01
  1.50000000E+00  8.00000000E-01  8.00000000E-01  1.50000000E+00  8.00000000E-01
  8.00000000E-01  1.50000000E+00  8.00000000E-01  8.00000000E-01  1.50000000E+00
  8.00000000E-01  8.00000000E-01  1.50000000E+00  8.00000000E-01  8.00000000E-01
  1.50000000E+00  8.00000000E-01  8.00000000E-01  1.50000000E+00  8.00000000E-01
  8.00000000E-01  1.50000000E+00  8.00000000E-01  8.00000000E-01  1.50000000E+00
  8.00000000E-01  8.00000000E-01  1.50000000E+00  8.00000000E-01  8.00000000E-01
  1.50000000E+00  8.00000000E-01  8.00000000E-01  1.50000000E+00  8.00000000E-01
  8.00000000E-01  1.50000000E+00  8.00000000E-01  8.00000000E-01  1.50000000E+00
  8.00000000E-01  8.00000000E-01  1.50000000E+00  8.00000000E-01  8.00000000E-01
  1.50000000E+00  8.00000000E-01  8.00000000E-01  1.50000000E+00  8.00000000E-01
  8.00000000E-01  1.50000000E+00  8.00000000E-01  8.00000000E-01  1.50000000E+00
  8.00000000E-01  8.00000000E-01  1.50000000E+00  8.00000000E-01  8.00000000E-01
  1.50000000E+00  8.00000000E-01  8.00000000E-01  1.50000000E+00  8.00000000E-01
  8.00000000E-01  1.50000000E+00  8.00000000E-01  8.00000000E-01  1.50000000E+00
  8.00000000E-01  8.00000000E-01  1.50000000E+00  8.00000000E-01  8.00000000E-01
  1.50000000E+00  8.00000000E-01  8.00000000E-01  1.50000000E+00  8.00000000E-01
  8.00000000E-01  1.50000000E+00  8.00000000E-01  8.00000000E-01  1.50000000E+00
  8.00000000E-01  8.00000000E-01  1.50000000E+00  8.00000000E-01  8.00000000E-01
  1.50000000E+00  8.00000000E-01  8.00000000E-01  1.50000000E+00  8.00000000E-01
  8.00000000E-01  1.50000000E+00  8.00000000E-01  8.00000000E-01  1.50000000E+00
  8.00000000E-01  8.00000000E-01  1.50000000E+00  8.00000000E-01  8.00000000E-01
  1.50000000E+00  8.00000000E-01  8.00000000E-01  1.50000000E+00  8.00000000E-01
  8.00000000E-01  1.50000000E+00  8.00000000E-01  8.00000000E-01  1.50000000E+00
  8.00000000E-01  8.00000000E-01  1.50000000E+00  8.00000000E-01  8.00000000E-01
  1.50000000E+00  8.00000000E-01  8.00000000E-01  1.50000000E+00  8.00000000E-01
  8.00000000E-01  1.50000000E+00  8.00000000E-01  8.00000000E-01  1.50000000E+00
  8.00000000E-01  8.00000000E-01  1.50000000E+00  8.00000000E-01  8.00000000E-01
  1.50000000E+00  8.00000000E-01  8.00000000E-01  1.50000000E+00  8.00000000E-01
  8.00000000E-01  1.50000000E+00  8.00000000E-01  8.00000000E-01  1.50000000E+00
  8.00000000E-01  8.00000000E-01  1.50000000E+00  8.00000000E-01  8.00000000E-01
  1.50000000E+00  8.00000000E-01  8.00000000E-01  1.50000000E+00  8.00000000E-01
  8.00000000E-01  1.50000000E+00  8.00000000E-01  8.00000000E-01  1.50000000E+00
  8.00000000E-01  8.00000000E-01  1.50000000E+00  8.00000000E-01  8.00000000E-01
  1.50000000E+00  8.00000000E-01  8.00000000E-01  1.50000000E+00  8.00000000E-01
  8.00000000E-01  1.50000000E+00  8.00000000E-01  8.00000000E-01  1.50000000E+00
  8.00000000E-01  8.00000000E-01  1.50000000E+00  8.00000000E-01  8.00000000E-01
  1.50000000E+00  8.00000000E-01  8.00000000E-01  1.50000000E+00  8.00000000E-01
  8.00000000E-01  1.50000000E+00  8.00000000E-01  8.00000000E-01  1.50000000E+00
  8.00000000E-01  8.00000000E-01  1.50000000E+00  8.00000000E-01  8.00000000E-01
  1.50000000E+00  8.00000000E-01  8.00000000E-01  1.50000000E+00  8.00000000E-01
  8.00000000E-01  1.50000000E+00  8.00000000E-01  8.00000000E-01  1.50000000E+00
  8.00000000E-01  8.00000000E-01  1.50000000E+00  8.00000000E-01  8.00000000E-01
  1.50000000E+00  8.00000000E-01  8.00000000E-01  1.50000000E+00  8.00000000E-01
  8.00000000E-01  1.50000000E+00  8.00000000E-01  8.00000000E-01  1.50000000E+00
  8.00000000E-01  8.00000000E-01  1.50000000E+00  8.00000000E-01  8.00000000E-01
  1.50000000E+00  8.00000000E-01  8.00000000E-01  1.50000000E+00  8.00000000E-01
  8.00000000E-01  1.50000000E+00  8.00000000E-01  8.00000000E-01  1.50000000E+00
  8.00000000E-01  8.00000000E-01  1.50000000E+00  8.00000000E-01  8.00000000E-01
  1.50000000E+00  8.00000000E-01  8.00000000E-01  1.50000000E+00  8.00000000E-01
  8.00000000E-01  1.50000000E+00  8.00000000E-01  8.00000000E-01  1.50000000E+00
  8.00000000E-01  8.00000000E-01  1.50000000E+00  8.00000000E-01  8.00000000E-01
  1.50000000E+00  8.00000000E-01  8.00000000E-01  1.50000000E+00  8.00000000E-01
  8.00000000E-01  1.50000000E+00  8.00000000E-01  8.00000000E-01  1.50000000E+00
  8.00000000E-01  8.00000000E-01  1.50000000E+00  8.00000000E-01  8.00000000E-01
  1.50000000E+00  8.00000000E-01  8.00000000E-01  1.50000000E+00  8.00000000E-01
  8.00000000E-01  1.50000000E+00  8.00000000E-01  8.00000000E-01  1.50000000E+00
  8.00000000E-01  8.00000000E-01  1.50000000E+00  8.00000000E-01  8.00000000E-01
  1.50000000E+00  8.00000000E-01  8.00000000E-01  1.50000000E+00  8.00000000E-01
  8.00000000E-01  1.50000000E+00  8.00000000E-01  8.00000000E-01  1.50000000E+00
  8.00000000E-01  8.00000000E-01  1.50000000E+00  8.00000000E-01  8.00000000E-01
  1.50000000E+00  8.00000000E-01  8.00000000E-01  1.50000000E+00  8.00000000E-01
  8.00000000E-01  1.50000000E+00  8.00000000E-01  8.00000000E-01  1.50000000E+00
  8.00000000E-01  8.00000000E-01  1.50000000E+00  8.00000000E-01  8.00000000E-01
  1.50000000E+00  8.00000000E-01  8.00000000E-01  1.50000000E+00  8.00000000E-01
  8.00000000E-01  1.50000000E+00  8.00000000E-01  8.00000000E-01  1.50000000E+00
  8.00000000E-01  8.00000000E-01  1.50000000E+00  8.00000000E-01  8.00000000E-01
  1.50000000E+00  8.00000000E-01  8.00000000E-01  1.50000000E+00  8.00000000E-01
  8.00000000E-01  1.50000000E+00  8.00000000E-01  8.00000000E-01  1.50000000E+00
  8.00000000E-01  8.00000000E-01  1.50000000E+00  8.00000000E-01  8.00000000E-01
  1.50000000E+00  8.00000000E-01  8.00000000E-01  1.50000000E+00  8.00000000E-01
  8.00000000E-01  1.50000000E+00  8.00000000E-01  8.00000000E-01  1.50000000E+00
  8.00000000E-01  8.00000000E-01  1.50000000E+00  8.00000000E-01  8.00000000E-01
  1.50000000E+00  8.00000000E-01  8.00000000E-01  1.50000000E+00  8.00000000E-01
  8.00000000E-01  1.50000000E+00  8.00000000E-01  8.00000000E-01  1.50000000E+00
  8.00000000E-01  8.00000000E-01  1.50000000E+00  8.00000000E-01  8.00000000E-01
  1.50000000E+00  8.00000000E-01  8.00000000E-01  1.50000000E+00  8.00000000E-01
  8.00000000E-01  1.50000000E+00  8.00000000E-01  8.00000000E-01  1.50000000E+00
  8.00000000E-01  8.00000000E-01  1.50000000E+00  8.00000000E-01  8.00000000E-01
  1.50000000E+00  8.00000000E-01  8.00000000E-01  1.50000000E+00  8.00000000E-01
  8.00000000E-01  1.50000000E+00  8.00000000E-01  8.00000000E-01  1.50000000E+00
  8.00000000E-01  8.00000000E-01  1.50000000E+00  8.00000000E-01  8.00000000E-01
  1.50000000E+00  8.00000000E-01  8.00000000E-01  1.50000000E+00  8.00000000E-01
  8.00000000E-01  1.50000000E+00  8.00000000E-01  8.00000000E-01  1.50000000E+00
  8.00000000E-01  8.00000000E-01  1.50000000E+00  8.00000000E-01  8.00000000E-01
  1.50000000E+00  8.00000000E-01  8.00000000E-01  1.50000000E+00  8.00000000E-01
  8.00000000E-01  1.50000000E+00  8.00000000E-01  8.00000000E-01  1.50000000E+00
  8.00000000E-01  8.00000000E-01  1.50000000E+00  8.00000000E-01  8.00000000E-01
  1.50000000E+00  8.00000000E-01  8.00000000E-01  1.50000000E+00  8.00000000E-01
  8.00000000E-01  1.50000000E+00  8.00000000E-01  8.00000000E-01  1.50000000E+00
  8.00000000E-01  8.00000000E-01  1.50000000E+00  8.00000000E-01  8.00000000E-01
  1.50000000E+00  8.00000000E-01  8.00000000E-01  1.50000000E+00  8.00000000E-01
  8.00000000E-01  1.50000000E+00  8.00000000E-01  8.00000000E-01  1.50000000E+00
  8.00000000E-01  8.00000000E-01  1.50000000E+00  8.00000000E-01  8.00000000E-01
  1.50000000E+00  8.00000000E-01  8.00000000E-01  1.50000000E+00  8.00000000E-01
  8.00000000E-01  1.50000000E+00  8.00000000E-01  8.00000000E-01  1.50000000E+00
  8.00000000E-01  8.00000000E-01  1.50000000E+00  8.00000000E-01  8.00000000E-01
  1.50000000E+00  8.00000000E-01  8.00000000E-01  1.50000000E+00  8.00000000E-01
  8.00000000E-01  1.50000000E+00  8.00000000E-01  8.00000000E-01  1.50000000E+00
  8.00000000E-01  8.00000000E-01  1.50000000E+00  8.00000000E-01  8.00000000E-01
  1.50000000E+00  8.00000000E-01  8.00000000E-01  1.50000000E+00  8.00000000E-01
  8.00000000E-01  1.50000000E+00  8.00000000E-01  8.00000000E-01  1.50000000E+00
  8.00000000E-01  8.00000000E-01  1.50000000E+00  8.00000000E-01  8.00000000E-01
  1.50000000E+00  8.00000000E-01  8.00000000E-01  1.50000000E+00  8.00000000E-01
  8.00000000E-01  1.50000000E+00  8.00000000E-01  8.00000000E-01  1.50000000E+00
  8.00000000E-01  8.00000000E-01  1.50000000E+00  8.00000000E-01  8.00000000E-01
  1.50000000E+00  8.00000000E-01  8.00000000E-01  1.50000000E+00  8.00000000E-01
  8.00000000E-01  1.50000000E+00  8.00000000E-01  8.00000000E-01  1.50000000E+00
  8.00000000E-01  8.00000000E-01  1.50000000E+00  8.00000000E-01  8.00000000E-01
  1.50000000E+00  8.00000000E-01  8.00000000E-01  1.50000000E+00  8.00000000E-01
  8.00000000E-01  1.50000000E+00  8.00000000E-01  8.00000000E-01  1.50000000E+00
  8.00000000E-01  8.00000000E-01  1.50000000E+00  8.00000000E-01  8.00000000E-01
  1.50000000E+00  8.00000000E-01  8.00000000E-01  1.50000000E+00  8.00000000E-01
  8.00000000E-01  1.50000000E+00  8.00000000E-01  8.00000000E-01  1.50000000E+00
  8.00000000E-01  8.00000000E-01  1.50000000E+00  8.00000000E-01  8.00000000E-01
  1.50000000E+00  8.00000000E-01  8.00000000E-01  1.50000000E+00  8.00000000E-01
  8.00000000E-01  1.50000000E+00  8.00000000E-01  8.00000000E-01  1.50000000E+00
  8.00000000E-01  8.00000000E-01  1.50000000E+00  8.00000000E-01  8.00000000E-01
  1.50000000E+00  8.00000000E-01  8.00000000E-01  1.50000000E+00  8.00000000E-01
  8.00000000E-01  1.50000000E+00  8.00000000E-01  8.00000000E-01  1.50000000E+00
  8.00000000E-01  8.00000000E-01  1.50000000E+00  8.00000000E-01  8.00000000E-01
  1.50000000E+00  8.00000000E-01  8.00000000E-01  1.50000000E+00  8.00000000E-01
  8.00000000E-01  1.50000000E+00  8.00000000E-01  8.00000000E-01  1.50000000E+00
  8.00000000E-01  8.00000000E-01  1.50000000E+00  8.00000000E-01  8.00000000E-01
  1.50000000E+00  8.00000000E-01  8.00000000E-01  1.50000000E+00  8.00000000E-01
  8.00000000E-01  1.50000000E+00  8.00000000E-01  8.00000000E-01  1.50000000E+00
  8.00000000E-01  8.00000000E-01  1.50000000E+00  8.00000000E-01  8.00000000E-01
  1.50000000E+00  8.00000000E-01  8.00000000E-01  1.50000000E+00  8.00000000E-01
  8.00000000E-01  1.50000000E+00  8.00000000E-01  8.00000000E-01  1.50000000E+00
  8.00000000E-01  8.00000000E-01  1.50000000E+00  8.00000000E-01  8.00000000E-01
  1.50000000E+00  8.00000000E-01  8.00000000E-01  1.50000000E+00  8.00000000E-01
  8.00000000E-01  1.50000000E+00  8.00000000E-01  8.00000000E-01  1.50000000E+00
  8.00000000E-01  8.00000000E-01  1.50000000E+00  8.00000000E-01  8.00000000E-01
  1.50000000E+00  8.00000000E-01  8.00000000E-01  1.50000000E+00  8.00000000E-01
  8.00000000E-01  1.50000000E+00  8.00000000E-01  8.00000000E-01  1.50000000E+00
  8.00000000E-01  8.00000000E-01  1.50000000E+00  8.00000000E-01  8.00000000E-01
  1.50000000E+00  8.00000000E-01  8.00000000E-01  1.50000000E+00  8.00000000E-01
  8.00000000E-01  1.50000000E+00  8.00000000E-01  8.00000000E-01  1.50000000E+00
  8.00000000E-01  8.00000000E-01  1.50000000E+00  8.00000000E-01  8.00000000E-01
  1.50000000E+00  8.00000000E-01  8.00000000E-01  1.50000000E+00  8.00000000E-01
  8.00000000E-01  1.50000000E+00  8.00000000E-01  8.00000000E-01  1.50000000E+00
  8.00000000E-01  8.00000000E-01  1.50000000E+00  8.00000000E-01  8.00000000E-01
  1.50000000E+00  8.00000000E-01  8.00000000E-01  1.50000000E+00  8.00000000E-01
  8.00000000E-01  1.50000000E+00  8.00000000E-01  8.00000000E-01  1.50000000E+00
  8.00000000E-01  8.00000000E-01  1.50000000E+00  8.00000000E-01  8.00000000E-01
  1.50000000E+00  8.00000000E-01  8.00000000E-01  1.50000000E+00  8.00000000E-01
  8.00000000E-01  1.50000000E+00  8.00000000E-01  8.00000000E-01  1.50000000E+00
  8.00000000E-01  8.00000000E-01  1.50000000E+00  8.00000000E-01  8.00000000E-01
  1.50000000E+00  8.00000000E-01  8.00000000E-01  1.50000000E+00  8.00000000E-01
  8.00000000E-01  1.50000000E+00  8.00000000E-01  8.00000000E-01  1.50000000E+00
  8.00000000E-01  8.00000000E-01  1.50000000E+00  8.00000000E-01  8.00000000E-01
  1.50000000E+00  8.00000000E-01  8.00000000E-01  1.50000000E+00  8.00000000E-01
  8.00000000E-01  1.50000000E+00  8.00000000E-01  8.00000000E-01  1.50000000E+00
  8.00000000E-01  8.00000000E-01  1.50000000E+00  8.00000000E-01  8.00000000E-01
  1.50000000E+00  8.00000000E-01  8.00000000E-01  1.50000000E+00  8.00000000E-01
  8.00000000E-01  1.50000000E+00  8.00000000E-01  8.00000000E-01  1.50000000E+00
  8.00000000E-01  8.00000000E-01  1.50000000E+00  8.00000000E-01  8.00000000E-01
  1.50000000E+00  8.00000000E-01  8.00000000E-01  1.50000000E+00  8.00000000E-01
  8.00000000E-01  1.50000000E+00  8.00000000E-01  8.00000000E-01  1.50000000E+00
  8.00000000E-01  8.00000000E-01  1.50000000E+00  8.00000000E-01  8.00000000E-01
  1.50000000E+00  8.00000000E-01  8.00000000E-01  1.50000000E+00  8.00000000E-01
  8.00000000E-01  1.50000000E+00  8.00000000E-01  8.00000000E-01  1.50000000E+00
  8.00000000E-01  8.00000000E-01  1.50000000E+00  8.00000000E-01  8.00000000E-01
  1.50000000E+00  8.00000000E-01  8.00000000E-01  1.50000000E+00  8.00000000E-01
  8.00000000E-01  1.50000000E+00  8.00000000E-01  8.00000000E-01  1.50000000E+00
  8.00000000E-01  8.00000000E-01  1.50000000E+00  8.00000000E-01  8.00000000E-01
  1.50000000E+00  8.00000000E-01  8.00000000E-01  1.50000000E+00  8.00000000E-01
  8.00000000E-01  1.50000000E+00  8.00000000E-01  8.00000000E-01  1.50000000E+00
  8.00000000E-01  8.00000000E-01  1.50000000E+00  8.00000000E-01  8.00000000E-01
  1.50000000E+00  8.00000000E-01  8.00000000E-01  1.50000000E+00  8.00000000E-01
  8.00000000E-01  1.50000000E+00  8.00000000E-01  8.00000000E-01  1.50000000E+00
  8.00000000E-01  8.00000000E-01  1.50000000E+00  8.00000000E-01  8.00000000E-01
  1.50000000E+00  8.00000000E-01  8.00000000E-01  1.50000000E+00  8.00000000E-01
  8.00000000E-01  1.50000000E+00  8.00000000E-01  8.00000000E-01  1.50000000E+00
  8.00000000E-01  8.00000000E-01  1.50000000E+00  8.00000000E-01  8.00000000E-01
  1.50000000E+00  8.00000000E-01  8.00000000E-01  1.50000000E+00  8.00000000E-01
  8.00000000E-01  1.50000000E+00  8.00000000E-01  8.00000000E-01  1.50000000E+00
  8.00000000E-01  8.00000000E-01  1.50000000E+00  8.00000000E-01  8.00000000E-01
  1.50000000E+00  8.00000000E-01  8.00000000E-01  1.50000000E+00  8.00000000E-01
  8.00000000E-01  1.50000000E+00  8.00000000E-01  8.00000000E-01  1.50000000E+00
  8.00000000E-01  8.00000000E-01  1.50000000E+00  8.00000000E-01  8.00000000E-01
  1.50000000E+00  8.00000000E-01  8.00000000E-01  1.50000000E+00  8.00000000E-01
  8.00000000E-01  1.50000000E+00  8.00000000E-01  8.00000000E-01  1.50000000E+00
  8.00000000E-01  8.00000000E-01  1.50000000E+00  8.00000000E-01  8.00000000E-01
  1.50000000E+00  8.00000000E-01  8.00000000E-01  1.50000000E+00  8.00000000E-01
  8.00000000E-01  1.50000000E+00  8.00000000E-01  8.00000000E-01  1.50000000E+00
  8.00000000E-01  8.00000000E-01  1.50000000E+00  8.00000000E-01  8.00000000E-01
  1.50000000E+00  8.00000000E-01  8.00000000E-01  1.50000000E+00  8.00000000E-01
  8.00000000E-01  1.50000000E+00  8.00000000E-01  8.00000000E-01  1.50000000E+00
  8.00000000E-01  8.00000000E-01  1.50000000E+00  8.00000000E-01  8.00000000E-01
  1.50000000E+00  8.00000000E-01  8.00000000E-01  1.50000000E+00  8.00000000E-01
  8.00000000E-01  1.50000000E+00  8.00000000E-01  8.00000000E-01  1.50000000E+00
  8.00000000E-01  8.00000000E-01  1.50000000E+00  8.00000000E-01  8.00000000E-01
  1.50000000E+00  8.00000000E-01  8.00000000E-01  1.50000000E+00  8.00000000E-01
  8.00000000E-01  1.50000000E+00  8.00000000E-01  8.00000000E-01  1.50000000E+00
  8.00000000E-01  8.00000000E-01  1.50000000E+00  8.00000000E-01  8.00000000E-01
  1.50000000E+00  8.00000000E-01  8.00000000E-01  1.50000000E+00  8.00000000E-01
  8.00000000E-01  1.50000000E+00  8.00000000E-01  8.00000000E-01  1.50000000E+00
  8.00000000E-01  8.00000000E-01  1.50000000E+00  8.00000000E-01  8.00000000E-01
  1.50000000E+00  8.00000000E-01  8.00000000E-01  1.50000000E+00  8.00000000E-01
  8.00000000E-01  1.50000000E+00  8.00000000E-01  8.00000000E-01  1.50000000E+00
  8.00000000E-01  8.00000000E-01  1.50000000E+00  8.00000000E-01  8.00000000E-01
  1.50000000E+00  8.00000000E-01  8.00000000E-01  1.50000000E+00  8.00000000E-01
  8.00000000E-01  1.50000000E+00  8.00000000E-01  8.00000000E-01  1.50000000E+00
  8.00000000E-01  8.00000000E-01  1.50000000E+00  8.00000000E-01  8.00000000E-01
  1.50000000E+00  8.00000000E-01  8.00000000E-01  1.50000000E+00  8.00000000E-01
  8.00000000E-01  1.50000000E+00  8.00000000E-01  8.00000000E-01  1.50000000E+00
  8.00000000E-01  8.00000000E-01  1.50000000E+00  8.00000000E-01  8.00000000E-01
  1.50000000E+00  8.00000000E-01  8.00000000E-01  1.50000000E+00  8.00000000E-01
  8.00000000E-01  1.50000000E+00  8.00000000E-01  8.00000000E-01  1.50000000E+00
  8.00000000E-01  8.00000000E-01  1.50000000E+00  8.00000000E-01  8.00000000E-01
  1.50000000E+00  8.00000000E-01  8.00000000E-01  1.50000000E+00  8.00000000E-01
  8.00000000E-01  1.50000000E+00  8.00000000E-01  8.00000000E-01  1.50000000E+00
  8.00000000E-01  8.00000000E-01  1.50000000E+00  8.00000000E-01  8.00000000E-01
  1.50000000E+00  8.00000000E-01  8.00000000E-01  1.50000000E+00  8.00000000E-01
  8.00000000E-01  1.50000000E+00  8.00000000E-01  8.00000000E-01  1.50000000E+00
  8.00000000E-01  8.00000000E-01  1.50000000E+00  8.00000000E-01  8.00000000E-01
  1.50000000E+00  8.00000000E-01  8.00000000E-01  1.50000000E+00  8.00000000E-01
  8.00000000E-01  1.50000000E+00  8.00000000E-01  8.00000000E-01  1.50000000E+00
  8.00000000E-01  8.00000000E-01  1.50000000E+00  8.00000000E-01  8.00000000E-01
  1.50000000E+00  8.00000000E-01  8.00000000E-01  1.50000000E+00  8.00000000E-01
  8.00000000E-01  1.50000000E+00  8.00000000E-01  8.00000000E-01  1.50000000E+00
  8.00000000E-01  8.00000000E-01  1.50000000E+00  8.00000000E-01  8.00000000E-01
  1.50000000E+00  8.00000000E-01  8.00000000E-01  1.50000000E+00  8.00000000E-01
  8.00000000E-01  1.50000000E+00  8.00000000E-01  8.00000000E-01  1.50000000E+00
  8.00000000E-01  8.00000000E-01  1.50000000E+00  8.00000000E-01  8.00000000E-01
  1.50000000E+00  8.00000000E-01  8.00000000E-01  1.50000000E+00  8.00000000E-01
  8.00000000E-01  1.50000000E+00  8.00000000E-01  8.00000000E-01  1.50000000E+00
  8.00000000E-01  8.00000000E-01  1.50000000E+00  8.00000000E-01  8.00000000E-01
  1.50000000E+00  8.00000000E-01  8.00000000E-01  1.50000000E+00  8.00000000E-01
  8.00000000E-01  1.50000000E+00  8.00000000E-01  8.00000000E-01  1.50000000E+00
  8.00000000E-01  8.00000000E-01  1.50000000E+00  8.00000000E-01  8.00000000E-01
  1.50000000E+00  8.00000000E-01  8.00000000E-01  1.50000000E+00  8.00000000E-01
  8.00000000E-01  1.50000000E+00  8.00000000E-01  8.00000000E-01  1.50000000E+00
  8.00000000E-01  8.00000000E-01  1.50000000E+00  8.00000000E-01  8.00000000E-01
  1.50000000E+00  8.00000000E-01  8.00000000E-01  1.50000000E+00  8.00000000E-01
  8.00000000E-01  1.50000000E+00  8.00000000E-01  8.00000000E-01  1.50000000E+00
  8.00000000E-01  8.00000000E-01  1.50000000E+00  8.00000000E-01  8.00000000E-01
  1.50000000E+00  8.00000000E-01  8.00000000E-01  1.50000000E+00  8.00000000E-01
  8.00000000E-01  1.50000000E+00  8.00000000E-01  8.00000000E-01  1.50000000E+00
  8.00000000E-01  8.00000000E-01  1.50000000E+00  8.00000000E-01  8.00000000E-01
  1.50000000E+00  8.00000000E-01  8.00000000E-01  1.50000000E+00  8.00000000E-01
  8.00000000E-01  1.50000000E+00  8.00000000E-01  8.00000000E-01  1.50000000E+00
  8.00000000E-01  8.00000000E-01  1.50000000E+00  8.00000000E-01  8.00000000E-01
  1.50000000E+00  8.00000000E-01  8.00000000E-01  1.50000000E+00  8.00000000E-01
  8.00000000E-01  1.50000000E+00  8.00000000E-01  8.00000000E-01  1.50000000E+00
  8.00000000E-01  8.00000000E-01  1.50000000E+00  8.00000000E-01  8.00000000E-01
  1.50000000E+00  8.00000000E-01  8.00000000E-01  1.50000000E+00  8.00000000E-01
  8.00000000E-01  1.50000000E+00  8.00000000E-01  8.00000000E-01  1.50000000E+00
  8.00000000E-01  8.00000000E-01  1.50000000E+00  8.00000000E-01  8.00000000E-01
  1.50000000E+00  8.00000000E-01  8.00000000E-01  1.50000000E+00  8.00000000E-01
  8.00000000E-01  1.50000000E+00  8.00000000E-01  8.00000000E-01  1.50000000E+00
  8.00000000E-01  8.00000000E-01  1.50000000E+00  8.00000000E-01  8.00000000E-01
  1.50000000E+00  8.00000000E-01  8.00000000E-01  1.50000000E+00  8.00000000E-01
  8.00000000E-01  1.50000000E+00  8.00000000E-01  8.00000000E-01  1.50000000E+00
  8.00000000E-01  8.00000000E-01  1.50000000E+00  8.00000000E-01  8.00000000E-01
  1.50000000E+00  8.00000000E-01  8.00000000E-01  1.50000000E+00  8.00000000E-01
  8.00000000E-01  1.50000000E+00  8.00000000E-01  8.00000000E-01  1.50000000E+00
  8.00000000E-01  8.00000000E-01  1.50000000E+00  8.00000000E-01  8.00000000E-01
  1.50000000E+00  8.00000000E-01  8.00000000E-01  1.50000000E+00  8.00000000E-01
  8.00000000E-01  1.50000000E+00  8.00000000E-01  8.00000000E-01  1.50000000E+00
  8.00000000E-01  8.00000000E-01  1.50000000E+00  8.00000000E-01  8.00000000E-01
  1.50000000E+00  8.00000000E-01  8.00000000E-01  1.50000000E+00  8.00000000E-01
  8.00000000E-01  1.50000000E+00  8.00000000E-01  8.00000000E-01  1.50000000E+00
  8.00000000E-01  8.00000000E-01  1.50000000E+00  8.00000000E-01  8.00000000E-01
  1.50000000E+00  8.00000000E-01  8.00000000E-01  1.50000000E+00  8.00000000E-01
  8.00000000E-01  1.50000000E+00  8.00000000E-01  8.00000000E-01  1.50000000E+00
  8.00000000E-01  8.00000000E-01  1.50000000E+00  8.00000000E-01  8.00000000E-01
  1.50000000E+00  8.00000000E-01  8.00000000E-01  1.50000000E+00  8.00000000E-01
  8.00000000E-01  1.50000000E+00  8.00000000E-01  8.00000000E-01  1.50000000E+00
  8.00000000E-01  8.00000000E-01  1.50000000E+00  8.00000000E-01  8.00000000E-01
  1.50000000E+00  8.00000000E-01  8.00000000E-01  1.50000000E+00  8.00000000E-01
  8.00000000E-01  1.50000000E+00  8.00000000E-01  8.00000000E-01  1.50000000E+00
  8.00000000E-01  8.00000000E-01  1.50000000E+00  8.00000000E-01  8.00000000E-01
  1.50000000E+00  8.00000000E-01  8.00000000E-01  1.50000000E+00  8.00000000E-01
  8.00000000E-01  1.50000000E+00  8.00000000E-01  8.00000000E-01  1.50000000E+00
  8.00000000E-01  8.00000000E-01  1.50000000E+00  8.00000000E-01  8.00000000E-01
  1.50000000E+00  8.00000000E-01  8.00000000E-01  1.50000000E+00  8.00000000E-01
  8.00000000E-01  1.50000000E+00  8.00000000E-01  8.00000000E-01  1.50000000E+00
  8.00000000E-01  8.00000000E-01  1.50000000E+00  8.00000000E-01  8.00000000E-01
  1.50000000E+00  8.00000000E-01  8.00000000E-01  1.50000000E+00  8.00000000E-01
  8.00000000E-01  1.50000000E+00  8.00000000E-01  8.00000000E-01  1.50000000E+00
  8.00000000E-01  8.00000000E-01  1.50000000E+00  8.00000000E-01  8.00000000E-01
  1.50000000E+00  8.00000000E-01  8.00000000E-01  1.50000000E+00  8.00000000E-01
  8.00000000E-01  1.50000000E+00  8.00000000E-01  8.00000000E-01  1.50000000E+00
  8.00000000E-01  8.00000000E-01  1.50000000E+00  8.00000000E-01  8.00000000E-01
  1.50000000E+00  8.00000000E-01  8.00000000E-01  1.50000000E+00  8.00000000E-01
  8.00000000E-01  1.50000000E+00  8.00000000E-01  8.00000000E-01  1.50000000E+00
  8.00000000E-01  8.00000000E-01  1.50000000E+00  8.00000000E-01  8.00000000E-01
  1.50000000E+00  8.00000000E-01  8.00000000E-01  1.50000000E+00  8.00000000E-01
  8.00000000E-01  1.50000000E+00  8.00000000E-01  8.00000000E-01  1.50000000E+00
  8.00000000E-01  8.00000000E-01  1.50000000E+00  8.00000000E-01  8.00000000E-01
  1.50000000E+00  8.00000000E-01  8.00000000E-01  1.50000000E+00  8.00000000E-01
  8.00000000E-01  1.50000000E+00  8.00000000E-01  8.00000000E-01  1.50000000E+00
  8.00000000E-01  8.00000000E-01  1.50000000E+00  8.00000000E-01  8.00000000E-01
  1.50000000E+00  8.00000000E-01  8.00000000E-01  1.50000000E+00  8.00000000E-01
  8.00000000E-01  1.50000000E+00  8.00000000E-01  8.00000000E-01  1.50000000E+00
  8.00000000E-01  8.00000000E-01  1.50000000E+00  8.00000000E-01  8.00000000E-01
  1.50000000E+00  8.00000000E-01  8.00000000E-01  1.50000000E+00  8.00000000E-01
  8.00000000E-01  1.50000000E+00  8.00000000E-01  8.00000000E-01  1.50000000E+00
  8.00000000E-01  8.00000000E-01  1.50000000E+00  8.00000000E-01  8.00000000E-01
  1.50000000E+00  8.00000000E-01  8.00000000E-01  1.50000000E+00  8.00000000E-01
  8.00000000E-01  1.50000000E+00  8.00000000E-01  8.00000000E-01  1.50000000E+00
  8.00000000E-01  8.00000000E-01  1.50000000E+00  8.00000000E-01  8.00000000E-01
  1.50000000E+00  8.00000000E-01  8.00000000E-01  1.50000000E+00  8.00000000E-01
  8.00000000E-01  1.50000000E+00  8.00000000E-01  8.00000000E-01  1.50000000E+00
  8.00000000E-01  8.00000000E-01  1.50000000E+00  8.00000000E-01  8.00000000E-01
  1.50000000E+00  8.00000000E-01  8.00000000E-01  1.50000000E+00  8.00000000E-01
  8.00000000E-01  1.50000000E+00  8.00000000E-01  8.00000000E-01  1.50000000E+00
  8.00000000E-01  8.00000000E-01  1.50000000E+00  8.00000000E-01  8.00000000E-01
  1.50000000E+00  8.00000000E-01  8.00000000E-01  1.50000000E+00  8.00000000E-01
  8.00000000E-01  1.50000000E+00  8.00000000E-01  8.00000000E-01  1.50000000E+00
  8.00000000E-01  8.00000000E-01  1.50000000E+00  8.00000000E-01  8.00000000E-01
  1.50000000E+00  8.00000000E-01  8.00000000E-01  1.50000000E+00  8.00000000E-01
  8.00000000E-01  1.50000000E+00  8.00000000E-01  8.00000000E-01  1.50000000E+00
  8.00000000E-01  8.00000000E-01  1.50000000E+00  8.00000000E-01  8.00000000E-01
  1.50000000E+00  8.00000000E-01  8.00000000E-01  1.50000000E+00  8.00000000E-01
  8.00000000E-01  1.50000000E+00  8.00000000E-01  8.00000000E-01  1.50000000E+00
  8.00000000E-01  8.00000000E-01  1.50000000E+00  8.00000000E-01  8.00000000E-01
  1.50000000E+00  8.00000000E-01  8.00000000E-01  1.50000000E+00  8.00000000E-01
  8.00000000E-01  1.50000000E+00  8.00000000E-01  8.00000000E-01  1.50000000E+00
  8.00000000E-01  8.00000000E-01  1.50000000E+00  8.00000000E-01  8.00000000E-01
  1.50000000E+00  8.00000000E-01  8.00000000E-01  1.50000000E+00  8.00000000E-01
  8.00000000E-01  1.50000000E+00  8.00000000E-01  8.00000000E-01  1.50000000E+00
  8.00000000E-01  8.00000000E-01  1.50000000E+00  8.00000000E-01  8.00000000E-01
  1.50000000E+00  8.00000000E-01  8.00000000E-01  1.50000000E+00  8.00000000E-01
  8.00000000E-01  1.50000000E+00  8.00000000E-01  8.00000000E-01  1.50000000E+00
  8.00000000E-01  8.00000000E-01  1.50000000E+00  8.00000000E-01  8.00000000E-01
  1.50000000E+00  8.00000000E-01  8.00000000E-01  1.50000000E+00  8.00000000E-01
  8.00000000E-01  1.50000000E+00  8.00000000E-01  8.00000000E-01  1.50000000E+00
  8.00000000E-01  8.00000000E-01  1.50000000E+00  8.00000000E-01  8.00000000E-01
  1.50000000E+00  8.00000000E-01  8.00000000E-01  1.50000000E+00  8.00000000E-01
  8.00000000E-01  1.50000000E+00  8.00000000E-01  8.00000000E-01  1.50000000E+00
  8.00000000E-01  8.00000000E-01  1.50000000E+00  8.00000000E-01  8.00000000E-01
  1.50000000E+00  8.00000000E-01  8.00000000E-01  1.50000000E+00  8.00000000E-01
  8.00000000E-01  1.50000000E+00  8.00000000E-01  8.00000000E-01  1.50000000E+00
  8.00000000E-01  8.00000000E-01  1.50000000E+00  8.00000000E-01  8.00000000E-01
  1.50000000E+00  8.00000000E-01  8.00000000E-01  1.50000000E+00  8.00000000E-01
  8.00000000E-01  1.50000000E+00  8.00000000E-01  8.00000000E-01  1.50000000E+00
  8.00000000E-01  8.00000000E-01  1.50000000E+00  8.00000000E-01  8.00000000E-01
  1.50000000E+00  8.00000000E-01  8.00000000E-01  1.50000000E+00  8.00000000E-01
  8.00000000E-01  1.50000000E+00  8.00000000E-01  8.00000000E-01  1.50000000E+00
  8.00000000E-01  8.00000000E-01  1.50000000E+00  8.00000000E-01  8.00000000E-01
  1.50000000E+00  8.00000000E-01  8.00000000E-01  1.50000000E+00  8.00000000E-01
  8.00000000E-01  1.50000000E+00  8.00000000E-01  8.00000000E-01  1.50000000E+00
  8.00000000E-01  8.00000000E-01  1.50000000E+00  8.00000000E-01  8.00000000E-01
  1.50000000E+00  8.00000000E-01  8.00000000E-01  1.50000000E+00  8.00000000E-01
  8.00000000E-01  1.50000000E+00  8.00000000E-01  8.00000000E-01  1.50000000E+00
  8.00000000E-01  8.00000000E-01  1.50000000E+00  8.00000000E-01  8.00000000E-01
  1.50000000E+00  8.00000000E-01  8.00000000E-01  1.50000000E+00  8.00000000E-01
  8.00000000E-01  1.50000000E+00  8.00000000E-01  8.00000000E-01  1.50000000E+00
  8.00000000E-01  8.00000000E-01  1.50000000E+00  8.00000000E-01  8.00000000E-01
  1.50000000E+00  8.00000000E-01  8.00000000E-01  1.50000000E+00  8.00000000E-01
  8.00000000E-01  1.50000000E+00  8.00000000E-01  8.00000000E-01  1.50000000E+00
  8.00000000E-01  8.00000000E-01  1.50000000E+00  8.00000000E-01  8.00000000E-01
  1.50000000E+00  8.00000000E-01  8.00000000E-01  1.50000000E+00  8.00000000E-01
  8.00000000E-01  1.50000000E+00  8.00000000E-01  8.00000000E-01  1.50000000E+00
  8.00000000E-01  8.00000000E-01  1.50000000E+00  8.00000000E-01  8.00000000E-01
  1.50000000E+00  8.00000000E-01  8.00000000E-01  1.50000000E+00  8.00000000E-01
  8.00000000E-01  1.50000000E+00  8.00000000E-01  8.00000000E-01  1.50000000E+00
  8.00000000E-01  8.00000000E-01  1.50000000E+00  8.00000000E-01  8.00000000E-01
  1.50000000E+00  8.00000000E-01  8.00000000E-01  1.50000000E+00  8.00000000E-01
  8.00000000E-01  1.50000000E+00  8.00000000E-01  8.00000000E-01  1.50000000E+00
  8.00000000E-01  8.00000000E-01  1.50000000E+00  8.00000000E-01  8.00000000E-01
  1.50000000E+00  8.00000000E-01  8.00000000E-01  1.50000000E+00  8.00000000E-01
  8.00000000E-01  1.50000000E+00  8.00000000E-01  8.00000000E-01  1.50000000E+00
  8.00000000E-01  8.00000000E-01  1.50000000E+00  8.00000000E-01  8.00000000E-01
  1.50000000E+00  8.00000000E-01  8.00000000E-01  1.50000000E+00  8.00000000E-01
  8.00000000E-01  1.50000000E+00  8.00000000E-01  8.00000000E-01  1.50000000E+00
  8.00000000E-01  8.00000000E-01  1.50000000E+00  8.00000000E-01  8.00000000E-01
  1.50000000E+00  8.00000000E-01  8.00000000E-01  1.50000000E+00  8.00000000E-01
  8.00000000E-01  1.50000000E+00  8.00000000E-01  8.00000000E-01  1.50000000E+00
  8.00000000E-01  8.00000000E-01  1.50000000E+00  8.00000000E-01  8.00000000E-01
  1.50000000E+00  8.00000000E-01  8.00000000E-01  1.50000000E+00  8.00000000E-01
  8.00000000E-01  1.50000000E+00  8.00000000E-01  8.00000000E-01  1.50000000E+00
  8.00000000E-01  8.00000000E-01  1.50000000E+00  8.00000000E-01  8.00000000E-01
  1.50000000E+00  8.00000000E-01  8.00000000E-01  1.50000000E+00  8.00000000E-01
  8.00000000E-01  1.50000000E+00  8.00000000E-01  8.00000000E-01  1.50000000E+00
  8.00000000E-01  8.00000000E-01  1.50000000E+00  8.00000000E-01  8.00000000E-01
  1.50000000E+00  8.00000000E-01  8.00000000E-01  1.50000000E+00  8.00000000E-01
  8.00000000E-01  1.50000000E+00  8.00000000E-01  8.00000000E-01  1.50000000E+00
  8.00000000E-01  8.00000000E-01  1.50000000E+00  8.00000000E-01  8.00000000E-01
  1.50000000E+00  8.00000000E-01  8.00000000E-01  1.50000000E+00  8.00000000E-01
  8.00000000E-01  1.50000000E+00  8.00000000E-01  8.00000000E-01  1.50000000E+00
  8.00000000E-01  8.00000000E-01  1.50000000E+00  8.00000000E-01  8.00000000E-01
  1.50000000E+00  8.00000000E-01  8.00000000E-01  1.50000000E+00  8.00000000E-01
  8.00000000E-01  1.50000000E+00  8.00000000E-01  8.00000000E-01  1.50000000E+00
  8.00000000E-01  8.00000000E-01  1.50000000E+00  8.00000000E-01  8.00000000E-01
  1.50000000E+00  8.00000000E-01  8.00000000E-01  1.50000000E+00  8.00000000E-01
  8.00000000E-01  1.50000000E+00  8.00000000E-01  8.00000000E-01  1.50000000E+00
  8.00000000E-01  8.00000000E-01  1.50000000E+00  8.00000000E-01  8.00000000E-01
  1.50000000E+00  8.00000000E-01  8.00000000E-01  1.50000000E+00  8.00000000E-01
  8.00000000E-01  1.50000000E+00  8.00000000E-01  8.00000000E-01  1.50000000E+00
  8.00000000E-01  8.00000000E-01  1.50000000E+00  8.00000000E-01  8.00000000E-01
  1.50000000E+00  8.00000000E-01  8.00000000E-01  1.50000000E+00  8.00000000E-01
  8.00000000E-01  1.50000000E+00  8.00000000E-01  8.00000000E-01  1.50000000E+00
  8.00000000E-01  8.00000000E-01  1.50000000E+00  8.00000000E-01  8.00000000E-01
  1.50000000E+00  8.00000000E-01  8.00000000E-01  1.50000000E+00  8.00000000E-01
  8.00000000E-01  1.50000000E+00  8.00000000E-01  8.00000000E-01  1.50000000E+00
  8.00000000E-01  8.00000000E-01  1.50000000E+00  8.00000000E-01  8.00000000E-01
  1.50000000E+00  8.00000000E-01  8.00000000E-01  1.50000000E+00  8.00000000E-01
  8.00000000E-01  1.50000000E+00  8.00000000E-01  8.00000000E-01  1.50000000E+00
  8.00000000E-01  8.00000000E-01  1.50000000E+00  8.00000000E-01  8.00000000E-01
  1.50000000E+00  8.00000000E-01  8.00000000E-01  1.50000000E+00  8.00000000E-01
  8.00000000E-01  1.50000000E+00  8.00000000E-01  8.00000000E-01  1.50000000E+00
  8.00000000E-01  8.00000000E-01  1.50000000E+00  8.00000000E-01  8.00000000E-01
  1.50000000E+00  8.00000000E-01  8.00000000E-01  1.50000000E+00  8.00000000E-01
  8.00000000E-01  1.50000000E+00  8.00000000E-01  8.00000000E-01  1.50000000E+00
  8.00000000E-01  8.00000000E-01  1.50000000E+00  8.00000000E-01  8.00000000E-01
  1.50000000E+00  8.00000000E-01  8.00000000E-01  1.50000000E+00  8.00000000E-01
  8.00000000E-01  1.50000000E+00  8.00000000E-01  8.00000000E-01  1.50000000E+00
  8.00000000E-01  8.00000000E-01  1.50000000E+00  8.00000000E-01  8.00000000E-01
  1.50000000E+00  8.00000000E-01  8.00000000E-01  1.50000000E+00  8.00000000E-01
  8.00000000E-01  1.50000000E+00  8.00000000E-01  8.00000000E-01  1.50000000E+00
  8.00000000E-01  8.00000000E-01  1.50000000E+00  8.00000000E-01  8.00000000E-01
  1.50000000E+00  8.00000000E-01  8.00000000E-01  1.50000000E+00  8.00000000E-01
  8.00000000E-01  1.50000000E+00  8.00000000E-01  8.00000000E-01  1.50000000E+00
  8.00000000E-01  8.00000000E-01  1.50000000E+00  8.00000000E-01  8.00000000E-01
  1.50000000E+00  8.00000000E-01  8.00000000E-01  1.50000000E+00  8.00000000E-01
  8.00000000E-01  1.50000000E+00  8.00000000E-01  8.00000000E-01  1.50000000E+00
  8.00000000E-01  8.00000000E-01  1.50000000E+00  8.00000000E-01  8.00000000E-01
  1.50000000E+00  8.00000000E-01  8.00000000E-01  1.50000000E+00  8.00000000E-01
  8.00000000E-01  1.50000000E+00  8.00000000E-01  8.00000000E-01  1.50000000E+00
  8.00000000E-01  8.00000000E-01  1.50000000E+00  8.00000000E-01  8.00000000E-01
  1.50000000E+00  8.00000000E-01  8.00000000E-01  1.50000000E+00  8.00000000E-01
  8.00000000E-01  1.50000000E+00  8.00000000E-01  8.00000000E-01  1.50000000E+00
  8.00000000E-01  8.00000000E-01  1.50000000E+00  8.00000000E-01  8.00000000E-01
  1.50000000E+00  8.00000000E-01  8.00000000E-01  1.50000000E+00  8.00000000E-01
  8.00000000E-01  1.50000000E+00  8.00000000E-01  8.00000000E-01  1.50000000E+00
  8.00000000E-01  8.00000000E-01  1.50000000E+00  8.00000000E-01  8.00000000E-01
  1.50000000E+00  8.00000000E-01  8.00000000E-01  1.50000000E+00  8.00000000E-01
  8.00000000E-01  1.50000000E+00  8.00000000E-01  8.00000000E-01  1.50000000E+00
  8.00000000E-01  8.00000000E-01  1.50000000E+00  8.00000000E-01  8.00000000E-01
  1.50000000E+00  8.00000000E-01  8.00000000E-01  1.50000000E+00  8.00000000E-01
  8.00000000E-01  1.50000000E+00  8.00000000E-01  8.00000000E-01  1.50000000E+00
  8.00000000E-01  8.00000000E-01  1.50000000E+00  8.00000000E-01  8.00000000E-01
  1.50000000E+00  8.00000000E-01  8.00000000E-01  1.50000000E+00  8.00000000E-01
  8.00000000E-01  1.50000000E+00  8.00000000E-01  8.00000000E-01  1.50000000E+00
  8.00000000E-01  8.00000000E-01  1.50000000E+00  8.00000000E-01  8.00000000E-01
  1.50000000E+00  8.00000000E-01  8.00000000E-01  1.50000000E+00  8.00000000E-01
  8.00000000E-01  1.50000000E+00  8.00000000E-01  8.00000000E-01  1.50000000E+00
  8.00000000E-01  8.00000000E-01  1.50000000E+00  8.00000000E-01  8.00000000E-01
  1.50000000E+00  8.00000000E-01  8.00000000E-01  1.50000000E+00  8.00000000E-01
  8.00000000E-01  1.50000000E+00  8.00000000E-01  8.00000000E-01  1.50000000E+00
  8.00000000E-01  8.00000000E-01  1.50000000E+00  8.00000000E-01  8.00000000E-01
  1.50000000E+00  8.00000000E-01  8.00000000E-01  1.50000000E+00  8.00000000E-01
  8.00000000E-01  1.50000000E+00  8.00000000E-01  8.00000000E-01  1.50000000E+00
  8.00000000E-01  8.00000000E-01  1.50000000E+00  8.00000000E-01  8.00000000E-01
  1.50000000E+00  8.00000000E-01  8.00000000E-01  1.50000000E+00  8.00000000E-01
  8.00000000E-01  1.50000000E+00  8.00000000E-01  8.00000000E-01  1.50000000E+00
  8.00000000E-01  8.00000000E-01  1.50000000E+00  8.00000000E-01  8.00000000E-01
  1.50000000E+00  8.00000000E-01  8.00000000E-01  1.50000000E+00  8.00000000E-01
  8.00000000E-01  1.50000000E+00  8.00000000E-01  8.00000000E-01  1.50000000E+00
  8.00000000E-01  8.00000000E-01  1.50000000E+00  8.00000000E-01  8.00000000E-01
  1.50000000E+00  8.00000000E-01  8.00000000E-01  1.50000000E+00  8.00000000E-01
  8.00000000E-01  1.50000000E+00  8.00000000E-01  8.00000000E-01  1.50000000E+00
  8.00000000E-01  8.00000000E-01  1.50000000E+00  8.00000000E-01  8.00000000E-01
  1.50000000E+00  8.00000000E-01  8.00000000E-01  1.50000000E+00  8.00000000E-01
  8.00000000E-01  1.50000000E+00  8.00000000E-01  8.00000000E-01  1.50000000E+00
  8.00000000E-01  8.00000000E-01  1.50000000E+00  8.00000000E-01  8.00000000E-01
  1.50000000E+00  8.00000000E-01  8.00000000E-01  1.50000000E+00  8.00000000E-01
  8.00000000E-01  1.50000000E+00  8.00000000E-01  8.00000000E-01  1.50000000E+00
  8.00000000E-01  8.00000000E-01  1.50000000E+00  8.00000000E-01  8.00000000E-01
  1.50000000E+00  8.00000000E-01  8.00000000E-01  1.50000000E+00  8.00000000E-01
  8.00000000E-01  1.50000000E+00  8.00000000E-01  8.00000000E-01  1.50000000E+00
  8.00000000E-01  8.00000000E-01  1.50000000E+00  8.00000000E-01  8.00000000E-01
  1.50000000E+00  8.00000000E-01  8.00000000E-01  1.50000000E+00  8.00000000E-01
  8.00000000E-01  1.50000000E+00  8.00000000E-01  8.00000000E-01  1.50000000E+00
  8.00000000E-01  8.00000000E-01  1.50000000E+00  8.00000000E-01  8.00000000E-01
  1.50000000E+00  8.00000000E-01  8.00000000E-01  1.50000000E+00  8.00000000E-01
  8.00000000E-01  1.50000000E+00  8.00000000E-01  8.00000000E-01  1.50000000E+00
  8.00000000E-01  8.00000000E-01  1.50000000E+00  8.00000000E-01  8.00000000E-01
  1.50000000E+00  8.00000000E-01  8.00000000E-01  1.50000000E+00  8.00000000E-01
  8.00000000E-01  1.50000000E+00  8.00000000E-01  8.00000000E-01  1.50000000E+00
  8.00000000E-01  8.00000000E-01  1.50000000E+00  8.00000000E-01  8.00000000E-01
  1.50000000E+00  8.00000000E-01  8.00000000E-01  1.50000000E+00  8.00000000E-01
  8.00000000E-01  1.50000000E+00  8.00000000E-01  8.00000000E-01  1.50000000E+00
  8.00000000E-01  8.00000000E-01  1.50000000E+00  8.00000000E-01  8.00000000E-01
  1.50000000E+00  8.00000000E-01  8.00000000E-01  1.50000000E+00  8.00000000E-01
  8.00000000E-01  1.50000000E+00  8.00000000E-01  8.00000000E-01  1.50000000E+00
  8.00000000E-01  8.00000000E-01  1.50000000E+00  8.00000000E-01  8.00000000E-01
  1.50000000E+00  8.00000000E-01  8.00000000E-01  1.50000000E+00  8.00000000E-01
  8.00000000E-01  1.50000000E+00  8.00000000E-01  8.00000000E-01  1.50000000E+00
  8.00000000E-01  8.00000000E-01  1.50000000E+00  8.00000000E-01  8.00000000E-01
  1.50000000E+00  8.00000000E-01  8.00000000E-01  1.50000000E+00  8.00000000E-01
  8.00000000E-01  1.50000000E+00  8.00000000E-01  8.00000000E-01  1.50000000E+00
  8.00000000E-01  8.00000000E-01  1.50000000E+00  8.00000000E-01  8.00000000E-01
  1.50000000E+00  8.00000000E-01  8.00000000E-01  1.50000000E+00  8.00000000E-01
  8.00000000E-01  1.50000000E+00  8.00000000E-01  8.00000000E-01  1.50000000E+00
  8.00000000E-01  8.00000000E-01  1.50000000E+00  8.00000000E-01  8.00000000E-01
  1.50000000E+00  8.00000000E-01  8.00000000E-01  1.50000000E+00  8.00000000E-01
  8.00000000E-01  1.50000000E+00  8.00000000E-01  8.00000000E-01  1.50000000E+00
  8.00000000E-01  8.00000000E-01  1.50000000E+00  8.00000000E-01  8.00000000E-01
  1.50000000E+00  8.00000000E-01  8.00000000E-01  1.50000000E+00  8.00000000E-01
  8.00000000E-01  1.50000000E+00  8.00000000E-01  8.00000000E-01  1.50000000E+00
  8.00000000E-01  8.00000000E-01  1.50000000E+00  8.00000000E-01  8.00000000E-01
  1.50000000E+00  8.00000000E-01  8.00000000E-01  1.50000000E+00  8.00000000E-01
  8.00000000E-01  1.50000000E+00  8.00000000E-01  8.00000000E-01  1.50000000E+00
  8.00000000E-01  8.00000000E-01  1.50000000E+00  8.00000000E-01  8.00000000E-01
  1.50000000E+00  8.00000000E-01  8.00000000E-01  1.50000000E+00  8.00000000E-01
  8.00000000E-01  1.50000000E+00  8.00000000E-01  8.00000000E-01  1.50000000E+00
  8.00000000E-01  8.00000000E-01  1.50000000E+00  8.00000000E-01  8.00000000E-01
  1.50000000E+00  8.00000000E-01  8.00000000E-01  1.50000000E+00  8.00000000E-01
  8.00000000E-01  1.50000000E+00  8.00000000E-01  8.00000000E-01  1.50000000E+00
  8.00000000E-01  8.00000000E-01  1.50000000E+00  8.00000000E-01  8.00000000E-01
  1.50000000E+00  8.00000000E-01  8.00000000E-01  1.50000000E+00  8.00000000E-01
  8.00000000E-01  1.50000000E+00  8.00000000E-01  8.00000000E-01  1.50000000E+00
  8.00000000E-01  8.00000000E-01  1.50000000E+00  8.00000000E-01  8.00000000E-01
  1.50000000E+00  8.00000000E-01  8.00000000E-01  1.50000000E+00  8.00000000E-01
  8.00000000E-01  1.50000000E+00  8.00000000E-01  8.00000000E-01  1.50000000E+00
  8.00000000E-01  8.00000000E-01  1.50000000E+00  8.00000000E-01  8.00000000E-01
  1.50000000E+00  8.00000000E-01  8.00000000E-01  1.50000000E+00  8.00000000E-01
  8.00000000E-01  1.50000000E+00  8.00000000E-01  8.00000000E-01  1.50000000E+00
  8.00000000E-01  8.00000000E-01  1.50000000E+00  8.00000000E-01  8.00000000E-01
  1.50000000E+00  8.00000000E-01  8.00000000E-01  1.50000000E+00  8.00000000E-01
  8.00000000E-01  1.50000000E+00  8.00000000E-01  8.00000000E-01  1.50000000E+00
  8.00000000E-01  8.00000000E-01  1.50000000E+00  8.00000000E-01  8.00000000E-01
  1.50000000E+00  8.00000000E-01  8.00000000E-01  1.50000000E+00  8.00000000E-01
  8.00000000E-01  1.50000000E+00  8.00000000E-01  8.00000000E-01  1.50000000E+00
  8.00000000E-01  8.00000000E-01  1.50000000E+00  8.00000000E-01  8.00000000E-01
  1.50000000E+00  8.00000000E-01  8.00000000E-01  1.50000000E+00  8.00000000E-01
  8.00000000E-01  1.50000000E+00  8.00000000E-01  8.00000000E-01  1.50000000E+00
  8.00000000E-01  8.00000000E-01  1.50000000E+00  8.00000000E-01  8.00000000E-01
  1.50000000E+00  8.00000000E-01  8.00000000E-01  1.50000000E+00  8.00000000E-01
  8.00000000E-01  1.50000000E+00  8.00000000E-01  8.00000000E-01  1.50000000E+00
  8.00000000E-01  8.00000000E-01  1.50000000E+00  8.00000000E-01  8.00000000E-01
  1.50000000E+00  8.00000000E-01  8.00000000E-01  1.50000000E+00  8.00000000E-01
  8.00000000E-01  1.50000000E+00  8.00000000E-01  8.00000000E-01  1.50000000E+00
  8.00000000E-01  8.00000000E-01  1.50000000E+00  8.00000000E-01  8.00000000E-01
  1.50000000E+00  8.00000000E-01  8.00000000E-01  1.50000000E+00  8.00000000E-01
  8.00000000E-01  1.50000000E+00  8.00000000E-01  8.00000000E-01  1.50000000E+00
  8.00000000E-01  8.00000000E-01  1.50000000E+00  8.00000000E-01  8.00000000E-01
  1.50000000E+00  8.00000000E-01  8.00000000E-01  1.50000000E+00  8.00000000E-01
  8.00000000E-01  1.50000000E+00  8.00000000E-01  8.00000000E-01  1.50000000E+00
  8.00000000E-01  8.00000000E-01  1.50000000E+00  8.00000000E-01  8.00000000E-01
  1.50000000E+00  8.00000000E-01  8.00000000E-01  1.50000000E+00  8.00000000E-01
  8.00000000E-01  1.50000000E+00  8.00000000E-01  8.00000000E-01  1.50000000E+00
  8.00000000E-01  8.00000000E-01  1.50000000E+00  8.00000000E-01  8.00000000E-01
  1.50000000E+00  8.00000000E-01  8.00000000E-01  1.50000000E+00  8.00000000E-01
  8.00000000E-01  1.50000000E+00  8.00000000E-01  8.00000000E-01  1.50000000E+00
  8.00000000E-01  8.00000000E-01  1.50000000E+00  8.00000000E-01  8.00000000E-01
  1.50000000E+00  8.00000000E-01  8.00000000E-01  1.50000000E+00  8.00000000E-01
  8.00000000E-01  1.50000000E+00  8.00000000E-01  8.00000000E-01  1.50000000E+00
  8.00000000E-01  8.00000000E-01  1.50000000E+00  8.00000000E-01  8.00000000E-01
  1.50000000E+00  8.00000000E-01  8.00000000E-01  1.50000000E+00  8.00000000E-01
  8.00000000E-01  1.50000000E+00  8.00000000E-01  8.00000000E-01  1.50000000E+00
  8.00000000E-01  8.00000000E-01  1.50000000E+00  8.00000000E-01  8.00000000E-01
  1.50000000E+00  8.00000000E-01  8.00000000E-01  1.50000000E+00  8.00000000E-01
  8.00000000E-01  1.50000000E+00  8.00000000E-01  8.00000000E-01  1.50000000E+00
  8.00000000E-01  8.00000000E-01  1.50000000E+00  8.00000000E-01  8.00000000E-01
  1.50000000E+00  8.00000000E-01  8.00000000E-01  1.50000000E+00  8.00000000E-01
  8.00000000E-01  1.50000000E+00  8.00000000E-01  8.00000000E-01  1.50000000E+00
  8.00000000E-01  8.00000000E-01  1.50000000E+00  8.00000000E-01  8.00000000E-01
  1.50000000E+00  8.00000000E-01  8.00000000E-01  1.50000000E+00  8.00000000E-01
  8.00000000E-01  1.50000000E+00  8.00000000E-01  8.00000000E-01  1.50000000E+00
  8.00000000E-01  8.00000000E-01  1.50000000E+00  8.00000000E-01  8.00000000E-01
  1.50000000E+00  8.00000000E-01  8.00000000E-01  1.50000000E+00  8.00000000E-01
  8.00000000E-01  1.50000000E+00  8.00000000E-01  8.00000000E-01  1.50000000E+00
  8.00000000E-01  8.00000000E-01  1.50000000E+00  8.00000000E-01  8.00000000E-01
  1.50000000E+00  8.00000000E-01  8.00000000E-01  1.50000000E+00  8.00000000E-01
  8.00000000E-01  1.50000000E+00  8.00000000E-01  8.00000000E-01  1.50000000E+00
  8.00000000E-01  8.00000000E-01  1.50000000E+00  8.00000000E-01  8.00000000E-01
  1.50000000E+00  8.00000000E-01  8.00000000E-01  1.50000000E+00  8.00000000E-01
  8.00000000E-01  1.50000000E+00  8.00000000E-01  8.00000000E-01  1.50000000E+00
  8.00000000E-01  8.00000000E-01  1.50000000E+00  8.00000000E-01  8.00000000E-01
  1.50000000E+00  8.00000000E-01  8.00000000E-01  1.50000000E+00  8.00000000E-01
  8.00000000E-01  1.50000000E+00  8.00000000E-01  8.00000000E-01  1.50000000E+00
  8.00000000E-01  8.00000000E-01  1.50000000E+00  8.00000000E-01  8.00000000E-01
  1.50000000E+00  8.00000000E-01  8.00000000E-01  1.50000000E+00  8.00000000E-01
  8.00000000E-01  1.50000000E+00  8.00000000E-01  8.00000000E-01  1.50000000E+00
  8.00000000E-01  8.00000000E-01  1.50000000E+00  8.00000000E-01  8.00000000E-01
  1.50000000E+00  8.00000000E-01  8.00000000E-01  1.50000000E+00  8.00000000E-01
  8.00000000E-01  1.50000000E+00  8.00000000E-01  8.00000000E-01  1.50000000E+00
  8.00000000E-01  8.00000000E-01  1.50000000E+00  8.00000000E-01  8.00000000E-01
  1.50000000E+00  8.00000000E-01  8.00000000E-01  1.50000000E+00  8.00000000E-01
  8.00000000E-01  1.50000000E+00  8.00000000E-01  8.00000000E-01  1.50000000E+00
  8.00000000E-01  8.00000000E-01  1.50000000E+00  8.00000000E-01  8.00000000E-01
  1.50000000E+00  8.00000000E-01  8.00000000E-01  1.50000000E+00  8.00000000E-01
  8.00000000E-01  1.50000000E+00  8.00000000E-01  8.00000000E-01  1.50000000E+00
  8.00000000E-01  8.00000000E-01  1.50000000E+00  8.00000000E-01  8.00000000E-01
  1.50000000E+00  8.00000000E-01  8.00000000E-01  1.50000000E+00  8.00000000E-01
  8.00000000E-01  1.50000000E+00  8.00000000E-01  8.00000000E-01  1.50000000E+00
  8.00000000E-01  8.00000000E-01  1.50000000E+00  8.00000000E-01  8.00000000E-01
  1.50000000E+00  8.00000000E-01  8.00000000E-01  1.50000000E+00  8.00000000E-01
  8.00000000E-01  1.50000000E+00  8.00000000E-01  8.00000000E-01  1.50000000E+00
  8.00000000E-01  8.00000000E-01  1.50000000E+00  8.00000000E-01  8.00000000E-01
  1.50000000E+00  8.00000000E-01  8.00000000E-01  1.50000000E+00  8.00000000E-01
  8.00000000E-01  1.50000000E+00  8.00000000E-01  8.00000000E-01  1.50000000E+00
  8.00000000E-01  8.00000000E-01  1.50000000E+00  8.00000000E-01  8.00000000E-01
  1.50000000E+00  8.00000000E-01  8.00000000E-01  1.50000000E+00  8.00000000E-01
  8.00000000E-01  1.50000000E+00  8.00000000E-01  8.00000000E-01  1.50000000E+00
  8.00000000E-01  8.00000000E-01  1.50000000E+00  8.00000000E-01  8.00000000E-01
  1.50000000E+00  8.00000000E-01  8.00000000E-01  1.50000000E+00  8.00000000E-01
  8.00000000E-01  1.50000000E+00  8.00000000E-01  8.00000000E-01  1.50000000E+00
  8.00000000E-01  8.00000000E-01  1.50000000E+00  8.00000000E-01  8.00000000E-01
  1.50000000E+00  8.00000000E-01  8.00000000E-01  1.50000000E+00  8.00000000E-01
  8.00000000E-01  1.50000000E+00  8.00000000E-01  8.00000000E-01  1.50000000E+00
  8.00000000E-01  8.00000000E-01  1.50000000E+00  8.00000000E-01  8.00000000E-01
  1.50000000E+00  8.00000000E-01  8.00000000E-01  1.50000000E+00  8.00000000E-01
  8.00000000E-01  1.50000000E+00  8.00000000E-01  8.00000000E-01  1.50000000E+00
  8.00000000E-01  8.00000000E-01  1.50000000E+00  8.00000000E-01  8.00000000E-01
  1.50000000E+00  8.00000000E-01  8.00000000E-01  1.50000000E+00  8.00000000E-01
  8.00000000E-01  1.50000000E+00  8.00000000E-01  8.00000000E-01  1.50000000E+00
  8.00000000E-01  8.00000000E-01  1.50000000E+00  8.00000000E-01  8.00000000E-01
  1.50000000E+00  8.00000000E-01  8.00000000E-01  1.50000000E+00  8.00000000E-01
  8.00000000E-01  1.50000000E+00  8.00000000E-01  8.00000000E-01  1.50000000E+00
  8.00000000E-01  8.00000000E-01  1.50000000E+00  8.00000000E-01  8.00000000E-01
  1.50000000E+00  8.00000000E-01  8.00000000E-01  1.50000000E+00  8.00000000E-01
  8.00000000E-01  1.50000000E+00  8.00000000E-01  8.00000000E-01  1.50000000E+00
  8.00000000E-01  8.00000000E-01  1.50000000E+00  8.00000000E-01  8.00000000E-01
  1.50000000E+00  8.00000000E-01  8.00000000E-01  1.50000000E+00  8.00000000E-01
  8.00000000E-01  1.50000000E+00  8.00000000E-01  8.00000000E-01  1.50000000E+00
  8.00000000E-01  8.00000000E-01  1.50000000E+00  8.00000000E-01  8.00000000E-01
  1.50000000E+00  8.00000000E-01  8.00000000E-01  1.50000000E+00  8.00000000E-01
  8.00000000E-01  1.50000000E+00  8.00000000E-01  8.00000000E-01  1.50000000E+00
  8.00000000E-01  8.00000000E-01  1.50000000E+00  8.00000000E-01  8.00000000E-01
  1.50000000E+00  8.00000000E-01  8.00000000E-01  1.50000000E+00  8.00000000E-01
  8.00000000E-01  1.50000000E+00  8.00000000E-01  8.00000000E-01  1.50000000E+00
  8.00000000E-01  8.00000000E-01  1.50000000E+00  8.00000000E-01  8.00000000E-01
  1.50000000E+00  8.00000000E-01  8.00000000E-01  1.50000000E+00  8.00000000E-01
  8.00000000E-01  1.50000000E+00  8.00000000E-01  8.00000000E-01  1.50000000E+00
  8.00000000E-01  8.00000000E-01  1.50000000E+00  8.00000000E-01  8.00000000E-01
  1.50000000E+00  8.00000000E-01  8.00000000E-01  1.50000000E+00  8.00000000E-01
  8.00000000E-01  1.50000000E+00  8.00000000E-01  8.00000000E-01  1.50000000E+00
  8.00000000E-01  8.00000000E-01  1.50000000E+00  8.00000000E-01  8.00000000E-01
  1.50000000E+00  8.00000000E-01  8.00000000E-01  1.50000000E+00  8.00000000E-01
  8.00000000E-01  1.50000000E+00  8.00000000E-01  8.00000000E-01  1.50000000E+00
  8.00000000E-01  8.00000000E-01  1.50000000E+00  8.00000000E-01  8.00000000E-01
  1.50000000E+00  8.00000000E-01  8.00000000E-01  1.50000000E+00  8.00000000E-01
  8.00000000E-01  1.50000000E+00  8.00000000E-01  8.00000000E-01  1.50000000E+00
  8.00000000E-01  8.00000000E-01  1.50000000E+00  8.00000000E-01  8.00000000E-01
  1.50000000E+00  8.00000000E-01  8.00000000E-01  1.50000000E+00  8.00000000E-01
  8.00000000E-01  1.50000000E+00  8.00000000E-01  8.00000000E-01  1.50000000E+00
  8.00000000E-01  8.00000000E-01  1.50000000E+00  8.00000000E-01  8.00000000E-01
  1.50000000E+00  8.00000000E-01  8.00000000E-01  1.50000000E+00  8.00000000E-01
  8.00000000E-01  1.50000000E+00  8.00000000E-01  8.00000000E-01  1.50000000E+00
  8.00000000E-01  8.00000000E-01  1.50000000E+00  8.00000000E-01  8.00000000E-01
  1.50000000E+00  8.00000000E-01  8.00000000E-01  1.50000000E+00  8.00000000E-01
  8.00000000E-01  1.50000000E+00  8.00000000E-01  8.00000000E-01  1.50000000E+00
  8.00000000E-01  8.00000000E-01  1.50000000E+00  8.00000000E-01  8.00000000E-01
  1.50000000E+00  8.00000000E-01  8.00000000E-01  1.50000000E+00  8.00000000E-01
  8.00000000E-01  1.50000000E+00  8.00000000E-01  8.00000000E-01  1.50000000E+00
  8.00000000E-01  8.00000000E-01  1.50000000E+00  8.00000000E-01  8.00000000E-01
  1.50000000E+00  8.00000000E-01  8.00000000E-01  1.50000000E+00  8.00000000E-01
  8.00000000E-01  1.50000000E+00  8.00000000E-01  8.00000000E-01  1.50000000E+00
  8.00000000E-01  8.00000000E-01  1.50000000E+00  8.00000000E-01  8.00000000E-01
  1.50000000E+00  8.00000000E-01  8.00000000E-01  1.50000000E+00  8.00000000E-01
  8.00000000E-01  1.50000000E+00  8.00000000E-01  8.00000000E-01  1.50000000E+00
  8.00000000E-01  8.00000000E-01  1.50000000E+00  8.00000000E-01  8.00000000E-01
  1.50000000E+00  8.00000000E-01  8.00000000E-01  1.50000000E+00  8.00000000E-01
  8.00000000E-01  1.50000000E+00  8.00000000E-01  8.00000000E-01  1.50000000E+00
  8.00000000E-01  8.00000000E-01  1.50000000E+00  8.00000000E-01  8.00000000E-01
  1.50000000E+00  8.00000000E-01  8.00000000E-01  1.50000000E+00  8.00000000E-01
  8.00000000E-01  1.50000000E+00  8.00000000E-01  8.00000000E-01  1.50000000E+00
  8.00000000E-01  8.00000000E-01  1.50000000E+00  8.00000000E-01  8.00000000E-01
  1.50000000E+00  8.00000000E-01  8.00000000E-01  1.50000000E+00  8.00000000E-01
  8.00000000E-01  1.50000000E+00  8.00000000E-01  8.00000000E-01  1.50000000E+00
  8.00000000E-01  8.00000000E-01  1.50000000E+00  8.00000000E-01  8.00000000E-01
  1.50000000E+00  8.00000000E-01  8.00000000E-01  1.50000000E+00  8.00000000E-01
  8.00000000E-01  1.50000000E+00  8.00000000E-01  8.00000000E-01  1.50000000E+00
  8.00000000E-01  8.00000000E-01  1.50000000E+00  8.00000000E-01  8.00000000E-01
  1.50000000E+00  8.00000000E-01  8.00000000E-01  1.50000000E+00  8.00000000E-01
  8.00000000E-01  1.50000000E+00  8.00000000E-01  8.00000000E-01  1.50000000E+00
  8.00000000E-01  8.00000000E-01  1.50000000E+00  8.00000000E-01  8.00000000E-01
  1.50000000E+00  8.00000000E-01  8.00000000E-01  1.50000000E+00  8.00000000E-01
  8.00000000E-01  1.50000000E+00  8.00000000E-01  8.00000000E-01  1.50000000E+00
  8.00000000E-01  8.00000000E-01  1.50000000E+00  8.00000000E-01  8.00000000E-01
  1.50000000E+00  8.00000000E-01  8.00000000E-01  1.50000000E+00  8.00000000E-01
  8.00000000E-01  1.50000000E+00  8.00000000E-01  8.00000000E-01  1.50000000E+00
  8.00000000E-01  8.00000000E-01  1.50000000E+00  8.00000000E-01  8.00000000E-01
  1.50000000E+00  8.00000000E-01  8.00000000E-01  1.50000000E+00  8.00000000E-01
  8.00000000E-01  1.50000000E+00  8.00000000E-01  8.00000000E-01  1.50000000E+00
  8.00000000E-01  8.00000000E-01  1.50000000E+00  8.00000000E-01  8.00000000E-01
  1.50000000E+00  8.00000000E-01  8.00000000E-01  1.50000000E+00  8.00000000E-01
  8.00000000E-01  1.50000000E+00  8.00000000E-01  8.00000000E-01  1.50000000E+00
  8.00000000E-01  8.00000000E-01  1.50000000E+00  8.00000000E-01  8.00000000E-01
  1.50000000E+00  8.00000000E-01  8.00000000E-01  1.50000000E+00  8.00000000E-01
  8.00000000E-01  1.50000000E+00  8.00000000E-01  8.00000000E-01  1.50000000E+00
  8.00000000E-01  8.00000000E-01  1.50000000E+00  8.00000000E-01  8.00000000E-01
  1.50000000E+00  8.00000000E-01  8.00000000E-01  1.50000000E+00  8.00000000E-01
  8.00000000E-01  1.50000000E+00  8.00000000E-01  8.00000000E-01  1.50000000E+00
  8.00000000E-01  8.00000000E-01  1.50000000E+00  8.00000000E-01  8.00000000E-01
  1.50000000E+00  8.00000000E-01  8.00000000E-01  1.50000000E+00  8.00000000E-01
  8.00000000E-01  1.50000000E+00  8.00000000E-01  8.00000000E-01  1.50000000E+00
  8.00000000E-01  8.00000000E-01  1.50000000E+00  8.00000000E-01  8.00000000E-01
  1.50000000E+00  8.00000000E-01  8.00000000E-01  1.50000000E+00  8.00000000E-01
  8.00000000E-01  1.50000000E+00  8.00000000E-01  8.00000000E-01  1.50000000E+00
  8.00000000E-01  8.00000000E-01  1.50000000E+00  8.00000000E-01  8.00000000E-01
  1.50000000E+00  8.00000000E-01  8.00000000E-01  1.50000000E+00  8.00000000E-01
  8.00000000E-01  1.50000000E+00  8.00000000E-01  8.00000000E-01  1.50000000E+00
  8.00000000E-01  8.00000000E-01  1.50000000E+00  8.00000000E-01  8.00000000E-01
  1.50000000E+00  8.00000000E-01  8.00000000E-01  1.50000000E+00  8.00000000E-01
  8.00000000E-01  1.50000000E+00  8.00000000E-01  8.00000000E-01  1.50000000E+00
  8.00000000E-01  8.00000000E-01  1.50000000E+00  8.00000000E-01  8.00000000E-01
  1.50000000E+00  8.00000000E-01  8.00000000E-01  1.50000000E+00  8.00000000E-01
  8.00000000E-01  1.50000000E+00  8.00000000E-01  8.00000000E-01  1.50000000E+00
  8.00000000E-01  8.00000000E-01  1.50000000E+00  8.00000000E-01  8.00000000E-01
  1.50000000E+00  8.00000000E-01  8.00000000E-01  1.50000000E+00  8.00000000E-01
  8.00000000E-01  1.50000000E+00  8.00000000E-01  8.00000000E-01  1.50000000E+00
  8.00000000E-01  8.00000000E-01  1.50000000E+00  8.00000000E-01  8.00000000E-01
  1.50000000E+00  8.00000000E-01  8.00000000E-01  1.50000000E+00  8.00000000E-01
  8.00000000E-01  1.50000000E+00  8.00000000E-01  8.00000000E-01  1.50000000E+00
  8.00000000E-01  8.00000000E-01  1.50000000E+00  8.00000000E-01  8.00000000E-01
  1.50000000E+00  8.00000000E-01  8.00000000E-01  1.50000000E+00  8.00000000E-01
  8.00000000E-01  1.50000000E+00  8.00000000E-01  8.00000000E-01  1.50000000E+00
  8.00000000E-01  8.00000000E-01  1.50000000E+00  8.00000000E-01  8.00000000E-01
  1.50000000E+00  8.00000000E-01  8.00000000E-01  1.50000000E+00  8.00000000E-01
  8.00000000E-01  1.50000000E+00  8.00000000E-01  8.00000000E-01  1.50000000E+00
  8.00000000E-01  8.00000000E-01  1.50000000E+00  8.00000000E-01  8.00000000E-01
  1.50000000E+00  8.00000000E-01  8.00000000E-01  1.50000000E+00  8.00000000E-01
  8.00000000E-01  1.50000000E+00  8.00000000E-01  8.00000000E-01  1.50000000E+00
  8.00000000E-01  8.00000000E-01  1.50000000E+00  8.00000000E-01  8.00000000E-01
  1.50000000E+00  8.00000000E-01  8.00000000E-01  1.50000000E+00  8.00000000E-01
  8.00000000E-01  1.50000000E+00  8.00000000E-01  8.00000000E-01  1.50000000E+00
  8.00000000E-01  8.00000000E-01  1.50000000E+00  8.00000000E-01  8.00000000E-01
  1.50000000E+00  8.00000000E-01  8.00000000E-01  1.50000000E+00  8.00000000E-01
  8.00000000E-01  1.50000000E+00  8.00000000E-01  8.00000000E-01  1.50000000E+00
  8.00000000E-01  8.00000000E-01  1.50000000E+00  8.00000000E-01  8.00000000E-01
  1.50000000E+00  8.00000000E-01  8.00000000E-01  1.50000000E+00  8.00000000E-01
  8.00000000E-01  1.50000000E+00  8.00000000E-01  8.00000000E-01  1.50000000E+00
  8.00000000E-01  8.00000000E-01  1.50000000E+00  8.00000000E-01  8.00000000E-01
  1.50000000E+00  8.00000000E-01  8.00000000E-01  1.50000000E+00  8.00000000E-01
  8.00000000E-01  1.50000000E+00  8.00000000E-01  8.00000000E-01  1.50000000E+00
  8.00000000E-01  8.00000000E-01  1.50000000E+00  8.00000000E-01  8.00000000E-01
  1.50000000E+00  8.00000000E-01  8.00000000E-01  1.50000000E+00  8.00000000E-01
  8.00000000E-01  1.50000000E+00  8.00000000E-01  8.00000000E-01  1.50000000E+00
  8.00000000E-01  8.00000000E-01  1.50000000E+00  8.00000000E-01  8.00000000E-01
  1.50000000E+00  8.00000000E-01  8.00000000E-01  1.50000000E+00  8.00000000E-01
  8.00000000E-01  1.50000000E+00  8.00000000E-01  8.00000000E-01  1.50000000E+00
  8.00000000E-01  8.00000000E-01  1.50000000E+00  8.00000000E-01  8.00000000E-01
  1.50000000E+00  8.00000000E-01  8.00000000E-01  1.50000000E+00  8.00000000E-01
  8.00000000E-01  1.50000000E+00  8.00000000E-01  8.00000000E-01  1.50000000E+00
  8.00000000E-01  8.00000000E-01  1.50000000E+00  8.00000000E-01  8.00000000E-01
  1.50000000E+00  8.00000000E-01  8.00000000E-01  1.50000000E+00  8.00000000E-01
  8.00000000E-01  1.50000000E+00  8.00000000E-01  8.00000000E-01  1.50000000E+00
  8.00000000E-01  8.00000000E-01  1.50000000E+00  8.00000000E-01  8.00000000E-01
  1.50000000E+00  8.00000000E-01  8.00000000E-01  1.50000000E+00  8.00000000E-01
  8.00000000E-01  1.50000000E+00  8.00000000E-01  8.00000000E-01  1.50000000E+00
  8.00000000E-01  8.00000000E-01  1.50000000E+00  8.00000000E-01  8.00000000E-01
  1.50000000E+00  8.00000000E-01  8.00000000E-01  1.50000000E+00  8.00000000E-01
  8.00000000E-01  1.50000000E+00  8.00000000E-01  8.00000000E-01  1.50000000E+00
  8.00000000E-01  8.00000000E-01  1.50000000E+00  8.00000000E-01  8.00000000E-01
  1.50000000E+00  8.00000000E-01  8.00000000E-01  1.50000000E+00  8.00000000E-01
  8.00000000E-01  1.50000000E+00  8.00000000E-01  8.00000000E-01  1.50000000E+00
  8.00000000E-01  8.00000000E-01  1.50000000E+00  8.00000000E-01  8.00000000E-01
  1.50000000E+00  8.00000000E-01  8.00000000E-01  1.50000000E+00  8.00000000E-01
  8.00000000E-01  1.50000000E+00  8.00000000E-01  8.00000000E-01  1.50000000E+00
  8.00000000E-01  8.00000000E-01  1.50000000E+00  8.00000000E-01  8.00000000E-01
  1.50000000E+00  8.00000000E-01  8.00000000E-01  1.50000000E+00  8.00000000E-01
  8.00000000E-01  1.50000000E+00  8.00000000E-01  8.00000000E-01  1.50000000E+00
  8.00000000E-01  8.00000000E-01  1.50000000E+00  8.00000000E-01  8.00000000E-01
  1.50000000E+00  8.00000000E-01  8.00000000E-01  1.50000000E+00  8.00000000E-01
  8.00000000E-01  1.50000000E+00  8.00000000E-01  8.00000000E-01  1.50000000E+00
  8.00000000E-01  8.00000000E-01  1.50000000E+00  8.00000000E-01  8.00000000E-01
  1.50000000E+00  8.00000000E-01  8.00000000E-01  1.50000000E+00  8.00000000E-01
  8.00000000E-01  1.50000000E+00  8.00000000E-01  8.00000000E-01  1.50000000E+00
  8.00000000E-01  8.00000000E-01  1.50000000E+00  8.00000000E-01  8.00000000E-01
  1.50000000E+00  8.00000000E-01  8.00000000E-01  1.50000000E+00  8.00000000E-01
  8.00000000E-01  1.50000000E+00  8.00000000E-01  8.00000000E-01  1.50000000E+00
  8.00000000E-01  8.00000000E-01  1.50000000E+00  8.00000000E-01  8.00000000E-01
  1.50000000E+00  8.00000000E-01  8.00000000E-01  1.50000000E+00  8.00000000E-01
  8.00000000E-01  1.50000000E+00  8.00000000E-01  8.00000000E-01  1.50000000E+00
  8.00000000E-01  8.00000000E-01  1.50000000E+00  8.00000000E-01  8.00000000E-01
  1.50000000E+00  8.00000000E-01  8.00000000E-01  1.50000000E+00  8.00000000E-01
  8.00000000E-01  1.50000000E+00  8.00000000E-01  8.00000000E-01  1.50000000E+00
  8.00000000E-01  8.00000000E-01  1.50000000E+00  8.00000000E-01  8.00000000E-01
  1.50000000E+00  8.00000000E-01  8.00000000E-01  1.50000000E+00  8.00000000E-01
  8.00000000E-01  1.50000000E+00  8.00000000E-01  8.00000000E-01  1.50000000E+00
  8.00000000E-01  8.00000000E-01  1.50000000E+00  8.00000000E-01  8.00000000E-01
  1.50000000E+00  8.00000000E-01  8.00000000E-01  1.50000000E+00  8.00000000E-01
  8.00000000E-01  1.50000000E+00  8.00000000E-01  8.00000000E-01  1.50000000E+00
  8.00000000E-01  8.00000000E-01  1.50000000E+00  8.00000000E-01  8.00000000E-01
  1.50000000E+00  8.00000000E-01  8.00000000E-01  1.50000000E+00  8.00000000E-01
  8.00000000E-01  1.50000000E+00  8.00000000E-01  8.00000000E-01  1.50000000E+00
  8.00000000E-01  8.00000000E-01  1.50000000E+00  8.00000000E-01  8.00000000E-01
  1.50000000E+00  8.00000000E-01  8.00000000E-01  1.50000000E+00  8.00000000E-01
  8.00000000E-01  1.50000000E+00  8.00000000E-01  8.00000000E-01  1.50000000E+00
  8.00000000E-01  8.00000000E-01  1.50000000E+00  8.00000000E-01  8.00000000E-01
  1.50000000E+00  8.00000000E-01  8.00000000E-01  1.50000000E+00  8.00000000E-01
  8.00000000E-01  1.50000000E+00  8.00000000E-01  8.00000000E-01  1.50000000E+00
  8.00000000E-01  8.00000000E-01  1.50000000E+00  8.00000000E-01  8.00000000E-01
  1.50000000E+00  8.00000000E-01  8.00000000E-01  1.50000000E+00  8.00000000E-01
  8.00000000E-01  1.50000000E+00  8.00000000E-01  8.00000000E-01  1.50000000E+00
  8.00000000E-01  8.00000000E-01  1.50000000E+00  8.00000000E-01  8.00000000E-01
  1.50000000E+00  8.00000000E-01  8.00000000E-01  1.50000000E+00  8.00000000E-01
  8.00000000E-01  1.50000000E+00  8.00000000E-01  8.00000000E-01  1.50000000E+00
  8.00000000E-01  8.00000000E-01  1.50000000E+00  8.00000000E-01  8.00000000E-01
  1.50000000E+00  8.00000000E-01  8.00000000E-01  1.50000000E+00  8.00000000E-01
  8.00000000E-01  1.50000000E+00  8.00000000E-01  8.00000000E-01  1.50000000E+00
  8.00000000E-01  8.00000000E-01  1.50000000E+00  8.00000000E-01  8.00000000E-01
  1.50000000E+00  8.00000000E-01  8.00000000E-01  1.50000000E+00  8.00000000E-01
  8.00000000E-01  1.50000000E+00  8.00000000E-01  8.00000000E-01  1.50000000E+00
  8.00000000E-01  8.00000000E-01  1.50000000E+00  8.00000000E-01  8.00000000E-01
  1.50000000E+00  8.00000000E-01  8.00000000E-01  1.50000000E+00  8.00000000E-01
  8.00000000E-01  1.50000000E+00  8.00000000E-01  8.00000000E-01  1.50000000E+00
  8.00000000E-01  8.00000000E-01  1.50000000E+00  8.00000000E-01  8.00000000E-01
  1.50000000E+00  8.00000000E-01  8.00000000E-01  1.50000000E+00  8.00000000E-01
  8.00000000E-01  1.50000000E+00  8.00000000E-01  8.00000000E-01  1.50000000E+00
  8.00000000E-01  8.00000000E-01  1.50000000E+00  8.00000000E-01  8.00000000E-01
  1.50000000E+00  8.00000000E-01  8.00000000E-01  1.50000000E+00  8.00000000E-01
  8.00000000E-01  1.50000000E+00  8.00000000E-01  8.00000000E-01  1.50000000E+00
  8.00000000E-01  8.00000000E-01  1.50000000E+00  8.00000000E-01  8.00000000E-01
  1.50000000E+00  8.00000000E-01  8.00000000E-01  1.50000000E+00  8.00000000E-01
  8.00000000E-01  1.50000000E+00  8.00000000E-01  8.00000000E-01  1.50000000E+00
  8.00000000E-01  8.00000000E-01  1.50000000E+00  8.00000000E-01  8.00000000E-01
  1.50000000E+00  8.00000000E-01  8.00000000E-01  1.50000000E+00  8.00000000E-01
  8.00000000E-01  1.50000000E+00  8.00000000E-01  8.00000000E-01  1.50000000E+00
  8.00000000E-01  8.00000000E-01  1.50000000E+00  8.00000000E-01  8.00000000E-01
  1.50000000E+00  8.00000000E-01  8.00000000E-01  1.50000000E+00  8.00000000E-01
  8.00000000E-01  1.50000000E+00  8.00000000E-01  8.00000000E-01  1.50000000E+00
  8.00000000E-01  8.00000000E-01  1.50000000E+00  8.00000000E-01  8.00000000E-01
  1.50000000E+00  8.00000000E-01  8.00000000E-01  1.50000000E+00  8.00000000E-01
  8.00000000E-01  1.50000000E+00  8.00000000E-01  8.00000000E-01  1.50000000E+00
  8.00000000E-01  8.00000000E-01  1.50000000E+00  8.00000000E-01  8.00000000E-01
  1.50000000E+00  8.00000000E-01  8.00000000E-01  1.50000000E+00  8.00000000E-01
  8.00000000E-01  1.50000000E+00  8.00000000E-01  8.00000000E-01  1.50000000E+00
  8.00000000E-01  8.00000000E-01  1.50000000E+00  8.00000000E-01  8.00000000E-01
  1.50000000E+00  8.00000000E-01  8.00000000E-01  1.50000000E+00  8.00000000E-01
  8.00000000E-01  1.50000000E+00  8.00000000E-01  8.00000000E-01  1.50000000E+00
  8.00000000E-01  8.00000000E-01  1.50000000E+00  8.00000000E-01  8.00000000E-01
  1.50000000E+00  8.00000000E-01  8.00000000E-01  1.50000000E+00  8.00000000E-01
  8.00000000E-01  1.50000000E+00  8.00000000E-01  8.00000000E-01  1.50000000E+00
  8.00000000E-01  8.00000000E-01  1.50000000E+00  8.00000000E-01  8.00000000E-01
  1.50000000E+00  8.00000000E-01  8.00000000E-01  1.50000000E+00  8.00000000E-01
  8.00000000E-01  1.50000000E+00  8.00000000E-01  8.00000000E-01  1.50000000E+00
  8.00000000E-01  8.00000000E-01  1.50000000E+00  8.00000000E-01  8.00000000E-01
  1.50000000E+00  8.00000000E-01  8.00000000E-01  1.50000000E+00  8.00000000E-01
  8.00000000E-01  1.50000000E+00  8.00000000E-01  8.00000000E-01  1.50000000E+00
  8.00000000E-01  8.00000000E-01  1.50000000E+00  8.00000000E-01  8.00000000E-01
  1.50000000E+00  8.00000000E-01  8.00000000E-01  1.50000000E+00  8.00000000E-01
  8.00000000E-01  1.50000000E+00  8.00000000E-01  8.00000000E-01  1.50000000E+00
  8.00000000E-01  8.00000000E-01  1.50000000E+00  8.00000000E-01  8.00000000E-01
  1.50000000E+00  8.00000000E-01  8.00000000E-01  1.50000000E+00  8.00000000E-01
  8.00000000E-01  1.50000000E+00  8.00000000E-01  8.00000000E-01  1.50000000E+00
  8.00000000E-01  8.00000000E-01  1.50000000E+00  8.00000000E-01  8.00000000E-01
  1.50000000E+00  8.00000000E-01  8.00000000E-01  1.50000000E+00  8.00000000E-01
  8.00000000E-01  1.50000000E+00  8.00000000E-01  8.00000000E-01  1.50000000E+00
  8.00000000E-01  8.00000000E-01  1.50000000E+00  8.00000000E-01  8.00000000E-01
  1.50000000E+00  8.00000000E-01  8.00000000E-01  1.50000000E+00  8.00000000E-01
  8.00000000E-01  1.50000000E+00  8.00000000E-01  8.00000000E-01  1.50000000E+00
  8.00000000E-01  8.00000000E-01  1.50000000E+00  8.00000000E-01  8.00000000E-01
  1.50000000E+00  8.00000000E-01  8.00000000E-01  1.50000000E+00  8.00000000E-01
  8.00000000E-01  1.50000000E+00  8.00000000E-01  8.00000000E-01  1.50000000E+00
  8.00000000E-01  8.00000000E-01  1.50000000E+00  8.00000000E-01  8.00000000E-01
  1.50000000E+00  8.00000000E-01  8.00000000E-01  1.50000000E+00  8.00000000E-01
  8.00000000E-01  1.50000000E+00  8.00000000E-01  8.00000000E-01  1.50000000E+00
  8.00000000E-01  8.00000000E-01  1.50000000E+00  8.00000000E-01  8.00000000E-01
  1.50000000E+00  8.00000000E-01  8.00000000E-01  1.50000000E+00  8.00000000E-01
  8.00000000E-01  1.50000000E+00  8.00000000E-01  8.00000000E-01  1.50000000E+00
  8.00000000E-01  8.00000000E-01  1.50000000E+00  8.00000000E-01  8.00000000E-01
  1.50000000E+00  8.00000000E-01  8.00000000E-01  1.50000000E+00  8.00000000E-01
  8.00000000E-01  1.50000000E+00  8.00000000E-01  8.00000000E-01  1.50000000E+00
  8.00000000E-01  8.00000000E-01  1.50000000E+00  8.00000000E-01  8.00000000E-01
  1.50000000E+00  8.00000000E-01  8.00000000E-01  1.50000000E+00  8.00000000E-01
  8.00000000E-01  1.50000000E+00  8.00000000E-01  8.00000000E-01  1.50000000E+00
  8.00000000E-01  8.00000000E-01  1.50000000E+00  8.00000000E-01  8.00000000E-01
  1.50000000E+00  8.00000000E-01  8.00000000E-01  1.50000000E+00  8.00000000E-01
  8.00000000E-01  1.50000000E+00  8.00000000E-01  8.00000000E-01  1.50000000E+00
  8.00000000E-01  8.00000000E-01  1.50000000E+00  8.00000000E-01  8.00000000E-01
  1.50000000E+00  8.00000000E-01  8.00000000E-01  1.50000000E+00  8.00000000E-01
  8.00000000E-01  1.50000000E+00  8.00000000E-01  8.00000000E-01  1.50000000E+00
  8.00000000E-01  8.00000000E-01  1.50000000E+00  8.00000000E-01  8.00000000E-01
  1.50000000E+00  8.00000000E-01  8.00000000E-01  1.50000000E+00  8.00000000E-01
  8.00000000E-01  1.50000000E+00  8.00000000E-01  8.00000000E-01  1.50000000E+00
  8.00000000E-01  8.00000000E-01  1.50000000E+00  8.00000000E-01  8.00000000E-01
  1.50000000E+00  8.00000000E-01  8.00000000E-01  1.50000000E+00  8.00000000E-01
  8.00000000E-01  1.50000000E+00  8.00000000E-01  8.00000000E-01  1.50000000E+00
  8.00000000E-01  8.00000000E-01  1.50000000E+00  8.00000000E-01  8.00000000E-01
  1.50000000E+00  8.00000000E-01  8.00000000E-01  1.50000000E+00  8.00000000E-01
  8.00000000E-01  1.50000000E+00  8.00000000E-01  8.00000000E-01  1.50000000E+00
  8.00000000E-01  8.00000000E-01  1.50000000E+00  8.00000000E-01  8.00000000E-01
  1.50000000E+00  8.00000000E-01  8.00000000E-01  1.50000000E+00  8.00000000E-01
  8.00000000E-01  1.50000000E+00  8.00000000E-01  8.00000000E-01  1.50000000E+00
  8.00000000E-01  8.00000000E-01  1.50000000E+00  8.00000000E-01  8.00000000E-01
  1.50000000E+00  8.00000000E-01  8.00000000E-01  1.50000000E+00  8.00000000E-01
  8.00000000E-01  1.50000000E+00  8.00000000E-01  8.00000000E-01  1.50000000E+00
  8.00000000E-01  8.00000000E-01  1.50000000E+00  8.00000000E-01  8.00000000E-01
  1.50000000E+00  8.00000000E-01  8.00000000E-01  1.50000000E+00  8.00000000E-01
  8.00000000E-01  1.50000000E+00  8.00000000E-01  8.00000000E-01  1.50000000E+00
  8.00000000E-01  8.00000000E-01  1.50000000E+00  8.00000000E-01  8.00000000E-01
  1.50000000E+00  8.00000000E-01  8.00000000E-01  1.50000000E+00  8.00000000E-01
  8.00000000E-01  1.50000000E+00  8.00000000E-01  8.00000000E-01  1.50000000E+00
  8.00000000E-01  8.00000000E-01  1.50000000E+00  8.00000000E-01  8.00000000E-01
  1.50000000E+00  8.00000000E-01  8.00000000E-01  1.50000000E+00  8.00000000E-01
  8.00000000E-01  1.50000000E+00  8.00000000E-01  8.00000000E-01  1.50000000E+00
  8.00000000E-01  8.00000000E-01  1.50000000E+00  8.00000000E-01  8.00000000E-01
  1.50000000E+00  8.00000000E-01  8.00000000E-01  1.50000000E+00  8.00000000E-01
  8.00000000E-01  1.50000000E+00  8.00000000E-01  8.00000000E-01  1.50000000E+00
  8.00000000E-01  8.00000000E-01  1.50000000E+00  8.00000000E-01  8.00000000E-01
  1.50000000E+00  8.00000000E-01  8.00000000E-01  1.50000000E+00  8.00000000E-01
  8.00000000E-01  1.50000000E+00  8.00000000E-01  8.00000000E-01  1.50000000E+00
  8.00000000E-01  8.00000000E-01  1.50000000E+00  8.00000000E-01  8.00000000E-01
  1.50000000E+00  8.00000000E-01  8.00000000E-01  1.50000000E+00  8.00000000E-01
  8.00000000E-01  1.50000000E+00  8.00000000E-01  8.00000000E-01  1.50000000E+00
  8.00000000E-01  8.00000000E-01  1.50000000E+00  8.00000000E-01  8.00000000E-01
  1.50000000E+00  8.00000000E-01  8.00000000E-01  1.50000000E+00  8.00000000E-01
  8.00000000E-01  1.50000000E+00  8.00000000E-01  8.00000000E-01  1.50000000E+00
  8.00000000E-01  8.00000000E-01  1.50000000E+00  8.00000000E-01  8.00000000E-01
  1.50000000E+00  8.00000000E-01  8.00000000E-01  1.50000000E+00  8.00000000E-01
  8.00000000E-01  1.50000000E+00  8.00000000E-01  8.00000000E-01  1.50000000E+00
  8.00000000E-01  8.00000000E-01  1.50000000E+00  8.00000000E-01  8.00000000E-01
  1.50000000E+00  8.00000000E-01  8.00000000E-01  1.50000000E+00  8.00000000E-01
  8.00000000E-01  1.50000000E+00  8.00000000E-01  8.00000000E-01  1.50000000E+00
  8.00000000E-01  8.00000000E-01  1.50000000E+00  8.00000000E-01  8.00000000E-01
  1.50000000E+00  8.00000000E-01  8.00000000E-01  1.50000000E+00  8.00000000E-01
  8.00000000E-01  1.50000000E+00  8.00000000E-01  8.00000000E-01  1.50000000E+00
  8.00000000E-01  8.00000000E-01  1.50000000E+00  8.00000000E-01  8.00000000E-01
  1.50000000E+00  8.00000000E-01  8.00000000E-01  1.50000000E+00  8.00000000E-01
  8.00000000E-01  1.50000000E+00  8.00000000E-01  8.00000000E-01  1.50000000E+00
  8.00000000E-01  8.00000000E-01  1.50000000E+00  8.00000000E-01  8.00000000E-01
  1.50000000E+00  8.00000000E-01  8.00000000E-01  1.50000000E+00  8.00000000E-01
  8.00000000E-01  1.50000000E+00  8.00000000E-01  8.00000000E-01  1.50000000E+00
  8.00000000E-01  8.00000000E-01  1.50000000E+00  8.00000000E-01  8.00000000E-01
  1.50000000E+00  8.00000000E-01  8.00000000E-01  1.50000000E+00  8.00000000E-01
  8.00000000E-01  1.50000000E+00  8.00000000E-01  8.00000000E-01  1.50000000E+00
  8.00000000E-01  8.00000000E-01  1.50000000E+00  8.00000000E-01  8.00000000E-01
  1.50000000E+00  8.00000000E-01  8.00000000E-01  1.50000000E+00  8.00000000E-01
  8.00000000E-01  1.50000000E+00  8.00000000E-01  8.00000000E-01  1.50000000E+00
  8.00000000E-01  8.00000000E-01  1.50000000E+00  8.00000000E-01  8.00000000E-01
  1.50000000E+00  8.00000000E-01  8.00000000E-01  1.50000000E+00  8.00000000E-01
  8.00000000E-01  1.50000000E+00  8.00000000E-01  8.00000000E-01  1.50000000E+00
  8.00000000E-01  8.00000000E-01  1.50000000E+00  8.00000000E-01  8.00000000E-01
  1.50000000E+00  8.00000000E-01  8.00000000E-01  1.50000000E+00  8.00000000E-01
  8.00000000E-01  1.50000000E+00  8.00000000E-01  8.00000000E-01  1.50000000E+00
  8.00000000E-01  8.00000000E-01  1.50000000E+00  8.00000000E-01  8.00000000E-01
  1.50000000E+00  8.00000000E-01  8.00000000E-01  1.50000000E+00  8.00000000E-01
  8.00000000E-01  1.50000000E+00  8.00000000E-01  8.00000000E-01  1.50000000E+00
  8.00000000E-01  8.00000000E-01  1.50000000E+00  8.00000000E-01  8.00000000E-01
  1.50000000E+00  8.00000000E-01  8.00000000E-01  1.50000000E+00  8.00000000E-01
  8.00000000E-01  1.50000000E+00  8.00000000E-01  8.00000000E-01  1.50000000E+00
  8.00000000E-01  8.00000000E-01  1.50000000E+00  8.00000000E-01  8.00000000E-01
  1.50000000E+00  8.00000000E-01  8.00000000E-01  1.50000000E+00  8.00000000E-01
  8.00000000E-01  1.50000000E+00  8.00000000E-01  8.00000000E-01  1.50000000E+00
  8.00000000E-01  8.00000000E-01  1.50000000E+00  8.00000000E-01  8.00000000E-01
  1.50000000E+00  8.00000000E-01  8.00000000E-01  1.50000000E+00  8.00000000E-01
  8.00000000E-01  1.50000000E+00  8.00000000E-01  8.00000000E-01  1.50000000E+00
  8.00000000E-01  8.00000000E-01  1.50000000E+00  8.00000000E-01  8.00000000E-01
  1.50000000E+00  8.00000000E-01  8.00000000E-01  1.50000000E+00  8.00000000E-01
  8.00000000E-01  1.50000000E+00  8.00000000E-01  8.00000000E-01  1.50000000E+00
  8.00000000E-01  8.00000000E-01  1.50000000E+00  8.00000000E-01  8.00000000E-01
  1.50000000E+00  8.00000000E-01  8.00000000E-01  1.50000000E+00  8.00000000E-01
  8.00000000E-01  1.50000000E+00  8.00000000E-01  8.00000000E-01  1.50000000E+00
  8.00000000E-01  8.00000000E-01  1.50000000E+00  8.00000000E-01  8.00000000E-01
  1.50000000E+00  8.00000000E-01  8.00000000E-01  1.50000000E+00  8.00000000E-01
  8.00000000E-01  1.50000000E+00  8.00000000E-01  8.00000000E-01  1.50000000E+00
  8.00000000E-01  8.00000000E-01  1.50000000E+00  8.00000000E-01  8.00000000E-01
  1.50000000E+00  8.00000000E-01  8.00000000E-01  1.50000000E+00  8.00000000E-01
  8.00000000E-01  1.50000000E+00  8.00000000E-01  8.00000000E-01  1.50000000E+00
  8.00000000E-01  8.00000000E-01  1.50000000E+00  8.00000000E-01  8.00000000E-01
  1.50000000E+00  8.00000000E-01  8.00000000E-01  1.50000000E+00  8.00000000E-01
  8.00000000E-01  1.50000000E+00  8.00000000E-01  8.00000000E-01  1.50000000E+00
  8.00000000E-01  8.00000000E-01  1.50000000E+00  8.00000000E-01  8.00000000E-01
  1.50000000E+00  8.00000000E-01  8.00000000E-01  1.50000000E+00  8.00000000E-01
  8.00000000E-01  1.50000000E+00  8.00000000E-01  8.00000000E-01  1.50000000E+00
  8.00000000E-01  8.00000000E-01  1.50000000E+00  8.00000000E-01  8.00000000E-01
  1.50000000E+00  8.00000000E-01  8.00000000E-01  1.50000000E+00  8.00000000E-01
  8.00000000E-01  1.50000000E+00  8.00000000E-01  8.00000000E-01  1.50000000E+00
  8.00000000E-01  8.00000000E-01  1.50000000E+00  8.00000000E-01  8.00000000E-01
  1.50000000E+00  8.00000000E-01  8.00000000E-01  1.50000000E+00  8.00000000E-01
  8.00000000E-01  1.50000000E+00  8.00000000E-01  8.00000000E-01  1.50000000E+00
  8.00000000E-01  8.00000000E-01  1.50000000E+00  8.00000000E-01  8.00000000E-01
  1.50000000E+00  8.00000000E-01  8.00000000E-01  1.50000000E+00  8.00000000E-01
  8.00000000E-01  1.50000000E+00  8.00000000E-01  8.00000000E-01  1.50000000E+00
  8.00000000E-01  8.00000000E-01  1.50000000E+00  8.00000000E-01  8.00000000E-01
  1.50000000E+00  8.00000000E-01  8.00000000E-01  1.50000000E+00  8.00000000E-01
  8.00000000E-01  1.50000000E+00  8.00000000E-01  8.00000000E-01  1.50000000E+00
  8.00000000E-01  8.00000000E-01  1.50000000E+00  8.00000000E-01  8.00000000E-01
  1.50000000E+00  8.00000000E-01  8.00000000E-01  1.50000000E+00  8.00000000E-01
  8.00000000E-01  1.50000000E+00  8.00000000E-01  8.00000000E-01  1.50000000E+00
  8.00000000E-01  8.00000000E-01  1.50000000E+00  8.00000000E-01  8.00000000E-01
  1.50000000E+00  8.00000000E-01  8.00000000E-01  1.50000000E+00  8.00000000E-01
  8.00000000E-01  1.50000000E+00  8.00000000E-01  8.00000000E-01  1.50000000E+00
  8.00000000E-01  8.00000000E-01  1.50000000E+00  8.00000000E-01  8.00000000E-01
  1.50000000E+00  8.00000000E-01  8.00000000E-01  1.50000000E+00  8.00000000E-01
  8.00000000E-01  1.50000000E+00  8.00000000E-01  8.00000000E-01  1.50000000E+00
  8.00000000E-01  8.00000000E-01  1.50000000E+00  8.00000000E-01  8.00000000E-01
  1.50000000E+00  8.00000000E-01  8.00000000E-01  1.50000000E+00  8.00000000E-01
  8.00000000E-01  1.50000000E+00  8.00000000E-01  8.00000000E-01  1.50000000E+00
  8.00000000E-01  8.00000000E-01  1.50000000E+00  8.00000000E-01  8.00000000E-01
  1.50000000E+00  8.00000000E-01  8.00000000E-01  1.50000000E+00  8.00000000E-01
  8.00000000E-01  1.50000000E+00  8.00000000E-01  8.00000000E-01  1.50000000E+00
  8.00000000E-01  8.00000000E-01  1.50000000E+00  8.00000000E-01  8.00000000E-01
  1.50000000E+00  8.00000000E-01  8.00000000E-01  1.50000000E+00  8.00000000E-01
  8.00000000E-01  1.50000000E+00  8.00000000E-01  8.00000000E-01  1.50000000E+00
  8.00000000E-01  8.00000000E-01  1.50000000E+00  8.00000000E-01  8.00000000E-01
  1.50000000E+00  8.00000000E-01  8.00000000E-01  1.50000000E+00  8.00000000E-01
  8.00000000E-01  1.50000000E+00  8.00000000E-01  8.00000000E-01  1.50000000E+00
  8.00000000E-01  8.00000000E-01  1.50000000E+00  8.00000000E-01  8.00000000E-01
  1.50000000E+00  8.00000000E-01  8.00000000E-01  1.50000000E+00  8.00000000E-01
  8.00000000E-01  1.50000000E+00  8.00000000E-01  8.00000000E-01  1.50000000E+00
  8.00000000E-01  8.00000000E-01  1.50000000E+00  8.00000000E-01  8.00000000E-01
  1.50000000E+00  8.00000000E-01  8.00000000E-01  1.50000000E+00  8.00000000E-01
  8.00000000E-01  1.50000000E+00  8.00000000E-01  8.00000000E-01  1.50000000E+00
  8.00000000E-01  8.00000000E-01  1.50000000E+00  8.00000000E-01  8.00000000E-01
  1.50000000E+00  8.00000000E-01  8.00000000E-01  1.50000000E+00  8.00000000E-01
  8.00000000E-01  1.50000000E+00  8.00000000E-01  8.00000000E-01  1.50000000E+00
  8.00000000E-01  8.00000000E-01  1.50000000E+00  8.00000000E-01  8.00000000E-01
  1.50000000E+00  8.00000000E-01  8.00000000E-01  1.50000000E+00  8.00000000E-01
  8.00000000E-01  1.50000000E+00  8.00000000E-01  8.00000000E-01  1.50000000E+00
  8.00000000E-01  8.00000000E-01  1.50000000E+00  8.00000000E-01  8.00000000E-01
  1.50000000E+00  8.00000000E-01  8.00000000E-01  1.50000000E+00  8.00000000E-01
  8.00000000E-01  1.50000000E+00  8.00000000E-01  8.00000000E-01  1.50000000E+00
  8.00000000E-01  8.00000000E-01  1.50000000E+00  8.00000000E-01  8.00000000E-01
  1.50000000E+00  8.00000000E-01  8.00000000E-01  1.50000000E+00  8.00000000E-01
  8.00000000E-01  1.50000000E+00  8.00000000E-01  8.00000000E-01  1.50000000E+00
  8.00000000E-01  8.00000000E-01  1.50000000E+00  8.00000000E-01  8.00000000E-01
  1.50000000E+00  8.00000000E-01  8.00000000E-01  1.50000000E+00  8.00000000E-01
  8.00000000E-01  1.50000000E+00  8.00000000E-01  8.00000000E-01  1.50000000E+00
  8.00000000E-01  8.00000000E-01  1.50000000E+00  8.00000000E-01  8.00000000E-01
  1.50000000E+00  8.00000000E-01  8.00000000E-01  1.50000000E+00  8.00000000E-01
  8.00000000E-01  1.50000000E+00  8.00000000E-01  8.00000000E-01  1.50000000E+00
  8.00000000E-01  8.00000000E-01  1.50000000E+00  8.00000000E-01  8.00000000E-01
  1.50000000E+00  8.00000000E-01  8.00000000E-01  1.50000000E+00  8.00000000E-01
  8.00000000E-01  1.50000000E+00  8.00000000E-01  8.00000000E-01  1.50000000E+00
  8.00000000E-01  8.00000000E-01  1.50000000E+00  8.00000000E-01  8.00000000E-01
  1.50000000E+00  8.00000000E-01  8.00000000E-01  1.50000000E+00  8.00000000E-01
  8.00000000E-01  1.50000000E+00  8.00000000E-01  8.00000000E-01  1.50000000E+00
  8.00000000E-01  8.00000000E-01  1.50000000E+00  8.00000000E-01  8.00000000E-01
  1.50000000E+00  8.00000000E-01  8.00000000E-01  1.50000000E+00  8.00000000E-01
  8.00000000E-01  1.50000000E+00  8.00000000E-01  8.00000000E-01  1.50000000E+00
  8.00000000E-01  8.00000000E-01  1.50000000E+00  8.00000000E-01  8.00000000E-01
  1.50000000E+00  8.00000000E-01  8.00000000E-01  1.50000000E+00  8.00000000E-01
  8.00000000E-01  1.50000000E+00  8.00000000E-01  8.00000000E-01  1.50000000E+00
  8.00000000E-01  8.00000000E-01  1.50000000E+00  8.00000000E-01  8.00000000E-01
  1.50000000E+00  8.00000000E-01  8.00000000E-01  1.50000000E+00  8.00000000E-01
  8.00000000E-01  1.50000000E+00  8.00000000E-01  8.00000000E-01  1.50000000E+00
  8.00000000E-01  8.00000000E-01  1.50000000E+00  8.00000000E-01  8.00000000E-01
  1.50000000E+00  8.00000000E-01  8.00000000E-01  1.50000000E+00  8.00000000E-01
  8.00000000E-01  1.50000000E+00  8.00000000E-01  8.00000000E-01  1.50000000E+00
  8.00000000E-01  8.00000000E-01  1.50000000E+00  8.00000000E-01  8.00000000E-01
  1.50000000E+00  8.00000000E-01  8.00000000E-01  1.50000000E+00  8.00000000E-01
  8.00000000E-01  1.50000000E+00  8.00000000E-01  8.00000000E-01  1.50000000E+00
  8.00000000E-01  8.00000000E-01  1.50000000E+00  8.00000000E-01  8.00000000E-01
  1.50000000E+00  8.00000000E-01  8.00000000E-01  1.50000000E+00  8.00000000E-01
  8.00000000E-01  1.50000000E+00  8.00000000E-01  8.00000000E-01  1.50000000E+00
  8.00000000E-01  8.00000000E-01  1.50000000E+00  8.00000000E-01  8.00000000E-01
  1.50000000E+00  8.00000000E-01  8.00000000E-01  1.50000000E+00  8.00000000E-01
  8.00000000E-01  1.50000000E+00  8.00000000E-01  8.00000000E-01  1.50000000E+00
  8.00000000E-01  8.00000000E-01  1.50000000E+00  8.00000000E-01  8.00000000E-01
  1.50000000E+00  8.00000000E-01  8.00000000E-01  1.50000000E+00  8.00000000E-01
  8.00000000E-01  1.50000000E+00  8.00000000E-01  8.00000000E-01  1.50000000E+00
  8.00000000E-01  8.00000000E-01  1.50000000E+00  8.00000000E-01  8.00000000E-01
  1.50000000E+00  8.00000000E-01  8.00000000E-01  1.50000000E+00  8.00000000E-01
  8.00000000E-01  1.50000000E+00  8.00000000E-01  8.00000000E-01  1.50000000E+00
  8.00000000E-01  8.00000000E-01  1.50000000E+00  8.00000000E-01  8.00000000E-01
  1.50000000E+00  8.00000000E-01  8.00000000E-01  1.50000000E+00  8.00000000E-01
  8.00000000E-01  1.50000000E+00  8.00000000E-01  8.00000000E-01  1.50000000E+00
  8.00000000E-01  8.00000000E-01  1.50000000E+00  8.00000000E-01  8.00000000E-01
  1.50000000E+00  8.00000000E-01  8.00000000E-01  1.50000000E+00  8.00000000E-01
  8.00000000E-01  1.50000000E+00  8.00000000E-01  8.00000000E-01  1.50000000E+00
  8.00000000E-01  8.00000000E-01  1.50000000E+00  8.00000000E-01  8.00000000E-01
  1.50000000E+00  8.00000000E-01  8.00000000E-01  1.50000000E+00  8.00000000E-01
  8.00000000E-01  1.50000000E+00  8.00000000E-01  8.00000000E-01  1.50000000E+00
  8.00000000E-01  8.00000000E-01  1.50000000E+00  8.00000000E-01  8.00000000E-01
  1.50000000E+00  8.00000000E-01  8.00000000E-01  1.50000000E+00  8.00000000E-01
  8.00000000E-01  1.50000000E+00  8.00000000E-01  8.00000000E-01  1.50000000E+00
  8.00000000E-01  8.00000000E-01  1.50000000E+00  8.00000000E-01  8.00000000E-01
  1.50000000E+00  8.00000000E-01  8.00000000E-01  1.50000000E+00  8.00000000E-01
  8.00000000E-01  1.50000000E+00  8.00000000E-01  8.00000000E-01  1.50000000E+00
  8.00000000E-01  8.00000000E-01  1.50000000E+00  8.00000000E-01  8.00000000E-01
  1.50000000E+00  8.00000000E-01  8.00000000E-01  1.50000000E+00  8.00000000E-01
  8.00000000E-01  1.50000000E+00  8.00000000E-01  8.00000000E-01  1.50000000E+00
  8.00000000E-01  8.00000000E-01  1.50000000E+00  8.00000000E-01  8.00000000E-01
  1.50000000E+00  8.00000000E-01  8.00000000E-01  1.50000000E+00  8.00000000E-01
  8.00000000E-01  1.50000000E+00  8.00000000E-01  8.00000000E-01  1.50000000E+00
  8.00000000E-01  8.00000000E-01  1.50000000E+00  8.00000000E-01  8.00000000E-01
  1.50000000E+00  8.00000000E-01  8.00000000E-01  1.50000000E+00  8.00000000E-01
  8.00000000E-01  1.50000000E+00  8.00000000E-01  8.00000000E-01  1.50000000E+00
  8.00000000E-01  8.00000000E-01  1.50000000E+00  8.00000000E-01  8.00000000E-01
  1.50000000E+00  8.00000000E-01  8.00000000E-01  1.50000000E+00  8.00000000E-01
  8.00000000E-01  1.50000000E+00  8.00000000E-01  8.00000000E-01  1.50000000E+00
  8.00000000E-01  8.00000000E-01  1.50000000E+00  8.00000000E-01  8.00000000E-01
  1.50000000E+00  8.00000000E-01  8.00000000E-01  1.50000000E+00  8.00000000E-01
  8.00000000E-01  1.50000000E+00  8.00000000E-01  8.00000000E-01  1.50000000E+00
  8.00000000E-01  8.00000000E-01  1.50000000E+00  8.00000000E-01  8.00000000E-01
  1.50000000E+00  8.00000000E-01  8.00000000E-01  1.50000000E+00  8.00000000E-01
  8.00000000E-01  1.50000000E+00  8.00000000E-01  8.00000000E-01  1.50000000E+00
  8.00000000E-01  8.00000000E-01  1.50000000E+00  8.00000000E-01  8.00000000E-01
  1.50000000E+00  8.00000000E-01  8.00000000E-01  1.50000000E+00  8.00000000E-01
  8.00000000E-01  1.50000000E+00  8.00000000E-01  8.00000000E-01  1.50000000E+00
  8.00000000E-01  8.00000000E-01  1.50000000E+00  8.00000000E-01  8.00000000E-01
  1.50000000E+00  8.00000000E-01  8.00000000E-01  1.50000000E+00  8.00000000E-01
  8.00000000E-01  1.50000000E+00  8.00000000E-01  8.00000000E-01  1.50000000E+00
  8.00000000E-01  8.00000000E-01  1.50000000E+00  8.00000000E-01  8.00000000E-01
  1.50000000E+00  8.00000000E-01  8.00000000E-01  1.50000000E+00  8.00000000E-01
  8.00000000E-01  1.50000000E+00  8.00000000E-01  8.00000000E-01  1.50000000E+00
  8.00000000E-01  8.00000000E-01  1.50000000E+00  8.00000000E-01  8.00000000E-01
  1.50000000E+00  8.00000000E-01  8.00000000E-01  1.50000000E+00  8.00000000E-01
  8.00000000E-01  1.50000000E+00  8.00000000E-01  8.00000000E-01  1.50000000E+00
  8.00000000E-01  8.00000000E-01  1.50000000E+00  8.00000000E-01  8.00000000E-01
  1.50000000E+00  8.00000000E-01  8.00000000E-01  1.50000000E+00  8.00000000E-01
  8.00000000E-01  1.50000000E+00  8.00000000E-01  8.00000000E-01  1.50000000E+00
  8.00000000E-01  8.00000000E-01  1.50000000E+00  8.00000000E-01  8.00000000E-01
  1.50000000E+00  8.00000000E-01  8.00000000E-01  1.50000000E+00  8.00000000E-01
  8.00000000E-01  1.50000000E+00  8.00000000E-01  8.00000000E-01  1.50000000E+00
  8.00000000E-01  8.00000000E-01  1.50000000E+00  8.00000000E-01  8.00000000E-01
  1.50000000E+00  8.00000000E-01  8.00000000E-01  1.50000000E+00  8.00000000E-01
  8.00000000E-01  1.50000000E+00  8.00000000E-01  8.00000000E-01  1.50000000E+00
  8.00000000E-01  8.00000000E-01  1.50000000E+00  8.00000000E-01  8.00000000E-01
  1.50000000E+00  8.00000000E-01  8.00000000E-01  1.50000000E+00  8.00000000E-01
  8.00000000E-01  1.50000000E+00  8.00000000E-01  8.00000000E-01  1.50000000E+00
  8.00000000E-01  8.00000000E-01  1.50000000E+00  8.00000000E-01  8.00000000E-01
  1.50000000E+00  8.00000000E-01  8.00000000E-01  1.50000000E+00  8.00000000E-01
  8.00000000E-01  1.50000000E+00  8.00000000E-01  8.00000000E-01  1.50000000E+00
  8.00000000E-01  8.00000000E-01  1.50000000E+00  8.00000000E-01  8.00000000E-01
  1.50000000E+00  8.00000000E-01  8.00000000E-01  1.50000000E+00  8.00000000E-01
  8.00000000E-01  1.50000000E+00  8.00000000E-01  8.00000000E-01  1.50000000E+00
  8.00000000E-01  8.00000000E-01  1.50000000E+00  8.00000000E-01  8.00000000E-01
  1.50000000E+00  8.00000000E-01  8.00000000E-01  1.50000000E+00  8.00000000E-01
  8.00000000E-01  1.50000000E+00  8.00000000E-01  8.00000000E-01  1.50000000E+00
  8.00000000E-01  8.00000000E-01  1.50000000E+00  8.00000000E-01  8.00000000E-01
  1.50000000E+00  8.00000000E-01  8.00000000E-01  1.50000000E+00  8.00000000E-01
  8.00000000E-01  1.50000000E+00  8.00000000E-01  8.00000000E-01  1.50000000E+00
  8.00000000E-01  8.00000000E-01  1.50000000E+00  8.00000000E-01  8.00000000E-01
  1.50000000E+00  8.00000000E-01  8.00000000E-01  1.50000000E+00  8.00000000E-01
  8.00000000E-01  1.50000000E+00  8.00000000E-01  8.00000000E-01  1.50000000E+00
  8.00000000E-01  8.00000000E-01  1.50000000E+00  8.00000000E-01  8.00000000E-01
  1.50000000E+00  8.00000000E-01  8.00000000E-01  1.50000000E+00  8.00000000E-01
  8.00000000E-01  1.50000000E+00  8.00000000E-01  8.00000000E-01  1.50000000E+00
  8.00000000E-01  8.00000000E-01  1.50000000E+00  8.00000000E-01  8.00000000E-01
  1.50000000E+00  8.00000000E-01  8.00000000E-01  1.50000000E+00  8.00000000E-01
  8.00000000E-01  1.50000000E+00  8.00000000E-01  8.00000000E-01  1.50000000E+00
  8.00000000E-01  8.00000000E-01  1.50000000E+00  8.00000000E-01  8.00000000E-01
  1.50000000E+00  8.00000000E-01  8.00000000E-01  1.50000000E+00  8.00000000E-01
  8.00000000E-01  1.50000000E+00  8.00000000E-01  8.00000000E-01  1.50000000E+00
  8.00000000E-01  8.00000000E-01  1.50000000E+00  8.00000000E-01  8.00000000E-01
  1.50000000E+00  8.00000000E-01  8.00000000E-01  1.50000000E+00  8.00000000E-01
  8.00000000E-01  1.50000000E+00  8.00000000E-01  8.00000000E-01  1.50000000E+00
  8.00000000E-01  8.00000000E-01  1.50000000E+00  8.00000000E-01  8.00000000E-01
  1.50000000E+00  8.00000000E-01  8.00000000E-01  1.50000000E+00  8.00000000E-01
  8.00000000E-01  1.50000000E+00  8.00000000E-01  8.00000000E-01  1.50000000E+00
  8.00000000E-01  8.00000000E-01  1.50000000E+00  8.00000000E-01  8.00000000E-01
  1.50000000E+00  8.00000000E-01  8.00000000E-01  1.50000000E+00  8.00000000E-01
  8.00000000E-01  1.50000000E+00  8.00000000E-01  8.00000000E-01  1.50000000E+00
  8.00000000E-01  8.00000000E-01  1.50000000E+00  8.00000000E-01  8.00000000E-01
%FLAG SCREEN                                                                    
%FORMAT(5E16.8)                                                                 
  7.20000000E-01  7.20000000E-01  7.20000000E-01  7.20000000E-01  7.20000000E-01
  7.20000000E-01  7.20000000E-01  7.20000000E-01  7.20000000E-01  7.20000000E-01
  7.20000000E-01  7.20000000E-01  7.20000000E-01  7.20000000E-01  7.20000000E-01
  7.20000000E-01  7.20000000E-01  7.20000000E-01  7.20000000E-01  7.20000000E-01
  7.20000000E-01  7.20000000E-01  7.20000000E-01  7.20000000E-01  7.20000000E-01
  7.20000000E-01  7.20000000E-01  7.20000000E-01  7.20000000E-01  7.20000000E-01
  7.20000000E-01  7.20000000E-01  7.20000000E-01  7.20000000E-01  7.20000000E-01
  7.20000000E-01  7.20000000E-01  7.20000000E-01  7.20000000E-01  7.20000000E-01
  7.20000000E-01  7.20000000E-01  7.20000000E-01  7.20000000E-01  7.20000000E-01
  7.20000000E-01  7.20000000E-01  7.20000000E-01  7.20000000E-01  7.20000000E-01
  7.20000000E-01  7.20000000E-01  7.20000000E-01  7.20000000E-01  7.20000000E-01
  7.20000000E-01  7.20000000E-01  7.20000000E-01  7.20000000E-01  7.20000000E-01
  7.20000000E-01  7.20000000E-01  7.20000000E-01  7.20000000E-01  7.20000000E-01
  7.20000000E-01  7.20000000E-01  7.20000000E-01  7.20000000E-01  7.20000000E-01
  7.20000000E-01  7.20000000E-01  7.20000000E-01  7.20000000E-01  7.20000000E-01
  7.20000000E-01  7.20000000E-01  7.90000000E-01  7.20000000E-01  7.20000000E-01
  7.20000000E-01  7.20000000E-01  7.20000000E-01  7.20000000E-01  7.20000000E-01
  7.20000000E-01  7.20000000E-01  7.20000000E-01  7.90000000E-01  7.20000000E-01
  7.20000000E-01  7.20000000E-01  7.20000000E-01  7.20000000E-01  7.20000000E-01
  7.20000000E-01  7.20000000E-01  7.20000000E-01  7.20000000E-01  7.90000000E-01
  7.20000000E-01  7.20000000E-01  7.20000000E-01  7.20000000E-01  7.20000000E-01
  7.20000000E-01  7.20000000E-01  7.20000000E-01  7.20000000E-01  7.20000000E-01
  7.90000000E-01  7.20000000E-01  7.20000000E-01  7.20000000E-01  7.20000000E-01
  7.20000000E-01  7.20000000E-01  7.20000000E-01  7.20000000E-01  7.20000000E-01
  7.20000000E-01  7.90000000E-01  7.20000000E-01  7.20000000E-01  7.20000000E-01
  7.20000000E-01  7.20000000E-01  7.20000000E-01  7.20000000E-01  7.20000000E-01
  7.20000000E-01  7.20000000E-01  7.90000000E-01  7.20000000E-01  7.20000000E-01
  7.20000000E-01  7.20000000E-01  7.20000000E-01  7.20000000E-01  7.20000000E-01
  7.20000000E-01  7.20000000E-01  7.20000000E-01  7.90000000E-01  7.20000000E-01
  7.20000000E-01  7.20000000E-01  7.20000000E-01  7.20000000E-01  7.20000000E-01
  7.20000000E-01  7.20000000E-01  7.20000000E-01  7.20000000E-01  7.90000000E-01
  7.20000000E-01  7.20000000E-01  7.20000000E-01  7.20000000E-01  7.20000000E-01
  7.20000000E-01  7.20000000E-01  7.20000000E-01  7.20000000E-01  7.20000000E-01
  7.90000000E-01  7.20000000E-01  7.20000000E-01  7.20000000E-01  7.20000000E-01
  7.20000000E-01  7.20000000E-01  7.20000000E-01  7.20000000E-01  7.20000000E-01
  7.20000000E-01  7.90000000E-01  7.20000000E-01  7.20000000E-01  7.20000000E-01
  7.20000000E-01  7.20000000E-01  7.20000000E-01  7.20000000E-01  7.20000000E-01
  7.20000000E-01  7.20000000E-01  7.90000000E-01  7.20000000E-01  7.20000000E-01
  7.20000000E-01  7.20000000E-01  7.20000000E-01  7.20000000E-01  7.20000000E-01
  7.20000000E-01  7.20000000E-01  7.20000000E-01  7.90000000E-01  7.20000000E-01
  7.20000000E-01  7.20000000E-01  7.20000000E-01  7.20000000E-01  7.20000000E-01
  7.20000000E-01  7.20000000E-01  7.20000000E-01  7.20000000E-01  7.20000000E-01
  7.20000000E-01  7.20000000E-01  7.20000000E-01  7.20000000E-01  7.20000000E-01
  7.20000000E-01  7.20000000E-01  7.20000000E-01  7.20000000E-01  7.20000000E-01
  7.20000000E-01  7.20000000E-01  7.20000000E-01  7.20000000E-01  7.20000000E-01
  7.20000000E-01  7.20000000E-01  7.20000000E-01  7.20000000E-01  7.20000000E-01
  7.20000000E-01  7.20000000E-01  7.20000000E-01  7.20000000E-01  7.20000000E-01
  7.20000000E-01  7.20000000E-01  7.20000000E-01  7.20000000E-01  7.20000000E-01
  7.20000000E-01  7.20000000E-01  7.20000000E-01  7.20000000E-01  7.20000000E-01
  7.20000000E-01  7.20000000E-01  7.20000000E-01  7.90000000E-01  7.20000000E-01
  7.20000000E-01  7.20000000E-01  7.20000000E-01  7.20000000E-01  7.20000000E-01
  7.20000000E-01  7.20000000E-01  7.20000000E-01  7.20000000E-01  7.90000000E-01
  7.20000000E-01  7.20000000E-01  7.20000000E-01  7.20000000E-01  7.20000000E-01
  7.20000000E-01  7.20000000E-01  7.20000000E-01  7.20000000E-01  7.20000000E-01
  7.90000000E-01  7.20000000E-01  7.20000000E-01  7.20000000E-01  7.20000000E-01
  7.20000000E-01  7.20000000E-01  7.20000000E-01  7.20000000E-01  7.20000000E-01
  7.20000000E-01  7.90000000E-01  7.20000000E-01  7.20000000E-01  7.20000000E-01
  7.20000000E-01  7.20000000E-01  7.20000000E-01  7.20000000E-01  7.20000000E-01
  7.20000000E-01  7.20000000E-01  7.90000000E-01  7.20000000E-01  7.20000000E-01
  7.20000000E-01  7.20000000E-01  7.20000000E-01  7.20000000E-01  7.20000000E-01
  7.20000000E-01  7.20000000E-01  7.20000000E-01  7.90000000E-01  7.20000000E-01
  7.20000000E-01  7.20000000E-01  7.20000000E-01  7.20000000E-01  7.20000000E-01
  7.20000000E-01  7.20000000E-01  7.20000000E-01  7.20000000E-01  7.90000000E-01
  7.20000000E-01  7.20000000E-01  7.20000000E-01  7.20000000E-01  7.20000000E-01
  7.20000000E-01  7.20000000E-01  7.20000000E-01  7.20000000E-01  7.20000000E-01
  7.90000000E-01  7.20000000E-01  7.20000000E-01  7.20000000E-01  7.20000000E-01
  7.20000000E-01  7.20000000E-01  7.20000000E-01  7.20000000E-01  7.20000000E-01
  7.20000000E-01  7.90000000E-01  7.20000000E-01  7.20000000E-01  7.20000000E-01
  7.20000000E-01  7.20000000E-01  7.20000000E-01  7.20000000E-01  7.20000000E-01
  7.20000000E-01  7.20000000E-01  7.90000000E-01  7.20000000E-01  7.20000000E-01
  7.20000000E-01  7.20000000E-01  7.20000000E-01  7.20000000E-01  7.20000000E-01
  7.20000000E-01  7.20000000E-01  7.20000000E-01  7.90000000E-01  7.20000000E-01
  7.20000000E-01  7.20000000E-01  7.20000000E-01  7.20000000E-01  7.20000000E-01
  7.20000000E-01  7.20000000E-01  7.20000000E-01  7.20000000E-01  7.20000000E-01
  7.20000000E-01  7.20000000E-01  7.20000000E-01  7.20000000E-01  7.20000000E-01
  7.20000000E-01  7.20000000E-01  7.20000000E-01  7.20000000E-01  7.20000000E-01
  7.20000000E-01  7.20000000E-01  7.20000000E-01  7.20000000E-01  7.20000000E-01
  7.20000000E-01  7.20000000E-01  7.20000000E-01  7.20000000E-01  7.20000000E-01
  7.20000000E-01  7.20000000E-01  7.20000000E-01  7.20000000E-01  7.20000000E-01
  7.20000000E-01  7.20000000E-01  7.20000000E-01  7.20000000E-01  7.20000000E-01
  7.20000000E-01  7.20000000E-01  7.20000000E-01  7.20000000E-01  7.20000000E-01
  7.20000000E-01  7.90000000E-01  7.20000000E-01  7.20000000E-01  7.20000000E-01
  7.20000000E-01  7.20000000E-01  7.20000000E-01  7.20000000E-01  7.20000000E-01
  7.20000000E-01  7.20000000E-01  7.90000000E-01  7.20000000E-01  7.20000000E-01
  7.20000000E-01  7.20000000E-01  7.20000000E-01  7.20000000E-01  7.20000000E-01
  7.20000000E-01  7.20000000E-01  7.20000000E-01  7.90000000E-01  7.20000000E-01
  7.20000000E-01  7.20000000E-01  7.20000000E-01  7.20000000E-01  7.20000000E-01
  7.20000000E-01  7.20000000E-01  7.20000000E-01  7.20000000E-01  7.90000000E-01
  7.20000000E-01  7.20000000E-01  7.20000000E-01  7.20000000E-01  7.20000000E-01
  7.20000000E-01  7.20000000E-01  7.20000000E-01  7.20000000E-01  7.20000000E-01
  7.90000000E-01  7.20000000E-01  7.20000000E-01  7.20000000E-01  7.20000000E-01
  7.20000000E-01  7.20000000E-01  7.20000000E-01  7.20000000E-01  7.20000000E-01
  7.20000000E-01  7.90000000E-01  7.20000000E-01  7.20000000E-01  7.20000000E-01
  7.20000000E-01  7.20000000E-01  7.20000000E-01  7.20000000E-01  7.20000000E-01
  7.20000000E-01  7.20000000E-01  7.90000000E-01  7.20000000E-01  7.20000000E-01
  7.20000000E-01  7.20000000E-01  7.20000000E-01  7.20000000E-01  7.20000000E-01
  7.20000000E-01  7.20000000E-01  7.20000000E-01  7.90000000E-01  7.20000000E-01
  7.20000000E-01  7.20000000E-01  7.20000000E-01  7.20000000E-01  7.20000000E-01
  7.20000000E-01  7.20000000E-01  7.20000000E-01  7.20000000E-01  7.90000000E-01
  7.20000000E-01  7.20000000E-01  7.20000000E-01  7.20000000E-01  7.20000000E-01
  7.20000000E-01  7.20000000E-01  7.20000000E-01  7.20000000E-01  7.20000000E-01
  7.90000000E-01  7.20000000E-01  7.20000000E-01  7.20000000E-01  7.20000000E-01
  7.20000000E-01  7.20000000E-01  7.20000000E-01  7.20000000E-01  7.20000000E-01
  7.20000000E-01  7.90000000E-01  7.20000000E-01  7.20000000E-01  7.20000000E-01
  7.20000000E-01  7.20000000E-01  7.20000000E-01  7.20000000E-01  7.20000000E-01
  7.20000000E-01  7.20000000E-01  7.90000000E-01  7.20000000E-01  7.20000000E-01
  7.20000000E-01  7.20000000E-01  7.20000000E-01  7.20000000E-01  7.20000000E-01
  7.20000000E-01  7.20000000E-01  7.20000000E-01  7.90000000E-01  7.20000000E-01
  7.20000000E-01  7.20000000E-01  7.20000000E-01  7.20000000E-01  7.20000000E-01
  7.20000000E-01  7.20000000E-01  7.20000000E-01  7.20000000E-01  7.20000000E-01
  7.20000000E-01  7.90000000E-01  7.20000000E-01  7.20000000E-01  7.20000000E-01
  7.20000000E-01  7.20000000E-01  7.20000000E-01  7.20000000E-01  7.20000000E-01
  7.20000000E-01  7.20000000E-01  7.90000000E-01  7.20000000E-01  7.20000000E-01
  7.20000000E-01  7.20000000E-01  7.20000000E-01  7.20000000E-01  7.20000000E-01
  7.20000000E-01  7.20000000E-01  7.20000000E-01  7.90000000E-01  7.20000000E-01
  7.20000000E-01  7.20000000E-01  7.20000000E-01  7.20000000E-01  7.20000000E-01
  7.20000000E-01  7.20000000E-01  7.20000000E-01  7.20000000E-01  7.90000000E-01
  7.20000000E-01  7.20000000E-01  7.20000000E-01  7.20000000E-01  7.20000000E-01
  7.20000000E-01  7.20000000E-01  7.20000000E-01  7.20000000E-01  7.20000000E-01
  7.90000000E-01  7.20000000E-01  7.20000000E-01  7.20000000E-01  7.20000000E-01
  7.20000000E-01  7.20000000E-01  7.20000000E-01  7.20000000E-01  7.20000000E-01
  7.20000000E-01  7.90000000E-01  7.20000000E-01  7.20000000E-01  7.20000000E-01
  7.20000000E-01  7.20000000E-01  7.20000000E-01  7.20000000E-01  7.20000000E-01
  7.20000000E-01  7.20000000E-01  7.90000000E-01  7.20000000E-01  7.20000000E-01
  7.20000000E-01  7.20000000E-01  7.20000000E-01  7.20000000E-01  7.20000000E-01
  7.20000000E-01  7.20000000E-01  7.20000000E-01  7.90000000E-01  7.20000000E-01
  7.20000000E-01  7.20000000E-01  7.20000000E-01  7.20000000E-01  7.20000000E-01
  7.20000000E-01  7.20000000E-01  7.20000000E-01  7.20000000E-01  7.90000000E-01
  7.20000000E-01  7.20000000E-01  7.20000000E-01  7.20000000E-01  7.20000000E-01
  7.20000000E-01  7.20000000E-01  7.20000000E-01  7.20000000E-01  7.20000000E-01
  7.90000000E-01  7.20000000E-01  7.20000000E-01  7.20000000E-01  7.20000000E-01
  7.20000000E-01  7.20000000E-01  7.20000000E-01  7.20000000E-01  7.20000000E-01
  7.20000000E-01  7.90000000E-01  7.20000000E-01  7.20000000E-01  7.20000000E-01
  7.20000000E-01  7.20000000E-01  7.20000000E-01  7.20000000E-01  7.20000000E-01
  7.20000000E-01  7.20000000E-01  7.90000000E-01  7.20000000E-01  7.20000000E-01
  7.20000000E-01  7.20000000E-01  7.20000000E-01  8.50000000E-01  8.50000000E-01
  8.50000000E-01  8.50000000E-01  8.50000000E-01  8.50000000E-01  8.50000000E-01
  8.50000000E-01  8.50000000E-01  8.50000000E-01  8.50000000E-01  8.50000000E-01
  8.50000000E-01  8.50000000E-01  8.50000000E-01  8.50000000E-01  8.50000000E-01
  8.50000000E-01  8.50000000E-01  8.50000000E-01  8.50000000E-01  8.50000000E-01
  8.50000000E-01  8.50000000E-01  8.50000000E-01  8.50000000E-01  8.50000000E-01
  8.50000000E-01  8.50000000E-01  8.50000000E-01  8.50000000E-01  8.50000000E-01
  8.50000000E-01  8.50000000E-01  8.50000000E-01  8.50000000E-01  8.50000000E-01
  8.50000000E-01  8.50000000E-01  8.50000000E-01  8.50000000E-01  8.50000000E-01
  8.50000000E-01  8.50000000E-01  8.50000000E-01  8.50000000E-01  8.50000000E-01
  8.50000000E-01  8.50000000E-01  8.50000000E-01  8.50000000E-01  8.50000000E-01
  8.50000000E-01  8.50000000E-01  8.50000000E-01  8.50000000E-01  8.50000000E-01
  8.50000000E-01  8.50000000E-01  8.50000000E-01  8.50000000E-01  8.50000000E-01
  8.50000000E-01  8.50000000E-01  8.50000000E-01  8.50000000E-01  8.50000000E-01
  8.50000000E-01  8.50000000E-01  8.50000000E-01  8.50000000E-01  8.50000000E-01
  8.50000000E-01  8.50000000E-01  8.50000000E-01  8.50000000E-01  8.50000000E-01
  8.50000000E-01  8.50000000E-01  8.50000000E-01  8.50000000E-01  8.50000000E-01
  8.50000000E-01  8.50000000E-01  8.50000000E-01  8.50000000E-01  8.50000000E-01
  8.50000000E-01  8.50000000E-01  8.50000000E-01  8.50000000E-01  8.50000000E-01
  8.50000000E-01  8.50000000E-01  8.50000000E-01  8.50000000E-01  8.50000000E-01
  8.50000000E-01  8.50000000E-01  8.50000000E-01  8.50000000E-01  8.50000000E-01
  8.50000000E-01  8.50000000E-01  8.50000000E-01  8.50000000E-01  8.50000000E-01
  8.50000000E-01  8.50000000E-01  8.50000000E-01  8.50000000E-01  8.50000000E-01
  8.50000000E-01  8.50000000E-01  8.50000000E-01  8.50000000E-01  8.50000000E-01
  8.50000000E-01  8.50000000E-01  8.50000000E-01  8.50000000E-01  8.50000000E-01
  8.50000000E-01  8.50000000E-01  8.50000000E-01  8.50000000E-01  8.50000000E-01
  8.50000000E-01  8.50000000E-01  8.50000000E-01  8.50000000E-01  8.50000000E-01
  8.50000000E-01  8.50000000E-01  8.50000000E-01  8.50000000E-01  8.50000000E-01
  8.50000000E-01  8.50000000E-01  8.50000000E-01  8.50000000E-01  8.50000000E-01
  8.50000000E-01  8.50000000E-01  8.50000000E-01  8.50000000E-01  8.50000000E-01
  8.50000000E-01  8.50000000E-01  8.50000000E-01  8.50000000E-01  8.50000000E-01
  8.50000000E-01  8.50000000E-01  8.50000000E-01  8.50000000E-01  8.50000000E-01
  8.50000000E-01  8.50000000E-01  8.50000000E-01  8.50000000E-01  8.50000000E-01
  8.50000000E-01  8.50000000E-01  8.50000000E-01  8.50000000E-01  8.50000000E-01
  8.50000000E-01  8.50000000E-01  8.50000000E-01  8.50000000E-01  8.50000000E-01
  8.50000000E-01  8.50000000E-01  8.50000000E-01  8.50000000E-01  8.50000000E-01
  8.50000000E-01  8.50000000E-01  8.50000000E-01  8.50000000E-01  8.50000000E-01
  8.50000000E-01  8.50000000E-01  8.50000000E-01  8.50000000E-01  8.50000000E-01
  8.50000000E-01  8.50000000E-01  8.50000000E-01  8.50000000E-01  8.50000000E-01
  8.50000000E-01  8.50000000E-01  8.50000000E-01  8.50000000E-01  8.50000000E-01
  8.50000000E-01  8.50000000E-01  8.50000000E-01  8.50000000E-01  8.50000000E-01
  8.50000000E-01  8.50000000E-01  8.50000000E-01  8.50000000E-01  8.50000000E-01
  8.50000000E-01  8.50000000E-01  8.50000000E-01  8.50000000E-01  8.50000000E-01
  8.50000000E-01  8.50000000E-01  8.50000000E-01  8.50000000E-01  8.50000000E-01
  8.50000000E-01  8.50000000E-01  8.50000000E-01  8.50000000E-01  8.50000000E-01
  8.50000000E-01  8.50000000E-01  8.50000000E-01  8.50000000E-01  8.50000000E-01
  8.50000000E-01  8.50000000E-01  8.50000000E-01  8.50000000E-01  8.50000000E-01
  8.50000000E-01  8.50000000E-01  8.50000000E-01  8.50000000E-01  8.50000000E-01
  8.50000000E-01  8.50000000E-01  8.50000000E-01  8.50000000E-01  8.50000000E-01
  8.50000000E-01  8.50000000E-01  8.50000000E-01  8.50000000E-01  8.50000000E-01
  8.50000000E-01  8.50000000E-01  8.50000000E-01  8.50000000E-01  8.50000000E-01
  8.50000000E-01  8.50000000E-01  8.50000000E-01  8.50000000E-01  8.50000000E-01
  8.50000000E-01  8.50000000E-01  8.50000000E-01  8.50000000E-01  8.50000000E-01
  8.50000000E-01  8.50000000E-01  8.50000000E-01  8.50000000E-01  8.50000000E-01
  8.50000000E-01  8.50000000E-01  8.50000000E-01  8.50000000E-01  8.50000000E-01
  8.50000000E-01  8.50000000E-01  8.50000000E-01  8.50000000E-01  8.50000000E-01
  8.50000000E-01  8.50000000E-01  8.50000000E-01  8.50000000E-01  8.50000000E-01
  8.50000000E-01  8.50000000E-01  8.50000000E-01  8.50000000E-01  8.50000000E-01
  8.50000000E-01  8.50000000E-01  8.50000000E-01  8.50000000E-01  8.50000000E-01
  8.50000000E-01  8.50000000E-01  8.50000000E-01  8.50000000E-01  8.50000000E-01
  8.50000000E-01  8.50000000E-01  8.50000000E-01  8.50000000E-01  8.50000000E-01
  8.50000000E-01  8.50000000E-01  8.50000000E-01  8.50000000E-01  8.50000000E-01
  8.50000000E-01  8.50000000E-01  8.50000000E-01  8.50000000E-01  8.50000000E-01
  8.50000000E-01  8.50000000E-01  8.50000000E-01  8.50000000E-01  8.50000000E-01
  8.50000000E-01  8.50000000E-01  8.50000000E-01  8.50000000E-01  8.50000000E-01
  8.50000000E-01  8.50000000E-01  8.50000000E-01  8.50000000E-01  8.50000000E-01
  8.50000000E-01  8.50000000E-01  8.50000000E-01  8.50000000E-01  8.50000000E-01
  8.50000000E-01  8.50000000E-01  8.50000000E-01  8.50000000E-01  8.50000000E-01
  8.50000000E-01  8.50000000E-01  8.50000000E-01  8.50000000E-01  8.50000000E-01
  8.50000000E-01  8.50000000E-01  8.50000000E-01  8.50000000E-01  8.50000000E-01
  8.50000000E-01  8.50000000E-01  8.50000000E-01  8.50000000E-01  8.50000000E-01
  8.50000000E-01  8.50000000E-01  8.50000000E-01  8.50000000E-01  8.50000000E-01
  8.50000000E-01  8.50000000E-01  8.50000000E-01  8.50000000E-01  8.50000000E-01
  8.50000000E-01  8.50000000E-01  8.50000000E-01  8.50000000E-01  8.50000000E-01
  8.50000000E-01  8.50000000E-01  8.50000000E-01  8.50000000E-01  8.50000000E-01
  8.50000000E-01  8.50000000E-01  8.50000000E-01  8.50000000E-01  8.50000000E-01
  8.50000000E-01  8.50000000E-01  8.50000000E-01  8.50000000E-01  8.50000000E-01
  8.50000000E-01  8.50000000E-01  8.50000000E-01  8.50000000E-01  8.50000000E-01
  8.50000000E-01  8.50000000E-01  8.50000000E-01  8.50000000E-01  8.50000000E-01
  8.50000000E-01  8.50000000E-01  8.50000000E-01  8.50000000E-01  8.50000000E-01
  8.50000000E-01  8.50000000E-01  8.50000000E-01  8.50000000E-01  8.50000000E-01
  8.50000000E-01  8.50000000E-01  8.50000000E-01  8.50000000E-01  8.50000000E-01
  8.50000000E-01  8.50000000E-01  8.50000000E-01  8.50000000E-01  8.50000000E-01
  8.50000000E-01  8.50000000E-01  8.50000000E-01  8.50000000E-01  8.50000000E-01
  8.50000000E-01  8.50000000E-01  8.50000000E-01  8.50000000E-01  8.50000000E-01
  8.50000000E-01  8.50000000E-01  8.50000000E-01  8.50000000E-01  8.50000000E-01
  8.50000000E-01  8.50000000E-01  8.50000000E-01  8.50000000E-01  8.50000000E-01
  8.50000000E-01  8.50000000E-01  8.50000000E-01  8.50000000E-01  8.50000000E-01
  8.50000000E-01  8.50000000E-01  8.50000000E-01  8.50000000E-01  8.50000000E-01
  8.50000000E-01  8.50000000E-01  8.50000000E-01  8.50000000E-01  8.50000000E-01
  8.50000000E-01  8.50000000E-01  8.50000000E-01  8.50000000E-01  8.50000000E-01
  8.50000000E-01  8.50000000E-01  8.50000000E-01  8.50000000E-01  8.50000000E-01
  8.50000000E-01  8.50000000E-01  8.50000000E-01  8.50000000E-01  8.50000000E-01
  8.50000000E-01  8.50000000E-01  8.50000000E-01  8.50000000E-01  8.50000000E-01
  8.50000000E-01  8.50000000E-01  8.50000000E-01  8.50000000E-01  8.50000000E-01
  8.50000000E-01  8.50000000E-01  8.50000000E-01  8.50000000E-01  8.50000000E-01
  8.50000000E-01  8.50000000E-01  8.50000000E-01  8.50000000E-01  8.50000000E-01
  8.50000000E-01  8.50000000E-01  8.50000000E-01  8.50000000E-01  8.50000000E-01
  8.50000000E-01  8.50000000E-01  8.50000000E-01  8.50000000E-01  8.50000000E-01
  8.50000000E-01  8.50000000E-01  8.50000000E-01  8.50000000E-01  8.50000000E-01
  8.50000000E-01  8.50000000E-01  8.50000000E-01  8.50000000E-01  8.50000000E-01
  8.50000000E-01  8.50000000E-01  8.50000000E-01  8.50000000E-01  8.50000000E-01
  8.50000000E-01  8.50000000E-01  8.50000000E-01  8.50000000E-01  8.50000000E-01
  8.50000000E-01  8.50000000E-01  8.50000000E-01  8.50000000E-01  8.50000000E-01
  8.50000000E-01  8.50000000E-01  8.50000000E-01  8.50000000E-01  8.50000000E-01
  8.50000000E-01  8.50000000E-01  8.50000000E-01  8.50000000E-01  8.50000000E-01
  8.50000000E-01  8.50000000E-01  8.50000000E-01  8.50000000E-01  8.50000000E-01
  8.50000000E-01  8.50000000E-01  8.50000000E-01  8.50000000E-01  8.50000000E-01
  8.50000000E-01  8.50000000E-01  8.50000000E-01  8.50000000E-01  8.50000000E-01
  8.50000000E-01  8.50000000E-01  8.50000000E-01  8.50000000E-01  8.50000000E-01
  8.50000000E-01  8.50000000E-01  8.50000000E-01  8.50000000E-01  8.50000000E-01
  8.50000000E-01  8.50000000E-01  8.50000000E-01  8.50000000E-01  8.50000000E-01
  8.50000000E-01  8.50000000E-01  8.50000000E-01  8.50000000E-01  8.50000000E-01
  8.50000000E-01  8.50000000E-01  8.50000000E-01  8.50000000E-01  8.50000000E-01
  8.50000000E-01  8.50000000E-01  8.50000000E-01  8.50000000E-01  8.50000000E-01
  8.50000000E-01  8.50000000E-01  8.50000000E-01  8.50000000E-01  8.50000000E-01
  8.50000000E-01  8.50000000E-01  8.50000000E-01  8.50000000E-01  8.50000000E-01
  8.50000000E-01  8.50000000E-01  8.50000000E-01  8.50000000E-01  8.50000000E-01
  8.50000000E-01  8.50000000E-01  8.50000000E-01  8.50000000E-01  8.50000000E-01
  8.50000000E-01  8.50000000E-01  8.50000000E-01  8.50000000E-01  8.50000000E-01
  8.50000000E-01  8.50000000E-01  8.50000000E-01  8.50000000E-01  8.50000000E-01
  8.50000000E-01  8.50000000E-01  8.50000000E-01  8.50000000E-01  8.50000000E-01
  8.50000000E-01  8.50000000E-01  8.50000000E-01  8.50000000E-01  8.50000000E-01
  8.50000000E-01  8.50000000E-01  8.50000000E-01  8.50000000E-01  8.50000000E-01
  8.50000000E-01  8.50000000E-01  8.50000000E-01  8.50000000E-01  8.50000000E-01
  8.50000000E-01  8.50000000E-01  8.50000000E-01  8.50000000E-01  8.50000000E-01
  8.50000000E-01  8.50000000E-01  8.50000000E-01  8.50000000E-01  8.50000000E-01
  8.50000000E-01  8.50000000E-01  8.50000000E-01  8.50000000E-01  8.50000000E-01
  8.50000000E-01  8.50000000E-01  8.50000000E-01  8.50000000E-01  8.50000000E-01
  8.50000000E-01  8.50000000E-01  8.50000000E-01  8.50000000E-01  8.50000000E-01
  8.50000000E-01  8.50000000E-01  8.50000000E-01  8.50000000E-01  8.50000000E-01
  8.50000000E-01  8.50000000E-01  8.50000000E-01  8.50000000E-01  8.50000000E-01
  8.50000000E-01  8.50000000E-01  8.50000000E-01  8.50000000E-01  8.50000000E-01
  8.50000000E-01  8.50000000E-01  8.50000000E-01  8.50000000E-01  8.50000000E-01
  8.50000000E-01  8.50000000E-01  8.50000000E-01  8.50000000E-01  8.50000000E-01
  8.50000000E-01  8.50000000E-01  8.50000000E-01  8.50000000E-01  8.50000000E-01
  8.50000000E-01  8.50000000E-01  8.50000000E-01  8.50000000E-01  8.50000000E-01
  8.50000000E-01  8.50000000E-01  8.50000000E-01  8.50000000E-01  8.50000000E-01
  8.50000000E-01  8.50000000E-01  8.50000000E-01  8.50000000E-01  8.50000000E-01
  8.50000000E-01  8.50000000E-01  8.50000000E-01  8.50000000E-01  8.50000000E-01
  8.50000000E-01  8.50000000E-01  8.50000000E-01  8.50000000E-01  8.50000000E-01
  8.50000000E-01  8.50000000E-01  8.50000000E-01  8.50000000E-01  8.50000000E-01
  8.50000000E-01  8.50000000E-01  8.50000000E-01  8.50000000E-01  8.50000000E-01
  8.50000000E-01  8.50000000E-01  8.50000000E-01  8.50000000E-01  8.50000000E-01
  8.50000000E-01  8.50000000E-01  8.50000000E-01  8.50000000E-01  8.50000000E-01
  8.50000000E-01  8.50000000E-01  8.50000000E-01  8.50000000E-01  8.50000000E-01
  8.50000000E-01  8.50000000E-01  8.50000000E-01  8.50000000E-01  8.50000000E-01
  8.50000000E-01  8.50000000E-01  8.50000000E-01  8.50000000E-01  8.50000000E-01
  8.50000000E-01  8.50000000E-01  8.50000000E-01  8.50000000E-01  8.50000000E-01
  8.50000000E-01  8.50000000E-01  8.50000000E-01  8.50000000E-01  8.50000000E-01
  8.50000000E-01  8.50000000E-01  8.50000000E-01  8.50000000E-01  8.50000000E-01
  8.50000000E-01  8.50000000E-01  8.50000000E-01  8.50000000E-01  8.50000000E-01
  8.50000000E-01  8.50000000E-01  8.50000000E-01  8.50000000E-01  8.50000000E-01
  8.50000000E-01  8.50000000E-01  8.50000000E-01  8.50000000E-01  8.50000000E-01
  8.50000000E-01  8.50000000E-01  8.50000000E-01  8.50000000E-01  8.50000000E-01
  8.50000000E-01  8.50000000E-01  8.50000000E-01  8.50000000E-01  8.50000000E-01
  8.50000000E-01  8.50000000E-01  8.50000000E-01  8.50000000E-01  8.50000000E-01
  8.50000000E-01  8.50000000E-01  8.50000000E-01  8.50000000E-01  8.50000000E-01
  8.50000000E-01  8.50000000E-01  8.50000000E-01  8.50000000E-01  8.50000000E-01
  8.50000000E-01  8.50000000E-01  8.50000000E-01  8.50000000E-01  8.50000000E-01
  8.50000000E-01  8.50000000E-01  8.50000000E-01  8.50000000E-01  8.50000000E-01
  8.50000000E-01  8.50000000E-01  8.50000000E-01  8.50000000E-01  8.50000000E-01
  8.50000000E-01  8.50000000E-01  8.50000000E-01  8.50000000E-01  8.50000000E-01
  8.50000000E-01  8.50000000E-01  8.50000000E-01  8.50000000E-01  8.50000000E-01
  8.50000000E-01  8.50000000E-01  8.50000000E-01  8.50000000E-01  8.50000000E-01
  8.50000000E-01  8.50000000E-01  8.50000000E-01  8.50000000E-01  8.50000000E-01
  8.50000000E-01  8.50000000E-01  8.50000000E-01  8.50000000E-01  8.50000000E-01
  8.50000000E-01  8.50000000E-01  8.50000000E-01  8.50000000E-01  8.50000000E-01
  8.50000000E-01  8.50000000E-01  8.50000000E-01  8.50000000E-01  8.50000000E-01
  8.50000000E-01  8.50000000E-01  8.50000000E-01  8.50000000E-01  8.50000000E-01
  8.50000000E-01  8.50000000E-01  8.50000000E-01  8.50000000E-01  8.50000000E-01
  8.50000000E-01  8.50000000E-01  8.50000000E-01  8.50000000E-01  8.50000000E-01
  8.50000000E-01  8.50000000E-01  8.50000000E-01  8.50000000E-01  8.50000000E-01
  8.50000000E-01  8.50000000E-01  8.50000000E-01  8.50000000E-01  8.50000000E-01
  8.50000000E-01  8.50000000E-01  8.50000000E-01  8.50000000E-01  8.50000000E-01
  8.50000000E-01  8.50000000E-01  8.50000000E-01  8.50000000E-01  8.50000000E-01
  8.50000000E-01  8.50000000E-01  8.50000000E-01  8.50000000E-01  8.50000000E-01
  8.50000000E-01  8.50000000E-01  8.50000000E-01  8.50000000E-01  8.50000000E-01
  8.50000000E-01  8.50000000E-01  8.50000000E-01  8.50000000E-01  8.50000000E-01
  8.50000000E-01  8.50000000E-01  8.50000000E-01  8.50000000E-01  8.50000000E-01
  8.50000000E-01  8.50000000E-01  8.50000000E-01  8.50000000E-01  8.50000000E-01
  8.50000000E-01  8.50000000E-01  8.50000000E-01  8.50000000E-01  8.50000000E-01
  8.50000000E-01  8.50000000E-01  8.50000000E-01  8.50000000E-01  8.50000000E-01
  8.50000000E-01  8.50000000E-01  8.50000000E-01  8.50000000E-01  8.50000000E-01
  8.50000000E-01  8.50000000E-01  8.50000000E-01  8.50000000E-01  8.50000000E-01
  8.50000000E-01  8.50000000E-01  8.50000000E-01  8.50000000E-01  8.50000000E-01
  8.50000000E-01  8.50000000E-01  8.50000000E-01  8.50000000E-01  8.50000000E-01
  8.50000000E-01  8.50000000E-01  8.50000000E-01  8.50000000E-01  8.50000000E-01
  8.50000000E-01  8.50000000E-01  8.50000000E-01  8.50000000E-01  8.50000000E-01
  8.50000000E-01  8.50000000E-01  8.50000000E-01  8.50000000E-01  8.50000000E-01
  8.50000000E-01  8.50000000E-01  8.50000000E-01  8.50000000E-01  8.50000000E-01
  8.50000000E-01  8.50000000E-01  8.50000000E-01  8.50000000E-01  8.50000000E-01
  8.50000000E-01  8.50000000E-01  8.50000000E-01  8.50000000E-01  8.50000000E-01
  8.50000000E-01  8.50000000E-01  8.50000000E-01  8.50000000E-01  8.00000000E-01
  8.00000000E-01  8.00000000E-01  8.00000000E-01  8.00000000E-01  8.00000000E-01
  8.00000000E-01  8.00000000E-01  8.00000000E-01  8.00000000E-01  8.00000000E-01
  8.00000000E-01  8.00000000E-01  8.00000000E-01  8.00000000E-01  8.00000000E-01
  8.00000000E-01  8.00000000E-01  8.00000000E-01  8.00000000E-01  8.00000000E-01
  8.00000000E-01  8.00000000E-01  8.00000000E-01  8.00000000E-01  8.00000000E-01
  8.00000000E-01  8.00000000E-01  8.00000000E-01  8.00000000E-01  8.00000000E-01
  8.00000000E-01  8.00000000E-01  8.00000000E-01  8.00000000E-01  8.00000000E-01
  8.00000000E-01  8.00000000E-01  8.00000000E-01  8.00000000E-01  8.00000000E-01
  8.00000000E-01  8.00000000E-01  8.00000000E-01  8.00000000E-01  8.00000000E-01
  8.00000000E-01  8.00000000E-01  8.50000000E-01  8.50000000E-01  8.50000000E-01
  8.50000000E-01  8.50000000E-01  8.50000000E-01  8.50000000E-01  8.50000000E-01
  8.50000000E-01  8.50000000E-01  8.50000000E-01  8.50000000E-01  8.50000000E-01
  8.50000000E-01  8.50000000E-01  8.50000000E-01  8.50000000E-01  8.50000000E-01
  8.50000000E-01  8.50000000E-01  8.50000000E-01  8.50000000E-01  8.50000000E-01
  8.50000000E-01  8.50000000E-01  8.50000000E-01  8.50000000E-01  8.50000000E-01
  8.50000000E-01  8.50000000E-01  8.50000000E-01  8.50000000E-01  8.50000000E-01
  8.50000000E-01  8.50000000E-01  8.50000000E-01  8.50000000E-01  8.50000000E-01
  8.50000000E-01  8.50000000E-01  8.50000000E-01  8.50000000E-01  8.50000000E-01
  8.50000000E-01  8.50000000E-01  8.50000000E-01  8.50000000E-01  8.50000000E-01
  8.50000000E-01  8.50000000E-01  8.50000000E-01  8.50000000E-01  8.50000000E-01
  8.50000000E-01  8.50000000E-01  8.50000000E-01  8.50000000E-01  8.50000000E-01
  8.50000000E-01  8.50000000E-01  8.50000000E-01  8.50000000E-01  8.50000000E-01
  8.50000000E-01  8.50000000E-01  8.50000000E-01  8.50000000E-01  8.50000000E-01
  8.50000000E-01  8.50000000E-01  8.50000000E-01  8.50000000E-01  8.50000000E-01
  8.50000000E-01  8.50000000E-01  8.50000000E-01  8.50000000E-01  8.50000000E-01
  8.50000000E-01  8.50000000E-01  8.50000000E-01  8.50000000E-01  8.50000000E-01
  8.50000000E-01  8.50000000E-01  8.50000000E-01  8.50000000E-01  8.50000000E-01
  8.50000000E-01  8.50000000E-01  8.50000000E-01  8.50000000E-01  8.50000000E-01
  8.50000000E-01  8.50000000E-01  8.50000000E-01  8.50000000E-01  8.50000000E-01
  8.50000000E-01  8.50000000E-01  8.50000000E-01  8.50000000E-01  8.50000000E-01
  8.50000000E-01  8.50000000E-01  8.50000000E-01  8.50000000E-01  8.50000000E-01
  8.50000000E-01  8.50000000E-01  8.50000000E-01  8.50000000E-01  8.50000000E-01
  8.50000000E-01  8.50000000E-01  8.50000000E-01  8.50000000E-01  8.50000000E-01
  8.50000000E-01  8.50000000E-01  8.50000000E-01  8.50000000E-01  8.50000000E-01
  8.50000000E-01  8.50000000E-01  8.50000000E-01  8.50000000E-01  8.50000000E-01
  8.50000000E-01  8.50000000E-01  8.50000000E-01  8.50000000E-01  8.50000000E-01
  8.50000000E-01  8.50000000E-01  8.50000000E-01  8.50000000E-01  8.50000000E-01
  8.50000000E-01  8.50000000E-01  8.50000000E-01  8.50000000E-01  8.50000000E-01
  8.50000000E-01  8.50000000E-01  8.50000000E-01  8.50000000E-01  8.50000000E-01
  8.50000000E-01  8.50000000E-01  8.50000000E-01  8.50000000E-01  8.50000000E-01
  8.50000000E-01  8.50000000E-01  8.50000000E-01  8.50000000E-01  8.50000000E-01
  8.50000000E-01  8.50000000E-01  8.50000000E-01  8.50000000E-01  8.50000000E-01
  8.50000000E-01  8.50000000E-01  8.50000000E-01  8.50000000E-01  8.50000000E-01
  8.50000000E-01  8.50000000E-01  8.50000000E-01  8.50000000E-01  8.50000000E-01
  8.50000000E-01  8.50000000E-01  8.50000000E-01  8.50000000E-01  8.50000000E-01
  8.50000000E-01  8.50000000E-01  8.50000000E-01  8.50000000E-01  8.50000000E-01
  8.50000000E-01  8.50000000E-01  8.50000000E-01  8.50000000E-01  8.50000000E-01
  8.50000000E-01  8.50000000E-01  8.50000000E-01  8.50000000E-01  8.50000000E-01
  8.50000000E-01  8.50000000E-01  8.50000000E-01  8.50000000E-01  8.50000000E-01
  8.50000000E-01  8.50000000E-01  8.50000000E-01  8.50000000E-01  8.50000000E-01
  8.50000000E-01  8.50000000E-01  8.50000000E-01  8.50000000E-01  8.50000000E-01
  8.50000000E-01  8.50000000E-01  8.50000000E-01  8.50000000E-01  8.50000000E-01
  8.50000000E-01  8.50000000E-01  8.50000000E-01  8.50000000E-01  8.50000000E-01
  8.50000000E-01  8.50000000E-01  8.50000000E-01  8.50000000E-01  8.50000000E-01
  8.50000000E-01  8.50000000E-01  8.50000000E-01  8.50000000E-01  8.50000000E-01
  8.50000000E-01  8.50000000E-01  8.50000000E-01  8.50000000E-01  8.50000000E-01
  8.50000000E-01  8.50000000E-01  8.50000000E-01  8.50000000E-01  8.50000000E-01
  8.50000000E-01  8.50000000E-01  8.50000000E-01  8.50000000E-01  8.50000000E-01
  8.50000000E-01  8.50000000E-01  8.50000000E-01  8.50000000E-01  8.50000000E-01
  8.50000000E-01  8.50000000E-01  8.50000000E-01  8.50000000E-01  8.50000000E-01
  8.50000000E-01  8.50000000E-01  8.50000000E-01  8.50000000E-01  8.50000000E-01
  8.50000000E-01  8.50000000E-01  8.50000000E-01  8.50000000E-01  8.50000000E-01
  8.50000000E-01  8.50000000E-01  8.50000000E-01  8.50000000E-01  8.50000000E-01
  8.50000000E-01  8.50000000E-01  8.50000000E-01  8.50000000E-01  8.50000000E-01
  8.50000000E-01  8.50000000E-01  8.50000000E-01  8.50000000E-01  8.50000000E-01
  8.50000000E-01  8.50000000E-01  8.50000000E-01  8.50000000E-01  8.50000000E-01
  8.50000000E-01  8.50000000E-01  8.50000000E-01  8.50000000E-01  8.50000000E-01
  8.50000000E-01  8.50000000E-01  8.50000000E-01  8.50000000E-01  8.50000000E-01
  8.50000000E-01  8.50000000E-01  8.50000000E-01  8.50000000E-01  8.50000000E-01
  8.50000000E-01  8.50000000E-01  8.50000000E-01  8.50000000E-01  8.50000000E-01
  8.50000000E-01  8.50000000E-01  8.50000000E-01  8.50000000E-01  8.50000000E-01
  8.50000000E-01  8.50000000E-01  8.50000000E-01  8.50000000E-01  8.50000000E-01
  8.50000000E-01  8.50000000E-01  8.50000000E-01  8.50000000E-01  8.50000000E-01
  8.50000000E-01  8.50000000E-01  8.50000000E-01  8.50000000E-01  8.50000000E-01
  8.50000000E-01  8.50000000E-01  8.50000000E-01  8.50000000E-01  8.50000000E-01
  8.50000000E-01  8.50000000E-01  8.50000000E-01  8.50000000E-01  8.50000000E-01
  8.50000000E-01  8.50000000E-01  8.50000000E-01  8.50000000E-01  8.50000000E-01
  8.50000000E-01  8.50000000E-01  8.50000000E-01  8.50000000E-01  8.50000000E-01
  8.50000000E-01  8.50000000E-01  8.50000000E-01  8.50000000E-01  8.50000000E-01
  8.50000000E-01  8.50000000E-01  8.50000000E-01  8.50000000E-01  8.50000000E-01
  8.50000000E-01  8.50000000E-01  8.50000000E-01  8.50000000E-01  8.50000000E-01
  8.50000000E-01  8.50000000E-01  8.50000000E-01  8.50000000E-01  8.50000000E-01
  8.50000000E-01  8.50000000E-01  8.50000000E-01  8.50000000E-01  8.50000000E-01
  8.50000000E-01  8.50000000E-01  8.50000000E-01  8.50000000E-01  8.50000000E-01
  8.50000000E-01  8.50000000E-01  8.50000000E-01  8.50000000E-01  8.50000000E-01
  8.50000000E-01  8.50000000E-01  8.50000000E-01  8.50000000E-01  8.50000000E-01
  8.50000000E-01  8.50000000E-01  8.50000000E-01  8.50000000E-01  8.50000000E-01
  8.50000000E-01  8.50000000E-01  8.50000000E-01  8.50000000E-01  8.50000000E-01
  8.50000000E-01  8.50000000E-01  8.50000000E-01  8.50000000E-01  8.50000000E-01
  8.50000000E-01  8.50000000E-01  8.50000000E-01  8.50000000E-01  8.50000000E-01
  8.50000000E-01  8.50000000E-01  8.50000000E-01  8.50000000E-01  8.50000000E-01
  8.50000000E-01  8.50000000E-01  8.50000000E-01  8.50000000E-01  8.50000000E-01
  8.50000000E-01  8.50000000E-01  8.50000000E-01  8.50000000E-01  8.50000000E-01
  8.50000000E-01  8.50000000E-01  8.50000000E-01  8.50000000E-01  8.50000000E-01
  8.50000000E-01  8.50000000E-01  8.50000000E-01  8.50000000E-01  8.50000000E-01
  8.50000000E-01  8.50000000E-01  8.50000000E-01  8.50000000E-01  8.50000000E-01
  8.50000000E-01  8.50000000E-01  8.50000000E-01  8.50000000E-01  8.50000000E-01
  8.50000000E-01  8.50000000E-01  8.50000000E-01  8.50000000E-01  8.50000000E-01
  8.50000000E-01  8.50000000E-01  8.50000000E-01  8.50000000E-01  8.50000000E-01
  8.50000000E-01  8.50000000E-01  8.50000000E-01  8.50000000E-01  8.50000000E-01
  8.50000000E-01  8.50000000E-01  8.50000000E-01  8.50000000E-01  8.50000000E-01
  8.50000000E-01  8.50000000E-01  8.50000000E-01  8.50000000E-01  8.50000000E-01
  8.50000000E-01  8.50000000E-01  8.50000000E-01  8.50000000E-01  8.50000000E-01
  8.50000000E-01  8.50000000E-01  8.50000000E-01  8.50000000E-01  8.50000000E-01
  8.50000000E-01  8.50000000E-01  8.50000000E-01  8.50000000E-01  8.50000000E-01
  8.50000000E-01  8.50000000E-01  8.50000000E-01  8.50000000E-01  8.50000000E-01
  8.50000000E-01  8.50000000E-01  8.50000000E-01  8.50000000E-01  8.50000000E-01
  8.50000000E-01  8.50000000E-01  8.50000000E-01  8.50000000E-01  8.50000000E-01
  8.50000000E-01  8.50000000E-01  8.50000000E-01  8.50000000E-01  8.50000000E-01
  8.50000000E-01  8.50000000E-01  8.50000000E-01  8.50000000E-01  8.50000000E-01
  8.50000000E-01  8.50000000E-01  8.50000000E-01  8.50000000E-01  8.50000000E-01
  8.50000000E-01  8.50000000E-01  8.50000000E-01  8.50000000E-01  8.50000000E-01
  8.50000000E-01  8.50000000E-01  8.50000000E-01  8.50000000E-01  8.50000000E-01
  8.50000000E-01  8.50000000E-01  8.50000000E-01  8.50000000E-01  8.50000000E-01
  8.50000000E-01  8.50000000E-01  8.50000000E-01  8.50000000E-01  8.50000000E-01
  8.50000000E-01  8.50000000E-01  8.50000000E-01  8.50000000E-01  8.50000000E-01
  8.50000000E-01  8.50000000E-01  8.50000000E-01  8.50000000E-01  8.50000000E-01
  8.50000000E-01  8.50000000E-01  8.50000000E-01  8.50000000E-01  8.50000000E-01
  8.50000000E-01  8.50000000E-01  8.50000000E-01  8.50000000E-01  8.50000000E-01
  8.50000000E-01  8.50000000E-01  8.50000000E-01  8.50000000E-01  8.50000000E-01
  8.50000000E-01  8.50000000E-01  8.50000000E-01  8.50000000E-01  8.50000000E-01
  8.50000000E-01  8.50000000E-01  8.50000000E-01  8.50000000E-01  8.50000000E-01
  8.50000000E-01  8.50000000E-01  8.50000000E-01  8.50000000E-01  8.50000000E-01
  8.50000000E-01  8.50000000E-01  8.50000000E-01  8.50000000E-01  8.50000000E-01
  8.50000000E-01  8.50000000E-01  8.50000000E-01  8.50000000E-01  8.50000000E-01
  8.50000000E-01  8.50000000E-01  8.50000000E-01  8.50000000E-01  8.50000000E-01
  8.50000000E-01  8.50000000E-01  8.50000000E-01  8.50000000E-01  8.50000000E-01
  8.50000000E-01  8.50000000E-01  8.50000000E-01  8.50000000E-01  8.50000000E-01
  8.50000000E-01  8.50000000E-01  8.50000000E-01  8.50000000E-01  8.50000000E-01
  8.50000000E-01  8.50000000E-01  8.50000000E-01  8.50000000E-01  8.50000000E-01
  8.50000000E-01  8.50000000E-01  8.50000000E-01  8.50000000E-01  8.50000000E-01
  8.50000000E-01  8.50000000E-01  8.50000000E-01  8.50000000E-01  8.50000000E-01
  8.50000000E-01  8.50000000E-01  8.50000000E-01  8.50000000E-01  8.50000000E-01
  8.50000000E-01  8.50000000E-01  8.50000000E-01  8.50000000E-01  8.50000000E-01
  8.50000000E-01  8.50000000E-01  8.50000000E-01  8.50000000E-01  8.50000000E-01
  8.50000000E-01  8.50000000E-01  8.50000000E-01  8.50000000E-01  8.50000000E-01
  8.50000000E-01  8.50000000E-01  8.50000000E-01  8.50000000E-01  8.50000000E-01
  8.50000000E-01  8.50000000E-01  8.50000000E-01  8.50000000E-01  8.50000000E-01
  8.50000000E-01  8.50000000E-01  8.50000000E-01  8.50000000E-01  8.50000000E-01
  8.50000000E-01  8.50000000E-01  8.50000000E-01  8.50000000E-01  8.50000000E-01
  8.50000000E-01  8.50000000E-01  8.50000000E-01  8.50000000E-01  8.50000000E-01
  8.50000000E-01  8.50000000E-01  8.50000000E-01  8.50000000E-01  8.50000000E-01
  8.50000000E-01  8.50000000E-01  8.50000000E-01  8.50000000E-01  8.50000000E-01
  8.50000000E-01  8.50000000E-01  8.50000000E-01  8.50000000E-01  8.50000000E-01
  8.50000000E-01  8.50000000E-01  8.50000000E-01  8.50000000E-01  8.50000000E-01
  8.50000000E-01  8.50000000E-01  8.50000000E-01  8.50000000E-01  8.50000000E-01
  8.50000000E-01  8.50000000E-01  8.50000000E-01  8.50000000E-01  8.50000000E-01
  8.50000000E-01  8.50000000E-01  8.50000000E-01  8.50000000E-01  8.50000000E-01
  8.50000000E-01  8.50000000E-01  8.50000000E-01  8.50000000E-01  8.50000000E-01
  8.50000000E-01  8.50000000E-01  8.50000000E-01  8.50000000E-01  8.50000000E-01
  8.50000000E-01  8.50000000E-01  8.50000000E-01  8.50000000E-01  8.50000000E-01
  8.50000000E-01  8.50000000E-01  8.50000000E-01  8.50000000E-01  8.50000000E-01
  8.50000000E-01  8.50000000E-01  8.50000000E-01  8.50000000E-01  8.50000000E-01
  8.50000000E-01  8.50000000E-01  8.50000000E-01  8.50000000E-01  8.50000000E-01
  8.50000000E-01  8.50000000E-01  8.50000000E-01  8.50000000E-01  8.50000000E-01
  8.50000000E-01  8.50000000E-01  8.50000000E-01  8.50000000E-01  8.50000000E-01
  8.50000000E-01  8.50000000E-01  8.50000000E-01  8.50000000E-01  8.50000000E-01
  8.50000000E-01  8.50000000E-01  8.50000000E-01  8.50000000E-01  8.50000000E-01
  8.50000000E-01  8.50000000E-01  8.50000000E-01  8.50000000E-01  8.50000000E-01
  8.50000000E-01  8.50000000E-01  8.50000000E-01  8.50000000E-01  8.50000000E-01
  8.50000000E-01  8.50000000E-01  8.50000000E-01  8.50000000E-01  8.50000000E-01
  8.50000000E-01  8.50000000E-01  8.50000000E-01  8.50000000E-01  8.50000000E-01
  8.50000000E-01  8.50000000E-01  8.50000000E-01  8.50000000E-01  8.50000000E-01
  8.50000000E-01  8.50000000E-01  8.50000000E-01  8.50000000E-01  8.50000000E-01
  8.50000000E-01  8.50000000E-01  8.50000000E-01  8.50000000E-01  8.50000000E-01
  8.50000000E-01  8.50000000E-01  8.50000000E-01  8.50000000E-01  8.50000000E-01
  8.50000000E-01  8.50000000E-01  8.50000000E-01  8.50000000E-01  8.50000000E-01
  8.50000000E-01  8.50000000E-01  8.50000000E-01  8.50000000E-01  8.50000000E-01
  8.50000000E-01  8.50000000E-01  8.50000000E-01  8.50000000E-01  8.50000000E-01
  8.50000000E-01  8.50000000E-01  8.50000000E-01  8.50000000E-01  8.50000000E-01
  8.50000000E-01  8.50000000E-01  8.50000000E-01  8.50000000E-01  8.50000000E-01
  8.50000000E-01  8.50000000E-01  8.50000000E-01  8.50000000E-01  8.50000000E-01
  8.50000000E-01  8.50000000E-01  8.50000000E-01  8.50000000E-01  8.50000000E-01
  8.50000000E-01  8.50000000E-01  8.50000000E-01  8.50000000E-01  8.50000000E-01
  8.50000000E-01  8.50000000E-01  8.50000000E-01  8.50000000E-01  8.50000000E-01
  8.50000000E-01  8.50000000E-01  8.50000000E-01  8.50000000E-01  8.50000000E-01
  8.50000000E-01  8.50000000E-01  8.50000000E-01  8.50000000E-01  8.50000000E-01
  8.50000000E-01  8.50000000E-01  8.50000000E-01  8.50000000E-01  8.50000000E-01
  8.50000000E-01  8.50000000E-01  8.50000000E-01  8.50000000E-01  8.50000000E-01
  8.50000000E-01  8.50000000E-01  8.50000000E-01  8.50000000E-01  8.50000000E-01
  8.50000000E-01  8.50000000E-01  8.50000000E-01  8.50000000E-01  8.50000000E-01
  8.50000000E-01  8.50000000E-01  8.50000000E-01  8.50000000E-01  8.50000000E-01
  8.50000000E-01  8.50000000E-01  8.50000000E-01  8.50000000E-01  8.50000000E-01
  8.50000000E-01  8.50000000E-01  8.50000000E-01  8.50000000E-01  8.50000000E-01
  8.50000000E-01  8.50000000E-01  8.50000000E-01  8.50000000E-01  8.50000000E-01
  8.50000000E-01  8.50000000E-01  8.50000000E-01  8.50000000E-01  8.50000000E-01
  8.50000000E-01  8.50000000E-01  8.50000000E-01  8.50000000E-01  8.50000000E-01
  8.50000000E-01  8.50000000E-01  8.50000000E-01  8.50000000E-01  8.50000000E-01
  8.50000000E-01  8.50000000E-01  8.50000000E-01  8.50000000E-01  8.50000000E-01
  8.50000000E-01  8.50000000E-01  8.50000000E-01  8.50000000E-01  8.50000000E-01
  8.50000000E-01  8.50000000E-01  8.50000000E-01  8.50000000E-01  8.50000000E-01
  8.50000000E-01  8.50000000E-01  8.50000000E-01  8.50000000E-01  8.50000000E-01
  8.50000000E-01  8.50000000E-01  8.50000000E-01  8.50000000E-01  8.50000000E-01
  8.50000000E-01  8.50000000E-01  8.50000000E-01  8.50000000E-01  8.50000000E-01
  8.50000000E-01  8.50000000E-01  8.50000000E-01  8.50000000E-01  8.50000000E-01
  8.50000000E-01  8.50000000E-01  8.50000000E-01  8.50000000E-01  8.50000000E-01
  8.50000000E-01  8.50000000E-01  8.50000000E-01  8.50000000E-01  8.50000000E-01
  8.50000000E-01  8.50000000E-01  8.50000000E-01  8.50000000E-01  8.50000000E-01
  8.50000000E-01  8.50000000E-01  8.50000000E-01  8.50000000E-01  8.50000000E-01
  8.50000000E-01  8.50000000E-01  8.50000000E-01  8.50000000E-01  8.50000000E-01
  8.50000000E-01  8.50000000E-01  8.50000000E-01  8.50000000E-01  8.50000000E-01
  8.50000000E-01  8.50000000E-01  8.50000000E-01  8.50000000E-01  8.50000000E-01
  8.50000000E-01  8.50000000E-01  8.50000000E-01  8.50000000E-01  8.50000000E-01
  8.50000000E-01  8.50000000E-01  8.50000000E-01  8.50000000E-01  8.50000000E-01
  8.50000000E-01  8.50000000E-01  8.50000000E-01  8.50000000E-01  8.50000000E-01
  8.50000000E-01  8.50000000E-01  8.50000000E-01  8.50000000E-01  8.50000000E-01
  8.50000000E-01  8.50000000E-01  8.50000000E-01  8.50000000E-01  8.50000000E-01
  8.50000000E-01  8.50000000E-01  8.50000000E-01  8.50000000E-01  8.50000000E-01
  8.50000000E-01  8.50000000E-01  8.50000000E-01  8.50000000E-01  8.50000000E-01
  8.50000000E-01  8.50000000E-01  8.50000000E-01  8.50000000E-01  8.50000000E-01
  8.50000000E-01  8.50000000E-01  8.50000000E-01  8.50000000E-01  8.50000000E-01
  8.50000000E-01  8.50000000E-01  8.50000000E-01  8.50000000E-01  8.50000000E-01
  8.50000000E-01  8.50000000E-01  8.50000000E-01  8.50000000E-01  8.50000000E-01
  8.50000000E-01  8.50000000E-01  8.50000000E-01  8.50000000E-01  8.50000000E-01
  8.50000000E-01  8.50000000E-01  8.50000000E-01  8.50000000E-01  8.50000000E-01
  8.50000000E-01  8.50000000E-01  8.50000000E-01  8.50000000E-01  8.50000000E-01
  8.50000000E-01  8.50000000E-01  8.50000000E-01  8.50000000E-01  8.50000000E-01
  8.50000000E-01  8.50000000E-01  8.50000000E-01  8.50000000E-01  8.50000000E-01
  8.50000000E-01  8.50000000E-01  8.50000000E-01  8.50000000E-01  8.50000000E-01
  8.50000000E-01  8.50000000E-01  8.50000000E-01  8.50000000E-01  8.50000000E-01
  8.50000000E-01  8.50000000E-01  8.50000000E-01  8.50000000E-01  8.50000000E-01
  8.50000000E-01  8.50000000E-01  8.50000000E-01  8.50000000E-01  8.50000000E-01
  8.50000000E-01  8.50000000E-01  8.50000000E-01  8.50000000E-01  8.50000000E-01
  8.50000000E-01  8.50000000E-01  8.50000000E-01  8.50000000E-01  8.50000000E-01
  8.50000000E-01  8.50000000E-01  8.50000000E-01  8.50000000E-01  8.50000000E-01
  8.50000000E-01  8.50000000E-01  8.50000000E-01  8.50000000E-01  8.50000000E-01
  8.50000000E-01  8.50000000E-01  8.50000000E-01  8.50000000E-01  8.50000000E-01
  8.50000000E-01  8.50000000E-01  8.50000000E-01  8.50000000E-01  8.50000000E-01
  8.50000000E-01  8.50000000E-01  8.50000000E-01  8.50000000E-01  8.50000000E-01
  8.50000000E-01  8.50000000E-01  8.50000000E-01  8.50000000E-01  8.50000000E-01
  8.50000000E-01  8.50000000E-01  8.50000000E-01  8.50000000E-01  8.50000000E-01
  8.50000000E-01  8.50000000E-01  8.50000000E-01  8.50000000E-01  8.50000000E-01
  8.50000000E-01  8.50000000E-01  8.50000000E-01  8.50000000E-01  8.50000000E-01
  8.50000000E-01  8.50000000E-01  8.50000000E-01  8.50000000E-01  8.50000000E-01
  8.50000000E-01  8.50000000E-01  8.50000000E-01  8.50000000E-01  8.50000000E-01
  8.50000000E-01  8.50000000E-01  8.50000000E-01  8.50000000E-01  8.50000000E-01
  8.50000000E-01  8.50000000E-01  8.50000000E-01  8.50000000E-01  8.50000000E-01
  8.50000000E-01  8.50000000E-01  8.50000000E-01  8.50000000E-01  8.50000000E-01
  8.50000000E-01  8.50000000E-01  8.50000000E-01  8.50000000E-01  8.50000000E-01
  8.50000000E-01  8.50000000E-01  8.50000000E-01  8.50000000E-01  8.50000000E-01
  8.50000000E-01  8.50000000E-01  8.50000000E-01  8.50000000E-01  8.50000000E-01
  8.50000000E-01  8.50000000E-01  8.50000000E-01  8.50000000E-01  8.50000000E-01
  8.50000000E-01  8.50000000E-01  8.50000000E-01  8.50000000E-01  8.50000000E-01
  8.50000000E-01  8.50000000E-01  8.50000000E-01  8.50000000E-01  8.50000000E-01
  8.50000000E-01  8.50000000E-01  8.50000000E-01  8.50000000E-01  8.50000000E-01
  8.50000000E-01  8.50000000E-01  8.50000000E-01  8.50000000E-01  8.50000000E-01
  8.50000000E-01  8.50000000E-01  8.50000000E-01  8.50000000E-01  8.50000000E-01
  8.50000000E-01  8.50000000E-01  8.50000000E-01  8.50000000E-01  8.50000000E-01
  8.50000000E-01  8.50000000E-01  8.50000000E-01  8.50000000E-01  8.50000000E-01
  8.50000000E-01  8.50000000E-01  8.50000000E-01  8.50000000E-01  8.50000000E-01
  8.50000000E-01  8.50000000E-01  8.50000000E-01  8.50000000E-01  8.50000000E-01
  8.50000000E-01  8.50000000E-01  8.50000000E-01  8.50000000E-01  8.50000000E-01
  8.50000000E-01  8.50000000E-01  8.50000000E-01  8.50000000E-01  8.50000000E-01
  8.50000000E-01  8.50000000E-01  8.50000000E-01  8.50000000E-01  8.50000000E-01
  8.50000000E-01  8.50000000E-01  8.50000000E-01  8.50000000E-01  8.50000000E-01
  8.50000000E-01  8.50000000E-01  8.50000000E-01  8.50000000E-01  8.50000000E-01
  8.50000000E-01  8.50000000E-01  8.50000000E-01  8.50000000E-01  8.50000000E-01
  8.50000000E-01  8.50000000E-01  8.50000000E-01  8.50000000E-01  8.50000000E-01
  8.50000000E-01  8.50000000E-01  8.50000000E-01  8.50000000E-01  8.50000000E-01
  8.50000000E-01  8.50000000E-01  8.50000000E-01  8.50000000E-01  8.50000000E-01
  8.50000000E-01  8.50000000E-01  8.50000000E-01  8.50000000E-01  8.50000000E-01
  8.50000000E-01  8.50000000E-01  8.50000000E-01  8.50000000E-01  8.50000000E-01
  8.50000000E-01  8.50000000E-01  8.50000000E-01  8.50000000E-01  8.50000000E-01
  8.50000000E-01  8.50000000E-01  8.50000000E-01  8.50000000E-01  8.50000000E-01
  8.50000000E-01  8.50000000E-01  8.50000000E-01  8.50000000E-01  8.50000000E-01
  8.50000000E-01  8.50000000E-01  8.50000000E-01  8.50000000E-01  8.50000000E-01
  8.50000000E-01  8.50000000E-01  8.50000000E-01  8.50000000E-01  8.50000000E-01
  8.50000000E-01  8.50000000E-01  8.50000000E-01  8.50000000E-01  8.50000000E-01
  8.50000000E-01  8.50000000E-01  8.50000000E-01  8.50000000E-01  8.50000000E-01
  8.50000000E-01  8.50000000E-01  8.50000000E-01  8.50000000E-01  8.50000000E-01
  8.50000000E-01  8.50000000E-01  8.50000000E-01  8.50000000E-01  8.50000000E-01
  8.50000000E-01  8.50000000E-01  8.50000000E-01  8.50000000E-01  8.50000000E-01
  8.50000000E-01  8.50000000E-01  8.50000000E-01  8.50000000E-01  8.50000000E-01
  8.50000000E-01  8.50000000E-01  8.50000000E-01  8.50000000E-01  8.50000000E-01
  8.50000000E-01  8.50000000E-01  8.50000000E-01  8.50000000E-01  8.50000000E-01
  8.50000000E-01  8.50000000E-01  8.50000000E-01  8.50000000E-01  8.50000000E-01
  8.50000000E-01  8.50000000E-01  8.50000000E-01  8.50000000E-01  8.50000000E-01
  8.50000000E-01  8.50000000E-01  8.50000000E-01  8.50000000E-01  8.50000000E-01
  8.50000000E-01  8.50000000E-01  8.50000000E-01  8.50000000E-01  8.50000000E-01
  8.50000000E-01  8.50000000E-01  8.50000000E-01  8.50000000E-01  8.50000000E-01
  8.50000000E-01  8.50000000E-01  8.50000000E-01  8.50000000E-01  8.50000000E-01
  8.50000000E-01  8.50000000E-01  8.50000000E-01  8.50000000E-01  8.50000000E-01
  8.50000000E-01  8.50000000E-01  8.50000000E-01  8.50000000E-01  8.50000000E-01
  8.50000000E-01  8.50000000E-01  8.50000000E-01  8.50000000E-01  8.50000000E-01
  8.50000000E-01  8.50000000E-01  8.50000000E-01  8.50000000E-01  8.50000000E-01
  8.50000000E-01  8.50000000E-01  8.50000000E-01  8.50000000E-01  8.50000000E-01
  8.50000000E-01  8.50000000E-01  8.50000000E-01  8.50000000E-01  8.50000000E-01
  8.50000000E-01  8.50000000E-01  8.50000000E-01  8.50000000E-01  8.50000000E-01
  8.50000000E-01  8.50000000E-01  8.50000000E-01  8.50000000E-01  8.50000000E-01
  8.50000000E-01  8.50000000E-01  8.50000000E-01  8.50000000E-01  8.50000000E-01
  8.50000000E-01  8.50000000E-01  8.50000000E-01  8.50000000E-01  8.50000000E-01
  8.50000000E-01  8.50000000E-01  8.50000000E-01  8.50000000E-01  8.50000000E-01
  8.50000000E-01  8.50000000E-01  8.50000000E-01  8.50000000E-01  8.50000000E-01
  8.50000000E-01  8.50000000E-01  8.50000000E-01  8.50000000E-01  8.50000000E-01
  8.50000000E-01  8.50000000E-01  8.50000000E-01  8.50000000E-01  8.50000000E-01
  8.50000000E-01  8.50000000E-01  8.50000000E-01  8.50000000E-01  8.50000000E-01
  8.50000000E-01  8.50000000E-01  8.50000000E-01  8.50000000E-01  8.50000000E-01
  8.50000000E-01  8.50000000E-01  8.50000000E-01  8.50000000E-01  8.50000000E-01
  8.50000000E-01  8.50000000E-01  8.50000000E-01  8.50000000E-01  8.50000000E-01
  8.50000000E-01  8.50000000E-01  8.50000000E-01  8.50000000E-01  8.50000000E-01
  8.50000000E-01  8.50000000E-01  8.50000000E-01  8.50000000E-01  8.50000000E-01
  8.50000000E-01  8.50000000E-01  8.50000000E-01  8.50000000E-01  8.50000000E-01
  8.50000000E-01  8.50000000E-01  8.50000000E-01  8.50000000E-01  8.50000000E-01
  8.50000000E-01  8.50000000E-01  8.50000000E-01  8.50000000E-01  8.50000000E-01
  8.50000000E-01  8.50000000E-01  8.50000000E-01  8.50000000E-01  8.50000000E-01
  8.50000000E-01  8.50000000E-01  8.50000000E-01  8.50000000E-01  8.50000000E-01
  8.50000000E-01  8.50000000E-01  8.50000000E-01  8.50000000E-01  8.50000000E-01
  8.50000000E-01  8.50000000E-01  8.50000000E-01  8.50000000E-01  8.50000000E-01
  8.50000000E-01  8.50000000E-01  8.50000000E-01  8.50000000E-01  8.50000000E-01
  8.50000000E-01  8.50000000E-01  8.50000000E-01  8.50000000E-01  8.50000000E-01
  8.50000000E-01  8.50000000E-01  8.50000000E-01  8.50000000E-01  8.50000000E-01
  8.50000000E-01  8.50000000E-01  8.50000000E-01  8.50000000E-01  8.50000000E-01
  8.50000000E-01  8.50000000E-01  8.50000000E-01  8.50000000E-01  8.50000000E-01
  8.50000000E-01  8.50000000E-01  8.50000000E-01  8.50000000E-01  8.50000000E-01
  8.50000000E-01  8.50000000E-01  8.50000000E-01  8.50000000E-01  8.50000000E-01
  8.50000000E-01  8.50000000E-01  8.50000000E-01  8.50000000E-01  8.50000000E-01
  8.50000000E-01  8.50000000E-01  8.50000000E-01  8.50000000E-01  8.50000000E-01
  8.50000000E-01  8.50000000E-01  8.50000000E-01  8.50000000E-01  8.50000000E-01
  8.50000000E-01  8.50000000E-01  8.50000000E-01  8.50000000E-01  8.50000000E-01
  8.50000000E-01  8.50000000E-01  8.50000000E-01  8.50000000E-01  8.50000000E-01
  8.50000000E-01  8.50000000E-01  8.50000000E-01  8.50000000E-01  8.50000000E-01
  8.50000000E-01  8.50000000E-01  8.50000000E-01  8.50000000E-01  8.50000000E-01
  8.50000000E-01  8.50000000E-01  8.50000000E-01  8.50000000E-01  8.50000000E-01
  8.50000000E-01  8.50000000E-01  8.50000000E-01  8.50000000E-01  8.50000000E-01
  8.50000000E-01  8.50000000E-01  8.50000000E-01  8.50000000E-01  8.50000000E-01
  8.50000000E-01  8.50000000E-01  8.50000000E-01  8.50000000E-01  8.50000000E-01
  8.50000000E-01  8.50000000E-01  8.50000000E-01  8.50000000E-01  8.50000000E-01
  8.50000000E-01  8.50000000E-01  8.50000000E-01  8.50000000E-01  8.50000000E-01
  8.50000000E-01  8.50000000E-01  8.50000000E-01  8.50000000E-01  8.50000000E-01
  8.50000000E-01  8.50000000E-01  8.50000000E-01  8.50000000E-01  8.50000000E-01
  8.50000000E-01  8.50000000E-01  8.50000000E-01  8.50000000E-01  8.50000000E-01
  8.50000000E-01  8.50000000E-01  8.50000000E-01  8.50000000E-01  8.50000000E-01
  8.50000000E-01  8.50000000E-01  8.50000000E-01  8.50000000E-01  8.50000000E-01
  8.50000000E-01  8.50000000E-01  8.50000000E-01  8.50000000E-01  8.50000000E-01
  8.50000000E-01  8.50000000E-01  8.50000000E-01  8.50000000E-01  8.50000000E-01
  8.50000000E-01  8.50000000E-01  8.50000000E-01  8.50000000E-01  8.50000000E-01
  8.50000000E-01  8.50000000E-01  8.50000000E-01  8.50000000E-01  8.50000000E-01
  8.50000000E-01  8.50000000E-01  8.50000000E-01  8.50000000E-01  8.50000000E-01
  8.50000000E-01  8.50000000E-01  8.50000000E-01  8.50000000E-01  8.50000000E-01
  8.50000000E-01  8.50000000E-01  8.50000000E-01  8.50000000E-01  8.50000000E-01
  8.50000000E-01  8.50000000E-01  8.50000000E-01  8.50000000E-01  8.50000000E-01
  8.50000000E-01  8.50000000E-01  8.50000000E-01  8.50000000E-01  8.50000000E-01
  8.50000000E-01  8.50000000E-01  8.50000000E-01  8.50000000E-01  8.50000000E-01
  8.50000000E-01  8.50000000E-01  8.50000000E-01  8.50000000E-01  8.50000000E-01
  8.50000000E-01  8.50000000E-01  8.50000000E-01  8.50000000E-01  8.50000000E-01
  8.50000000E-01  8.50000000E-01  8.50000000E-01  8.50000000E-01  8.50000000E-01
  8.50000000E-01  8.50000000E-01  8.50000000E-01  8.50000000E-01  8.50000000E-01
  8.50000000E-01  8.50000000E-01  8.50000000E-01  8.50000000E-01  8.50000000E-01
  8.50000000E-01  8.50000000E-01  8.50000000E-01  8.50000000E-01  8.50000000E-01
  8.50000000E-01  8.50000000E-01  8.50000000E-01  8.50000000E-01  8.50000000E-01
  8.50000000E-01  8.50000000E-01  8.50000000E-01  8.50000000E-01  8.50000000E-01
  8.50000000E-01  8.50000000E-01  8.50000000E-01  8.50000000E-01  8.50000000E-01
  8.50000000E-01  8.50000000E-01  8.50000000E-01  8.50000000E-01  8.50000000E-01
  8.50000000E-01  8.50000000E-01  8.50000000E-01  8.50000000E-01  8.50000000E-01
  8.50000000E-01  8.50000000E-01  8.50000000E-01  8.50000000E-01  8.50000000E-01
  8.50000000E-01  8.50000000E-01  8.50000000E-01  8.50000000E-01  8.50000000E-01
  8.50000000E-01  8.50000000E-01  8.50000000E-01  8.50000000E-01  8.50000000E-01
  8.50000000E-01  8.50000000E-01  8.50000000E-01  8.50000000E-01  8.50000000E-01
  8.50000000E-01  8.50000000E-01  8.50000000E-01  8.50000000E-01  8.50000000E-01
  8.50000000E-01  8.50000000E-01  8.50000000E-01  8.50000000E-01  8.50000000E-01
  8.50000000E-01  8.50000000E-01  8.50000000E-01  8.50000000E-01  8.50000000E-01
  8.50000000E-01  8.50000000E-01  8.50000000E-01  8.50000000E-01  8.50000000E-01
  8.50000000E-01  8.50000000E-01  8.50000000E-01  8.50000000E-01  8.50000000E-01
  8.50000000E-01  8.50000000E-01  8.50000000E-01  8.50000000E-01  8.50000000E-01
  8.50000000E-01  8.50000000E-01  8.50000000E-01  8.50000000E-01  8.50000000E-01
  8.50000000E-01  8.50000000E-01  8.50000000E-01  8.50000000E-01  8.50000000E-01
  8.50000000E-01  8.50000000E-01  8.50000000E-01  8.50000000E-01  8.50000000E-01
  8.50000000E-01  8.50000000E-01  8.50000000E-01  8.50000000E-01  8.50000000E-01
  8.50000000E-01  8.50000000E-01  8.50000000E-01  8.50000000E-01  8.50000000E-01
  8.50000000E-01  8.50000000E-01  8.50000000E-01  8.50000000E-01  8.50000000E-01
  8.50000000E-01  8.50000000E-01  8.50000000E-01  8.50000000E-01  8.50000000E-01
  8.50000000E-01  8.50000000E-01  8.50000000E-01  8.50000000E-01  8.50000000E-01
  8.50000000E-01  8.50000000E-01  8.50000000E-01  8.50000000E-01  8.50000000E-01
  8.50000000E-01  8.50000000E-01  8.50000000E-01  8.50000000E-01  8.50000000E-01
  8.50000000E-01  8.50000000E-01  8.50000000E-01  8.50000000E-01  8.50000000E-01
  8.50000000E-01  8.50000000E-01  8.50000000E-01  8.50000000E-01  8.50000000E-01
  8.50000000E-01  8.50000000E-01  8.50000000E-01  8.50000000E-01  8.50000000E-01
  8.50000000E-01  8.50000000E-01  8.50000000E-01  8.50000000E-01  8.50000000E-01
  8.50000000E-01  8.50000000E-01  8.50000000E-01  8.50000000E-01  8.50000000E-01
  8.50000000E-01  8.50000000E-01  8.50000000E-01  8.50000000E-01  8.50000000E-01
  8.50000000E-01  8.50000000E-01  8.50000000E-01  8.50000000E-01  8.50000000E-01
  8.50000000E-01  8.50000000E-01  8.50000000E-01  8.50000000E-01  8.50000000E-01
  8.50000000E-01  8.50000000E-01  8.50000000E-01  8.50000000E-01  8.50000000E-01
  8.50000000E-01  8.50000000E-01  8.50000000E-01  8.50000000E-01  8.50000000E-01
  8.50000000E-01  8.50000000E-01  8.50000000E-01  8.50000000E-01  8.50000000E-01
  8.50000000E-01  8.50000000E-01  8.50000000E-01  8.50000000E-01  8.50000000E-01
  8.50000000E-01  8.50000000E-01  8.50000000E-01  8.50000000E-01  8.50000000E-01
  8.50000000E-01  8.50000000E-01  8.50000000E-01  8.50000000E-01  8.50000000E-01
  8.50000000E-01  8.50000000E-01  8.50000000E-01  8.50000000E-01  8.50000000E-01
  8.50000000E-01  8.50000000E-01  8.50000000E-01  8.50000000E-01  8.50000000E-01
  8.50000000E-01  8.50000000E-01  8.50000000E-01  8.50000000E-01  8.50000000E-01
  8.50000000E-01  8.50000000E-01  8.50000000E-01  8.50000000E-01  8.50000000E-01
  8.50000000E-01  8.50000000E-01  8.50000000E-01  8.50000000E-01  8.50000000E-01
  8.50000000E-01  8.50000000E-01  8.50000000E-01  8.50000000E-01  8.50000000E-01
  8.50000000E-01  8.50000000E-01  8.50000000E-01  8.50000000E-01  8.50000000E-01
  8.50000000E-01  8.50000000E-01  8.50000000E-01  8.50000000E-01  8.50000000E-01
  8.50000000E-01  8.50000000E-01  8.50000000E-01  8.50000000E-01  8.50000000E-01
  8.50000000E-01  8.50000000E-01  8.50000000E-01  8.50000000E-01  8.50000000E-01
  8.50000000E-01  8.50000000E-01  8.50000000E-01  8.50000000E-01  8.50000000E-01
  8.50000000E-01  8.50000000E-01  8.50000000E-01  8.50000000E-01  8.50000000E-01
  8.50000000E-01  8.50000000E-01  8.50000000E-01  8.50000000E-01  8.50000000E-01
  8.50000000E-01  8.50000000E-01  8.50000000E-01  8.50000000E-01  8.50000000E-01
  8.50000000E-01  8.50000000E-01  8.50000000E-01  8.50000000E-01  8.50000000E-01
  8.50000000E-01  8.50000000E-01  8.50000000E-01  8.50000000E-01  8.50000000E-01
  8.50000000E-01  8.50000000E-01  8.50000000E-01  8.50000000E-01  8.50000000E-01
  8.50000000E-01  8.50000000E-01  8.50000000E-01  8.50000000E-01  8.50000000E-01
  8.50000000E-01  8.50000000E-01  8.50000000E-01  8.50000000E-01  8.50000000E-01
  8.50000000E-01  8.50000000E-01  8.50000000E-01  8.50000000E-01  8.50000000E-01
  8.50000000E-01  8.50000000E-01  8.50000000E-01  8.50000000E-01  8.50000000E-01
  8.50000000E-01  8.50000000E-01  8.50000000E-01  8.50000000E-01  8.50000000E-01
  8.50000000E-01  8.50000000E-01  8.50000000E-01  8.50000000E-01  8.50000000E-01
  8.50000000E-01  8.50000000E-01  8.50000000E-01  8.50000000E-01  8.50000000E-01
  8.50000000E-01  8.50000000E-01  8.50000000E-01  8.50000000E-01  8.50000000E-01
  8.50000000E-01  8.50000000E-01  8.50000000E-01  8.50000000E-01  8.50000000E-01
  8.50000000E-01  8.50000000E-01  8.50000000E-01  8.50000000E-01  8.50000000E-01
  8.50000000E-01  8.50000000E-01  8.50000000E-01  8.50000000E-01  8.50000000E-01
  8.50000000E-01  8.50000000E-01  8.50000000E-01  8.50000000E-01  8.50000000E-01
  8.50000000E-01  8.50000000E-01  8.50000000E-01  8.50000000E-01  8.50000000E-01
  8.50000000E-01  8.50000000E-01  8.50000000E-01  8.50000000E-01  8.50000000E-01
  8.50000000E-01  8.50000000E-01  8.50000000E-01  8.50000000E-01  8.50000000E-01
  8.50000000E-01  8.50000000E-01  8.50000000E-01  8.50000000E-01  8.50000000E-01
  8.50000000E-01  8.50000000E-01  8.50000000E-01  8.50000000E-01  8.50000000E-01
  8.50000000E-01  8.50000000E-01  8.50000000E-01  8.50000000E-01  8.50000000E-01
  8.50000000E-01  8.50000000E-01  8.50000000E-01  8.50000000E-01  8.50000000E-01
  8.50000000E-01  8.50000000E-01  8.50000000E-01  8.50000000E-01  8.50000000E-01
  8.50000000E-01  8.50000000E-01  8.50000000E-01  8.50000000E-01  8.50000000E-01
  8.50000000E-01  8.50000000E-01  8.50000000E-01  8.50000000E-01  8.50000000E-01
  8.50000000E-01  8.50000000E-01  8.50000000E-01  8.50000000E-01  8.50000000E-01
  8.50000000E-01  8.50000000E-01  8.50000000E-01  8.50000000E-01  8.50000000E-01
  8.50000000E-01  8.50000000E-01  8.50000000E-01  8.50000000E-01  8.50000000E-01
  8.50000000E-01  8.50000000E-01  8.50000000E-01  8.50000000E-01  8.50000000E-01
  8.50000000E-01  8.50000000E-01  8.50000000E-01  8.50000000E-01  8.50000000E-01
  8.50000000E-01  8.50000000E-01  8.50000000E-01  8.50000000E-01  8.50000000E-01
  8.50000000E-01  8.50000000E-01  8.50000000E-01  8.50000000E-01  8.50000000E-01
  8.50000000E-01  8.50000000E-01  8.50000000E-01  8.50000000E-01  8.50000000E-01
  8.50000000E-01  8.50000000E-01  8.50000000E-01  8.50000000E-01  8.50000000E-01
  8.50000000E-01  8.50000000E-01  8.50000000E-01  8.50000000E-01  8.50000000E-01
  8.50000000E-01  8.50000000E-01  8.50000000E-01  8.50000000E-01  8.50000000E-01
  8.50000000E-01  8.50000000E-01  8.50000000E-01  8.50000000E-01  8.50000000E-01
  8.50000000E-01  8.50000000E-01  8.50000000E-01  8.50000000E-01  8.50000000E-01
  8.50000000E-01  8.50000000E-01  8.50000000E-01  8.50000000E-01  8.50000000E-01
  8.50000000E-01  8.50000000E-01  8.50000000E-01  8.50000000E-01  8.50000000E-01
  8.50000000E-01  8.50000000E-01  8.50000000E-01  8.50000000E-01  8.50000000E-01
  8.50000000E-01  8.50000000E-01  8.50000000E-01  8.50000000E-01  8.50000000E-01
  8.50000000E-01  8.50000000E-01  8.50000000E-01  8.50000000E-01  8.50000000E-01
  8.50000000E-01  8.50000000E-01  8.50000000E-01  8.50000000E-01  8.50000000E-01
  8.50000000E-01  8.50000000E-01  8.50000000E-01  8.50000000E-01  8.50000000E-01
  8.50000000E-01  8.50000000E-01  8.50000000E-01  8.50000000E-01  8.50000000E-01
  8.50000000E-01  8.50000000E-01  8.50000000E-01  8.50000000E-01  8.50000000E-01
  8.50000000E-01  8.50000000E-01  8.50000000E-01  8.50000000E-01  8.50000000E-01
  8.50000000E-01  8.50000000E-01  8.50000000E-01  8.50000000E-01  8.50000000E-01
  8.50000000E-01  8.50000000E-01  8.50000000E-01  8.50000000E-01  8.50000000E-01
  8.50000000E-01  8.50000000E-01  8.50000000E-01  8.50000000E-01  8.50000000E-01
  8.50000000E-01  8.50000000E-01  8.50000000E-01  8.50000000E-01  8.50000000E-01
  8.50000000E-01  8.50000000E-01  8.50000000E-01  8.50000000E-01  8.50000000E-01
  8.50000000E-01  8.50000000E-01  8.50000000E-01  8.50000000E-01  8.50000000E-01
  8.50000000E-01  8.50000000E-01  8.50000000E-01  8.50000000E-01  8.50000000E-01
  8.50000000E-01  8.50000000E-01  8.50000000E-01  8.50000000E-01  8.50000000E-01
  8.50000000E-01  8.50000000E-01  8.50000000E-01  8.50000000E-01  8.50000000E-01
  8.50000000E-01  8.50000000E-01  8.50000000E-01  8.50000000E-01  8.50000000E-01
  8.50000000E-01  8.50000000E-01  8.50000000E-01  8.50000000E-01  8.50000000E-01
  8.50000000E-01  8.50000000E-01  8.50000000E-01  8.50000000E-01  8.50000000E-01
  8.50000000E-01  8.50000000E-01  8.50000000E-01  8.50000000E-01  8.50000000E-01
  8.50000000E-01  8.50000000E-01  8.50000000E-01  8.50000000E-01  8.50000000E-01
  8.50000000E-01  8.50000000E-01  8.50000000E-01  8.50000000E-01  8.50000000E-01
  8.50000000E-01  8.50000000E-01  8.50000000E-01  8.50000000E-01  8.50000000E-01
  8.50000000E-01  8.50000000E-01  8.50000000E-01  8.50000000E-01  8.50000000E-01
  8.50000000E-01  8.50000000E-01  8.50000000E-01  8.50000000E-01  8.50000000E-01
  8.50000000E-01  8.50000000E-01  8.50000000E-01  8.50000000E-01  8.50000000E-01
  8.50000000E-01  8.50000000E-01  8.50000000E-01  8.50000000E-01  8.50000000E-01
  8.50000000E-01  8.50000000E-01  8.50000000E-01  8.50000000E-01  8.50000000E-01
  8.50000000E-01  8.50000000E-01  8.50000000E-01  8.50000000E-01  8.50000000E-01
  8.50000000E-01  8.50000000E-01  8.50000000E-01  8.50000000E-01  8.50000000E-01
  8.50000000E-01  8.50000000E-01  8.50000000E-01  8.50000000E-01  8.50000000E-01
  8.50000000E-01  8.50000000E-01  8.50000000E-01  8.50000000E-01  8.50000000E-01
  8.50000000E-01  8.50000000E-01  8.50000000E-01  8.50000000E-01  8.50000000E-01
  8.50000000E-01  8.50000000E-01  8.50000000E-01  8.50000000E-01  8.50000000E-01
  8.50000000E-01  8.50000000E-01  8.50000000E-01  8.50000000E-01  8.50000000E-01
  8.50000000E-01  8.50000000E-01  8.50000000E-01  8.50000000E-01  8.50000000E-01
  8.50000000E-01  8.50000000E-01  8.50000000E-01  8.50000000E-01  8.50000000E-01
  8.50000000E-01  8.50000000E-01  8.50000000E-01  8.50000000E-01  8.50000000E-01
  8.50000000E-01  8.50000000E-01  8.50000000E-01  8.50000000E-01  8.50000000E-01
  8.50000000E-01  8.50000000E-01  8.50000000E-01  8.50000000E-01  8.50000000E-01
  8.50000000E-01  8.50000000E-01  8.50000000E-01  8.50000000E-01  8.50000000E-01
  8.50000000E-01  8.50000000E-01  8.50000000E-01  8.50000000E-01  8.50000000E-01
  8.50000000E-01  8.50000000E-01  8.50000000E-01  8.50000000E-01  8.50000000E-01
  8.50000000E-01  8.50000000E-01  8.50000000E-01  8.50000000E-01  8.50000000E-01
  8.50000000E-01  8.50000000E-01  8.50000000E-01  8.50000000E-01  8.50000000E-01
  8.50000000E-01  8.50000000E-01  8.50000000E-01  8.50000000E-01  8.50000000E-01
  8.50000000E-01  8.50000000E-01  8.50000000E-01  8.50000000E-01  8.50000000E-01
  8.50000000E-01  8.50000000E-01  8.50000000E-01  8.50000000E-01  8.50000000E-01
  8.50000000E-01  8.50000000E-01  8.50000000E-01  8.50000000E-01  8.50000000E-01
  8.50000000E-01  8.50000000E-01  8.50000000E-01  8.50000000E-01  8.50000000E-01
  8.50000000E-01  8.50000000E-01  8.50000000E-01  8.50000000E-01  8.50000000E-01
  8.50000000E-01  8.50000000E-01  8.50000000E-01  8.50000000E-01  8.50000000E-01
  8.50000000E-01  8.50000000E-01  8.50000000E-01  8.50000000E-01  8.50000000E-01
  8.50000000E-01  8.50000000E-01  8.50000000E-01  8.50000000E-01  8.50000000E-01
  8.50000000E-01  8.50000000E-01  8.50000000E-01  8.50000000E-01  8.50000000E-01
  8.50000000E-01  8.50000000E-01  8.50000000E-01  8.50000000E-01  8.50000000E-01
  8.50000000E-01  8.50000000E-01  8.50000000E-01  8.50000000E-01  8.50000000E-01
  8.50000000E-01  8.50000000E-01  8.50000000E-01  8.50000000E-01  8.50000000E-01
  8.50000000E-01  8.50000000E-01  8.50000000E-01  8.50000000E-01  8.50000000E-01
  8.50000000E-01  8.50000000E-01  8.50000000E-01  8.50000000E-01  8.50000000E-01
  8.50000000E-01  8.50000000E-01  8.50000000E-01  8.50000000E-01  8.50000000E-01
  8.50000000E-01  8.50000000E-01  8.50000000E-01  8.50000000E-01  8.50000000E-01
  8.50000000E-01  8.50000000E-01  8.50000000E-01  8.50000000E-01  8.50000000E-01
  8.50000000E-01  8.50000000E-01  8.50000000E-01  8.50000000E-01  8.50000000E-01
  8.50000000E-01  8.50000000E-01  8.50000000E-01  8.50000000E-01  8.50000000E-01
  8.50000000E-01  8.50000000E-01  8.50000000E-01  8.50000000E-01  8.50000000E-01
  8.50000000E-01  8.50000000E-01  8.50000000E-01  8.50000000E-01  8.50000000E-01
  8.50000000E-01  8.50000000E-01  8.50000000E-01  8.50000000E-01  8.50000000E-01
  8.50000000E-01  8.50000000E-01  8.50000000E-01  8.50000000E-01  8.50000000E-01
  8.50000000E-01  8.50000000E-01  8.50000000E-01  8.50000000E-01  8.50000000E-01
  8.50000000E-01  8.50000000E-01  8.50000000E-01  8.50000000E-01  8.50000000E-01
  8.50000000E-01  8.50000000E-01  8.50000000E-01  8.50000000E-01  8.50000000E-01
  8.50000000E-01  8.50000000E-01  8.50000000E-01  8.50000000E-01  8.50000000E-01
  8.50000000E-01  8.50000000E-01  8.50000000E-01  8.50000000E-01  8.50000000E-01
  8.50000000E-01  8.50000000E-01  8.50000000E-01  8.50000000E-01  8.50000000E-01
  8.50000000E-01  8.50000000E-01  8.50000000E-01  8.50000000E-01  8.50000000E-01
  8.50000000E-01  8.50000000E-01  8.50000000E-01  8.50000000E-01  8.50000000E-01
  8.50000000E-01  8.50000000E-01  8.50000000E-01  8.50000000E-01  8.50000000E-01
  8.50000000E-01  8.50000000E-01  8.50000000E-01  8.50000000E-01  8.50000000E-01
  8.50000000E-01  8.50000000E-01  8.50000000E-01  8.50000000E-01  8.50000000E-01
  8.50000000E-01  8.50000000E-01  8.50000000E-01  8.50000000E-01  8.50000000E-01
  8.50000000E-01  8.50000000E-01  8.50000000E-01  8.50000000E-01  8.50000000E-01
  8.50000000E-01  8.50000000E-01  8.50000000E-01  8.50000000E-01  8.50000000E-01
  8.50000000E-01  8.50000000E-01  8.50000000E-01  8.50000000E-01  8.50000000E-01
  8.50000000E-01  8.50000000E-01  8.50000000E-01  8.50000000E-01  8.50000000E-01
  8.50000000E-01  8.50000000E-01  8.50000000E-01  8.50000000E-01  8.50000000E-01
  8.50000000E-01  8.50000000E-01  8.50000000E-01  8.50000000E-01  8.50000000E-01
  8.50000000E-01  8.50000000E-01  8.50000000E-01  8.50000000E-01  8.50000000E-01
  8.50000000E-01  8.50000000E-01  8.50000000E-01  8.50000000E-01  8.50000000E-01
  8.50000000E-01  8.50000000E-01  8.50000000E-01  8.50000000E-01  8.50000000E-01
  8.50000000E-01  8.50000000E-01  8.50000000E-01  8.50000000E-01  8.50000000E-01
  8.50000000E-01  8.50000000E-01  8.50000000E-01  8.50000000E-01  8.50000000E-01
  8.50000000E-01  8.50000000E-01  8.50000000E-01  8.50000000E-01  8.50000000E-01
  8.50000000E-01  8.50000000E-01  8.50000000E-01  8.50000000E-01  8.50000000E-01
  8.50000000E-01  8.50000000E-01  8.50000000E-01  8.50000000E-01  8.50000000E-01
  8.50000000E-01  8.50000000E-01  8.50000000E-01  8.50000000E-01  8.50000000E-01
  8.50000000E-01  8.50000000E-01  8.50000000E-01  8.50000000E-01  8.50000000E-01
  8.50000000E-01  8.50000000E-01  8.50000000E-01  8.50000000E-01  8.50000000E-01
  8.50000000E-01  8.50000000E-01  8.50000000E-01  8.50000000E-01  8.50000000E-01
  8.50000000E-01  8.50000000E-01  8.50000000E-01  8.50000000E-01  8.50000000E-01
  8.50000000E-01  8.50000000E-01  8.50000000E-01  8.50000000E-01  8.50000000E-01
  8.50000000E-01  8.50000000E-01  8.50000000E-01  8.50000000E-01  8.50000000E-01
  8.50000000E-01  8.50000000E-01  8.50000000E-01  8.50000000E-01  8.50000000E-01
  8.50000000E-01  8.50000000E-01  8.50000000E-01  8.50000000E-01  8.50000000E-01
  8.50000000E-01  8.50000000E-01  8.50000000E-01  8.50000000E-01  8.50000000E-01
  8.50000000E-01  8.50000000E-01  8.50000000E-01  8.50000000E-01  8.50000000E-01
  8.50000000E-01  8.50000000E-01  8.50000000E-01  8.50000000E-01  8.50000000E-01
  8.50000000E-01  8.50000000E-01  8.50000000E-01  8.50000000E-01  8.50000000E-01
  8.50000000E-01  8.50000000E-01  8.50000000E-01  8.50000000E-01  8.50000000E-01
  8.50000000E-01  8.50000000E-01  8.50000000E-01  8.50000000E-01  8.50000000E-01
  8.50000000E-01  8.50000000E-01  8.50000000E-01  8.50000000E-01  8.50000000E-01
  8.50000000E-01  8.50000000E-01  8.50000000E-01  8.50000000E-01  8.50000000E-01
  8.50000000E-01  8.50000000E-01  8.50000000E-01  8.50000000E-01  8.50000000E-01
  8.50000000E-01  8.50000000E-01  8.50000000E-01  8.50000000E-01  8.50000000E-01
  8.50000000E-01  8.50000000E-01  8.50000000E-01  8.50000000E-01  8.50000000E-01
  8.50000000E-01  8.50000000E-01  8.50000000E-01  8.50000000E-01  8.50000000E-01
  8.50000000E-01  8.50000000E-01  8.50000000E-01  8.50000000E-01  8.50000000E-01
  8.50000000E-01  8.50000000E-01  8.50000000E-01  8.50000000E-01  8.50000000E-01
  8.50000000E-01  8.50000000E-01  8.50000000E-01  8.50000000E-01  8.50000000E-01
  8.50000000E-01  8.50000000E-01  8.50000000E-01  8.50000000E-01  8.50000000E-01
  8.50000000E-01  8.50000000E-01  8.50000000E-01  8.50000000E-01  8.50000000E-01
  8.50000000E-01  8.50000000E-01  8.50000000E-01  8.50000000E-01  8.50000000E-01
  8.50000000E-01  8.50000000E-01  8.50000000E-01  8.50000000E-01  8.50000000E-01
  8.50000000E-01  8.50000000E-01  8.50000000E-01  8.50000000E-01  8.50000000E-01
  8.50000000E-01  8.50000000E-01  8.50000000E-01  8.50000000E-01  8.50000000E-01
  8.50000000E-01  8.50000000E-01  8.50000000E-01  8.50000000E-01  8.50000000E-01
  8.50000000E-01  8.50000000E-01  8.50000000E-01  8.50000000E-01  8.50000000E-01
  8.50000000E-01  8.50000000E-01  8.50000000E-01  8.50000000E-01  8.50000000E-01
  8.50000000E-01  8.50000000E-01  8.50000000E-01  8.50000000E-01  8.50000000E-01
  8.50000000E-01  8.50000000E-01  8.50000000E-01  8.50000000E-01  8.50000000E-01
  8.50000000E-01  8.50000000E-01  8.50000000E-01  8.50000000E-01  8.50000000E-01
  8.50000000E-01  8.50000000E-01  8.50000000E-01  8.50000000E-01  8.50000000E-01
  8.50000000E-01  8.50000000E-01  8.50000000E-01  8.50000000E-01  8.50000000E-01
  8.50000000E-01  8.50000000E-01  8.50000000E-01  8.50000000E-01  8.50000000E-01
  8.50000000E-01  8.50000000E-01  8.50000000E-01  8.50000000E-01  8.50000000E-01
  8.50000000E-01  8.50000000E-01  8.50000000E-01  8.50000000E-01  8.50000000E-01
  8.50000000E-01  8.50000000E-01  8.50000000E-01  8.50000000E-01  8.50000000E-01
  8.50000000E-01  8.50000000E-01  8.50000000E-01  8.50000000E-01  8.50000000E-01
  8.50000000E-01  8.50000000E-01  8.50000000E-01  8.50000000E-01  8.50000000E-01
  8.50000000E-01  8.50000000E-01  8.50000000E-01  8.50000000E-01  8.50000000E-01
  8.50000000E-01  8.50000000E-01  8.50000000E-01  8.50000000E-01  8.50000000E-01
  8.50000000E-01  8.50000000E-01  8.50000000E-01  8.50000000E-01  8.50000000E-01
  8.50000000E-01  8.50000000E-01  8.50000000E-01  8.50000000E-01  8.50000000E-01
  8.50000000E-01  8.50000000E-01  8.50000000E-01  8.50000000E-01  8.50000000E-01
  8.50000000E-01  8.50000000E-01  8.50000000E-01  8.50000000E-01  8.50000000E-01
  8.50000000E-01  8.50000000E-01  8.50000000E-01  8.50000000E-01  8.50000000E-01
  8.50000000E-01  8.50000000E-01  8.50000000E-01  8.50000000E-01  8.50000000E-01
  8.50000000E-01  8.50000000E-01  8.50000000E-01  8.50000000E-01  8.50000000E-01
  8.50000000E-01  8.50000000E-01  8.50000000E-01  8.50000000E-01  8.50000000E-01
  8.50000000E-01  8.50000000E-01  8.50000000E-01  8.50000000E-01  8.50000000E-01
  8.50000000E-01  8.50000000E-01  8.50000000E-01  8.50000000E-01  8.50000000E-01
  8.50000000E-01  8.50000000E-01  8.50000000E-01  8.50000000E-01  8.50000000E-01
  8.50000000E-01  8.50000000E-01  8.50000000E-01  8.50000000E-01  8.50000000E-01
  8.50000000E-01  8.50000000E-01  8.50000000E-01  8.50000000E-01  8.50000000E-01
  8.50000000E-01  8.50000000E-01  8.50000000E-01  8.50000000E-01  8.50000000E-01
  8.50000000E-01  8.50000000E-01  8.50000000E-01  8.50000000E-01  8.50000000E-01
  8.50000000E-01  8.50000000E-01  8.50000000E-01  8.50000000E-01  8.50000000E-01
  8.50000000E-01  8.50000000E-01  8.50000000E-01  8.50000000E-01  8.50000000E-01
  8.50000000E-01  8.50000000E-01  8.50000000E-01  8.50000000E-01  8.50000000E-01
  8.50000000E-01  8.50000000E-01  8.50000000E-01  8.50000000E-01  8.50000000E-01
  8.50000000E-01  8.50000000E-01  8.50000000E-01  8.50000000E-01  8.50000000E-01
  8.50000000E-01  8.50000000E-01  8.50000000E-01  8.50000000E-01  8.50000000E-01
  8.50000000E-01  8.50000000E-01  8.50000000E-01  8.50000000E-01  8.50000000E-01
  8.50000000E-01  8.50000000E-01  8.50000000E-01  8.50000000E-01  8.50000000E-01
  8.50000000E-01  8.50000000E-01  8.50000000E-01  8.50000000E-01  8.50000000E-01
  8.50000000E-01  8.50000000E-01  8.50000000E-01  8.50000000E-01  8.50000000E-01
  8.50000000E-01  8.50000000E-01  8.50000000E-01  8.50000000E-01  8.50000000E-01
  8.50000000E-01  8.50000000E-01  8.50000000E-01  8.50000000E-01  8.50000000E-01
  8.50000000E-01  8.50000000E-01  8.50000000E-01  8.50000000E-01  8.50000000E-01
  8.50000000E-01  8.50000000E-01  8.50000000E-01  8.50000000E-01  8.50000000E-01
  8.50000000E-01  8.50000000E-01  8.50000000E-01  8.50000000E-01  8.50000000E-01
  8.50000000E-01  8.50000000E-01  8.50000000E-01  8.50000000E-01  8.50000000E-01
  8.50000000E-01  8.50000000E-01  8.50000000E-01  8.50000000E-01  8.50000000E-01
  8.50000000E-01  8.50000000E-01  8.50000000E-01  8.50000000E-01  8.50000000E-01
  8.50000000E-01  8.50000000E-01  8.50000000E-01  8.50000000E-01  8.50000000E-01
  8.50000000E-01  8.50000000E-01  8.50000000E-01  8.50000000E-01  8.50000000E-01
  8.50000000E-01  8.50000000E-01  8.50000000E-01  8.50000000E-01  8.50000000E-01
  8.50000000E-01  8.50000000E-01  8.50000000E-01  8.50000000E-01  8.50000000E-01
  8.50000000E-01  8.50000000E-01  8.50000000E-01  8.50000000E-01  8.50000000E-01
  8.50000000E-01  8.50000000E-01  8.50000000E-01  8.50000000E-01  8.50000000E-01
  8.50000000E-01  8.50000000E-01  8.50000000E-01  8.50000000E-01  8.50000000E-01
  8.50000000E-01  8.50000000E-01  8.50000000E-01  8.50000000E-01  8.50000000E-01
  8.50000000E-01  8.50000000E-01  8.50000000E-01  8.50000000E-01  8.50000000E-01
  8.50000000E-01  8.50000000E-01  8.50000000E-01  8.50000000E-01  8.50000000E-01
  8.50000000E-01  8.50000000E-01  8.50000000E-01  8.50000000E-01  8.50000000E-01
  8.50000000E-01  8.50000000E-01  8.50000000E-01  8.50000000E-01  8.50000000E-01
  8.50000000E-01  8.50000000E-01  8.50000000E-01  8.50000000E-01  8.50000000E-01
  8.50000000E-01  8.50000000E-01  8.50000000E-01  8.50000000E-01  8.50000000E-01
  8.50000000E-01  8.50000000E-01  8.50000000E-01  8.50000000E-01  8.50000000E-01
  8.50000000E-01  8.50000000E-01  8.50000000E-01  8.50000000E-01  8.50000000E-01
  8.50000000E-01  8.50000000E-01  8.50000000E-01  8.50000000E-01  8.50000000E-01
  8.50000000E-01  8.50000000E-01  8.50000000E-01  8.50000000E-01  8.50000000E-01
  8.50000000E-01  8.50000000E-01  8.50000000E-01  8.50000000E-01  8.50000000E-01
  8.50000000E-01  8.50000000E-01  8.50000000E-01  8.50000000E-01  8.50000000E-01
  8.50000000E-01  8.50000000E-01  8.50000000E-01  8.50000000E-01  8.50000000E-01
  8.50000000E-01  8.50000000E-01  8.50000000E-01  8.50000000E-01  8.50000000E-01
  8.50000000E-01  8.50000000E-01  8.50000000E-01  8.50000000E-01  8.50000000E-01
  8.50000000E-01  8.50000000E-01  8.50000000E-01  8.50000000E-01  8.50000000E-01
  8.50000000E-01  8.50000000E-01  8.50000000E-01  8.50000000E-01  8.50000000E-01
  8.50000000E-01  8.50000000E-01  8.50000000E-01  8.50000000E-01  8.50000000E-01
  8.50000000E-01  8.50000000E-01  8.50000000E-01  8.50000000E-01  8.50000000E-01
  8.50000000E-01  8.50000000E-01  8.50000000E-01  8.50000000E-01  8.50000000E-01
  8.50000000E-01  8.50000000E-01  8.50000000E-01  8.50000000E-01  8.50000000E-01
  8.50000000E-01  8.50000000E-01  8.50000000E-01  8.50000000E-01  8.50000000E-01
  8.50000000E-01  8.50000000E-01  8.50000000E-01  8.50000000E-01  8.50000000E-01
  8.50000000E-01  8.50000000E-01  8.50000000E-01  8.50000000E-01  8.50000000E-01
  8.50000000E-01  8.50000000E-01  8.50000000E-01  8.50000000E-01  8.50000000E-01
  8.50000000E-01  8.50000000E-01  8.50000000E-01  8.50000000E-01  8.50000000E-01
  8.50000000E-01  8.50000000E-01  8.50000000E-01  8.50000000E-01  8.50000000E-01
  8.50000000E-01  8.50000000E-01  8.50000000E-01  8.50000000E-01  8.50000000E-01
  8.50000000E-01  8.50000000E-01  8.50000000E-01  8.50000000E-01  8.50000000E-01
  8.50000000E-01  8.50000000E-01  8.50000000E-01  8.50000000E-01  8.50000000E-01
  8.50000000E-01  8.50000000E-01  8.50000000E-01  8.50000000E-01  8.50000000E-01
  8.50000000E-01  8.50000000E-01  8.50000000E-01  8.50000000E-01  8.50000000E-01
  8.50000000E-01  8.50000000E-01  8.50000000E-01  8.50000000E-01  8.50000000E-01
  8.50000000E-01  8.50000000E-01  8.50000000E-01  8.50000000E-01  8.50000000E-01
  8.50000000E-01  8.50000000E-01  8.50000000E-01  8.50000000E-01  8.50000000E-01
  8.50000000E-01  8.50000000E-01  8.50000000E-01  8.50000000E-01  8.50000000E-01
  8.50000000E-01  8.50000000E-01  8.50000000E-01  8.50000000E-01  8.50000000E-01
  8.50000000E-01  8.50000000E-01  8.50000000E-01  8.50000000E-01  8.50000000E-01
  8.50000000E-01  8.50000000E-01  8.50000000E-01  8.50000000E-01  8.50000000E-01
  8.50000000E-01  8.50000000E-01  8.50000000E-01  8.50000000E-01  8.50000000E-01
  8.50000000E-01  8.50000000E-01  8.50000000E-01  8.50000000E-01  8.50000000E-01
  8.50000000E-01  8.50000000E-01  8.50000000E-01  8.50000000E-01  8.50000000E-01
  8.50000000E-01  8.50000000E-01  8.50000000E-01  8.50000000E-01  8.50000000E-01
  8.50000000E-01  8.50000000E-01  8.50000000E-01  8.50000000E-01  8.50000000E-01
  8.50000000E-01  8.50000000E-01  8.50000000E-01  8.50000000E-01  8.50000000E-01
  8.50000000E-01  8.50000000E-01  8.50000000E-01  8.50000000E-01  8.50000000E-01
  8.50000000E-01  8.50000000E-01  8.50000000E-01  8.50000000E-01  8.50000000E-01
  8.50000000E-01  8.50000000E-01  8.50000000E-01  8.50000000E-01  8.50000000E-01
  8.50000000E-01  8.50000000E-01  8.50000000E-01  8.50000000E-01  8.50000000E-01
  8.50000000E-01  8.50000000E-01  8.50000000E-01  8.50000000E-01  8.50000000E-01
  8.50000000E-01  8.50000000E-01  8.50000000E-01  8.50000000E-01  8.50000000E-01
  8.50000000E-01  8.50000000E-01  8.50000000E-01  8.50000000E-01  8.50000000E-01
  8.50000000E-01  8.50000000E-01  8.50000000E-01  8.50000000E-01  8.50000000E-01
  8.50000000E-01  8.50000000E-01  8.50000000E-01  8.50000000E-01  8.50000000E-01
  8.50000000E-01  8.50000000E-01  8.50000000E-01  8.50000000E-01  8.50000000E-01
  8.50000000E-01  8.50000000E-01  8.50000000E-01  8.50000000E-01  8.50000000E-01
  8.50000000E-01  8.50000000E-01  8.50000000E-01  8.50000000E-01  8.50000000E-01
  8.50000000E-01  8.50000000E-01  8.50000000E-01  8.50000000E-01  8.50000000E-01
  8.50000000E-01  8.50000000E-01  8.50000000E-01  8.50000000E-01  8.50000000E-01
  8.50000000E-01  8.50000000E-01  8.50000000E-01  8.50000000E-01  8.50000000E-01
  8.50000000E-01  8.50000000E-01  8.50000000E-01  8.50000000E-01  8.50000000E-01
  8.50000000E-01  8.50000000E-01  8.50000000E-01  8.50000000E-01  8.50000000E-01
  8.50000000E-01  8.50000000E-01  8.50000000E-01  8.50000000E-01  8.50000000E-01
  8.50000000E-01  8.50000000E-01  8.50000000E-01  8.50000000E-01  8.50000000E-01
  8.50000000E-01  8.50000000E-01  8.50000000E-01  8.50000000E-01  8.50000000E-01
  8.50000000E-01  8.50000000E-01  8.50000000E-01  8.50000000E-01  8.50000000E-01
  8.50000000E-01  8.50000000E-01  8.50000000E-01  8.50000000E-01  8.50000000E-01
  8.50000000E-01  8.50000000E-01  8.50000000E-01  8.50000000E-01  8.50000000E-01
  8.50000000E-01  8.50000000E-01  8.50000000E-01  8.50000000E-01  8.50000000E-01
  8.50000000E-01  8.50000000E-01  8.50000000E-01  8.50000000E-01  8.50000000E-01
  8.50000000E-01  8.50000000E-01  8.50000000E-01  8.50000000E-01  8.50000000E-01
  8.50000000E-01  8.50000000E-01  8.50000000E-01  8.50000000E-01  8.50000000E-01
  8.50000000E-01  8.50000000E-01  8.50000000E-01  8.50000000E-01  8.50000000E-01
  8.50000000E-01  8.50000000E-01  8.50000000E-01  8.50000000E-01  8.50000000E-01
  8.50000000E-01  8.50000000E-01  8.50000000E-01  8.50000000E-01  8.50000000E-01
  8.50000000E-01  8.50000000E-01  8.50000000E-01  8.50000000E-01  8.50000000E-01
  8.50000000E-01  8.50000000E-01  8.50000000E-01  8.50000000E-01  8.50000000E-01
  8.50000000E-01  8.50000000E-01  8.50000000E-01  8.50000000E-01  8.50000000E-01
  8.50000000E-01  8.50000000E-01  8.50000000E-01  8.50000000E-01  8.50000000E-01
  8.50000000E-01  8.50000000E-01  8.50000000E-01  8.50000000E-01  8.50000000E-01
  8.50000000E-01  8.50000000E-01  8.50000000E-01  8.50000000E-01  8.50000000E-01
  8.50000000E-01  8.50000000E-01  8.50000000E-01  8.50000000E-01  8.50000000E-01
  8.50000000E-01  8.50000000E-01  8.50000000E-01  8.50000000E-01  8.50000000E-01
  8.50000000E-01  8.50000000E-01  8.50000000E-01  8.50000000E-01  8.50000000E-01
  8.50000000E-01  8.50000000E-01  8.50000000E-01  8.50000000E-01  8.50000000E-01
  8.50000000E-01  8.50000000E-01  8.50000000E-01  8.50000000E-01  8.50000000E-01
  8.50000000E-01  8.50000000E-01  8.50000000E-01  8.50000000E-01  8.50000000E-01
  8.50000000E-01  8.50000000E-01  8.50000000E-01  8.50000000E-01  8.50000000E-01
  8.50000000E-01  8.50000000E-01  8.50000000E-01  8.50000000E-01  8.50000000E-01
  8.50000000E-01  8.50000000E-01  8.50000000E-01  8.50000000E-01  8.50000000E-01
  8.50000000E-01  8.50000000E-01  8.50000000E-01  8.50000000E-01  8.50000000E-01
  8.50000000E-01  8.50000000E-01  8.50000000E-01  8.50000000E-01  8.50000000E-01
  8.50000000E-01  8.50000000E-01  8.50000000E-01  8.50000000E-01  8.50000000E-01
  8.50000000E-01  8.50000000E-01  8.50000000E-01  8.50000000E-01  8.50000000E-01
  8.50000000E-01  8.50000000E-01  8.50000000E-01  8.50000000E-01  8.50000000E-01
  8.50000000E-01  8.50000000E-01  8.50000000E-01  8.50000000E-01  8.50000000E-01
  8.50000000E-01  8.50000000E-01  8.50000000E-01  8.50000000E-01  8.50000000E-01
  8.50000000E-01  8.50000000E-01  8.50000000E-01  8.50000000E-01  8.50000000E-01
  8.50000000E-01  8.50000000E-01  8.50000000E-01  8.50000000E-01  8.50000000E-01
  8.50000000E-01  8.50000000E-01  8.50000000E-01  8.50000000E-01  8.50000000E-01
  8.50000000E-01  8.50000000E-01  8.50000000E-01  8.50000000E-01  8.50000000E-01
  8.50000000E-01  8.50000000E-01  8.50000000E-01  8.50000000E-01  8.50000000E-01
  8.50000000E-01  8.50000000E-01  8.50000000E-01  8.50000000E-01  8.50000000E-01
  8.50000000E-01  8.50000000E-01  8.50000000E-01  8.50000000E-01  8.50000000E-01
  8.50000000E-01  8.50000000E-01  8.50000000E-01  8.50000000E-01  8.50000000E-01
  8.50000000E-01  8.50000000E-01  8.50000000E-01  8.50000000E-01  8.50000000E-01
  8.50000000E-01  8.50000000E-01  8.50000000E-01  8.50000000E-01  8.50000000E-01
  8.50000000E-01  8.50000000E-01  8.50000000E-01  8.50000000E-01  8.50000000E-01
  8.50000000E-01  8.50000000E-01  8.50000000E-01  8.50000000E-01  8.50000000E-01
  8.50000000E-01  8.50000000E-01  8.50000000E-01  8.50000000E-01  8.50000000E-01
  8.50000000E-01  8.50000000E-01  8.50000000E-01  8.50000000E-01  8.50000000E-01
  8.50000000E-01  8.50000000E-01  8.50000000E-01  8.50000000E-01  8.50000000E-01
  8.50000000E-01  8.50000000E-01  8.50000000E-01  8.50000000E-01  8.50000000E-01
  8.50000000E-01  8.50000000E-01  8.50000000E-01  8.50000000E-01  8.50000000E-01
  8.50000000E-01  8.50000000E-01  8.50000000E-01  8.50000000E-01  8.50000000E-01
  8.50000000E-01  8.50000000E-01  8.50000000E-01  8.50000000E-01  8.50000000E-01
  8.50000000E-01  8.50000000E-01  8.50000000E-01  8.50000000E-01  8.50000000E-01
  8.50000000E-01  8.50000000E-01  8.50000000E-01  8.50000000E-01  8.50000000E-01
  8.50000000E-01  8.50000000E-01  8.50000000E-01  8.50000000E-01  8.50000000E-01
  8.50000000E-01  8.50000000E-01  8.50000000E-01  8.50000000E-01  8.50000000E-01
  8.50000000E-01  8.50000000E-01  8.50000000E-01  8.50000000E-01  8.50000000E-01
  8.50000000E-01  8.50000000E-01  8.50000000E-01  8.50000000E-01  8.50000000E-01
  8.50000000E-01  8.50000000E-01  8.50000000E-01  8.50000000E-01  8.50000000E-01
  8.50000000E-01  8.50000000E-01  8.50000000E-01  8.50000000E-01  8.50000000E-01
  8.50000000E-01  8.50000000E-01  8.50000000E-01  8.50000000E-01  8.50000000E-01
  8.50000000E-01  8.50000000E-01  8.50000000E-01  8.50000000E-01  8.50000000E-01
  8.50000000E-01  8.50000000E-01  8.50000000E-01  8.50000000E-01  8.50000000E-01
  8.50000000E-01  8.50000000E-01  8.50000000E-01  8.50000000E-01  8.50000000E-01
  8.50000000E-01  8.50000000E-01  8.50000000E-01  8.50000000E-01  8.50000000E-01
  8.50000000E-01  8.50000000E-01  8.50000000E-01  8.50000000E-01  8.50000000E-01
  8.50000000E-01  8.50000000E-01  8.50000000E-01  8.50000000E-01  8.50000000E-01
  8.50000000E-01  8.50000000E-01  8.50000000E-01  8.50000000E-01  8.50000000E-01
  8.50000000E-01  8.50000000E-01  8.50000000E-01  8.50000000E-01  8.50000000E-01
  8.50000000E-01  8.50000000E-01  8.50000000E-01  8.50000000E-01  8.50000000E-01
  8.50000000E-01  8.50000000E-01  8.50000000E-01  8.50000000E-01  8.50000000E-01
  8.50000000E-01  8.50000000E-01  8.50000000E-01  8.50000000E-01  8.50000000E-01
  8.50000000E-01  8.50000000E-01  8.50000000E-01  8.50000000E-01  8.50000000E-01
  8.50000000E-01  8.50000000E-01  8.50000000E-01  8.50000000E-01  8.50000000E-01
  8.50000000E-01  8.50000000E-01  8.50000000E-01  8.50000000E-01  8.50000000E-01
  8.50000000E-01  8.50000000E-01  8.50000000E-01  8.50000000E-01  8.50000000E-01
  8.50000000E-01  8.50000000E-01  8.50000000E-01  8.50000000E-01  8.50000000E-01
  8.50000000E-01  8.50000000E-01  8.50000000E-01  8.50000000E-01  8.50000000E-01
  8.50000000E-01  8.50000000E-01  8.50000000E-01  8.50000000E-01  8.50000000E-01
  8.50000000E-01  8.50000000E-01  8.50000000E-01  8.50000000E-01  8.50000000E-01
  8.50000000E-01  8.50000000E-01  8.50000000E-01  8.50000000E-01  8.50000000E-01
  8.50000000E-01  8.50000000E-01  8.50000000E-01  8.50000000E-01  8.50000000E-01
  8.50000000E-01  8.50000000E-01  8.50000000E-01  8.50000000E-01  8.50000000E-01
  8.50000000E-01  8.50000000E-01  8.50000000E-01  8.50000000E-01  8.50000000E-01
  8.50000000E-01  8.50000000E-01  8.50000000E-01  8.50000000E-01  8.50000000E-01
  8.50000000E-01  8.50000000E-01  8.50000000E-01  8.50000000E-01  8.50000000E-01
  8.50000000E-01  8.50000000E-01  8.50000000E-01  8.50000000E-01  8.50000000E-01
  8.50000000E-01  8.50000000E-01  8.50000000E-01  8.50000000E-01  8.50000000E-01
  8.50000000E-01  8.50000000E-01  8.50000000E-01  8.50000000E-01  8.50000000E-01
  8.50000000E-01  8.50000000E-01  8.50000000E-01  8.50000000E-01  8.50000000E-01
  8.50000000E-01  8.50000000E-01  8.50000000E-01  8.50000000E-01  8.50000000E-01
  8.50000000E-01  8.50000000E-01  8.50000000E-01  8.50000000E-01  8.50000000E-01
  8.50000000E-01  8.50000000E-01  8.50000000E-01  8.50000000E-01  8.50000000E-01
  8.50000000E-01  8.50000000E-01  8.50000000E-01  8.50000000E-01  8.50000000E-01
  8.50000000E-01  8.50000000E-01  8.50000000E-01  8.50000000E-01  8.50000000E-01
  8.50000000E-01  8.50000000E-01  8.50000000E-01  8.50000000E-01  8.50000000E-01
  8.50000000E-01  8.50000000E-01  8.50000000E-01  8.50000000E-01  8.50000000E-01
  8.50000000E-01  8.50000000E-01  8.50000000E-01  8.50000000E-01  8.50000000E-01
  8.50000000E-01  8.50000000E-01  8.50000000E-01  8.50000000E-01  8.50000000E-01
  8.50000000E-01  8.50000000E-01  8.50000000E-01  8.50000000E-01  8.50000000E-01
  8.50000000E-01  8.50000000E-01  8.50000000E-01  8.50000000E-01  8.50000000E-01
  8.50000000E-01  8.50000000E-01  8.50000000E-01  8.50000000E-01  8.50000000E-01
  8.50000000E-01  8.50000000E-01  8.50000000E-01  8.50000000E-01  8.50000000E-01
  8.50000000E-01  8.50000000E-01  8.50000000E-01  8.50000000E-01  8.50000000E-01
  8.50000000E-01  8.50000000E-01  8.50000000E-01  8.50000000E-01  8.50000000E-01
  8.50000000E-01  8.50000000E-01  8.50000000E-01  8.50000000E-01  8.50000000E-01
  8.50000000E-01  8.50000000E-01  8.50000000E-01  8.50000000E-01  8.50000000E-01
  8.50000000E-01  8.50000000E-01  8.50000000E-01  8.50000000E-01  8.50000000E-01
  8.50000000E-01  8.50000000E-01  8.50000000E-01  8.50000000E-01  8.50000000E-01
  8.50000000E-01  8.50000000E-01  8.50000000E-01  8.50000000E-01  8.50000000E-01
  8.50000000E-01  8.50000000E-01  8.50000000E-01  8.50000000E-01  8.50000000E-01
  8.50000000E-01  8.50000000E-01  8.50000000E-01  8.50000000E-01  8.50000000E-01
  8.50000000E-01  8.50000000E-01  8.50000000E-01  8.50000000E-01  8.50000000E-01
  8.50000000E-01  8.50000000E-01  8.50000000E-01  8.50000000E-01  8.50000000E-01
  8.50000000E-01  8.50000000E-01  8.50000000E-01  8.50000000E-01  8.50000000E-01
  8.50000000E-01  8.50000000E-01  8.50000000E-01  8.50000000E-01  8.50000000E-01
  8.50000000E-01  8.50000000E-01  8.50000000E-01  8.50000000E-01  8.50000000E-01
  8.50000000E-01  8.50000000E-01  8.50000000E-01  8.50000000E-01  8.50000000E-01
  8.50000000E-01  8.50000000E-01  8.50000000E-01  8.50000000E-01  8.50000000E-01
  8.50000000E-01  8.50000000E-01  8.50000000E-01  8.50000000E-01  8.50000000E-01
  8.50000000E-01  8.50000000E-01  8.50000000E-01  8.50000000E-01  8.50000000E-01
  8.50000000E-01  8.50000000E-01  8.50000000E-01  8.50000000E-01  8.50000000E-01
  8.50000000E-01  8.50000000E-01  8.50000000E-01  8.50000000E-01  8.50000000E-01
  8.50000000E-01  8.50000000E-01  8.50000000E-01  8.50000000E-01  8.50000000E-01
  8.50000000E-01  8.50000000E-01  8.50000000E-01  8.50000000E-01  8.50000000E-01
  8.50000000E-01  8.50000000E-01  8.50000000E-01  8.50000000E-01  8.50000000E-01
  8.50000000E-01  8.50000000E-01  8.50000000E-01  8.50000000E-01  8.50000000E-01
  8.50000000E-01  8.50000000E-01  8.50000000E-01  8.50000000E-01  8.50000000E-01
  8.50000000E-01  8.50000000E-01  8.50000000E-01  8.50000000E-01  8.50000000E-01
  8.50000000E-01  8.50000000E-01  8.50000000E-01  8.50000000E-01  8.50000000E-01
  8.50000000E-01  8.50000000E-01  8.50000000E-01  8.50000000E-01  8.50000000E-01
  8.50000000E-01  8.50000000E-01  8.50000000E-01  8.50000000E-01  8.50000000E-01
  8.50000000E-01  8.50000000E-01  8.50000000E-01  8.50000000E-01  8.50000000E-01
  8.50000000E-01  8.50000000E-01  8.50000000E-01  8.50000000E-01  8.50000000E-01
  8.50000000E-01  8.50000000E-01  8.50000000E-01  8.50000000E-01  8.50000000E-01
  8.50000000E-01  8.50000000E-01  8.50000000E-01  8.50000000E-01  8.50000000E-01
  8.50000000E-01  8.50000000E-01  8.50000000E-01  8.50000000E-01  8.50000000E-01
  8.50000000E-01  8.50000000E-01  8.50000000E-01  8.50000000E-01  8.50000000E-01
  8.50000000E-01  8.50000000E-01  8.50000000E-01  8.50000000E-01  8.50000000E-01
  8.50000000E-01  8.50000000E-01  8.50000000E-01  8.50000000E-01  8.50000000E-01
  8.50000000E-01  8.50000000E-01  8.50000000E-01  8.50000000E-01  8.50000000E-01
  8.50000000E-01  8.50000000E-01  8.50000000E-01  8.50000000E-01  8.50000000E-01
  8.50000000E-01  8.50000000E-01  8.50000000E-01  8.50000000E-01  8.50000000E-01
  8.50000000E-01  8.50000000E-01  8.50000000E-01  8.50000000E-01  8.50000000E-01
  8.50000000E-01  8.50000000E-01  8.50000000E-01  8.50000000E-01  8.50000000E-01
  8.50000000E-01  8.50000000E-01  8.50000000E-01  8.50000000E-01  8.50000000E-01
  8.50000000E-01  8.50000000E-01  8.50000000E-01  8.50000000E-01  8.50000000E-01
  8.50000000E-01  8.50000000E-01  8.50000000E-01  8.50000000E-01  8.50000000E-01
  8.50000000E-01  8.50000000E-01  8.50000000E-01  8.50000000E-01  8.50000000E-01
  8.50000000E-01  8.50000000E-01  8.50000000E-01  8.50000000E-01  8.50000000E-01
  8.50000000E-01  8.50000000E-01  8.50000000E-01  8.50000000E-01  8.50000000E-01
  8.50000000E-01  8.50000000E-01  8.50000000E-01  8.50000000E-01  8.50000000E-01
  8.50000000E-01  8.50000000E-01  8.50000000E-01  8.50000000E-01  8.50000000E-01
  8.50000000E-01  8.50000000E-01  8.50000000E-01  8.50000000E-01  8.50000000E-01
  8.50000000E-01  8.50000000E-01  8.50000000E-01  8.50000000E-01  8.50000000E-01
  8.50000000E-01  8.50000000E-01  8.50000000E-01  8.50000000E-01  8.50000000E-01
  8.50000000E-01  8.50000000E-01  8.50000000E-01  8.50000000E-01  8.50000000E-01
  8.50000000E-01  8.50000000E-01  8.50000000E-01  8.50000000E-01  8.50000000E-01
  8.50000000E-01  8.50000000E-01  8.50000000E-01  8.50000000E-01  8.50000000E-01
  8.50000000E-01  8.50000000E-01  8.50000000E-01  8.50000000E-01  8.50000000E-01
  8.50000000E-01  8.50000000E-01  8.50000000E-01  8.50000000E-01  8.50000000E-01
  8.50000000E-01  8.50000000E-01  8.50000000E-01  8.50000000E-01  8.50000000E-01
  8.50000000E-01  8.50000000E-01  8.50000000E-01  8.50000000E-01  8.50000000E-01
  8.50000000E-01  8.50000000E-01  8.50000000E-01  8.50000000E-01  8.50000000E-01
  8.50000000E-01  8.50000000E-01  8.50000000E-01  8.50000000E-01  8.50000000E-01
  8.50000000E-01  8.50000000E-01  8.50000000E-01  8.50000000E-01  8.50000000E-01
  8.50000000E-01  8.50000000E-01  8.50000000E-01  8.50000000E-01  8.50000000E-01
  8.50000000E-01  8.50000000E-01  8.50000000E-01  8.50000000E-01  8.50000000E-01
  8.50000000E-01  8.50000000E-01  8.50000000E-01  8.50000000E-01  8.50000000E-01
  8.50000000E-01  8.50000000E-01  8.50000000E-01  8.50000000E-01  8.50000000E-01
  8.50000000E-01  8.50000000E-01  8.50000000E-01  8.50000000E-01  8.50000000E-01
  8.50000000E-01  8.50000000E-01  8.50000000E-01  8.50000000E-01  8.50000000E-01
  8.50000000E-01  8.50000000E-01  8.50000000E-01  8.50000000E-01  8.50000000E-01
  8.50000000E-01  8.50000000E-01  8.50000000E-01  8.50000000E-01  8.50000000E-01
  8.50000000E-01  8.50000000E-01  8.50000000E-01  8.50000000E-01  8.50000000E-01
  8.50000000E-01  8.50000000E-01  8.50000000E-01  8.50000000E-01  8.50000000E-01
  8.50000000E-01  8.50000000E-01  8.50000000E-01  8.50000000E-01  8.50000000E-01
  8.50000000E-01  8.50000000E-01  8.50000000E-01  8.50000000E-01  8.50000000E-01
  8.50000000E-01  8.50000000E-01  8.50000000E-01  8.50000000E-01  8.50000000E-01
  8.50000000E-01  8.50000000E-01  8.50000000E-01  8.50000000E-01  8.50000000E-01
  8.50000000E-01  8.50000000E-01  8.50000000E-01  8.50000000E-01  8.50000000E-01
  8.50000000E-01  8.50000000E-01  8.50000000E-01  8.50000000E-01  8.50000000E-01
  8.50000000E-01  8.50000000E-01  8.50000000E-01  8.50000000E-01  8.50000000E-01
  8.50000000E-01  8.50000000E-01  8.50000000E-01  8.50000000E-01  8.50000000E-01
  8.50000000E-01  8.50000000E-01  8.50000000E-01  8.50000000E-01  8.50000000E-01
  8.50000000E-01  8.50000000E-01  8.50000000E-01  8.50000000E-01  8.50000000E-01
  8.50000000E-01  8.50000000E-01  8.50000000E-01  8.50000000E-01  8.50000000E-01
  8.50000000E-01  8.50000000E-01  8.50000000E-01  8.50000000E-01  8.50000000E-01
  8.50000000E-01  8.50000000E-01  8.50000000E-01  8.50000000E-01  8.50000000E-01
  8.50000000E-01  8.50000000E-01  8.50000000E-01  8.50000000E-01  8.50000000E-01
  8.50000000E-01  8.50000000E-01  8.50000000E-01  8.50000000E-01  8.50000000E-01
  8.50000000E-01  8.50000000E-01  8.50000000E-01  8.50000000E-01  8.50000000E-01
  8.50000000E-01  8.50000000E-01  8.50000000E-01  8.50000000E-01  8.50000000E-01
  8.50000000E-01  8.50000000E-01  8.50000000E-01  8.50000000E-01  8.50000000E-01
  8.50000000E-01  8.50000000E-01  8.50000000E-01  8.50000000E-01  8.50000000E-01
  8.50000000E-01  8.50000000E-01  8.50000000E-01  8.50000000E-01  8.50000000E-01
  8.50000000E-01  8.50000000E-01  8.50000000E-01  8.50000000E-01  8.50000000E-01
  8.50000000E-01  8.50000000E-01  8.50000000E-01  8.50000000E-01  8.50000000E-01
  8.50000000E-01  8.50000000E-01  8.50000000E-01  8.50000000E-01  8.50000000E-01
  8.50000000E-01  8.50000000E-01  8.50000000E-01  8.50000000E-01  8.50000000E-01
  8.50000000E-01  8.50000000E-01  8.50000000E-01  8.50000000E-01  8.50000000E-01
  8.50000000E-01  8.50000000E-01  8.50000000E-01  8.50000000E-01  8.50000000E-01
  8.50000000E-01  8.50000000E-01  8.50000000E-01  8.50000000E-01  8.50000000E-01
  8.50000000E-01  8.50000000E-01  8.50000000E-01  8.50000000E-01  8.50000000E-01
  8.50000000E-01  8.50000000E-01  8.50000000E-01  8.50000000E-01  8.50000000E-01
  8.50000000E-01  8.50000000E-01  8.50000000E-01  8.50000000E-01  8.50000000E-01
  8.50000000E-01  8.50000000E-01  8.50000000E-01  8.50000000E-01  8.50000000E-01
  8.50000000E-01  8.50000000E-01  8.50000000E-01  8.50000000E-01  8.50000000E-01
  8.50000000E-01  8.50000000E-01  8.50000000E-01  8.50000000E-01  8.50000000E-01
  8.50000000E-01  8.50000000E-01  8.50000000E-01  8.50000000E-01  8.50000000E-01
  8.50000000E-01  8.50000000E-01  8.50000000E-01  8.50000000E-01  8.50000000E-01
  8.50000000E-01  8.50000000E-01  8.50000000E-01  8.50000000E-01  8.50000000E-01
  8.50000000E-01  8.50000000E-01  8.50000000E-01  8.50000000E-01  8.50000000E-01
  8.50000000E-01  8.50000000E-01  8.50000000E-01  8.50000000E-01  8.50000000E-01
  8.50000000E-01  8.50000000E-01  8.50000000E-01  8.50000000E-01  8.50000000E-01
  8.50000000E-01  8.50000000E-01  8.50000000E-01  8.50000000E-01  8.50000000E-01
  8.50000000E-01  8.50000000E-01  8.50000000E-01  8.50000000E-01  8.50000000E-01
  8.50000000E-01  8.50000000E-01  8.50000000E-01  8.50000000E-01  8.50000000E-01
  8.50000000E-01  8.50000000E-01  8.50000000E-01  8.50000000E-01  8.50000000E-01
  8.50000000E-01  8.50000000E-01  8.50000000E-01  8.50000000E-01  8.50000000E-01
  8.50000000E-01  8.50000000E-01  8.50000000E-01  8.50000000E-01  8.50000000E-01
  8.50000000E-01  8.50000000E-01  8.50000000E-01  8.50000000E-01  8.50000000E-01
  8.50000000E-01  8.50000000E-01  8.50000000E-01  8.50000000E-01  8.50000000E-01
  8.50000000E-01  8.50000000E-01  8.50000000E-01  8.50000000E-01  8.50000000E-01
  8.50000000E-01  8.50000000E-01  8.50000000E-01  8.50000000E-01  8.50000000E-01
  8.50000000E-01  8.50000000E-01  8.50000000E-01  8.50000000E-01  8.50000000E-01
  8.50000000E-01  8.50000000E-01  8.50000000E-01  8.50000000E-01  8.50000000E-01
  8.50000000E-01  8.50000000E-01  8.50000000E-01  8.50000000E-01  8.50000000E-01
  8.50000000E-01  8.50000000E-01  8.50000000E-01  8.50000000E-01  8.50000000E-01
  8.50000000E-01  8.50000000E-01  8.50000000E-01  8.50000000E-01  8.50000000E-01
  8.50000000E-01  8.50000000E-01  8.50000000E-01  8.50000000E-01  8.50000000E-01
  8.50000000E-01  8.50000000E-01  8.50000000E-01  8.50000000E-01  8.50000000E-01
  8.50000000E-01  8.50000000E-01  8.50000000E-01  8.50000000E-01  8.50000000E-01
  8.50000000E-01  8.50000000E-01  8.50000000E-01  8.50000000E-01  8.50000000E-01
  8.50000000E-01  8.50000000E-01  8.50000000E-01  8.50000000E-01  8.50000000E-01
  8.50000000E-01  8.50000000E-01  8.50000000E-01  8.50000000E-01  8.50000000E-01
  8.50000000E-01  8.50000000E-01  8.50000000E-01  8.50000000E-01  8.50000000E-01
  8.50000000E-01  8.50000000E-01  8.50000000E-01  8.50000000E-01  8.50000000E-01
  8.50000000E-01  8.50000000E-01  8.50000000E-01  8.50000000E-01  8.50000000E-01
  8.50000000E-01  8.50000000E-01  8.50000000E-01  8.50000000E-01  8.50000000E-01
  8.50000000E-01  8.50000000E-01  8.50000000E-01  8.50000000E-01  8.50000000E-01
  8.50000000E-01  8.50000000E-01  8.50000000E-01  8.50000000E-01  8.50000000E-01
  8.50000000E-01  8.50000000E-01  8.50000000E-01  8.50000000E-01  8.50000000E-01
  8.50000000E-01  8.50000000E-01  8.50000000E-01  8.50000000E-01  8.50000000E-01
  8.50000000E-01  8.50000000E-01  8.50000000E-01  8.50000000E-01  8.50000000E-01
  8.50000000E-01  8.50000000E-01  8.50000000E-01  8.50000000E-01  8.50000000E-01
  8.50000000E-01  8.50000000E-01  8.50000000E-01  8.50000000E-01  8.50000000E-01
  8.50000000E-01  8.50000000E-01  8.50000000E-01  8.50000000E-01  8.50000000E-01
  8.50000000E-01  8.50000000E-01  8.50000000E-01  8.50000000E-01  8.50000000E-01
  8.50000000E-01  8.50000000E-01  8.50000000E-01  8.50000000E-01  8.50000000E-01
  8.50000000E-01  8.50000000E-01  8.50000000E-01  8.50000000E-01  8.50000000E-01
  8.50000000E-01  8.50000000E-01  8.50000000E-01  8.50000000E-01  8.50000000E-01
  8.50000000E-01  8.50000000E-01  8.50000000E-01  8.50000000E-01  8.50000000E-01
  8.50000000E-01  8.50000000E-01  8.50000000E-01  8.50000000E-01  8.50000000E-01
  8.50000000E-01  8.50000000E-01  8.50000000E-01  8.50000000E-01  8.50000000E-01
  8.50000000E-01  8.50000000E-01  8.50000000E-01  8.50000000E-01  8.50000000E-01
  8.50000000E-01  8.50000000E-01  8.50000000E-01  8.50000000E-01  8.50000000E-01
  8.50000000E-01  8.50000000E-01  8.50000000E-01  8.50000000E-01  8.50000000E-01
  8.50000000E-01  8.50000000E-01  8.50000000E-01  8.50000000E-01  8.50000000E-01
  8.50000000E-01  8.50000000E-01  8.50000000E-01  8.50000000E-01  8.50000000E-01
  8.50000000E-01  8.50000000E-01  8.50000000E-01  8.50000000E-01  8.50000000E-01
  8.50000000E-01  8.50000000E-01  8.50000000E-01  8.50000000E-01  8.50000000E-01
  8.50000000E-01  8.50000000E-01  8.50000000E-01  8.50000000E-01  8.50000000E-01
  8.50000000E-01  8.50000000E-01  8.50000000E-01  8.50000000E-01  8.50000000E-01
  8.50000000E-01  8.50000000E-01  8.50000000E-01  8.50000000E-01  8.50000000E-01
  8.50000000E-01  8.50000000E-01  8.50000000E-01  8.50000000E-01  8.50000000E-01
  8.50000000E-01  8.50000000E-01  8.50000000E-01  8.50000000E-01  8.50000000E-01
  8.50000000E-01  8.50000000E-01  8.50000000E-01  8.50000000E-01  8.50000000E-01
  8.50000000E-01  8.50000000E-01  8.50000000E-01  8.50000000E-01  8.50000000E-01
  8.50000000E-01  8.50000000E-01  8.50000000E-01  8.50000000E-01  8.50000000E-01
  8.50000000E-01  8.50000000E-01  8.50000000E-01  8.50000000E-01  8.50000000E-01
  8.50000000E-01  8.50000000E-01  8.50000000E-01  8.50000000E-01  8.50000000E-01
  8.50000000E-01  8.50000000E-01  8.50000000E-01  8.50000000E-01  8.50000000E-01
  8.50000000E-01  8.50000000E-01  8.50000000E-01  8.50000000E-01  8.50000000E-01
  8.50000000E-01  8.50000000E-01  8.50000000E-01  8.50000000E-01  8.50000000E-01
  8.50000000E-01  8.50000000E-01  8.50000000E-01  8.50000000E-01  8.50000000E-01
  8.50000000E-01  8.50000000E-01  8.50000000E-01  8.50000000E-01  8.50000000E-01
  8.50000000E-01  8.50000000E-01  8.50000000E-01  8.50000000E-01  8.50000000E-01
  8.50000000E-01  8.50000000E-01  8.50000000E-01  8.50000000E-01  8.50000000E-01
  8.50000000E-01  8.50000000E-01  8.50000000E-01  8.50000000E-01  8.50000000E-01
  8.50000000E-01  8.50000000E-01  8.50000000E-01  8.50000000E-01  8.50000000E-01
  8.50000000E-01  8.50000000E-01  8.50000000E-01  8.50000000E-01  8.50000000E-01
  8.50000000E-01  8.50000000E-01  8.50000000E-01  8.50000000E-01  8.50000000E-01
  8.50000000E-01  8.50000000E-01  8.50000000E-01  8.50000000E-01  8.50000000E-01
  8.50000000E-01  8.50000000E-01  8.50000000E-01  8.50000000E-01  8.50000000E-01
  8.50000000E-01  8.50000000E-01  8.50000000E-01  8.50000000E-01  8.50000000E-01
  8.50000000E-01  8.50000000E-01  8.50000000E-01  8.50000000E-01  8.50000000E-01
  8.50000000E-01  8.50000000E-01  8.50000000E-01  8.50000000E-01  8.50000000E-01
  8.50000000E-01  8.50000000E-01  8.50000000E-01  8.50000000E-01  8.50000000E-01
  8.50000000E-01  8.50000000E-01  8.50000000E-01  8.50000000E-01  8.50000000E-01
  8.50000000E-01  8.50000000E-01  8.50000000E-01  8.50000000E-01  8.50000000E-01
  8.50000000E-01  8.50000000E-01  8.50000000E-01  8.50000000E-01  8.50000000E-01
  8.50000000E-01  8.50000000E-01  8.50000000E-01  8.50000000E-01  8.50000000E-01
  8.50000000E-01  8.50000000E-01  8.50000000E-01  8.50000000E-01  8.50000000E-01
  8.50000000E-01  8.50000000E-01  8.50000000E-01  8.50000000E-01  8.50000000E-01
  8.50000000E-01  8.50000000E-01  8.50000000E-01  8.50000000E-01  8.50000000E-01
  8.50000000E-01  8.50000000E-01  8.50000000E-01  8.50000000E-01  8.50000000E-01
  8.50000000E-01  8.50000000E-01  8.50000000E-01  8.50000000E-01  8.50000000E-01
  8.50000000E-01  8.50000000E-01  8.50000000E-01  8.50000000E-01  8.50000000E-01
  8.50000000E-01  8.50000000E-01  8.50000000E-01  8.50000000E-01  8.50000000E-01
  8.50000000E-01  8.50000000E-01  8.50000000E-01  8.50000000E-01  8.50000000E-01
  8.50000000E-01  8.50000000E-01  8.50000000E-01  8.50000000E-01  8.50000000E-01
  8.50000000E-01  8.50000000E-01  8.50000000E-01  8.50000000E-01  8.50000000E-01
  8.50000000E-01  8.50000000E-01  8.50000000E-01  8.50000000E-01  8.50000000E-01
  8.50000000E-01  8.50000000E-01  8.50000000E-01  8.50000000E-01  8.50000000E-01
  8.50000000E-01  8.50000000E-01  8.50000000E-01  8.50000000E-01  8.50000000E-01
  8.50000000E-01  8.50000000E-01  8.50000000E-01  8.50000000E-01  8.50000000E-01
  8.50000000E-01  8.50000000E-01  8.50000000E-01  8.50000000E-01  8.50000000E-01
  8.50000000E-01  8.50000000E-01  8.50000000E-01  8.50000000E-01  8.50000000E-01
  8.50000000E-01  8.50000000E-01  8.50000000E-01  8.50000000E-01  8.50000000E-01
  8.50000000E-01  8.50000000E-01  8.50000000E-01  8.50000000E-01  8.50000000E-01
  8.50000000E-01  8.50000000E-01  8.50000000E-01  8.50000000E-01  8.50000000E-01
  8.50000000E-01  8.50000000E-01  8.50000000E-01  8.50000000E-01  8.50000000E-01
  8.50000000E-01  8.50000000E-01  8.50000000E-01  8.50000000E-01  8.50000000E-01
  8.50000000E-01  8.50000000E-01  8.50000000E-01  8.50000000E-01  8.50000000E-01
  8.50000000E-01  8.50000000E-01  8.50000000E-01  8.50000000E-01  8.50000000E-01
  8.50000000E-01  8.50000000E-01  8.50000000E-01  8.50000000E-01  8.50000000E-01
  8.50000000E-01  8.50000000E-01  8.50000000E-01  8.50000000E-01  8.50000000E-01
  8.50000000E-01  8.50000000E-01  8.50000000E-01  8.50000000E-01  8.50000000E-01
  8.50000000E-01  8.50000000E-01  8.50000000E-01  8.50000000E-01  8.50000000E-01
  8.50000000E-01  8.50000000E-01  8.50000000E-01  8.50000000E-01  8.50000000E-01
  8.50000000E-01  8.50000000E-01  8.50000000E-01  8.50000000E-01  8.50000000E-01
  8.50000000E-01  8.50000000E-01  8.50000000E-01  8.50000000E-01  8.50000000E-01
  8.50000000E-01  8.50000000E-01  8.50000000E-01  8.50000000E-01  8.50000000E-01
  8.50000000E-01  8.50000000E-01  8.50000000E-01  8.50000000E-01  8.50000000E-01
  8.50000000E-01  8.50000000E-01  8.50000000E-01  8.50000000E-01  8.50000000E-01
  8.50000000E-01  8.50000000E-01  8.50000000E-01  8.50000000E-01  8.50000000E-01
  8.50000000E-01  8.50000000E-01  8.50000000E-01  8.50000000E-01  8.50000000E-01
  8.50000000E-01  8.50000000E-01  8.50000000E-01  8.50000000E-01  8.50000000E-01
  8.50000000E-01  8.50000000E-01  8.50000000E-01  8.50000000E-01  8.50000000E-01
  8.50000000E-01  8.50000000E-01  8.50000000E-01  8.50000000E-01  8.50000000E-01
  8.50000000E-01  8.50000000E-01  8.50000000E-01  8.50000000E-01  8.50000000E-01
  8.50000000E-01  8.50000000E-01  8.50000000E-01  8.50000000E-01  8.50000000E-01
  8.50000000E-01  8.50000000E-01  8.50000000E-01  8.50000000E-01  8.50000000E-01
  8.50000000E-01  8.50000000E-01  8.50000000E-01  8.50000000E-01  8.50000000E-01
  8.50000000E-01  8.50000000E-01  8.50000000E-01  8.50000000E-01  8.50000000E-01
  8.50000000E-01  8.50000000E-01  8.50000000E-01  8.50000000E-01  8.50000000E-01
  8.50000000E-01  8.50000000E-01  8.50000000E-01  8.50000000E-01  8.50000000E-01
  8.50000000E-01  8.50000000E-01  8.50000000E-01  8.50000000E-01  8.50000000E-01
  8.50000000E-01  8.50000000E-01  8.50000000E-01  8.50000000E-01  8.50000000E-01
  8.50000000E-01  8.50000000E-01  8.50000000E-01  8.50000000E-01  8.50000000E-01
  8.50000000E-01  8.50000000E-01  8.50000000E-01  8.50000000E-01  8.50000000E-01
  8.50000000E-01  8.50000000E-01  8.50000000E-01  8.50000000E-01  8.50000000E-01
  8.50000000E-01  8.50000000E-01  8.50000000E-01  8.50000000E-01  8.50000000E-01
  8.50000000E-01  8.50000000E-01  8.50000000E-01  8.50000000E-01  8.50000000E-01
  8.50000000E-01  8.50000000E-01  8.50000000E-01  8.50000000E-01  8.50000000E-01
  8.50000000E-01  8.50000000E-01  8.50000000E-01  8.50000000E-01  8.50000000E-01
  8.50000000E-01  8.50000000E-01  8.50000000E-01  8.50000000E-01  8.50000000E-01
  8.50000000E-01  8.50000000E-01  8.50000000E-01  8.50000000E-01  8.50000000E-01
  8.50000000E-01  8.50000000E-01  8.50000000E-01  8.50000000E-01  8.50000000E-01
  8.50000000E-01  8.50000000E-01  8.50000000E-01  8.50000000E-01  8.50000000E-01
  8.50000000E-01  8.50000000E-01  8.50000000E-01  8.50000000E-01  8.50000000E-01
  8.50000000E-01  8.50000000E-01  8.50000000E-01  8.50000000E-01  8.50000000E-01
  8.50000000E-01  8.50000000E-01  8.50000000E-01  8.50000000E-01  8.50000000E-01
  8.50000000E-01  8.50000000E-01  8.50000000E-01  8.50000000E-01  8.50000000E-01
  8.50000000E-01  8.50000000E-01  8.50000000E-01  8.50000000E-01  8.50000000E-01
  8.50000000E-01  8.50000000E-01  8.50000000E-01  8.50000000E-01  8.50000000E-01
  8.50000000E-01  8.50000000E-01  8.50000000E-01  8.50000000E-01  8.50000000E-01
  8.50000000E-01  8.50000000E-01  8.50000000E-01  8.50000000E-01  8.50000000E-01
  8.50000000E-01  8.50000000E-01  8.50000000E-01  8.50000000E-01  8.50000000E-01
  8.50000000E-01  8.50000000E-01  8.50000000E-01  8.50000000E-01  8.50000000E-01
  8.50000000E-01  8.50000000E-01  8.50000000E-01  8.50000000E-01  8.50000000E-01
  8.50000000E-01  8.50000000E-01  8.50000000E-01  8.50000000E-01  8.50000000E-01
  8.50000000E-01  8.50000000E-01  8.50000000E-01  8.50000000E-01  8.50000000E-01
  8.50000000E-01  8.50000000E-01  8.50000000E-01  8.50000000E-01  8.50000000E-01
  8.50000000E-01  8.50000000E-01  8.50000000E-01  8.50000000E-01  8.50000000E-01
  8.50000000E-01  8.50000000E-01  8.50000000E-01  8.50000000E-01  8.50000000E-01
  8.50000000E-01  8.50000000E-01  8.50000000E-01  8.50000000E-01  8.50000000E-01
  8.50000000E-01  8.50000000E-01  8.50000000E-01  8.50000000E-01  8.50000000E-01
  8.50000000E-01  8.50000000E-01  8.50000000E-01  8.50000000E-01  8.50000000E-01
  8.50000000E-01  8.50000000E-01  8.50000000E-01  8.50000000E-01  8.50000000E-01
  8.50000000E-01  8.50000000E-01  8.50000000E-01  8.50000000E-01  8.50000000E-01
  8.50000000E-01  8.50000000E-01  8.50000000E-01  8.50000000E-01  8.50000000E-01
  8.50000000E-01  8.50000000E-01  8.50000000E-01  8.50000000E-01  8.50000000E-01
  8.50000000E-01  8.50000000E-01  8.50000000E-01  8.50000000E-01  8.50000000E-01
  8.50000000E-01  8.50000000E-01  8.50000000E-01  8.50000000E-01  8.50000000E-01
  8.50000000E-01  8.50000000E-01  8.50000000E-01  8.50000000E-01  8.50000000E-01
  8.50000000E-01  8.50000000E-01  8.50000000E-01  8.50000000E-01  8.50000000E-01
  8.50000000E-01  8.50000000E-01  8.50000000E-01  8.50000000E-01  8.50000000E-01
  8.50000000E-01  8.50000000E-01  8.50000000E-01  8.50000000E-01  8.50000000E-01
  8.50000000E-01  8.50000000E-01  8.50000000E-01  8.50000000E-01  8.50000000E-01
  8.50000000E-01  8.50000000E-01  8.50000000E-01  8.50000000E-01  8.50000000E-01
  8.50000000E-01  8.50000000E-01  8.50000000E-01  8.50000000E-01  8.50000000E-01
  8.50000000E-01  8.50000000E-01  8.50000000E-01  8.50000000E-01  8.50000000E-01
  8.50000000E-01  8.50000000E-01  8.50000000E-01  8.50000000E-01  8.50000000E-01
  8.50000000E-01  8.50000000E-01  8.50000000E-01  8.50000000E-01  8.50000000E-01
  8.50000000E-01  8.50000000E-01  8.50000000E-01  8.50000000E-01  8.50000000E-01
  8.50000000E-01  8.50000000E-01  8.50000000E-01  8.50000000E-01  8.50000000E-01
  8.50000000E-01  8.50000000E-01  8.50000000E-01  8.50000000E-01  8.50000000E-01
  8.50000000E-01  8.50000000E-01  8.50000000E-01  8.50000000E-01  8.50000000E-01
  8.50000000E-01  8.50000000E-01  8.50000000E-01  8.50000000E-01  8.50000000E-01
  8.50000000E-01  8.50000000E-01  8.50000000E-01  8.50000000E-01  8.50000000E-01
  8.50000000E-01  8.50000000E-01  8.50000000E-01  8.50000000E-01  8.50000000E-01
  8.50000000E-01  8.50000000E-01  8.50000000E-01  8.50000000E-01  8.50000000E-01
  8.50000000E-01  8.50000000E-01  8.50000000E-01  8.50000000E-01  8.50000000E-01
  8.50000000E-01  8.50000000E-01  8.50000000E-01  8.50000000E-01  8.50000000E-01
  8.50000000E-01  8.50000000E-01  8.50000000E-01  8.50000000E-01  8.50000000E-01
  8.50000000E-01  8.50000000E-01  8.50000000E-01  8.50000000E-01  8.50000000E-01
  8.50000000E-01  8.50000000E-01  8.50000000E-01  8.50000000E-01  8.50000000E-01
  8.50000000E-01  8.50000000E-01  8.50000000E-01  8.50000000E-01  8.50000000E-01
  8.50000000E-01  8.50000000E-01  8.50000000E-01  8.50000000E-01  8.50000000E-01
  8.50000000E-01  8.50000000E-01  8.50000000E-01  8.50000000E-01  8.50000000E-01
  8.50000000E-01  8.50000000E-01  8.50000000E-01  8.50000000E-01  8.50000000E-01
  8.50000000E-01  8.50000000E-01  8.50000000E-01  8.50000000E-01  8.50000000E-01
  8.50000000E-01  8.50000000E-01  8.50000000E-01  8.50000000E-01  8.50000000E-01
  8.50000000E-01  8.50000000E-01  8.50000000E-01  8.50000000E-01  8.50000000E-01
  8.50000000E-01  8.50000000E-01  8.50000000E-01  8.50000000E-01  8.50000000E-01
  8.50000000E-01  8.50000000E-01  8.50000000E-01  8.50000000E-01  8.50000000E-01
  8.50000000E-01  8.50000000E-01  8.50000000E-01  8.50000000E-01  8.50000000E-01
  8.50000000E-01  8.50000000E-01  8.50000000E-01  8.50000000E-01  8.50000000E-01
  8.50000000E-01  8.50000000E-01  8.50000000E-01  8.50000000E-01  8.50000000E-01
  8.50000000E-01  8.50000000E-01  8.50000000E-01  8.50000000E-01  8.50000000E-01
  8.50000000E-01  8.50000000E-01  8.50000000E-01  8.50000000E-01  8.50000000E-01
  8.50000000E-01  8.50000000E-01  8.50000000E-01  8.50000000E-01  8.50000000E-01
  8.50000000E-01  8.50000000E-01  8.50000000E-01  8.50000000E-01  8.50000000E-01
  8.50000000E-01  8.50000000E-01  8.50000000E-01  8.50000000E-01  8.50000000E-01
  8.50000000E-01  8.50000000E-01  8.50000000E-01  8.50000000E-01  8.50000000E-01
  8.50000000E-01  8.50000000E-01  8.50000000E-01  8.50000000E-01  8.50000000E-01
  8.50000000E-01  8.50000000E-01  8.50000000E-01  8.50000000E-01  8.50000000E-01
  8.50000000E-01  8.50000000E-01  8.50000000E-01  8.50000000E-01  8.50000000E-01
  8.50000000E-01  8.50000000E-01  8.50000000E-01  8.50000000E-01  8.50000000E-01
  8.50000000E-01  8.50000000E-01  8.50000000E-01  8.50000000E-01  8.50000000E-01
  8.50000000E-01  8.50000000E-01  8.50000000E-01  8.50000000E-01  8.50000000E-01
  8.50000000E-01  8.50000000E-01  8.50000000E-01  8.50000000E-01  8.50000000E-01
  8.50000000E-01  8.50000000E-01  8.50000000E-01  8.50000000E-01  8.50000000E-01
  8.50000000E-01  8.50000000E-01  8.50000000E-01  8.50000000E-01  8.50000000E-01
  8.50000000E-01  8.50000000E-01  8.50000000E-01  8.50000000E-01  8.50000000E-01
  8.50000000E-01  8.50000000E-01  8.50000000E-01  8.50000000E-01  8.50000000E-01
  8.50000000E-01  8.50000000E-01  8.50000000E-01  8.50000000E-01  8.50000000E-01
  8.50000000E-01  8.50000000E-01  8.50000000E-01  8.50000000E-01  8.50000000E-01
  8.50000000E-01  8.50000000E-01  8.50000000E-01  8.50000000E-01  8.50000000E-01
  8.50000000E-01  8.50000000E-01  8.50000000E-01  8.50000000E-01  8.50000000E-01
  8.50000000E-01  8.50000000E-01  8.50000000E-01  8.50000000E-01  8.50000000E-01
  8.50000000E-01  8.50000000E-01  8.50000000E-01  8.50000000E-01  8.50000000E-01
  8.50000000E-01  8.50000000E-01  8.50000000E-01  8.50000000E-01  8.50000000E-01
  8.50000000E-01  8.50000000E-01  8.50000000E-01  8.50000000E-01  8.50000000E-01
  8.50000000E-01  8.50000000E-01  8.50000000E-01  8.50000000E-01  8.50000000E-01
  8.50000000E-01  8.50000000E-01  8.50000000E-01  8.50000000E-01  8.50000000E-01
  8.50000000E-01  8.50000000E-01  8.50000000E-01  8.50000000E-01  8.50000000E-01
  8.50000000E-01  8.50000000E-01  8.50000000E-01  8.50000000E-01  8.50000000E-01
  8.50000000E-01  8.50000000E-01  8.50000000E-01  8.50000000E-01  8.50000000E-01
  8.50000000E-01  8.50000000E-01  8.50000000E-01  8.50000000E-01  8.50000000E-01
  8.50000000E-01  8.50000000E-01  8.50000000E-01  8.50000000E-01  8.50000000E-01
  8.50000000E-01  8.50000000E-01  8.50000000E-01  8.50000000E-01  8.50000000E-01
  8.50000000E-01  8.50000000E-01  8.50000000E-01  8.50000000E-01  8.50000000E-01
  8.50000000E-01  8.50000000E-01  8.50000000E-01  8.50000000E-01  8.50000000E-01
  8.50000000E-01  8.50000000E-01  8.50000000E-01  8.50000000E-01  8.50000000E-01
  8.50000000E-01  8.50000000E-01  8.50000000E-01  8.50000000E-01  8.50000000E-01
  8.50000000E-01  8.50000000E-01  8.50000000E-01  8.50000000E-01  8.50000000E-01
  8.50000000E-01  8.50000000E-01  8.50000000E-01  8.50000000E-01  8.50000000E-01
  8.50000000E-01  8.50000000E-01  8.50000000E-01  8.50000000E-01  8.50000000E-01
  8.50000000E-01  8.50000000E-01  8.50000000E-01  8.50000000E-01  8.50000000E-01
  8.50000000E-01  8.50000000E-01  8.50000000E-01  8.50000000E-01  8.50000000E-01
  8.50000000E-01  8.50000000E-01  8.50000000E-01  8.50000000E-01  8.50000000E-01
  8.50000000E-01  8.50000000E-01  8.50000000E-01  8.50000000E-01  8.50000000E-01
  8.50000000E-01  8.50000000E-01  8.50000000E-01  8.50000000E-01  8.50000000E-01
  8.50000000E-01  8.50000000E-01  8.50000000E-01  8.50000000E-01  8.50000000E-01
  8.50000000E-01  8.50000000E-01  8.50000000E-01  8.50000000E-01  8.50000000E-01
  8.50000000E-01  8.50000000E-01  8.50000000E-01  8.50000000E-01  8.50000000E-01
  8.50000000E-01  8.50000000E-01  8.50000000E-01  8.50000000E-01  8.50000000E-01
  8.50000000E-01  8.50000000E-01  8.50000000E-01  8.50000000E-01  8.50000000E-01
  8.50000000E-01  8.50000000E-01  8.50000000E-01  8.50000000E-01  8.50000000E-01
  8.50000000E-01  8.50000000E-01  8.50000000E-01  8.50000000E-01  8.50000000E-01
  8.50000000E-01  8.50000000E-01  8.50000000E-01  8.50000000E-01  8.50000000E-01
  8.50000000E-01  8.50000000E-01  8.50000000E-01  8.50000000E-01  8.50000000E-01
  8.50000000E-01  8.50000000E-01  8.50000000E-01  8.50000000E-01  8.50000000E-01
  8.50000000E-01  8.50000000E-01  8.50000000E-01  8.50000000E-01  8.50000000E-01
  8.50000000E-01  8.50000000E-01  8.50000000E-01  8.50000000E-01  8.50000000E-01
  8.50000000E-01  8.50000000E-01  8.50000000E-01  8.50000000E-01  8.50000000E-01
  8.50000000E-01  8.50000000E-01  8.50000000E-01  8.50000000E-01  8.50000000E-01
  8.50000000E-01  8.50000000E-01  8.50000000E-01  8.50000000E-01  8.50000000E-01
  8.50000000E-01  8.50000000E-01  8.50000000E-01  8.50000000E-01  8.50000000E-01
  8.50000000E-01  8.50000000E-01  8.50000000E-01  8.50000000E-01  8.50000000E-01
  8.50000000E-01  8.50000000E-01  8.50000000E-01  8.50000000E-01  8.50000000E-01
  8.50000000E-01  8.50000000E-01  8.50000000E-01  8.50000000E-01  8.50000000E-01
  8.50000000E-01  8.50000000E-01  8.50000000E-01  8.50000000E-01  8.50000000E-01
  8.50000000E-01  8.50000000E-01  8.50000000E-01  8.50000000E-01  8.50000000E-01
  8.50000000E-01  8.50000000E-01  8.50000000E-01  8.50000000E-01  8.50000000E-01
  8.50000000E-01  8.50000000E-01  8.50000000E-01  8.50000000E-01  8.50000000E-01
  8.50000000E-01  8.50000000E-01  8.50000000E-01  8.50000000E-01  8.50000000E-01
  8.50000000E-01  8.50000000E-01  8.50000000E-01  8.50000000E-01  8.50000000E-01
  8.50000000E-01  8.50000000E-01  8.50000000E-01  8.50000000E-01  8.50000000E-01
  8.50000000E-01  8.50000000E-01  8.50000000E-01  8.50000000E-01  8.50000000E-01
  8.50000000E-01  8.50000000E-01  8.50000000E-01  8.50000000E-01  8.50000000E-01
  8.50000000E-01  8.50000000E-01  8.50000000E-01  8.50000000E-01  8.50000000E-01
  8.50000000E-01  8.50000000E-01  8.50000000E-01  8.50000000E-01  8.50000000E-01
  8.50000000E-01  8.50000000E-01  8.50000000E-01  8.50000000E-01  8.50000000E-01
  8.50000000E-01  8.50000000E-01  8.50000000E-01  8.50000000E-01  8.50000000E-01
  8.50000000E-01  8.50000000E-01  8.50000000E-01  8.50000000E-01  8.50000000E-01
  8.50000000E-01  8.50000000E-01  8.50000000E-01  8.50000000E-01  8.50000000E-01
  8.50000000E-01  8.50000000E-01  8.50000000E-01  8.50000000E-01  8.50000000E-01
  8.50000000E-01  8.50000000E-01  8.50000000E-01  8.50000000E-01  8.50000000E-01
  8.50000000E-01  8.50000000E-01  8.50000000E-01  8.50000000E-01  8.50000000E-01
  8.50000000E-01  8.50000000E-01  8.50000000E-01  8.50000000E-01  8.50000000E-01
  8.50000000E-01  8.50000000E-01  8.50000000E-01  8.50000000E-01  8.50000000E-01
  8.50000000E-01  8.50000000E-01  8.50000000E-01  8.50000000E-01  8.50000000E-01
  8.50000000E-01  8.50000000E-01  8.50000000E-01  8.50000000E-01  8.50000000E-01
  8.50000000E-01  8.50000000E-01  8.50000000E-01  8.50000000E-01  8.50000000E-01
  8.50000000E-01  8.50000000E-01  8.50000000E-01  8.50000000E-01  8.50000000E-01
  8.50000000E-01  8.50000000E-01  8.50000000E-01  8.50000000E-01  8.50000000E-01
  8.50000000E-01  8.50000000E-01  8.50000000E-01  8.50000000E-01  8.50000000E-01
  8.50000000E-01  8.50000000E-01  8.50000000E-01  8.50000000E-01  8.50000000E-01
  8.50000000E-01  8.50000000E-01  8.50000000E-01  8.50000000E-01  8.50000000E-01
  8.50000000E-01  8.50000000E-01  8.50000000E-01  8.50000000E-01  8.50000000E-01
  8.50000000E-01  8.50000000E-01  8.50000000E-01  8.50000000E-01  8.50000000E-01
  8.50000000E-01  8.50000000E-01  8.50000000E-01  8.50000000E-01  8.50000000E-01
  8.50000000E-01  8.50000000E-01  8.50000000E-01  8.50000000E-01  8.50000000E-01
  8.50000000E-01  8.50000000E-01  8.50000000E-01  8.50000000E-01  8.50000000E-01
  8.50000000E-01  8.50000000E-01  8.50000000E-01  8.50000000E-01  8.50000000E-01
  8.50000000E-01  8.50000000E-01  8.50000000E-01  8.50000000E-01  8.50000000E-01
  8.50000000E-01  8.50000000E-01  8.50000000E-01  8.50000000E-01  8.50000000E-01
  8.50000000E-01  8.50000000E-01  8.50000000E-01  8.50000000E-01  8.50000000E-01
  8.50000000E-01  8.50000000E-01  8.50000000E-01  8.50000000E-01  8.50000000E-01
  8.50000000E-01  8.50000000E-01  8.50000000E-01  8.50000000E-01  8.50000000E-01
  8.50000000E-01  8.50000000E-01  8.50000000E-01  8.50000000E-01  8.50000000E-01
  8.50000000E-01  8.50000000E-01  8.50000000E-01  8.50000000E-01  8.50000000E-01
  8.50000000E-01  8.50000000E-01  8.50000000E-01  8.50000000E-01  8.50000000E-01
  8.50000000E-01  8.50000000E-01  8.50000000E-01  8.50000000E-01  8.50000000E-01
  8.50000000E-01  8.50000000E-01  8.50000000E-01  8.50000000E-01  8.50000000E-01
  8.50000000E-01  8.50000000E-01  8.50000000E-01  8.50000000E-01  8.50000000E-01
  8.50000000E-01  8.50000000E-01  8.50000000E-01  8.50000000E-01  8.50000000E-01
  8.50000000E-01  8.50000000E-01  8.50000000E-01  8.50000000E-01  8.50000000E-01
  8.50000000E-01  8.50000000E-01  8.50000000E-01  8.50000000E-01  8.50000000E-01
  8.50000000E-01  8.50000000E-01  8.50000000E-01  8.50000000E-01  8.50000000E-01
  8.50000000E-01  8.50000000E-01  8.50000000E-01  8.50000000E-01  8.50000000E-01
  8.50000000E-01  8.50000000E-01  8.50000000E-01  8.50000000E-01  8.50000000E-01
  8.50000000E-01  8.50000000E-01  8.50000000E-01  8.50000000E-01  8.50000000E-01
  8.50000000E-01  8.50000000E-01  8.50000000E-01  8.50000000E-01  8.50000000E-01
  8.50000000E-01  8.50000000E-01  8.50000000E-01  8.50000000E-01  8.50000000E-01
  8.50000000E-01  8.50000000E-01  8.50000000E-01  8.50000000E-01  8.50000000E-01
  8.50000000E-01  8.50000000E-01  8.50000000E-01  8.50000000E-01  8.50000000E-01
  8.50000000E-01  8.50000000E-01  8.50000000E-01  8.50000000E-01  8.50000000E-01
  8.50000000E-01  8.50000000E-01  8.50000000E-01  8.50000000E-01  8.50000000E-01
  8.50000000E-01  8.50000000E-01  8.50000000E-01  8.50000000E-01  8.50000000E-01
  8.50000000E-01  8.50000000E-01  8.50000000E-01  8.50000000E-01  8.50000000E-01
  8.50000000E-01  8.50000000E-01  8.50000000E-01  8.50000000E-01  8.50000000E-01
  8.50000000E-01  8.50000000E-01  8.50000000E-01  8.50000000E-01  8.50000000E-01
  8.50000000E-01  8.50000000E-01  8.50000000E-01  8.50000000E-01  8.50000000E-01
  8.50000000E-01  8.50000000E-01  8.50000000E-01  8.50000000E-01  8.50000000E-01
  8.50000000E-01  8.50000000E-01  8.50000000E-01  8.50000000E-01  8.50000000E-01
  8.50000000E-01  8.50000000E-01  8.50000000E-01  8.50000000E-01  8.50000000E-01
  8.50000000E-01  8.50000000E-01  8.50000000E-01  8.50000000E-01  8.50000000E-01
  8.50000000E-01  8.50000000E-01  8.50000000E-01  8.50000000E-01  8.50000000E-01
  8.50000000E-01  8.50000000E-01  8.50000000E-01  8.50000000E-01  8.50000000E-01
  8.50000000E-01  8.50000000E-01  8.50000000E-01  8.50000000E-01  8.50000000E-01
  8.50000000E-01  8.50000000E-01  8.50000000E-01  8.50000000E-01  8.50000000E-01
  8.50000000E-01  8.50000000E-01  8.50000000E-01  8.50000000E-01  8.50000000E-01
  8.50000000E-01  8.50000000E-01  8.50000000E-01  8.50000000E-01  8.50000000E-01
  8.50000000E-01  8.50000000E-01  8.50000000E-01  8.50000000E-01  8.50000000E-01
  8.50000000E-01  8.50000000E-01  8.50000000E-01  8.50000000E-01  8.50000000E-01
  8.50000000E-01  8.50000000E-01  8.50000000E-01  8.50000000E-01  8.50000000E-01
  8.50000000E-01  8.50000000E-01  8.50000000E-01  8.50000000E-01  8.50000000E-01
  8.50000000E-01  8.50000000E-01  8.50000000E-01  8.50000000E-01  8.50000000E-01
  8.50000000E-01  8.50000000E-01  8.50000000E-01  8.50000000E-01  8.50000000E-01
  8.50000000E-01  8.50000000E-01  8.50000000E-01  8.50000000E-01  8.50000000E-01
  8.50000000E-01  8.50000000E-01  8.50000000E-01  8.50000000E-01  8.50000000E-01
  8.50000000E-01  8.50000000E-01  8.50000000E-01  8.50000000E-01  8.50000000E-01
  8.50000000E-01  8.50000000E-01  8.50000000E-01  8.50000000E-01  8.50000000E-01
  8.50000000E-01  8.50000000E-01  8.50000000E-01  8.50000000E-01  8.50000000E-01
  8.50000000E-01  8.50000000E-01  8.50000000E-01  8.50000000E-01  8.50000000E-01
  8.50000000E-01  8.50000000E-01  8.50000000E-01  8.50000000E-01  8.50000000E-01
  8.50000000E-01  8.50000000E-01  8.50000000E-01  8.50000000E-01  8.50000000E-01
  8.50000000E-01  8.50000000E-01  8.50000000E-01  8.50000000E-01  8.50000000E-01
  8.50000000E-01  8.50000000E-01  8.50000000E-01  8.50000000E-01  8.50000000E-01
  8.50000000E-01  8.50000000E-01  8.50000000E-01  8.50000000E-01  8.50000000E-01
  8.50000000E-01  8.50000000E-01  8.50000000E-01  8.50000000E-01  8.50000000E-01
  8.50000000E-01  8.50000000E-01  8.50000000E-01  8.50000000E-01  8.50000000E-01
  8.50000000E-01  8.50000000E-01  8.50000000E-01  8.50000000E-01  8.50000000E-01
  8.50000000E-01  8.50000000E-01  8.50000000E-01  8.50000000E-01  8.50000000E-01
  8.50000000E-01  8.50000000E-01  8.50000000E-01  8.50000000E-01  8.50000000E-01
  8.50000000E-01  8.50000000E-01  8.50000000E-01  8.50000000E-01  8.50000000E-01
  8.50000000E-01  8.50000000E-01  8.50000000E-01  8.50000000E-01  8.50000000E-01
  8.50000000E-01  8.50000000E-01  8.50000000E-01  8.50000000E-01  8.50000000E-01
  8.50000000E-01  8.50000000E-01  8.50000000E-01  8.50000000E-01  8.50000000E-01
  8.50000000E-01  8.50000000E-01  8.50000000E-01  8.50000000E-01  8.50000000E-01
  8.50000000E-01  8.50000000E-01  8.50000000E-01  8.50000000E-01  8.50000000E-01
  8.50000000E-01  8.50000000E-01  8.50000000E-01  8.50000000E-01  8.50000000E-01
  8.50000000E-01  8.50000000E-01  8.50000000E-01  8.50000000E-01  8.50000000E-01
  8.50000000E-01  8.50000000E-01  8.50000000E-01  8.50000000E-01  8.50000000E-01
  8.50000000E-01  8.50000000E-01  8.50000000E-01  8.50000000E-01  8.50000000E-01
  8.50000000E-01  8.50000000E-01  8.50000000E-01  8.50000000E-01  8.50000000E-01
  8.50000000E-01  8.50000000E-01  8.50000000E-01  8.50000000E-01  8.50000000E-01
  8.50000000E-01  8.50000000E-01  8.50000000E-01  8.50000000E-01  8.50000000E-01
  8.50000000E-01  8.50000000E-01  8.50000000E-01  8.50000000E-01  8.50000000E-01
  8.50000000E-01  8.50000000E-01  8.50000000E-01  8.50000000E-01  8.50000000E-01
  8.50000000E-01  8.50000000E-01  8.50000000E-01  8.50000000E-01  8.50000000E-01
  8.50000000E-01  8.50000000E-01  8.50000000E-01  8.50000000E-01  8.50000000E-01
  8.50000000E-01  8.50000000E-01  8.50000000E-01  8.50000000E-01  8.50000000E-01
  8.50000000E-01  8.50000000E-01  8.50000000E-01  8.50000000E-01  8.50000000E-01
  8.50000000E-01  8.50000000E-01  8.50000000E-01  8.50000000E-01  8.50000000E-01
  8.50000000E-01  8.50000000E-01  8.50000000E-01  8.50000000E-01  8.50000000E-01
  8.50000000E-01  8.50000000E-01  8.50000000E-01  8.50000000E-01  8.50000000E-01
  8.50000000E-01  8.50000000E-01  8.50000000E-01  8.50000000E-01  8.50000000E-01
  8.50000000E-01  8.50000000E-01  8.50000000E-01  8.50000000E-01  8.50000000E-01
  8.50000000E-01  8.50000000E-01  8.50000000E-01  8.50000000E-01  8.50000000E-01
  8.50000000E-01  8.50000000E-01  8.50000000E-01  8.50000000E-01  8.50000000E-01
  8.50000000E-01  8.50000000E-01  8.50000000E-01  8.50000000E-01  8.50000000E-01
  8.50000000E-01  8.50000000E-01  8.50000000E-01  8.50000000E-01  8.50000000E-01
  8.50000000E-01  8.50000000E-01  8.50000000E-01  8.50000000E-01  8.50000000E-01
  8.50000000E-01  8.50000000E-01  8.50000000E-01  8.50000000E-01  8.50000000E-01
  8.50000000E-01  8.50000000E-01  8.50000000E-01  8.50000000E-01  8.50000000E-01
  8.50000000E-01  8.50000000E-01  8.50000000E-01  8.50000000E-01  8.50000000E-01
  8.50000000E-01  8.50000000E-01  8.50000000E-01  8.50000000E-01  8.50000000E-01
  8.50000000E-01  8.50000000E-01  8.50000000E-01  8.50000000E-01  8.50000000E-01
  8.50000000E-01  8.50000000E-01  8.50000000E-01  8.50000000E-01  8.50000000E-01
  8.50000000E-01  8.50000000E-01  8.50000000E-01  8.50000000E-01  8.50000000E-01
  8.50000000E-01  8.50000000E-01  8.50000000E-01  8.50000000E-01  8.50000000E-01
  8.50000000E-01  8.50000000E-01  8.50000000E-01  8.50000000E-01  8.50000000E-01
  8.50000000E-01  8.50000000E-01  8.50000000E-01  8.50000000E-01  8.50000000E-01
  8.50000000E-01  8.50000000E-01  8.50000000E-01  8.50000000E-01  8.50000000E-01
  8.50000000E-01  8.50000000E-01  8.50000000E-01  8.50000000E-01  8.50000000E-01
  8.50000000E-01  8.50000000E-01  8.50000000E-01  8.50000000E-01  8.50000000E-01
  8.50000000E-01  8.50000000E-01  8.50000000E-01  8.50000000E-01  8.50000000E-01
  8.50000000E-01  8.50000000E-01  8.50000000E-01  8.50000000E-01  8.50000000E-01
  8.50000000E-01  8.50000000E-01  8.50000000E-01  8.50000000E-01  8.50000000E-01
  8.50000000E-01  8.50000000E-01  8.50000000E-01  8.50000000E-01  8.50000000E-01
  8.50000000E-01  8.50000000E-01  8.50000000E-01  8.50000000E-01  8.50000000E-01
  8.50000000E-01  8.50000000E-01  8.50000000E-01  8.50000000E-01  8.50000000E-01
  8.50000000E-01  8.50000000E-01  8.50000000E-01  8.50000000E-01  8.50000000E-01
  8.50000000E-01  8.50000000E-01  8.50000000E-01  8.50000000E-01  8.50000000E-01
  8.50000000E-01  8.50000000E-01  8.50000000E-01  8.50000000E-01  8.50000000E-01
  8.50000000E-01  8.50000000E-01  8.50000000E-01  8.50000000E-01  8.50000000E-01
  8.50000000E-01  8.50000000E-01  8.50000000E-01  8.50000000E-01  8.50000000E-01
  8.50000000E-01  8.50000000E-01  8.50000000E-01  8.50000000E-01  8.50000000E-01
  8.50000000E-01  8.50000000E-01  8.50000000E-01  8.50000000E-01  8.50000000E-01
  8.50000000E-01  8.50000000E-01  8.50000000E-01  8.50000000E-01  8.50000000E-01
  8.50000000E-01  8.50000000E-01  8.50000000E-01  8.50000000E-01  8.50000000E-01
  8.50000000E-01  8.50000000E-01  8.50000000E-01  8.50000000E-01  8.50000000E-01
  8.50000000E-01  8.50000000E-01  8.50000000E-01  8.50000000E-01  8.50000000E-01
  8.50000000E-01  8.50000000E-01  8.50000000E-01  8.50000000E-01  8.50000000E-01
  8.50000000E-01  8.50000000E-01  8.50000000E-01  8.50000000E-01  8.50000000E-01
  8.50000000E-01  8.50000000E-01  8.50000000E-01  8.50000000E-01  8.50000000E-01
  8.50000000E-01  8.50000000E-01  8.50000000E-01  8.50000000E-01  8.50000000E-01
  8.50000000E-01  8.50000000E-01  8.50000000E-01  8.50000000E-01  8.50000000E-01
  8.50000000E-01  8.50000000E-01  8.50000000E-01  8.50000000E-01  8.50000000E-01
  8.50000000E-01  8.50000000E-01  8.50000000E-01  8.50000000E-01  8.50000000E-01
  8.50000000E-01  8.50000000E-01  8.50000000E-01  8.50000000E-01  8.50000000E-01
  8.50000000E-01  8.50000000E-01  8.50000000E-01  8.50000000E-01  8.50000000E-01
  8.50000000E-01  8.50000000E-01  8.50000000E-01  8.50000000E-01  8.50000000E-01
  8.50000000E-01  8.50000000E-01  8.50000000E-01  8.50000000E-01  8.50000000E-01
  8.50000000E-01  8.50000000E-01  8.50000000E-01  8.50000000E-01  8.50000000E-01
  8.50000000E-01  8.50000000E-01  8.50000000E-01  8.50000000E-01  8.50000000E-01
  8.50000000E-01  8.50000000E-01  8.50000000E-01  8.50000000E-01  8.50000000E-01
  8.50000000E-01  8.50000000E-01  8.50000000E-01  8.50000000E-01  8.50000000E-01
  8.50000000E-01  8.50000000E-01  8.50000000E-01  8.50000000E-01  8.50000000E-01
  8.50000000E-01  8.50000000E-01  8.50000000E-01  8.50000000E-01  8.50000000E-01
  8.50000000E-01  8.50000000E-01  8.50000000E-01  8.50000000E-01  8.50000000E-01
  8.50000000E-01  8.50000000E-01  8.50000000E-01  8.50000000E-01  8.50000000E-01
  8.50000000E-01  8.50000000E-01  8.50000000E-01  8.50000000E-01  8.50000000E-01
  8.50000000E-01  8.50000000E-01  8.50000000E-01  8.50000000E-01  8.50000000E-01
  8.50000000E-01  8.50000000E-01  8.50000000E-01  8.50000000E-01  8.50000000E-01
  8.50000000E-01  8.50000000E-01  8.50000000E-01  8.50000000E-01  8.50000000E-01
  8.50000000E-01  8.50000000E-01  8.50000000E-01  8.50000000E-01  8.50000000E-01
  8.50000000E-01  8.50000000E-01  8.50000000E-01  8.50000000E-01  8.50000000E-01
  8.50000000E-01  8.50000000E-01  8.50000000E-01  8.50000000E-01  8.50000000E-01
  8.50000000E-01  8.50000000E-01  8.50000000E-01  8.50000000E-01  8.50000000E-01
  8.50000000E-01  8.50000000E-01  8.50000000E-01  8.50000000E-01  8.50000000E-01
  8.50000000E-01  8.50000000E-01  8.50000000E-01  8.50000000E-01  8.50000000E-01
  8.50000000E-01  8.50000000E-01  8.50000000E-01  8.50000000E-01  8.50000000E-01
  8.50000000E-01  8.50000000E-01  8.50000000E-01  8.50000000E-01  8.50000000E-01
  8.50000000E-01  8.50000000E-01  8.50000000E-01  8.50000000E-01  8.50000000E-01
  8.50000000E-01  8.50000000E-01  8.50000000E-01  8.50000000E-01  8.50000000E-01
  8.50000000E-01  8.50000000E-01  8.50000000E-01  8.50000000E-01  8.50000000E-01
  8.50000000E-01  8.50000000E-01  8.50000000E-01  8.50000000E-01  8.50000000E-01
  8.50000000E-01  8.50000000E-01  8.50000000E-01  8.50000000E-01  8.50000000E-01
  8.50000000E-01  8.50000000E-01  8.50000000E-01  8.50000000E-01  8.50000000E-01
  8.50000000E-01  8.50000000E-01  8.50000000E-01  8.50000000E-01  8.50000000E-01
  8.50000000E-01  8.50000000E-01  8.50000000E-01  8.50000000E-01  8.50000000E-01
  8.50000000E-01  8.50000000E-01  8.50000000E-01  8.50000000E-01  8.50000000E-01
  8.50000000E-01  8.50000000E-01  8.50000000E-01  8.50000000E-01  8.50000000E-01
  8.50000000E-01  8.50000000E-01  8.50000000E-01  8.50000000E-01  8.50000000E-01
  8.50000000E-01  8.50000000E-01  8.50000000E-01  8.50000000E-01  8.50000000E-01
  8.50000000E-01  8.50000000E-01  8.50000000E-01  8.50000000E-01  8.50000000E-01
  8.50000000E-01  8.50000000E-01  8.50000000E-01  8.50000000E-01  8.50000000E-01
  8.50000000E-01  8.50000000E-01  8.50000000E-01  8.50000000E-01  8.50000000E-01
  8.50000000E-01  8.50000000E-01  8.50000000E-01  8.50000000E-01  8.50000000E-01
  8.50000000E-01  8.50000000E-01  8.50000000E-01  8.50000000E-01  8.50000000E-01
  8.50000000E-01  8.50000000E-01  8.50000000E-01  8.50000000E-01  8.50000000E-01
  8.50000000E-01  8.50000000E-01  8.50000000E-01  8.50000000E-01  8.50000000E-01
  8.50000000E-01  8.50000000E-01  8.50000000E-01  8.50000000E-01  8.50000000E-01
  8.50000000E-01  8.50000000E-01  8.50000000E-01  8.50000000E-01  8.50000000E-01
  8.50000000E-01  8.50000000E-01  8.50000000E-01  8.50000000E-01  8.50000000E-01
  8.50000000E-01  8.50000000E-01  8.50000000E-01  8.50000000E-01  8.50000000E-01
  8.50000000E-01  8.50000000E-01  8.50000000E-01  8.50000000E-01  8.50000000E-01
  8.50000000E-01  8.50000000E-01  8.50000000E-01  8.50000000E-01  8.50000000E-01
  8.50000000E-01  8.50000000E-01  8.50000000E-01  8.50000000E-01  8.50000000E-01
  8.50000000E-01  8.50000000E-01  8.50000000E-01  8.50000000E-01  8.50000000E-01
  8.50000000E-01  8.50000000E-01  8.50000000E-01  8.50000000E-01  8.50000000E-01
  8.50000000E-01  8.50000000E-01  8.50000000E-01  8.50000000E-01  8.50000000E-01
  8.50000000E-01  8.50000000E-01  8.50000000E-01  8.50000000E-01  8.50000000E-01
  8.50000000E-01  8.50000000E-01  8.50000000E-01  8.50000000E-01  8.50000000E-01
  8.50000000E-01  8.50000000E-01  8.50000000E-01  8.50000000E-01  8.50000000E-01
  8.50000000E-01  8.50000000E-01  8.50000000E-01  8.50000000E-01  8.50000000E-01
  8.50000000E-01  8.50000000E-01  8.50000000E-01  8.50000000E-01  8.50000000E-01
  8.50000000E-01  8.50000000E-01  8.50000000E-01  8.50000000E-01  8.50000000E-01
  8.50000000E-01  8.50000000E-01  8.50000000E-01  8.50000000E-01  8.50000000E-01
  8.50000000E-01  8.50000000E-01  8.50000000E-01  8.50000000E-01  8.50000000E-01
  8.50000000E-01  8.50000000E-01  8.50000000E-01  8.50000000E-01  8.50000000E-01
  8.50000000E-01  8.50000000E-01  8.50000000E-01  8.50000000E-01  8.50000000E-01
  8.50000000E-01  8.50000000E-01  8.50000000E-01  8.50000000E-01  8.50000000E-01
  8.50000000E-01  8.50000000E-01  8.50000000E-01  8.50000000E-01  8.50000000E-01
  8.50000000E-01  8.50000000E-01  8.50000000E-01  8.50000000E-01  8.50000000E-01
  8.50000000E-01  8.50000000E-01  8.50000000E-01  8.50000000E-01  8.50000000E-01
  8.50000000E-01  8.50000000E-01  8.50000000E-01  8.50000000E-01  8.50000000E-01
  8.50000000E-01  8.50000000E-01  8.50000000E-01  8.50000000E-01  8.50000000E-01
  8.50000000E-01  8.50000000E-01  8.50000000E-01  8.50000000E-01  8.50000000E-01
  8.50000000E-01  8.50000000E-01  8.50000000E-01  8.50000000E-01  8.50000000E-01
  8.50000000E-01  8.50000000E-01  8.50000000E-01  8.50000000E-01  8.50000000E-01
  8.50000000E-01  8.50000000E-01  8.50000000E-01  8.50000000E-01  8.50000000E-01
  8.50000000E-01  8.50000000E-01  8.50000000E-01  8.50000000E-01  8.50000000E-01
  8.50000000E-01  8.50000000E-01  8.50000000E-01  8.50000000E-01  8.50000000E-01
  8.50000000E-01  8.50000000E-01  8.50000000E-01  8.50000000E-01  8.50000000E-01
  8.50000000E-01  8.50000000E-01  8.50000000E-01  8.50000000E-01  8.50000000E-01
  8.50000000E-01  8.50000000E-01  8.50000000E-01  8.50000000E-01  8.50000000E-01
  8.50000000E-01  8.50000000E-01  8.50000000E-01  8.50000000E-01  8.50000000E-01
  8.50000000E-01  8.50000000E-01  8.50000000E-01  8.50000000E-01  8.50000000E-01
  8.50000000E-01  8.50000000E-01  8.50000000E-01  8.50000000E-01  8.50000000E-01
  8.50000000E-01  8.50000000E-01  8.50000000E-01  8.50000000E-01  8.50000000E-01
  8.50000000E-01  8.50000000E-01  8.50000000E-01  8.50000000E-01  8.50000000E-01
  8.50000000E-01  8.50000000E-01  8.50000000E-01  8.50000000E-01  8.50000000E-01
  8.50000000E-01  8.50000000E-01  8.50000000E-01  8.50000000E-01  8.50000000E-01
  8.50000000E-01  8.50000000E-01  8.50000000E-01  8.50000000E-01  8.50000000E-01
  8.50000000E-01  8.50000000E-01  8.50000000E-01  8.50000000E-01  8.50000000E-01
  8.50000000E-01  8.50000000E-01  8.50000000E-01  8.50000000E-01  8.50000000E-01
  8.50000000E-01  8.50000000E-01  8.50000000E-01  8.50000000E-01  8.50000000E-01
  8.50000000E-01  8.50000000E-01  8.50000000E-01  8.50000000E-01  8.50000000E-01
  8.50000000E-01  8.50000000E-01  8.50000000E-01  8.50000000E-01  8.50000000E-01
  8.50000000E-01  8.50000000E-01  8.50000000E-01  8.50000000E-01  8.50000000E-01
  8.50000000E-01  8.50000000E-01  8.50000000E-01  8.50000000E-01  8.50000000E-01
  8.50000000E-01  8.50000000E-01  8.50000000E-01  8.50000000E-01  8.50000000E-01
  8.50000000E-01  8.50000000E-01  8.50000000E-01  8.50000000E-01  8.50000000E-01
  8.50000000E-01  8.50000000E-01  8.50000000E-01  8.50000000E-01  8.50000000E-01
  8.50000000E-01  8.50000000E-01  8.50000000E-01  8.50000000E-01  8.50000000E-01
  8.50000000E-01  8.50000000E-01  8.50000000E-01  8.50000000E-01  8.50000000E-01
  8.50000000E-01  8.50000000E-01  8.50000000E-01  8.50000000E-01  8.50000000E-01
  8.50000000E-01  8.50000000E-01  8.50000000E-01  8.50000000E-01  8.50000000E-01
  8.50000000E-01  8.50000000E-01  8.50000000E-01  8.50000000E-01  8.50000000E-01
  8.50000000E-01  8.50000000E-01  8.50000000E-01  8.50000000E-01  8.50000000E-01
  8.50000000E-01  8.50000000E-01  8.50000000E-01  8.50000000E-01  8.50000000E-01
  8.50000000E-01  8.50000000E-01  8.50000000E-01  8.50000000E-01  8.50000000E-01
  8.50000000E-01  8.50000000E-01  8.50000000E-01  8.50000000E-01  8.50000000E-01
  8.50000000E-01  8.50000000E-01  8.50000000E-01  8.50000000E-01  8.50000000E-01
  8.50000000E-01  8.50000000E-01  8.50000000E-01  8.50000000E-01  8.50000000E-01
  8.50000000E-01  8.50000000E-01  8.50000000E-01  8.50000000E-01  8.50000000E-01
  8.50000000E-01  8.50000000E-01  8.50000000E-01  8.50000000E-01  8.50000000E-01
  8.50000000E-01  8.50000000E-01  8.50000000E-01  8.50000000E-01  8.50000000E-01
  8.50000000E-01  8.50000000E-01  8.50000000E-01  8.50000000E-01  8.50000000E-01
  8.50000000E-01  8.50000000E-01  8.50000000E-01  8.50000000E-01  8.50000000E-01
  8.50000000E-01  8.50000000E-01  8.50000000E-01  8.50000000E-01  8.50000000E-01
  8.50000000E-01  8.50000000E-01  8.50000000E-01  8.50000000E-01  8.50000000E-01
  8.50000000E-01  8.50000000E-01  8.50000000E-01  8.50000000E-01  8.50000000E-01
  8.50000000E-01  8.50000000E-01  8.50000000E-01  8.50000000E-01  8.50000000E-01
  8.50000000E-01  8.50000000E-01  8.50000000E-01  8.50000000E-01  8.50000000E-01
  8.50000000E-01  8.50000000E-01  8.50000000E-01  8.50000000E-01  8.50000000E-01
  8.50000000E-01  8.50000000E-01  8.50000000E-01  8.50000000E-01  8.50000000E-01
  8.50000000E-01  8.50000000E-01  8.50000000E-01  8.50000000E-01  8.50000000E-01
  8.50000000E-01  8.50000000E-01  8.50000000E-01  8.50000000E-01  8.50000000E-01
  8.50000000E-01  8.50000000E-01  8.50000000E-01  8.50000000E-01  8.50000000E-01
  8.50000000E-01  8.50000000E-01  8.50000000E-01  8.50000000E-01  8.50000000E-01
  8.50000000E-01  8.50000000E-01  8.50000000E-01  8.50000000E-01  8.50000000E-01
  8.50000000E-01  8.50000000E-01  8.50000000E-01  8.50000000E-01  8.50000000E-01
  8.50000000E-01  8.50000000E-01  8.50000000E-01  8.50000000E-01  8.50000000E-01
  8.50000000E-01  8.50000000E-01  8.50000000E-01  8.50000000E-01  8.50000000E-01
  8.50000000E-01  8.50000000E-01  8.50000000E-01  8.50000000E-01  8.50000000E-01
  8.50000000E-01  8.50000000E-01  8.50000000E-01  8.50000000E-01  8.50000000E-01
  8.50000000E-01  8.50000000E-01  8.50000000E-01  8.50000000E-01  8.50000000E-01
  8.50000000E-01  8.50000000E-01  8.50000000E-01  8.50000000E-01  8.50000000E-01
  8.50000000E-01  8.50000000E-01  8.50000000E-01  8.50000000E-01  8.50000000E-01
  8.50000000E-01  8.50000000E-01  8.50000000E-01  8.50000000E-01  8.50000000E-01
  8.50000000E-01  8.50000000E-01  8.50000000E-01  8.50000000E-01  8.50000000E-01
  8.50000000E-01  8.50000000E-01  8.50000000E-01  8.50000000E-01  8.50000000E-01
  8.50000000E-01  8.50000000E-01  8.50000000E-01  8.50000000E-01  8.50000000E-01
  8.50000000E-01  8.50000000E-01  8.50000000E-01  8.50000000E-01  8.50000000E-01
  8.50000000E-01  8.50000000E-01  8.50000000E-01  8.50000000E-01  8.50000000E-01
  8.50000000E-01  8.50000000E-01  8.50000000E-01  8.50000000E-01  8.50000000E-01
  8.50000000E-01  8.50000000E-01  8.50000000E-01  8.50000000E-01  8.50000000E-01
  8.50000000E-01  8.50000000E-01  8.50000000E-01  8.50000000E-01  8.50000000E-01
  8.50000000E-01  8.50000000E-01  8.50000000E-01  8.50000000E-01  8.50000000E-01
  8.50000000E-01  8.50000000E-01  8.50000000E-01  8.50000000E-01  8.50000000E-01
  8.50000000E-01  8.50000000E-01  8.50000000E-01  8.50000000E-01  8.50000000E-01
  8.50000000E-01  8.50000000E-01  8.50000000E-01  8.50000000E-01  8.50000000E-01
  8.50000000E-01  8.50000000E-01  8.50000000E-01  8.50000000E-01  8.50000000E-01
  8.50000000E-01  8.50000000E-01  8.50000000E-01  8.50000000E-01  8.50000000E-01
  8.50000000E-01  8.50000000E-01  8.50000000E-01  8.50000000E-01  8.50000000E-01
  8.50000000E-01  8.50000000E-01  8.50000000E-01  8.50000000E-01  8.50000000E-01
  8.50000000E-01  8.50000000E-01  8.50000000E-01  8.50000000E-01  8.50000000E-01
  8.50000000E-01  8.50000000E-01  8.50000000E-01  8.50000000E-01  8.50000000E-01
  8.50000000E-01  8.50000000E-01  8.50000000E-01  8.50000000E-01  8.50000000E-01
  8.50000000E-01  8.50000000E-01  8.50000000E-01  8.50000000E-01  8.50000000E-01
  8.50000000E-01  8.50000000E-01  8.50000000E-01  8.50000000E-01  8.50000000E-01
  8.50000000E-01  8.50000000E-01  8.50000000E-01  8.50000000E-01  8.50000000E-01
  8.50000000E-01  8.50000000E-01  8.50000000E-01  8.50000000E-01  8.50000000E-01
  8.50000000E-01  8.50000000E-01  8.50000000E-01  8.50000000E-01  8.50000000E-01
  8.50000000E-01  8.50000000E-01  8.50000000E-01  8.50000000E-01  8.50000000E-01
  8.50000000E-01  8.50000000E-01  8.50000000E-01  8.50000000E-01  8.50000000E-01
  8.50000000E-01  8.50000000E-01  8.50000000E-01  8.50000000E-01  8.50000000E-01
  8.50000000E-01  8.50000000E-01  8.50000000E-01  8.50000000E-01  8.50000000E-01
  8.50000000E-01  8.50000000E-01  8.50000000E-01  8.50000000E-01  8.50000000E-01
  8.50000000E-01  8.50000000E-01  8.50000000E-01  8.50000000E-01  8.50000000E-01
  8.50000000E-01  8.50000000E-01  8.50000000E-01  8.50000000E-01  8.50000000E-01
  8.50000000E-01  8.50000000E-01  8.50000000E-01  8.50000000E-01  8.50000000E-01
  8.50000000E-01  8.50000000E-01  8.50000000E-01  8.50000000E-01  8.50000000E-01
  8.50000000E-01  8.50000000E-01  8.50000000E-01  8.50000000E-01  8.50000000E-01
  8.50000000E-01  8.50000000E-01  8.50000000E-01  8.50000000E-01  8.50000000E-01
  8.50000000E-01  8.50000000E-01  8.50000000E-01  8.50000000E-01  8.50000000E-01
  8.50000000E-01  8.50000000E-01  8.50000000E-01  8.50000000E-01  8.50000000E-01
  8.50000000E-01  8.50000000E-01  8.50000000E-01  8.50000000E-01  8.50000000E-01
  8.50000000E-01  8.50000000E-01  8.50000000E-01  8.50000000E-01  8.50000000E-01
  8.50000000E-01  8.50000000E-01  8.50000000E-01  8.50000000E-01  8.50000000E-01
  8.50000000E-01  8.50000000E-01  8.50000000E-01  8.50000000E-01  8.50000000E-01
  8.50000000E-01  8.50000000E-01  8.50000000E-01  8.50000000E-01  8.50000000E-01
  8.50000000E-01  8.50000000E-01  8.50000000E-01  8.50000000E-01  8.50000000E-01
  8.50000000E-01  8.50000000E-01  8.50000000E-01  8.50000000E-01  8.50000000E-01
  8.50000000E-01  8.50000000E-01  8.50000000E-01  8.50000000E-01  8.50000000E-01
  8.50000000E-01  8.50000000E-01  8.50000000E-01  8.50000000E-01  8.50000000E-01
  8.50000000E-01  8.50000000E-01  8.50000000E-01  8.50000000E-01  8.50000000E-01
  8.50000000E-01  8.50000000E-01  8.50000000E-01  8.50000000E-01  8.50000000E-01
  8.50000000E-01  8.50000000E-01  8.50000000E-01  8.50000000E-01  8.50000000E-01
  8.50000000E-01  8.50000000E-01  8.50000000E-01  8.50000000E-01  8.50000000E-01
  8.50000000E-01  8.50000000E-01  8.50000000E-01  8.50000000E-01  8.50000000E-01
  8.50000000E-01  8.50000000E-01  8.50000000E-01  8.50000000E-01  8.50000000E-01
  8.50000000E-01  8.50000000E-01  8.50000000E-01  8.50000000E-01  8.50000000E-01
  8.50000000E-01  8.50000000E-01  8.50000000E-01  8.50000000E-01  8.50000000E-01
  8.50000000E-01  8.50000000E-01  8.50000000E-01  8.50000000E-01  8.50000000E-01
  8.50000000E-01  8.50000000E-01  8.50000000E-01  8.50000000E-01  8.50000000E-01
  8.50000000E-01  8.50000000E-01  8.50000000E-01  8.50000000E-01  8.50000000E-01
  8.50000000E-01  8.50000000E-01  8.50000000E-01  8.50000000E-01  8.50000000E-01
  8.50000000E-01  8.50000000E-01  8.50000000E-01  8.50000000E-01  8.50000000E-01
  8.50000000E-01  8.50000000E-01  8.50000000E-01  8.50000000E-01  8.50000000E-01
  8.50000000E-01  8.50000000E-01  8.50000000E-01  8.50000000E-01  8.50000000E-01
  8.50000000E-01  8.50000000E-01  8.50000000E-01  8.50000000E-01  8.50000000E-01
  8.50000000E-01  8.50000000E-01  8.50000000E-01  8.50000000E-01  8.50000000E-01
  8.50000000E-01  8.50000000E-01  8.50000000E-01  8.50000000E-01  8.50000000E-01
  8.50000000E-01  8.50000000E-01  8.50000000E-01  8.50000000E-01  8.50000000E-01
  8.50000000E-01  8.50000000E-01  8.50000000E-01  8.50000000E-01  8.50000000E-01
  8.50000000E-01  8.50000000E-01  8.50000000E-01  8.50000000E-01  8.50000000E-01
  8.50000000E-01  8.50000000E-01  8.50000000E-01  8.50000000E-01  8.50000000E-01
  8.50000000E-01  8.50000000E-01  8.50000000E-01  8.50000000E-01  8.50000000E-01
  8.50000000E-01  8.50000000E-01  8.50000000E-01  8.50000000E-01  8.50000000E-01
  8.50000000E-01  8.50000000E-01  8.50000000E-01  8.50000000E-01  8.50000000E-01
  8.50000000E-01  8.50000000E-01  8.50000000E-01  8.50000000E-01  8.50000000E-01
  8.50000000E-01  8.50000000E-01  8.50000000E-01  8.50000000E-01  8.50000000E-01
  8.50000000E-01  8.50000000E-01  8.50000000E-01  8.50000000E-01  8.50000000E-01
  8.50000000E-01  8.50000000E-01  8.50000000E-01  8.50000000E-01  8.50000000E-01
  8.50000000E-01  8.50000000E-01  8.50000000E-01  8.50000000E-01  8.50000000E-01
  8.50000000E-01  8.50000000E-01  8.50000000E-01  8.50000000E-01  8.50000000E-01
  8.50000000E-01  8.50000000E-01  8.50000000E-01  8.50000000E-01  8.50000000E-01
  8.50000000E-01  8.50000000E-01  8.50000000E-01  8.50000000E-01  8.50000000E-01
  8.50000000E-01  8.50000000E-01  8.50000000E-01  8.50000000E-01  8.50000000E-01
  8.50000000E-01  8.50000000E-01  8.50000000E-01  8.50000000E-01  8.50000000E-01
  8.50000000E-01  8.50000000E-01  8.50000000E-01  8.50000000E-01  8.50000000E-01
  8.50000000E-01  8.50000000E-01  8.50000000E-01  8.50000000E-01  8.50000000E-01
  8.50000000E-01  8.50000000E-01  8.50000000E-01  8.50000000E-01  8.50000000E-01
  8.50000000E-01  8.50000000E-01  8.50000000E-01  8.50000000E-01  8.50000000E-01
  8.50000000E-01  8.50000000E-01  8.50000000E-01  8.50000000E-01  8.50000000E-01
  8.50000000E-01  8.50000000E-01  8.50000000E-01  8.50000000E-01  8.50000000E-01
  8.50000000E-01  8.50000000E-01  8.50000000E-01  8.50000000E-01  8.50000000E-01
  8.50000000E-01  8.50000000E-01  8.50000000E-01  8.50000000E-01  8.50000000E-01
  8.50000000E-01  8.50000000E-01  8.50000000E-01  8.50000000E-01  8.50000000E-01
  8.50000000E-01  8.50000000E-01  8.50000000E-01  8.50000000E-01  8.50000000E-01
  8.50000000E-01  8.50000000E-01  8.50000000E-01  8.50000000E-01  8.50000000E-01
  8.50000000E-01  8.50000000E-01  8.50000000E-01  8.50000000E-01  8.50000000E-01
  8.50000000E-01  8.50000000E-01  8.50000000E-01  8.50000000E-01  8.50000000E-01
  8.50000000E-01  8.50000000E-01  8.50000000E-01  8.50000000E-01  8.50000000E-01
  8.50000000E-01  8.50000000E-01  8.50000000E-01  8.50000000E-01  8.50000000E-01
  8.50000000E-01  8.50000000E-01  8.50000000E-01  8.50000000E-01  8.50000000E-01
  8.50000000E-01  8.50000000E-01  8.50000000E-01  8.50000000E-01  8.50000000E-01
  8.50000000E-01  8.50000000E-01  8.50000000E-01  8.50000000E-01  8.50000000E-01
  8.50000000E-01  8.50000000E-01  8.50000000E-01  8.50000000E-01  8.50000000E-01
  8.50000000E-01  8.50000000E-01  8.50000000E-01  8.50000000E-01  8.50000000E-01
  8.50000000E-01  8.50000000E-01  8.50000000E-01  8.50000000E-01  8.50000000E-01
  8.50000000E-01  8.50000000E-01  8.50000000E-01  8.50000000E-01  8.50000000E-01
  8.50000000E-01  8.50000000E-01  8.50000000E-01  8.50000000E-01  8.50000000E-01
  8.50000000E-01  8.50000000E-01  8.50000000E-01  8.50000000E-01  8.50000000E-01
  8.50000000E-01  8.50000000E-01  8.50000000E-01  8.50000000E-01  8.50000000E-01
  8.50000000E-01  8.50000000E-01  8.50000000E-01  8.50000000E-01  8.50000000E-01
  8.50000000E-01  8.50000000E-01  8.50000000E-01  8.50000000E-01  8.50000000E-01
  8.50000000E-01  8.50000000E-01  8.50000000E-01  8.50000000E-01  8.50000000E-01
  8.50000000E-01  8.50000000E-01  8.50000000E-01  8.50000000E-01  8.50000000E-01
  8.50000000E-01  8.50000000E-01  8.50000000E-01  8.50000000E-01  8.50000000E-01
  8.50000000E-01  8.50000000E-01  8.50000000E-01  8.50000000E-01  8.50000000E-01
  8.50000000E-01  8.50000000E-01  8.50000000E-01  8.50000000E-01  8.50000000E-01
  8.50000000E-01  8.50000000E-01  8.50000000E-01  8.50000000E-01  8.50000000E-01
  8.50000000E-01  8.50000000E-01  8.50000000E-01  8.50000000E-01  8.50000000E-01
  8.50000000E-01  8.50000000E-01  8.50000000E-01  8.50000000E-01  8.50000000E-01
  8.50000000E-01  8.50000000E-01  8.50000000E-01  8.50000000E-01  8.50000000E-01
  8.50000000E-01  8.50000000E-01  8.50000000E-01  8.50000000E-01  8.50000000E-01
  8.50000000E-01  8.50000000E-01  8.50000000E-01  8.50000000E-01  8.50000000E-01
  8.50000000E-01  8.50000000E-01  8.50000000E-01  8.50000000E-01  8.50000000E-01
  8.50000000E-01  8.50000000E-01  8.50000000E-01  8.50000000E-01  8.50000000E-01
  8.50000000E-01  8.50000000E-01  8.50000000E-01  8.50000000E-01  8.50000000E-01
  8.50000000E-01  8.50000000E-01  8.50000000E-01  8.50000000E-01  8.50000000E-01
  8.50000000E-01  8.50000000E-01  8.50000000E-01  8.50000000E-01  8.50000000E-01
  8.50000000E-01  8.50000000E-01  8.50000000E-01  8.50000000E-01  8.50000000E-01
  8.50000000E-01  8.50000000E-01  8.50000000E-01  8.50000000E-01  8.50000000E-01
  8.50000000E-01  8.50000000E-01  8.50000000E-01  8.50000000E-01  8.50000000E-01
  8.50000000E-01  8.50000000E-01  8.50000000E-01  8.50000000E-01  8.50000000E-01
  8.50000000E-01  8.50000000E-01  8.50000000E-01  8.50000000E-01  8.50000000E-01
  8.50000000E-01  8.50000000E-01  8.50000000E-01  8.50000000E-01  8.50000000E-01
  8.50000000E-01  8.50000000E-01  8.50000000E-01  8.50000000E-01  8.50000000E-01
  8.50000000E-01  8.50000000E-01  8.50000000E-01  8.50000000E-01  8.50000000E-01
  8.50000000E-01  8.50000000E-01  8.50000000E-01  8.50000000E-01  8.50000000E-01
  8.50000000E-01  8.50000000E-01  8.50000000E-01  8.50000000E-01  8.50000000E-01
  8.50000000E-01  8.50000000E-01  8.50000000E-01  8.50000000E-01  8.50000000E-01
  8.50000000E-01  8.50000000E-01  8.50000000E-01  8.50000000E-01  8.50000000E-01
  8.50000000E-01  8.50000000E-01  8.50000000E-01  8.50000000E-01  8.50000000E-01
  8.50000000E-01  8.50000000E-01  8.50000000E-01  8.50000000E-01  8.50000000E-01
  8.50000000E-01  8.50000000E-01  8.50000000E-01  8.50000000E-01  8.50000000E-01
  8.50000000E-01  8.50000000E-01  8.50000000E-01  8.50000000E-01  8.50000000E-01
  8.50000000E-01  8.50000000E-01  8.50000000E-01  8.50000000E-01  8.50000000E-01
  8.50000000E-01  8.50000000E-01  8.50000000E-01  8.50000000E-01  8.50000000E-01
  8.50000000E-01  8.50000000E-01  8.50000000E-01  8.50000000E-01  8.50000000E-01
  8.50000000E-01  8.50000000E-01  8.50000000E-01  8.50000000E-01  8.50000000E-01
  8.50000000E-01  8.50000000E-01  8.50000000E-01  8.50000000E-01  8.50000000E-01
  8.50000000E-01  8.50000000E-01  8.50000000E-01  8.50000000E-01  8.50000000E-01
  8.50000000E-01  8.50000000E-01  8.50000000E-01  8.50000000E-01  8.50000000E-01
  8.50000000E-01  8.50000000E-01  8.50000000E-01  8.50000000E-01  8.50000000E-01
  8.50000000E-01  8.50000000E-01  8.50000000E-01  8.50000000E-01  8.50000000E-01
  8.50000000E-01  8.50000000E-01  8.50000000E-01  8.50000000E-01  8.50000000E-01
  8.50000000E-01  8.50000000E-01  8.50000000E-01  8.50000000E-01  8.50000000E-01
  8.50000000E-01  8.50000000E-01  8.50000000E-01  8.50000000E-01  8.50000000E-01
  8.50000000E-01  8.50000000E-01  8.50000000E-01  8.50000000E-01  8.50000000E-01
  8.50000000E-01  8.50000000E-01  8.50000000E-01  8.50000000E-01  8.50000000E-01
  8.50000000E-01  8.50000000E-01  8.50000000E-01  8.50000000E-01  8.50000000E-01
  8.50000000E-01  8.50000000E-01  8.50000000E-01  8.50000000E-01  8.50000000E-01
  8.50000000E-01  8.50000000E-01  8.50000000E-01  8.50000000E-01  8.50000000E-01
  8.50000000E-01  8.50000000E-01  8.50000000E-01  8.50000000E-01  8.50000000E-01
  8.50000000E-01  8.50000000E-01  8.50000000E-01  8.50000000E-01  8.50000000E-01
  8.50000000E-01  8.50000000E-01  8.50000000E-01  8.50000000E-01  8.50000000E-01
  8.50000000E-01  8.50000000E-01  8.50000000E-01  8.50000000E-01  8.50000000E-01
  8.50000000E-01  8.50000000E-01  8.50000000E-01  8.50000000E-01  8.50000000E-01
  8.50000000E-01  8.50000000E-01  8.50000000E-01  8.50000000E-01  8.50000000E-01
  8.50000000E-01  8.50000000E-01  8.50000000E-01  8.50000000E-01  8.50000000E-01
  8.50000000E-01  8.50000000E-01  8.50000000E-01  8.50000000E-01  8.50000000E-01
  8.50000000E-01  8.50000000E-01  8.50000000E-01  8.50000000E-01  8.50000000E-01
  8.50000000E-01  8.50000000E-01  8.50000000E-01  8.50000000E-01  8.50000000E-01
  8.50000000E-01  8.50000000E-01  8.50000000E-01  8.50000000E-01  8.50000000E-01
  8.50000000E-01  8.50000000E-01  8.50000000E-01  8.50000000E-01  8.50000000E-01
  8.50000000E-01  8.50000000E-01  8.50000000E-01  8.50000000E-01  8.50000000E-01
  8.50000000E-01  8.50000000E-01  8.50000000E-01  8.50000000E-01  8.50000000E-01
  8.50000000E-01  8.50000000E-01  8.50000000E-01  8.50000000E-01  8.50000000E-01
  8.50000000E-01  8.50000000E-01  8.50000000E-01  8.50000000E-01  8.50000000E-01
  8.50000000E-01  8.50000000E-01  8.50000000E-01  8.50000000E-01  8.50000000E-01
  8.50000000E-01  8.50000000E-01  8.50000000E-01  8.50000000E-01  8.50000000E-01
  8.50000000E-01  8.50000000E-01  8.50000000E-01  8.50000000E-01  8.50000000E-01
  8.50000000E-01  8.50000000E-01  8.50000000E-01  8.50000000E-01  8.50000000E-01
  8.50000000E-01  8.50000000E-01  8.50000000E-01  8.50000000E-01  8.50000000E-01
  8.50000000E-01  8.50000000E-01  8.50000000E-01  8.50000000E-01  8.50000000E-01
  8.50000000E-01  8.50000000E-01  8.50000000E-01  8.50000000E-01  8.50000000E-01
  8.50000000E-01  8.50000000E-01  8.50000000E-01  8.50000000E-01  8.50000000E-01
  8.50000000E-01  8.50000000E-01  8.50000000E-01  8.50000000E-01  8.50000000E-01
  8.50000000E-01  8.50000000E-01  8.50000000E-01  8.50000000E-01  8.50000000E-01
  8.50000000E-01  8.50000000E-01  8.50000000E-01  8.50000000E-01  8.50000000E-01
  8.50000000E-01  8.50000000E-01  8.50000000E-01  8.50000000E-01  8.50000000E-01
  8.50000000E-01  8.50000000E-01  8.50000000E-01  8.50000000E-01  8.50000000E-01
  8.50000000E-01  8.50000000E-01  8.50000000E-01  8.50000000E-01  8.50000000E-01
  8.50000000E-01  8.50000000E-01  8.50000000E-01  8.50000000E-01  8.50000000E-01
  8.50000000E-01  8.50000000E-01  8.50000000E-01  8.50000000E-01  8.50000000E-01
  8.50000000E-01  8.50000000E-01  8.50000000E-01  8.50000000E-01  8.50000000E-01
  8.50000000E-01  8.50000000E-01  8.50000000E-01  8.50000000E-01  8.50000000E-01
  8.50000000E-01  8.50000000E-01  8.50000000E-01  8.50000000E-01  8.50000000E-01
  8.50000000E-01  8.50000000E-01  8.50000000E-01  8.50000000E-01  8.50000000E-01
  8.50000000E-01  8.50000000E-01  8.50000000E-01  8.50000000E-01  8.50000000E-01
  8.50000000E-01  8.50000000E-01  8.50000000E-01  8.50000000E-01  8.50000000E-01
  8.50000000E-01  8.50000000E-01  8.50000000E-01  8.50000000E-01  8.50000000E-01
  8.50000000E-01  8.50000000E-01  8.50000000E-01  8.50000000E-01  8.50000000E-01
  8.50000000E-01  8.50000000E-01  8.50000000E-01  8.50000000E-01  8.50000000E-01
  8.50000000E-01  8.50000000E-01  8.50000000E-01  8.50000000E-01  8.50000000E-01
  8.50000000E-01  8.50000000E-01  8.50000000E-01  8.50000000E-01  8.50000000E-01
  8.50000000E-01  8.50000000E-01  8.50000000E-01  8.50000000E-01  8.50000000E-01
  8.50000000E-01  8.50000000E-01  8.50000000E-01  8.50000000E-01  8.50000000E-01
  8.50000000E-01  8.50000000E-01  8.50000000E-01  8.50000000E-01  8.50000000E-01
  8.50000000E-01  8.50000000E-01  8.50000000E-01  8.50000000E-01  8.50000000E-01
  8.50000000E-01  8.50000000E-01  8.50000000E-01  8.50000000E-01  8.50000000E-01
  8.50000000E-01  8.50000000E-01  8.50000000E-01  8.50000000E-01  8.50000000E-01
  8.50000000E-01  8.50000000E-01  8.50000000E-01  8.50000000E-01  8.50000000E-01
  8.50000000E-01  8.50000000E-01  8.50000000E-01  8.50000000E-01  8.50000000E-01
  8.50000000E-01  8.50000000E-01  8.50000000E-01  8.50000000E-01  8.50000000E-01
  8.50000000E-01  8.50000000E-01  8.50000000E-01  8.50000000E-01  8.50000000E-01
  8.50000000E-01  8.50000000E-01  8.50000000E-01  8.50000000E-01  8.50000000E-01
  8.50000000E-01  8.50000000E-01  8.50000000E-01  8.50000000E-01  8.50000000E-01
  8.50000000E-01  8.50000000E-01  8.50000000E-01  8.50000000E-01  8.50000000E-01
  8.50000000E-01  8.50000000E-01  8.50000000E-01  8.50000000E-01  8.50000000E-01
  8.50000000E-01  8.50000000E-01  8.50000000E-01  8.50000000E-01  8.50000000E-01
  8.50000000E-01  8.50000000E-01  8.50000000E-01  8.50000000E-01  8.50000000E-01
  8.50000000E-01  8.50000000E-01  8.50000000E-01  8.50000000E-01  8.50000000E-01
  8.50000000E-01  8.50000000E-01  8.50000000E-01  8.50000000E-01  8.50000000E-01
  8.50000000E-01  8.50000000E-01  8.50000000E-01  8.50000000E-01  8.50000000E-01
  8.50000000E-01  8.50000000E-01  8.50000000E-01  8.50000000E-01  8.50000000E-01
  8.50000000E-01  8.50000000E-01  8.50000000E-01  8.50000000E-01  8.50000000E-01
  8.50000000E-01  8.50000000E-01  8.50000000E-01  8.50000000E-01  8.50000000E-01
  8.50000000E-01  8.50000000E-01  8.50000000E-01  8.50000000E-01  8.50000000E-01
  8.50000000E-01  8.50000000E-01  8.50000000E-01  8.50000000E-01  8.50000000E-01
  8.50000000E-01  8.50000000E-01  8.50000000E-01  8.50000000E-01  8.50000000E-01
  8.50000000E-01  8.50000000E-01  8.50000000E-01  8.50000000E-01  8.50000000E-01
  8.50000000E-01  8.50000000E-01  8.50000000E-01  8.50000000E-01  8.50000000E-01
  8.50000000E-01  8.50000000E-01  8.50000000E-01  8.50000000E-01  8.50000000E-01
  8.50000000E-01  8.50000000E-01  8.50000000E-01  8.50000000E-01  8.50000000E-01
  8.50000000E-01  8.50000000E-01  8.50000000E-01  8.50000000E-01  8.50000000E-01
  8.50000000E-01  8.50000000E-01  8.50000000E-01  8.50000000E-01  8.50000000E-01
  8.50000000E-01  8.50000000E-01  8.50000000E-01  8.50000000E-01  8.50000000E-01
  8.50000000E-01  8.50000000E-01  8.50000000E-01  8.50000000E-01  8.50000000E-01
  8.50000000E-01  8.50000000E-01  8.50000000E-01  8.50000000E-01  8.50000000E-01
  8.50000000E-01  8.50000000E-01  8.50000000E-01  8.50000000E-01  8.50000000E-01
  8.50000000E-01  8.50000000E-01  8.50000000E-01  8.50000000E-01  8.50000000E-01
  8.50000000E-01  8.50000000E-01  8.50000000E-01  8.50000000E-01  8.50000000E-01
  8.50000000E-01  8.50000000E-01  8.50000000E-01  8.50000000E-01  8.50000000E-01
  8.50000000E-01  8.50000000E-01  8.50000000E-01  8.50000000E-01  8.50000000E-01
  8.50000000E-01  8.50000000E-01  8.50000000E-01  8.50000000E-01  8.50000000E-01
  8.50000000E-01  8.50000000E-01  8.50000000E-01  8.50000000E-01  8.50000000E-01
  8.50000000E-01  8.50000000E-01  8.50000000E-01  8.50000000E-01  8.50000000E-01
  8.50000000E-01  8.50000000E-01  8.50000000E-01  8.50000000E-01  8.50000000E-01
  8.50000000E-01  8.50000000E-01  8.50000000E-01  8.50000000E-01  8.50000000E-01
  8.50000000E-01  8.50000000E-01  8.50000000E-01  8.50000000E-01  8.50000000E-01
  8.50000000E-01  8.50000000E-01  8.50000000E-01  8.50000000E-01  8.50000000E-01
  8.50000000E-01  8.50000000E-01  8.50000000E-01  8.50000000E-01  8.50000000E-01
  8.50000000E-01  8.50000000E-01  8.50000000E-01  8.50000000E-01  8.50000000E-01
  8.50000000E-01  8.50000000E-01  8.50000000E-01  8.50000000E-01  8.50000000E-01
  8.50000000E-01  8.50000000E-01  8.50000000E-01  8.50000000E-01  8.50000000E-01
  8.50000000E-01  8.50000000E-01  8.50000000E-01  8.50000000E-01  8.50000000E-01
  8.50000000E-01  8.50000000E-01  8.50000000E-01  8.50000000E-01  8.50000000E-01
  8.50000000E-01  8.50000000E-01  8.50000000E-01  8.50000000E-01  8.50000000E-01
  8.50000000E-01  8.50000000E-01  8.50000000E-01  8.50000000E-01  8.50000000E-01
  8.50000000E-01  8.50000000E-01  8.50000000E-01  8.50000000E-01  8.50000000E-01
  8.50000000E-01  8.50000000E-01  8.50000000E-01  8.50000000E-01  8.50000000E-01
  8.50000000E-01  8.50000000E-01  8.50000000E-01  8.50000000E-01  8.50000000E-01
  8.50000000E-01  8.50000000E-01  8.50000000E-01  8.50000000E-01  8.50000000E-01
  8.50000000E-01  8.50000000E-01  8.50000000E-01  8.50000000E-01  8.50000000E-01
  8.50000000E-01  8.50000000E-01  8.50000000E-01  8.50000000E-01  8.50000000E-01
  8.50000000E-01  8.50000000E-01  8.50000000E-01  8.50000000E-01  8.50000000E-01
  8.50000000E-01  8.50000000E-01  8.50000000E-01  8.50000000E-01  8.50000000E-01
  8.50000000E-01  8.50000000E-01  8.50000000E-01  8.50000000E-01  8.50000000E-01
  8.50000000E-01  8.50000000E-01  8.50000000E-01  8.50000000E-01  8.50000000E-01
  8.50000000E-01  8.50000000E-01  8.50000000E-01  8.50000000E-01  8.50000000E-01
  8.50000000E-01  8.50000000E-01  8.50000000E-01  8.50000000E-01  8.50000000E-01
  8.50000000E-01  8.50000000E-01  8.50000000E-01  8.50000000E-01  8.50000000E-01
  8.50000000E-01  8.50000000E-01  8.50000000E-01  8.50000000E-01  8.50000000E-01
  8.50000000E-01  8.50000000E-01  8.50000000E-01  8.50000000E-01  8.50000000E-01
  8.50000000E-01  8.50000000E-01  8.50000000E-01  8.50000000E-01  8.50000000E-01
  8.50000000E-01  8.50000000E-01  8.50000000E-01  8.50000000E-01  8.50000000E-01
  8.50000000E-01  8.50000000E-01  8.50000000E-01  8.50000000E-01  8.50000000E-01
  8.50000000E-01  8.50000000E-01  8.50000000E-01  8.50000000E-01  8.50000000E-01
  8.50000000E-01  8.50000000E-01  8.50000000E-01  8.50000000E-01  8.50000000E-01
  8.50000000E-01  8.50000000E-01  8.50000000E-01  8.50000000E-01  8.50000000E-01
  8.50000000E-01  8.50000000E-01  8.50000000E-01  8.50000000E-01  8.50000000E-01
  8.50000000E-01  8.50000000E-01  8.50000000E-01  8.50000000E-01  8.50000000E-01
  8.50000000E-01  8.50000000E-01  8.50000000E-01  8.50000000E-01  8.50000000E-01
  8.50000000E-01  8.50000000E-01  8.50000000E-01  8.50000000E-01  8.50000000E-01
  8.50000000E-01  8.50000000E-01  8.50000000E-01  8.50000000E-01  8.50000000E-01
  8.50000000E-01  8.50000000E-01  8.50000000E-01  8.50000000E-01  8.50000000E-01
  8.50000000E-01  8.50000000E-01  8.50000000E-01  8.50000000E-01  8.50000000E-01
  8.50000000E-01  8.50000000E-01  8.50000000E-01  8.50000000E-01  8.50000000E-01
  8.50000000E-01  8.50000000E-01  8.50000000E-01  8.50000000E-01  8.50000000E-01
  8.50000000E-01  8.50000000E-01  8.50000000E-01  8.50000000E-01  8.50000000E-01
  8.50000000E-01  8.50000000E-01  8.50000000E-01  8.50000000E-01  8.50000000E-01
  8.50000000E-01  8.50000000E-01  8.50000000E-01  8.50000000E-01  8.50000000E-01
  8.50000000E-01  8.50000000E-01  8.50000000E-01  8.50000000E-01  8.50000000E-01
  8.50000000E-01  8.50000000E-01  8.50000000E-01  8.50000000E-01  8.50000000E-01
  8.50000000E-01  8.50000000E-01  8.50000000E-01  8.50000000E-01  8.50000000E-01
  8.50000000E-01  8.50000000E-01  8.50000000E-01  8.50000000E-01  8.50000000E-01
  8.50000000E-01  8.50000000E-01  8.50000000E-01  8.50000000E-01  8.50000000E-01
  8.50000000E-01  8.50000000E-01  8.50000000E-01  8.50000000E-01  8.50000000E-01
  8.50000000E-01  8.50000000E-01  8.50000000E-01  8.50000000E-01  8.50000000E-01
  8.50000000E-01  8.50000000E-01  8.50000000E-01  8.50000000E-01  8.50000000E-01
  8.50000000E-01  8.50000000E-01  8.50000000E-01  8.50000000E-01  8.50000000E-01
  8.50000000E-01  8.50000000E-01  8.50000000E-01  8.50000000E-01  8.50000000E-01
  8.50000000E-01  8.50000000E-01  8.50000000E-01  8.50000000E-01  8.50000000E-01
  8.50000000E-01  8.50000000E-01  8.50000000E-01  8.50000000E-01  8.50000000E-01
  8.50000000E-01  8.50000000E-01  8.50000000E-01  8.50000000E-01  8.50000000E-01
  8.50000000E-01  8.50000000E-01  8.50000000E-01  8.50000000E-01  8.50000000E-01
  8.50000000E-01  8.50000000E-01  8.50000000E-01  8.50000000E-01  8.50000000E-01
  8.50000000E-01  8.50000000E-01  8.50000000E-01  8.50000000E-01  8.50000000E-01
  8.50000000E-01  8.50000000E-01  8.50000000E-01  8.50000000E-01  8.50000000E-01
  8.50000000E-01  8.50000000E-01  8.50000000E-01  8.50000000E-01  8.50000000E-01
  8.50000000E-01  8.50000000E-01  8.50000000E-01  8.50000000E-01  8.50000000E-01
  8.50000000E-01  8.50000000E-01  8.50000000E-01  8.50000000E-01  8.50000000E-01
  8.50000000E-01  8.50000000E-01  8.50000000E-01  8.50000000E-01  8.50000000E-01
  8.50000000E-01  8.50000000E-01  8.50000000E-01  8.50000000E-01  8.50000000E-01
  8.50000000E-01  8.50000000E-01  8.50000000E-01  8.50000000E-01  8.50000000E-01
  8.50000000E-01  8.50000000E-01  8.50000000E-01  8.50000000E-01  8.50000000E-01
  8.50000000E-01  8.50000000E-01  8.50000000E-01  8.50000000E-01  8.50000000E-01
  8.50000000E-01  8.50000000E-01  8.50000000E-01  8.50000000E-01  8.50000000E-01
  8.50000000E-01  8.50000000E-01  8.50000000E-01  8.50000000E-01  8.50000000E-01
  8.50000000E-01  8.50000000E-01  8.50000000E-01  8.50000000E-01  8.50000000E-01
  8.50000000E-01  8.50000000E-01  8.50000000E-01  8.50000000E-01  8.50000000E-01
  8.50000000E-01  8.50000000E-01  8.50000000E-01  8.50000000E-01  8.50000000E-01
  8.50000000E-01  8.50000000E-01  8.50000000E-01  8.50000000E-01  8.50000000E-01
  8.50000000E-01  8.50000000E-01  8.50000000E-01  8.50000000E-01  8.50000000E-01
  8.50000000E-01  8.50000000E-01  8.50000000E-01  8.50000000E-01  8.50000000E-01
  8.50000000E-01  8.50000000E-01  8.50000000E-01  8.50000000E-01  8.50000000E-01
  8.50000000E-01  8.50000000E-01  8.50000000E-01  8.50000000E-01  8.50000000E-01
  8.50000000E-01  8.50000000E-01  8.50000000E-01  8.50000000E-01  8.50000000E-01
  8.50000000E-01  8.50000000E-01  8.50000000E-01  8.50000000E-01  8.50000000E-01
  8.50000000E-01  8.50000000E-01  8.50000000E-01  8.50000000E-01  8.50000000E-01
  8.50000000E-01  8.50000000E-01  8.50000000E-01  8.50000000E-01  8.50000000E-01
  8.50000000E-01  8.50000000E-01  8.50000000E-01  8.50000000E-01  8.50000000E-01
  8.50000000E-01  8.50000000E-01  8.50000000E-01  8.50000000E-01  8.50000000E-01
  8.50000000E-01  8.50000000E-01  8.50000000E-01  8.50000000E-01  8.50000000E-01
  8.50000000E-01  8.50000000E-01  8.50000000E-01  8.50000000E-01  8.50000000E-01
  8.50000000E-01  8.50000000E-01  8.50000000E-01  8.50000000E-01  8.50000000E-01
  8.50000000E-01  8.50000000E-01  8.50000000E-01  8.50000000E-01  8.50000000E-01
  8.50000000E-01  8.50000000E-01  8.50000000E-01  8.50000000E-01  8.50000000E-01
  8.50000000E-01  8.50000000E-01  8.50000000E-01  8.50000000E-01  8.50000000E-01
  8.50000000E-01  8.50000000E-01  8.50000000E-01  8.50000000E-01  8.50000000E-01
  8.50000000E-01  8.50000000E-01  8.50000000E-01  8.50000000E-01  8.50000000E-01
  8.50000000E-01  8.50000000E-01  8.50000000E-01  8.50000000E-01  8.50000000E-01
  8.50000000E-01  8.50000000E-01  8.50000000E-01  8.50000000E-01  8.50000000E-01
  8.50000000E-01  8.50000000E-01  8.50000000E-01  8.50000000E-01  8.50000000E-01
  8.50000000E-01  8.50000000E-01  8.50000000E-01  8.50000000E-01  8.50000000E-01
  8.50000000E-01  8.50000000E-01  8.50000000E-01  8.50000000E-01  8.50000000E-01
  8.50000000E-01  8.50000000E-01  8.50000000E-01  8.50000000E-01  8.50000000E-01
  8.50000000E-01  8.50000000E-01  8.50000000E-01  8.50000000E-01  8.50000000E-01
  8.50000000E-01  8.50000000E-01  8.50000000E-01  8.50000000E-01  8.50000000E-01
  8.50000000E-01  8.50000000E-01  8.50000000E-01  8.50000000E-01  8.50000000E-01
  8.50000000E-01  8.50000000E-01  8.50000000E-01  8.50000000E-01  8.50000000E-01
  8.50000000E-01  8.50000000E-01  8.50000000E-01  8.50000000E-01  8.50000000E-01
  8.50000000E-01  8.50000000E-01  8.50000000E-01  8.50000000E-01  8.50000000E-01
  8.50000000E-01  8.50000000E-01  8.50000000E-01  8.50000000E-01  8.50000000E-01
  8.50000000E-01  8.50000000E-01  8.50000000E-01  8.50000000E-01  8.50000000E-01
  8.50000000E-01  8.50000000E-01  8.50000000E-01  8.50000000E-01  8.50000000E-01
  8.50000000E-01  8.50000000E-01  8.50000000E-01  8.50000000E-01  8.50000000E-01
  8.50000000E-01  8.50000000E-01  8.50000000E-01  8.50000000E-01  8.50000000E-01
  8.50000000E-01  8.50000000E-01  8.50000000E-01  8.50000000E-01  8.50000000E-01
  8.50000000E-01  8.50000000E-01  8.50000000E-01  8.50000000E-01  8.50000000E-01
  8.50000000E-01  8.50000000E-01  8.50000000E-01  8.50000000E-01  8.50000000E-01
  8.50000000E-01  8.50000000E-01  8.50000000E-01  8.50000000E-01  8.50000000E-01
  8.50000000E-01  8.50000000E-01  8.50000000E-01  8.50000000E-01  8.50000000E-01
  8.50000000E-01  8.50000000E-01  8.50000000E-01  8.50000000E-01  8.50000000E-01
  8.50000000E-01  8.50000000E-01  8.50000000E-01  8.50000000E-01  8.50000000E-01
  8.50000000E-01  8.50000000E-01  8.50000000E-01  8.50000000E-01  8.50000000E-01
  8.50000000E-01  8.50000000E-01  8.50000000E-01  8.50000000E-01  8.50000000E-01
  8.50000000E-01  8.50000000E-01  8.50000000E-01  8.50000000E-01  8.50000000E-01
  8.50000000E-01  8.50000000E-01  8.50000000E-01  8.50000000E-01  8.50000000E-01
  8.50000000E-01  8.50000000E-01  8.50000000E-01  8.50000000E-01  8.50000000E-01
  8.50000000E-01  8.50000000E-01  8.50000000E-01  8.50000000E-01  8.50000000E-01
  8.50000000E-01  8.50000000E-01  8.50000000E-01  8.50000000E-01  8.50000000E-01
  8.50000000E-01  8.50000000E-01  8.50000000E-01  8.50000000E-01  8.50000000E-01
  8.50000000E-01  8.50000000E-01  8.50000000E-01  8.50000000E-01  8.50000000E-01
  8.50000000E-01  8.50000000E-01  8.50000000E-01  8.50000000E-01  8.50000000E-01
  8.50000000E-01  8.50000000E-01  8.50000000E-01  8.50000000E-01  8.50000000E-01
  8.50000000E-01  8.50000000E-01  8.50000000E-01  8.50000000E-01  8.50000000E-01
  8.50000000E-01  8.50000000E-01  8.50000000E-01  8.50000000E-01  8.50000000E-01
  8.50000000E-01  8.50000000E-01  8.50000000E-01  8.50000000E-01  8.50000000E-01
  8.50000000E-01  8.50000000E-01  8.50000000E-01  8.50000000E-01  8.50000000E-01
  8.50000000E-01  8.50000000E-01  8.50000000E-01  8.50000000E-01  8.50000000E-01
  8.50000000E-01  8.50000000E-01  8.50000000E-01  8.50000000E-01  8.50000000E-01
  8.50000000E-01  8.50000000E-01  8.50000000E-01  8.50000000E-01  8.50000000E-01
  8.50000000E-01  8.50000000E-01  8.50000000E-01  8.50000000E-01  8.50000000E-01
  8.50000000E-01  8.50000000E-01  8.50000000E-01  8.50000000E-01  8.50000000E-01
  8.50000000E-01  8.50000000E-01  8.50000000E-01  8.50000000E-01  8.50000000E-01
  8.50000000E-01  8.50000000E-01  8.50000000E-01  8.50000000E-01  8.50000000E-01
  8.50000000E-01  8.50000000E-01  8.50000000E-01  8.50000000E-01  8.50000000E-01
  8.50000000E-01  8.50000000E-01  8.50000000E-01  8.50000000E-01  8.50000000E-01
  8.50000000E-01  8.50000000E-01  8.50000000E-01  8.50000000E-01  8.50000000E-01
  8.50000000E-01  8.50000000E-01  8.50000000E-01  8.50000000E-01  8.50000000E-01
  8.50000000E-01  8.50000000E-01  8.50000000E-01  8.50000000E-01  8.50000000E-01
  8.50000000E-01  8.50000000E-01  8.50000000E-01  8.50000000E-01  8.50000000E-01
  8.50000000E-01  8.50000000E-01  8.50000000E-01  8.50000000E-01  8.50000000E-01
  8.50000000E-01  8.50000000E-01  8.50000000E-01  8.50000000E-01  8.50000000E-01
  8.50000000E-01  8.50000000E-01  8.50000000E-01  8.50000000E-01  8.50000000E-01
  8.50000000E-01  8.50000000E-01  8.50000000E-01  8.50000000E-01  8.50000000E-01
  8.50000000E-01  8.50000000E-01  8.50000000E-01  8.50000000E-01  8.50000000E-01
  8.50000000E-01  8.50000000E-01  8.50000000E-01  8.50000000E-01  8.50000000E-01
  8.50000000E-01  8.50000000E-01  8.50000000E-01  8.50000000E-01  8.50000000E-01
  8.50000000E-01  8.50000000E-01  8.50000000E-01  8.50000000E-01  8.50000000E-01
  8.50000000E-01  8.50000000E-01  8.50000000E-01  8.50000000E-01  8.50000000E-01
  8.50000000E-01  8.50000000E-01  8.50000000E-01  8.50000000E-01  8.50000000E-01
  8.50000000E-01  8.50000000E-01  8.50000000E-01  8.50000000E-01  8.50000000E-01
  8.50000000E-01  8.50000000E-01  8.50000000E-01  8.50000000E-01  8.50000000E-01
  8.50000000E-01  8.50000000E-01  8.50000000E-01  8.50000000E-01  8.50000000E-01
  8.50000000E-01  8.50000000E-01  8.50000000E-01  8.50000000E-01  8.50000000E-01
  8.50000000E-01  8.50000000E-01  8.50000000E-01  8.50000000E-01  8.50000000E-01
  8.50000000E-01  8.50000000E-01  8.50000000E-01  8.50000000E-01  8.50000000E-01
  8.50000000E-01  8.50000000E-01  8.50000000E-01  8.50000000E-01  8.50000000E-01
  8.50000000E-01  8.50000000E-01  8.50000000E-01  8.50000000E-01  8.50000000E-01
  8.50000000E-01  8.50000000E-01  8.50000000E-01  8.50000000E-01  8.50000000E-01
  8.50000000E-01  8.50000000E-01  8.50000000E-01  8.50000000E-01  8.50000000E-01
  8.50000000E-01  8.50000000E-01  8.50000000E-01  8.50000000E-01  8.50000000E-01
  8.50000000E-01  8.50000000E-01  8.50000000E-01  8.50000000E-01  8.50000000E-01
  8.50000000E-01  8.50000000E-01  8.50000000E-01  8.50000000E-01  8.50000000E-01
  8.50000000E-01  8.50000000E-01  8.50000000E-01  8.50000000E-01  8.50000000E-01
  8.50000000E-01  8.50000000E-01  8.50000000E-01  8.50000000E-01  8.50000000E-01
  8.50000000E-01  8.50000000E-01  8.50000000E-01  8.50000000E-01  8.50000000E-01
  8.50000000E-01  8.50000000E-01  8.50000000E-01  8.50000000E-01  8.50000000E-01
  8.50000000E-01  8.50000000E-01  8.50000000E-01  8.50000000E-01  8.50000000E-01
  8.50000000E-01  8.50000000E-01  8.50000000E-01  8.50000000E-01  8.50000000E-01
  8.50000000E-01  8.50000000E-01  8.50000000E-01  8.50000000E-01  8.50000000E-01
  8.50000000E-01  8.50000000E-01  8.50000000E-01  8.50000000E-01  8.50000000E-01
  8.50000000E-01  8.50000000E-01  8.50000000E-01  8.50000000E-01  8.50000000E-01
  8.50000000E-01  8.50000000E-01  8.50000000E-01  8.50000000E-01  8.50000000E-01
  8.50000000E-01  8.50000000E-01  8.50000000E-01  8.50000000E-01  8.50000000E-01
  8.50000000E-01  8.50000000E-01  8.50000000E-01  8.50000000E-01  8.50000000E-01
  8.50000000E-01  8.50000000E-01  8.50000000E-01  8.50000000E-01  8.50000000E-01
  8.50000000E-01  8.50000000E-01  8.50000000E-01  8.50000000E-01  8.50000000E-01
  8.50000000E-01  8.50000000E-01  8.50000000E-01  8.50000000E-01  8.50000000E-01
  8.50000000E-01  8.50000000E-01  8.50000000E-01  8.50000000E-01  8.50000000E-01
  8.50000000E-01  8.50000000E-01  8.50000000E-01  8.50000000E-01  8.50000000E-01
  8.50000000E-01  8.50000000E-01  8.50000000E-01  8.50000000E-01  8.50000000E-01
  8.50000000E-01  8.50000000E-01  8.50000000E-01  8.50000000E-01  8.50000000E-01
  8.50000000E-01  8.50000000E-01  8.50000000E-01  8.50000000E-01  8.50000000E-01
  8.50000000E-01  8.50000000E-01  8.50000000E-01  8.50000000E-01  8.50000000E-01
  8.50000000E-01  8.50000000E-01  8.50000000E-01  8.50000000E-01  8.50000000E-01
  8.50000000E-01  8.50000000E-01  8.50000000E-01  8.50000000E-01  8.50000000E-01
  8.50000000E-01  8.50000000E-01  8.50000000E-01  8.50000000E-01  8.50000000E-01
  8.50000000E-01  8.50000000E-01  8.50000000E-01  8.50000000E-01  8.50000000E-01
  8.50000000E-01  8.50000000E-01  8.50000000E-01  8.50000000E-01  8.50000000E-01
  8.50000000E-01  8.50000000E-01  8.50000000E-01  8.50000000E-01  8.50000000E-01
  8.50000000E-01  8.50000000E-01  8.50000000E-01  8.50000000E-01  8.50000000E-01
  8.50000000E-01  8.50000000E-01  8.50000000E-01  8.50000000E-01  8.50000000E-01
  8.50000000E-01  8.50000000E-01  8.50000000E-01  8.50000000E-01  8.50000000E-01
  8.50000000E-01  8.50000000E-01  8.50000000E-01  8.50000000E-01  8.50000000E-01
  8.50000000E-01  8.50000000E-01  8.50000000E-01  8.50000000E-01  8.50000000E-01
  8.50000000E-01  8.50000000E-01  8.50000000E-01  8.50000000E-01  8.50000000E-01
  8.50000000E-01  8.50000000E-01  8.50000000E-01  8.50000000E-01  8.50000000E-01
  8.50000000E-01  8.50000000E-01  8.50000000E-01  8.50000000E-01  8.50000000E-01
  8.50000000E-01  8.50000000E-01  8.50000000E-01  8.50000000E-01  8.50000000E-01
  8.50000000E-01  8.50000000E-01  8.50000000E-01  8.50000000E-01  8.50000000E-01
  8.50000000E-01  8.50000000E-01  8.50000000E-01  8.50000000E-01  8.50000000E-01
  8.50000000E-01  8.50000000E-01  8.50000000E-01  8.50000000E-01  8.50000000E-01
  8.50000000E-01  8.50000000E-01  8.50000000E-01  8.50000000E-01  8.50000000E-01
  8.50000000E-01  8.50000000E-01  8.50000000E-01  8.50000000E-01  8.50000000E-01
  8.50000000E-01  8.50000000E-01  8.50000000E-01  8.50000000E-01  8.50000000E-01
  8.50000000E-01  8.50000000E-01  8.50000000E-01  8.50000000E-01  8.50000000E-01
  8.50000000E-01  8.50000000E-01  8.50000000E-01  8.50000000E-01  8.50000000E-01
  8.50000000E-01  8.50000000E-01  8.50000000E-01  8.50000000E-01  8.50000000E-01
  8.50000000E-01  8.50000000E-01  8.50000000E-01  8.50000000E-01  8.50000000E-01
  8.50000000E-01  8.50000000E-01  8.50000000E-01  8.50000000E-01  8.50000000E-01
  8.50000000E-01  8.50000000E-01  8.50000000E-01  8.50000000E-01  8.50000000E-01
  8.50000000E-01  8.50000000E-01  8.50000000E-01  8.50000000E-01  8.50000000E-01
  8.50000000E-01  8.50000000E-01  8.50000000E-01  8.50000000E-01  8.50000000E-01
  8.50000000E-01  8.50000000E-01  8.50000000E-01  8.50000000E-01  8.50000000E-01
  8.50000000E-01  8.50000000E-01  8.50000000E-01  8.50000000E-01  8.50000000E-01
  8.50000000E-01  8.50000000E-01  8.50000000E-01  8.50000000E-01  8.50000000E-01
  8.50000000E-01  8.50000000E-01  8.50000000E-01  8.50000000E-01  8.50000000E-01
  8.50000000E-01  8.50000000E-01  8.50000000E-01  8.50000000E-01  8.50000000E-01
  8.50000000E-01  8.50000000E-01  8.50000000E-01  8.50000000E-01  8.50000000E-01
  8.50000000E-01  8.50000000E-01  8.50000000E-01  8.50000000E-01  8.50000000E-01
  8.50000000E-01  8.50000000E-01  8.50000000E-01  8.50000000E-01  8.50000000E-01
  8.50000000E-01  8.50000000E-01  8.50000000E-01  8.50000000E-01  8.50000000E-01
  8.50000000E-01  8.50000000E-01  8.50000000E-01  8.50000000E-01  8.50000000E-01
  8.50000000E-01  8.50000000E-01  8.50000000E-01  8.50000000E-01  8.50000000E-01
  8.50000000E-01  8.50000000E-01  8.50000000E-01  8.50000000E-01  8.50000000E-01
  8.50000000E-01  8.50000000E-01  8.50000000E-01  8.50000000E-01  8.50000000E-01
  8.50000000E-01  8.50000000E-01  8.50000000E-01  8.50000000E-01  8.50000000E-01
  8.50000000E-01  8.50000000E-01  8.50000000E-01  8.50000000E-01  8.50000000E-01
  8.50000000E-01  8.50000000E-01  8.50000000E-01  8.50000000E-01  8.50000000E-01
  8.50000000E-01  8.50000000E-01  8.50000000E-01  8.50000000E-01  8.50000000E-01
  8.50000000E-01  8.50000000E-01  8.50000000E-01  8.50000000E-01  8.50000000E-01
  8.50000000E-01  8.50000000E-01  8.50000000E-01  8.50000000E-01  8.50000000E-01
  8.50000000E-01  8.50000000E-01  8.50000000E-01  8.50000000E-01  8.50000000E-01
  8.50000000E-01  8.50000000E-01  8.50000000E-01  8.50000000E-01  8.50000000E-01
  8.50000000E-01  8.50000000E-01  8.50000000E-01  8.50000000E-01  8.50000000E-01
  8.50000000E-01  8.50000000E-01  8.50000000E-01  8.50000000E-01  8.50000000E-01
  8.50000000E-01  8.50000000E-01  8.50000000E-01  8.50000000E-01  8.50000000E-01
  8.50000000E-01  8.50000000E-01  8.50000000E-01  8.50000000E-01  8.50000000E-01
  8.50000000E-01  8.50000000E-01  8.50000000E-01  8.50000000E-01  8.50000000E-01
  8.50000000E-01  8.50000000E-01  8.50000000E-01  8.50000000E-01  8.50000000E-01
  8.50000000E-01  8.50000000E-01  8.50000000E-01  8.50000000E-01  8.50000000E-01
  8.50000000E-01  8.50000000E-01  8.50000000E-01  8.50000000E-01  8.50000000E-01
  8.50000000E-01  8.50000000E-01  8.50000000E-01  8.50000000E-01  8.50000000E-01
  8.50000000E-01  8.50000000E-01  8.50000000E-01  8.50000000E-01  8.50000000E-01
  8.50000000E-01  8.50000000E-01  8.50000000E-01  8.50000000E-01  8.50000000E-01
  8.50000000E-01  8.50000000E-01  8.50000000E-01  8.50000000E-01  8.50000000E-01
  8.50000000E-01  8.50000000E-01  8.50000000E-01  8.50000000E-01  8.50000000E-01
  8.50000000E-01  8.50000000E-01  8.50000000E-01  8.50000000E-01  8.50000000E-01
  8.50000000E-01  8.50000000E-01  8.50000000E-01  8.50000000E-01  8.50000000E-01
  8.50000000E-01  8.50000000E-01  8.50000000E-01  8.50000000E-01  8.50000000E-01
  8.50000000E-01  8.50000000E-01  8.50000000E-01  8.50000000E-01  8.50000000E-01
  8.50000000E-01  8.50000000E-01  8.50000000E-01  8.50000000E-01  8.50000000E-01
  8.50000000E-01  8.50000000E-01  8.50000000E-01  8.50000000E-01  8.50000000E-01
  8.50000000E-01  8.50000000E-01  8.50000000E-01  8.50000000E-01  8.50000000E-01
  8.50000000E-01  8.50000000E-01  8.50000000E-01  8.50000000E-01  8.50000000E-01
  8.50000000E-01  8.50000000E-01  8.50000000E-01  8.50000000E-01  8.50000000E-01
  8.50000000E-01  8.50000000E-01  8.50000000E-01  8.50000000E-01  8.50000000E-01
  8.50000000E-01  8.50000000E-01  8.50000000E-01  8.50000000E-01  8.50000000E-01
  8.50000000E-01  8.50000000E-01  8.50000000E-01  8.50000000E-01  8.50000000E-01
  8.50000000E-01  8.50000000E-01  8.50000000E-01  8.50000000E-01  8.50000000E-01
  8.50000000E-01  8.50000000E-01  8.50000000E-01  8.50000000E-01  8.50000000E-01
  8.50000000E-01  8.50000000E-01  8.50000000E-01  8.50000000E-01  8.50000000E-01
  8.50000000E-01  8.50000000E-01  8.50000000E-01  8.50000000E-01  8.50000000E-01
  8.50000000E-01  8.50000000E-01  8.50000000E-01  8.50000000E-01  8.50000000E-01
  8.50000000E-01  8.50000000E-01  8.50000000E-01  8.50000000E-01  8.50000000E-01
  8.50000000E-01  8.50000000E-01  8.50000000E-01  8.50000000E-01  8.50000000E-01
  8.50000000E-01  8.50000000E-01  8.50000000E-01  8.50000000E-01  8.50000000E-01
  8.50000000E-01  8.50000000E-01  8.50000000E-01  8.50000000E-01  8.50000000E-01
  8.50000000E-01  8.50000000E-01  8.50000000E-01  8.50000000E-01  8.50000000E-01
  8.50000000E-01  8.50000000E-01  8.50000000E-01  8.50000000E-01  8.50000000E-01
  8.50000000E-01  8.50000000E-01  8.50000000E-01  8.50000000E-01  8.50000000E-01
  8.50000000E-01  8.50000000E-01  8.50000000E-01  8.50000000E-01  8.50000000E-01
  8.50000000E-01  8.50000000E-01  8.50000000E-01  8.50000000E-01  8.50000000E-01
  8.50000000E-01  8.50000000E-01  8.50000000E-01  8.50000000E-01  8.50000000E-01
  8.50000000E-01  8.50000000E-01  8.50000000E-01  8.50000000E-01  8.50000000E-01
  8.50000000E-01  8.50000000E-01  8.50000000E-01  8.50000000E-01  8.50000000E-01
  8.50000000E-01  8.50000000E-01  8.50000000E-01  8.50000000E-01  8.50000000E-01
  8.50000000E-01  8.50000000E-01  8.50000000E-01  8.50000000E-01  8.50000000E-01
  8.50000000E-01  8.50000000E-01  8.50000000E-01  8.50000000E-01  8.50000000E-01
  8.50000000E-01  8.50000000E-01  8.50000000E-01  8.50000000E-01  8.50000000E-01
  8.50000000E-01  8.50000000E-01  8.50000000E-01  8.50000000E-01  8.50000000E-01
  8.50000000E-01  8.50000000E-01  8.50000000E-01  8.50000000E-01  8.50000000E-01
  8.50000000E-01  8.50000000E-01  8.50000000E-01  8.50000000E-01  8.50000000E-01
  8.50000000E-01  8.50000000E-01  8.50000000E-01  8.50000000E-01  8.50000000E-01
  8.50000000E-01  8.50000000E-01  8.50000000E-01  8.50000000E-01  8.50000000E-01
  8.50000000E-01  8.50000000E-01  8.50000000E-01  8.50000000E-01  8.50000000E-01
  8.50000000E-01  8.50000000E-01  8.50000000E-01  8.50000000E-01  8.50000000E-01
  8.50000000E-01  8.50000000E-01  8.50000000E-01  8.50000000E-01  8.50000000E-01
  8.50000000E-01  8.50000000E-01  8.50000000E-01  8.50000000E-01  8.50000000E-01
  8.50000000E-01  8.50000000E-01  8.50000000E-01  8.50000000E-01  8.50000000E-01
  8.50000000E-01  8.50000000E-01  8.50000000E-01  8.50000000E-01  8.50000000E-01
  8.50000000E-01  8.50000000E-01  8.50000000E-01  8.50000000E-01  8.50000000E-01
  8.50000000E-01  8.50000000E-01  8.50000000E-01  8.50000000E-01  8.50000000E-01
  8.50000000E-01  8.50000000E-01  8.50000000E-01  8.50000000E-01  8.50000000E-01
  8.50000000E-01  8.50000000E-01  8.50000000E-01  8.50000000E-01  8.50000000E-01
  8.50000000E-01  8.50000000E-01  8.50000000E-01  8.50000000E-01  8.50000000E-01
  8.50000000E-01  8.50000000E-01  8.50000000E-01  8.50000000E-01  8.50000000E-01
  8.50000000E-01  8.50000000E-01  8.50000000E-01  8.50000000E-01  8.50000000E-01
  8.50000000E-01  8.50000000E-01  8.50000000E-01  8.50000000E-01  8.50000000E-01
  8.50000000E-01  8.50000000E-01  8.50000000E-01  8.50000000E-01  8.50000000E-01
  8.50000000E-01  8.50000000E-01  8.50000000E-01  8.50000000E-01  8.50000000E-01
  8.50000000E-01  8.50000000E-01  8.50000000E-01  8.50000000E-01  8.50000000E-01
  8.50000000E-01  8.50000000E-01  8.50000000E-01  8.50000000E-01  8.50000000E-01
  8.50000000E-01  8.50000000E-01  8.50000000E-01  8.50000000E-01  8.50000000E-01
  8.50000000E-01  8.50000000E-01  8.50000000E-01  8.50000000E-01  8.50000000E-01
  8.50000000E-01  8.50000000E-01  8.50000000E-01  8.50000000E-01  8.50000000E-01
  8.50000000E-01  8.50000000E-01  8.50000000E-01  8.50000000E-01  8.50000000E-01
  8.50000000E-01  8.50000000E-01  8.50000000E-01  8.50000000E-01  8.50000000E-01
  8.50000000E-01  8.50000000E-01  8.50000000E-01  8.50000000E-01  8.50000000E-01
  8.50000000E-01  8.50000000E-01  8.50000000E-01  8.50000000E-01  8.50000000E-01
  8.50000000E-01  8.50000000E-01  8.50000000E-01  8.50000000E-01  8.50000000E-01
  8.50000000E-01  8.50000000E-01  8.50000000E-01  8.50000000E-01  8.50000000E-01
  8.50000000E-01  8.50000000E-01  8.50000000E-01  8.50000000E-01  8.50000000E-01
  8.50000000E-01  8.50000000E-01  8.50000000E-01  8.50000000E-01  8.50000000E-01
  8.50000000E-01  8.50000000E-01  8.50000000E-01  8.50000000E-01  8.50000000E-01
  8.50000000E-01  8.50000000E-01  8.50000000E-01  8.50000000E-01  8.50000000E-01
  8.50000000E-01  8.50000000E-01  8.50000000E-01  8.50000000E-01  8.50000000E-01
  8.50000000E-01  8.50000000E-01  8.50000000E-01  8.50000000E-01  8.50000000E-01
  8.50000000E-01  8.50000000E-01  8.50000000E-01  8.50000000E-01  8.50000000E-01
  8.50000000E-01  8.50000000E-01  8.50000000E-01  8.50000000E-01  8.50000000E-01
  8.50000000E-01  8.50000000E-01  8.50000000E-01  8.50000000E-01  8.50000000E-01
  8.50000000E-01  8.50000000E-01  8.50000000E-01  8.50000000E-01  8.50000000E-01
  8.50000000E-01  8.50000000E-01  8.50000000E-01  8.50000000E-01  8.50000000E-01
  8.50000000E-01  8.50000000E-01  8.50000000E-01  8.50000000E-01  8.50000000E-01
  8.50000000E-01  8.50000000E-01  8.50000000E-01  8.50000000E-01  8.50000000E-01
  8.50000000E-01  8.50000000E-01  8.50000000E-01  8.50000000E-01  8.50000000E-01
  8.50000000E-01  8.50000000E-01  8.50000000E-01  8.50000000E-01  8.50000000E-01
  8.50000000E-01  8.50000000E-01  8.50000000E-01  8.50000000E-01  8.50000000E-01
  8.50000000E-01  8.50000000E-01  8.50000000E-01  8.50000000E-01  8.50000000E-01
  8.50000000E-01  8.50000000E-01  8.50000000E-01  8.50000000E-01  8.50000000E-01
  8.50000000E-01  8.50000000E-01  8.50000000E-01  8.50000000E-01  8.50000000E-01
  8.50000000E-01  8.50000000E-01  8.50000000E-01  8.50000000E-01  8.50000000E-01
  8.50000000E-01  8.50000000E-01  8.50000000E-01  8.50000000E-01  8.50000000E-01
  8.50000000E-01  8.50000000E-01  8.50000000E-01  8.50000000E-01  8.50000000E-01
  8.50000000E-01  8.50000000E-01  8.50000000E-01  8.50000000E-01  8.50000000E-01
  8.50000000E-01  8.50000000E-01  8.50000000E-01  8.50000000E-01  8.50000000E-01
  8.50000000E-01  8.50000000E-01  8.50000000E-01  8.50000000E-01  8.50000000E-01
  8.50000000E-01  8.50000000E-01  8.50000000E-01  8.50000000E-01  8.50000000E-01
  8.50000000E-01  8.50000000E-01  8.50000000E-01  8.50000000E-01  8.50000000E-01
  8.50000000E-01  8.50000000E-01  8.50000000E-01  8.50000000E-01  8.50000000E-01
  8.50000000E-01  8.50000000E-01  8.50000000E-01  8.50000000E-01  8.50000000E-01
  8.50000000E-01  8.50000000E-01  8.50000000E-01  8.50000000E-01  8.50000000E-01
  8.50000000E-01  8.50000000E-01  8.50000000E-01  8.50000000E-01  8.50000000E-01
  8.50000000E-01  8.50000000E-01  8.50000000E-01  8.50000000E-01  8.50000000E-01
  8.50000000E-01  8.50000000E-01  8.50000000E-01  8.50000000E-01  8.50000000E-01
  8.50000000E-01  8.50000000E-01  8.50000000E-01  8.50000000E-01  8.50000000E-01
  8.50000000E-01  8.50000000E-01  8.50000000E-01  8.50000000E-01  8.50000000E-01
  8.50000000E-01  8.50000000E-01  8.50000000E-01  8.50000000E-01  8.50000000E-01
  8.50000000E-01  8.50000000E-01  8.50000000E-01  8.50000000E-01  8.50000000E-01
  8.50000000E-01  8.50000000E-01  8.50000000E-01  8.50000000E-01  8.50000000E-01
  8.50000000E-01  8.50000000E-01  8.50000000E-01  8.50000000E-01  8.50000000E-01
  8.50000000E-01  8.50000000E-01  8.50000000E-01  8.50000000E-01  8.50000000E-01
  8.50000000E-01  8.50000000E-01  8.50000000E-01  8.50000000E-01  8.50000000E-01
  8.50000000E-01  8.50000000E-01  8.50000000E-01  8.50000000E-01  8.50000000E-01
  8.50000000E-01  8.50000000E-01  8.50000000E-01  8.50000000E-01  8.50000000E-01
  8.50000000E-01  8.50000000E-01  8.50000000E-01  8.50000000E-01  8.50000000E-01
  8.50000000E-01  8.50000000E-01  8.50000000E-01  8.50000000E-01  8.50000000E-01
  8.50000000E-01  8.50000000E-01  8.50000000E-01  8.50000000E-01  8.50000000E-01
  8.50000000E-01  8.50000000E-01  8.50000000E-01  8.50000000E-01  8.50000000E-01
  8.50000000E-01  8.50000000E-01  8.50000000E-01  8.50000000E-01  8.50000000E-01
  8.50000000E-01  8.50000000E-01  8.50000000E-01  8.50000000E-01  8.50000000E-01
  8.50000000E-01  8.50000000E-01  8.50000000E-01  8.50000000E-01  8.50000000E-01
  8.50000000E-01  8.50000000E-01  8.50000000E-01  8.50000000E-01  8.50000000E-01
  8.50000000E-01  8.50000000E-01  8.50000000E-01  8.50000000E-01  8.50000000E-01
  8.50000000E-01  8.50000000E-01  8.50000000E-01  8.50000000E-01  8.50000000E-01
  8.50000000E-01  8.50000000E-01  8.50000000E-01  8.50000000E-01  8.50000000E-01
  8.50000000E-01  8.50000000E-01  8.50000000E-01  8.50000000E-01  8.50000000E-01
  8.50000000E-01  8.50000000E-01  8.50000000E-01  8.50000000E-01  8.50000000E-01
  8.50000000E-01  8.50000000E-01  8.50000000E-01  8.50000000E-01  8.50000000E-01
  8.50000000E-01  8.50000000E-01  8.50000000E-01  8.50000000E-01  8.50000000E-01
  8.50000000E-01  8.50000000E-01  8.50000000E-01  8.50000000E-01  8.50000000E-01
  8.50000000E-01  8.50000000E-01  8.50000000E-01  8.50000000E-01  8.50000000E-01
  8.50000000E-01  8.50000000E-01  8.50000000E-01  8.50000000E-01  8.50000000E-01
  8.50000000E-01  8.50000000E-01  8.50000000E-01  8.50000000E-01  8.50000000E-01
  8.50000000E-01  8.50000000E-01  8.50000000E-01  8.50000000E-01  8.50000000E-01
  8.50000000E-01  8.50000000E-01  8.50000000E-01  8.50000000E-01  8.50000000E-01
  8.50000000E-01  8.50000000E-01  8.50000000E-01  8.50000000E-01  8.50000000E-01
  8.50000000E-01  8.50000000E-01  8.50000000E-01  8.50000000E-01  8.50000000E-01
  8.50000000E-01  8.50000000E-01  8.50000000E-01  8.50000000E-01  8.50000000E-01
  8.50000000E-01  8.50000000E-01  8.50000000E-01  8.50000000E-01  8.50000000E-01
  8.50000000E-01  8.50000000E-01  8.50000000E-01  8.50000000E-01  8.50000000E-01
  8.50000000E-01  8.50000000E-01  8.50000000E-01  8.50000000E-01  8.50000000E-01
  8.50000000E-01  8.50000000E-01  8.50000000E-01  8.50000000E-01  8.50000000E-01
  8.50000000E-01  8.50000000E-01  8.50000000E-01  8.50000000E-01  8.50000000E-01
  8.50000000E-01  8.50000000E-01  8.50000000E-01  8.50000000E-01  8.50000000E-01
  8.50000000E-01  8.50000000E-01  8.50000000E-01  8.50000000E-01  8.50000000E-01
  8.50000000E-01  8.50000000E-01  8.50000000E-01  8.50000000E-01  8.50000000E-01
  8.50000000E-01  8.50000000E-01  8.50000000E-01  8.50000000E-01  8.50000000E-01
  8.50000000E-01  8.50000000E-01  8.50000000E-01  8.50000000E-01  8.50000000E-01
  8.50000000E-01  8.50000000E-01  8.50000000E-01  8.50000000E-01  8.50000000E-01
  8.50000000E-01  8.50000000E-01  8.50000000E-01  8.50000000E-01  8.50000000E-01
  8.50000000E-01  8.50000000E-01  8.50000000E-01  8.50000000E-01  8.50000000E-01
  8.50000000E-01  8.50000000E-01  8.50000000E-01  8.50000000E-01  8.50000000E-01
  8.50000000E-01  8.50000000E-01  8.50000000E-01  8.50000000E-01  8.50000000E-01
  8.50000000E-01  8.50000000E-01  8.50000000E-01  8.50000000E-01  8.50000000E-01
  8.50000000E-01  8.50000000E-01  8.50000000E-01  8.50000000E-01  8.50000000E-01
  8.50000000E-01  8.50000000E-01  8.50000000E-01  8.50000000E-01  8.50000000E-01
  8.50000000E-01  8.50000000E-01  8.50000000E-01  8.50000000E-01  8.50000000E-01
  8.50000000E-01  8.50000000E-01  8.50000000E-01  8.50000000E-01  8.50000000E-01
  8.50000000E-01  8.50000000E-01  8.50000000E-01  8.50000000E-01  8.50000000E-01
  8.50000000E-01  8.50000000E-01  8.50000000E-01  8.50000000E-01  8.50000000E-01
  8.50000000E-01  8.50000000E-01  8.50000000E-01  8.50000000E-01  8.50000000E-01
  8.50000000E-01  8.50000000E-01  8.50000000E-01  8.50000000E-01  8.50000000E-01
  8.50000000E-01  8.50000000E-01  8.50000000E-01  8.50000000E-01  8.50000000E-01
  8.50000000E-01  8.50000000E-01  8.50000000E-01  8.50000000E-01  8.50000000E-01
  8.50000000E-01  8.50000000E-01  8.50000000E-01  8.50000000E-01  8.50000000E-01
  8.50000000E-01  8.50000000E-01  8.50000000E-01  8.50000000E-01  8.50000000E-01
  8.50000000E-01  8.50000000E-01  8.50000000E-01  8.50000000E-01  8.50000000E-01
  8.50000000E-01  8.50000000E-01  8.50000000E-01  8.50000000E-01  8.50000000E-01
  8.50000000E-01  8.50000000E-01  8.50000000E-01  8.50000000E-01  8.50000000E-01
  8.50000000E-01  8.50000000E-01  8.50000000E-01  8.50000000E-01  8.50000000E-01
  8.50000000E-01  8.50000000E-01  8.50000000E-01  8.50000000E-01  8.50000000E-01
  8.50000000E-01  8.50000000E-01  8.50000000E-01  8.50000000E-01  8.50000000E-01
  8.50000000E-01  8.50000000E-01  8.50000000E-01  8.50000000E-01  8.50000000E-01
  8.50000000E-01  8.50000000E-01  8.50000000E-01  8.50000000E-01  8.50000000E-01
  8.50000000E-01  8.50000000E-01  8.50000000E-01  8.50000000E-01  8.50000000E-01
  8.50000000E-01  8.50000000E-01  8.50000000E-01  8.50000000E-01  8.50000000E-01
  8.50000000E-01  8.50000000E-01  8.50000000E-01  8.50000000E-01  8.50000000E-01
  8.50000000E-01  8.50000000E-01  8.50000000E-01  8.50000000E-01  8.50000000E-01
  8.50000000E-01  8.50000000E-01  8.50000000E-01  8.50000000E-01  8.50000000E-01
  8.50000000E-01  8.50000000E-01  8.50000000E-01  8.50000000E-01  8.50000000E-01
  8.50000000E-01  8.50000000E-01  8.50000000E-01  8.50000000E-01  8.50000000E-01
  8.50000000E-01  8.50000000E-01  8.50000000E-01  8.50000000E-01  8.50000000E-01
  8.50000000E-01  8.50000000E-01  8.50000000E-01  8.50000000E-01  8.50000000E-01
  8.50000000E-01  8.50000000E-01  8.50000000E-01  8.50000000E-01  8.50000000E-01
  8.50000000E-01  8.50000000E-01  8.50000000E-01  8.50000000E-01  8.50000000E-01
  8.50000000E-01  8.50000000E-01  8.50000000E-01  8.50000000E-01  8.50000000E-01
  8.50000000E-01  8.50000000E-01  8.50000000E-01  8.50000000E-01  8.50000000E-01
  8.50000000E-01  8.50000000E-01  8.50000000E-01  8.50000000E-01  8.50000000E-01
  8.50000000E-01  8.50000000E-01  8.50000000E-01  8.50000000E-01  8.50000000E-01
  8.50000000E-01  8.50000000E-01  8.50000000E-01  8.50000000E-01  8.50000000E-01
  8.50000000E-01  8.50000000E-01  8.50000000E-01  8.50000000E-01  8.50000000E-01
  8.50000000E-01  8.50000000E-01  8.50000000E-01  8.50000000E-01  8.50000000E-01
  8.50000000E-01  8.50000000E-01  8.50000000E-01  8.50000000E-01  8.50000000E-01
  8.50000000E-01  8.50000000E-01  8.50000000E-01  8.50000000E-01  8.50000000E-01
  8.50000000E-01  8.50000000E-01  8.50000000E-01  8.50000000E-01  8.50000000E-01
  8.50000000E-01  8.50000000E-01  8.50000000E-01  8.50000000E-01  8.50000000E-01
  8.50000000E-01  8.50000000E-01  8.50000000E-01  8.50000000E-01  8.50000000E-01
  8.50000000E-01  8.50000000E-01  8.50000000E-01  8.50000000E-01  8.50000000E-01
  8.50000000E-01  8.50000000E-01  8.50000000E-01  8.50000000E-01  8.50000000E-01
  8.50000000E-01  8.50000000E-01  8.50000000E-01  8.50000000E-01  8.50000000E-01
  8.50000000E-01  8.50000000E-01  8.50000000E-01  8.50000000E-01  8.50000000E-01
  8.50000000E-01  8.50000000E-01  8.50000000E-01  8.50000000E-01  8.50000000E-01
  8.50000000E-01  8.50000000E-01  8.50000000E-01  8.50000000E-01  8.50000000E-01
  8.50000000E-01  8.50000000E-01  8.50000000E-01  8.50000000E-01  8.50000000E-01
  8.50000000E-01  8.50000000E-01  8.50000000E-01  8.50000000E-01  8.50000000E-01
  8.50000000E-01  8.50000000E-01  8.50000000E-01  8.50000000E-01  8.50000000E-01
  8.50000000E-01  8.50000000E-01  8.50000000E-01  8.50000000E-01  8.50000000E-01
  8.50000000E-01  8.50000000E-01  8.50000000E-01  8.50000000E-01  8.50000000E-01
  8.50000000E-01  8.50000000E-01  8.50000000E-01  8.50000000E-01  8.50000000E-01
  8.50000000E-01  8.50000000E-01  8.50000000E-01  8.50000000E-01  8.50000000E-01
  8.50000000E-01  8.50000000E-01  8.50000000E-01  8.50000000E-01  8.50000000E-01
  8.50000000E-01  8.50000000E-01  8.50000000E-01  8.50000000E-01  8.50000000E-01
  8.50000000E-01  8.50000000E-01  8.50000000E-01  8.50000000E-01  8.50000000E-01
  8.50000000E-01  8.50000000E-01  8.50000000E-01  8.50000000E-01  8.50000000E-01
  8.50000000E-01  8.50000000E-01  8.50000000E-01  8.50000000E-01  8.50000000E-01
  8.50000000E-01  8.50000000E-01  8.50000000E-01  8.50000000E-01  8.50000000E-01
  8.50000000E-01  8.50000000E-01  8.50000000E-01  8.50000000E-01  8.50000000E-01
  8.50000000E-01  8.50000000E-01  8.50000000E-01  8.50000000E-01  8.50000000E-01
  8.50000000E-01  8.50000000E-01  8.50000000E-01  8.50000000E-01  8.50000000E-01
  8.50000000E-01  8.50000000E-01  8.50000000E-01  8.50000000E-01  8.50000000E-01
  8.50000000E-01  8.50000000E-01  8.50000000E-01  8.50000000E-01  8.50000000E-01
  8.50000000E-01  8.50000000E-01  8.50000000E-01  8.50000000E-01  8.50000000E-01
  8.50000000E-01  8.50000000E-01  8.50000000E-01  8.50000000E-01  8.50000000E-01
  8.50000000E-01  8.50000000E-01  8.50000000E-01  8.50000000E-01  8.50000000E-01
  8.50000000E-01  8.50000000E-01  8.50000000E-01  8.50000000E-01  8.50000000E-01
  8.50000000E-01  8.50000000E-01  8.50000000E-01  8.50000000E-01  8.50000000E-01
  8.50000000E-01  8.50000000E-01  8.50000000E-01  8.50000000E-01  8.50000000E-01
  8.50000000E-01  8.50000000E-01  8.50000000E-01  8.50000000E-01  8.50000000E-01
  8.50000000E-01  8.50000000E-01  8.50000000E-01  8.50000000E-01  8.50000000E-01
  8.50000000E-01  8.50000000E-01  8.50000000E-01  8.50000000E-01  8.50000000E-01
  8.50000000E-01  8.50000000E-01  8.50000000E-01  8.50000000E-01  8.50000000E-01
  8.50000000E-01  8.50000000E-01  8.50000000E-01  8.50000000E-01  8.50000000E-01
  8.50000000E-01  8.50000000E-01  8.50000000E-01  8.50000000E-01  8.50000000E-01
  8.50000000E-01  8.50000000E-01  8.50000000E-01  8.50000000E-01  8.50000000E-01
  8.50000000E-01  8.50000000E-01  8.50000000E-01  8.50000000E-01  8.50000000E-01
  8.50000000E-01  8.50000000E-01  8.50000000E-01  8.50000000E-01  8.50000000E-01
  8.50000000E-01  8.50000000E-01  8.50000000E-01  8.50000000E-01  8.50000000E-01
  8.50000000E-01  8.50000000E-01  8.50000000E-01  8.50000000E-01  8.50000000E-01
  8.50000000E-01  8.50000000E-01  8.50000000E-01  8.50000000E-01  8.50000000E-01
  8.50000000E-01  8.50000000E-01  8.50000000E-01  8.50000000E-01  8.50000000E-01
  8.50000000E-01  8.50000000E-01  8.50000000E-01  8.50000000E-01  8.50000000E-01
  8.50000000E-01  8.50000000E-01  8.50000000E-01  8.50000000E-01  8.50000000E-01
  8.50000000E-01  8.50000000E-01  8.50000000E-01  8.50000000E-01  8.50000000E-01
  8.50000000E-01  8.50000000E-01  8.50000000E-01  8.50000000E-01  8.50000000E-01
  8.50000000E-01  8.50000000E-01  8.50000000E-01  8.50000000E-01  8.50000000E-01
  8.50000000E-01  8.50000000E-01  8.50000000E-01  8.50000000E-01  8.50000000E-01
  8.50000000E-01  8.50000000E-01  8.50000000E-01  8.50000000E-01  8.50000000E-01
  8.50000000E-01  8.50000000E-01  8.50000000E-01  8.50000000E-01  8.50000000E-01
  8.50000000E-01  8.50000000E-01  8.50000000E-01  8.50000000E-01  8.50000000E-01
  8.50000000E-01  8.50000000E-01  8.50000000E-01  8.50000000E-01  8.50000000E-01
  8.50000000E-01  8.50000000E-01  8.50000000E-01  8.50000000E-01  8.50000000E-01
  8.50000000E-01  8.50000000E-01  8.50000000E-01  8.50000000E-01  8.50000000E-01
  8.50000000E-01  8.50000000E-01  8.50000000E-01  8.50000000E-01  8.50000000E-01
  8.50000000E-01  8.50000000E-01  8.50000000E-01  8.50000000E-01  8.50000000E-01
  8.50000000E-01  8.50000000E-01  8.50000000E-01  8.50000000E-01  8.50000000E-01
  8.50000000E-01  8.50000000E-01  8.50000000E-01  8.50000000E-01  8.50000000E-01
  8.50000000E-01  8.50000000E-01  8.50000000E-01  8.50000000E-01  8.50000000E-01
  8.50000000E-01  8.50000000E-01  8.50000000E-01  8.50000000E-01  8.50000000E-01
  8.50000000E-01  8.50000000E-01  8.50000000E-01  8.50000000E-01  8.50000000E-01
  8.50000000E-01  8.50000000E-01  8.50000000E-01  8.50000000E-01  8.50000000E-01
  8.50000000E-01  8.50000000E-01  8.50000000E-01  8.50000000E-01  8.50000000E-01
  8.50000000E-01  8.50000000E-01  8.50000000E-01  8.50000000E-01  8.50000000E-01
  8.50000000E-01  8.50000000E-01  8.50000000E-01  8.50000000E-01  8.50000000E-01
  8.50000000E-01  8.50000000E-01  8.50000000E-01  8.50000000E-01  8.50000000E-01
  8.50000000E-01  8.50000000E-01  8.50000000E-01  8.50000000E-01  8.50000000E-01
  8.50000000E-01  8.50000000E-01  8.50000000E-01  8.50000000E-01  8.50000000E-01
  8.50000000E-01  8.50000000E-01  8.50000000E-01  8.50000000E-01  8.50000000E-01
  8.50000000E-01  8.50000000E-01  8.50000000E-01  8.50000000E-01  8.50000000E-01
  8.50000000E-01  8.50000000E-01  8.50000000E-01  8.50000000E-01  8.50000000E-01
  8.50000000E-01  8.50000000E-01  8.50000000E-01  8.50000000E-01  8.50000000E-01
  8.50000000E-01  8.50000000E-01  8.50000000E-01  8.50000000E-01  8.50000000E-01
  8.50000000E-01  8.50000000E-01  8.50000000E-01  8.50000000E-01  8.50000000E-01
  8.50000000E-01  8.50000000E-01  8.50000000E-01  8.50000000E-01  8.50000000E-01
  8.50000000E-01  8.50000000E-01  8.50000000E-01  8.50000000E-01  8.50000000E-01
  8.50000000E-01  8.50000000E-01  8.50000000E-01  8.50000000E-01  8.50000000E-01
  8.50000000E-01  8.50000000E-01  8.50000000E-01  8.50000000E-01  8.50000000E-01
  8.50000000E-01  8.50000000E-01  8.50000000E-01  8.50000000E-01  8.50000000E-01
  8.50000000E-01  8.50000000E-01  8.50000000E-01  8.50000000E-01  8.50000000E-01
  8.50000000E-01  8.50000000E-01  8.50000000E-01  8.50000000E-01  8.50000000E-01
  8.50000000E-01  8.50000000E-01  8.50000000E-01  8.50000000E-01  8.50000000E-01
  8.50000000E-01  8.50000000E-01  8.50000000E-01  8.50000000E-01  8.50000000E-01
  8.50000000E-01  8.50000000E-01  8.50000000E-01  8.50000000E-01  8.50000000E-01
  8.50000000E-01  8.50000000E-01  8.50000000E-01  8.50000000E-01  8.50000000E-01
  8.50000000E-01  8.50000000E-01  8.50000000E-01  8.50000000E-01  8.50000000E-01
  8.50000000E-01  8.50000000E-01  8.50000000E-01  8.50000000E-01  8.50000000E-01
  8.50000000E-01  8.50000000E-01  8.50000000E-01  8.50000000E-01  8.50000000E-01
  8.50000000E-01  8.50000000E-01  8.50000000E-01  8.50000000E-01  8.50000000E-01
  8.50000000E-01  8.50000000E-01  8.50000000E-01  8.50000000E-01  8.50000000E-01
  8.50000000E-01  8.50000000E-01  8.50000000E-01  8.50000000E-01  8.50000000E-01
  8.50000000E-01  8.50000000E-01  8.50000000E-01  8.50000000E-01  8.50000000E-01
  8.50000000E-01  8.50000000E-01  8.50000000E-01  8.50000000E-01  8.50000000E-01
  8.50000000E-01  8.50000000E-01  8.50000000E-01  8.50000000E-01  8.50000000E-01
  8.50000000E-01  8.50000000E-01  8.50000000E-01  8.50000000E-01  8.50000000E-01
  8.50000000E-01  8.50000000E-01  8.50000000E-01  8.50000000E-01  8.50000000E-01
  8.50000000E-01  8.50000000E-01  8.50000000E-01  8.50000000E-01  8.50000000E-01
  8.50000000E-01  8.50000000E-01  8.50000000E-01  8.50000000E-01  8.50000000E-01
  8.50000000E-01  8.50000000E-01  8.50000000E-01  8.50000000E-01  8.50000000E-01
  8.50000000E-01  8.50000000E-01  8.50000000E-01  8.50000000E-01  8.50000000E-01
  8.50000000E-01  8.50000000E-01  8.50000000E-01  8.50000000E-01  8.50000000E-01
  8.50000000E-01  8.50000000E-01  8.50000000E-01  8.50000000E-01  8.50000000E-01
  8.50000000E-01  8.50000000E-01  8.50000000E-01  8.50000000E-01  8.50000000E-01
  8.50000000E-01  8.50000000E-01  8.50000000E-01  8.50000000E-01  8.50000000E-01
  8.50000000E-01  8.50000000E-01  8.50000000E-01  8.50000000E-01  8.50000000E-01
  8.50000000E-01  8.50000000E-01  8.50000000E-01  8.50000000E-01  8.50000000E-01
  8.50000000E-01  8.50000000E-01  8.50000000E-01  8.50000000E-01  8.50000000E-01
  8.50000000E-01  8.50000000E-01  8.50000000E-01  8.50000000E-01  8.50000000E-01
  8.50000000E-01  8.50000000E-01  8.50000000E-01  8.50000000E-01  8.50000000E-01
  8.50000000E-01  8.50000000E-01  8.50000000E-01  8.50000000E-01  8.50000000E-01
  8.50000000E-01  8.50000000E-01  8.50000000E-01  8.50000000E-01  8.50000000E-01
  8.50000000E-01  8.50000000E-01  8.50000000E-01  8.50000000E-01  8.50000000E-01
  8.50000000E-01  8.50000000E-01  8.50000000E-01  8.50000000E-01  8.50000000E-01
  8.50000000E-01  8.50000000E-01  8.50000000E-01  8.50000000E-01  8.50000000E-01
  8.50000000E-01  8.50000000E-01  8.50000000E-01  8.50000000E-01  8.50000000E-01
  8.50000000E-01  8.50000000E-01  8.50000000E-01  8.50000000E-01  8.50000000E-01
  8.50000000E-01  8.50000000E-01  8.50000000E-01  8.50000000E-01  8.50000000E-01
  8.50000000E-01  8.50000000E-01  8.50000000E-01  8.50000000E-01  8.50000000E-01
  8.50000000E-01  8.50000000E-01  8.50000000E-01  8.50000000E-01  8.50000000E-01
  8.50000000E-01  8.50000000E-01  8.50000000E-01  8.50000000E-01  8.50000000E-01
  8.50000000E-01  8.50000000E-01  8.50000000E-01  8.50000000E-01  8.50000000E-01
  8.50000000E-01  8.50000000E-01  8.50000000E-01  8.50000000E-01  8.50000000E-01
  8.50000000E-01  8.50000000E-01  8.50000000E-01  8.50000000E-01  8.50000000E-01
  8.50000000E-01  8.50000000E-01  8.50000000E-01  8.50000000E-01  8.50000000E-01
  8.50000000E-01  8.50000000E-01  8.50000000E-01  8.50000000E-01  8.50000000E-01
  8.50000000E-01  8.50000000E-01  8.50000000E-01  8.50000000E-01  8.50000000E-01
  8.50000000E-01  8.50000000E-01  8.50000000E-01  8.50000000E-01  8.50000000E-01
  8.50000000E-01  8.50000000E-01  8.50000000E-01  8.50000000E-01  8.50000000E-01
  8.50000000E-01  8.50000000E-01  8.50000000E-01  8.50000000E-01  8.50000000E-01
  8.50000000E-01  8.50000000E-01  8.50000000E-01  8.50000000E-01  8.50000000E-01
  8.50000000E-01  8.50000000E-01  8.50000000E-01  8.50000000E-01  8.50000000E-01
  8.50000000E-01  8.50000000E-01  8.50000000E-01  8.50000000E-01  8.50000000E-01
  8.50000000E-01  8.50000000E-01  8.50000000E-01  8.50000000E-01  8.50000000E-01
  8.50000000E-01  8.50000000E-01  8.50000000E-01  8.50000000E-01  8.50000000E-01
  8.50000000E-01  8.50000000E-01  8.50000000E-01  8.50000000E-01  8.50000000E-01
  8.50000000E-01  8.50000000E-01  8.50000000E-01  8.50000000E-01  8.50000000E-01
  8.50000000E-01  8.50000000E-01  8.50000000E-01  8.50000000E-01  8.50000000E-01
  8.50000000E-01  8.50000000E-01  8.50000000E-01  8.50000000E-01  8.50000000E-01
  8.50000000E-01  8.50000000E-01  8.50000000E-01  8.50000000E-01  8.50000000E-01
  8.50000000E-01  8.50000000E-01  8.50000000E-01  8.50000000E-01  8.50000000E-01
  8.50000000E-01  8.50000000E-01  8.50000000E-01  8.50000000E-01  8.50000000E-01
  8.50000000E-01  8.50000000E-01  8.50000000E-01  8.50000000E-01  8.50000000E-01
  8.50000000E-01  8.50000000E-01  8.50000000E-01  8.50000000E-01  8.50000000E-01
  8.50000000E-01  8.50000000E-01  8.50000000E-01  8.50000000E-01  8.50000000E-01
  8.50000000E-01  8.50000000E-01  8.50000000E-01  8.50000000E-01  8.50000000E-01
  8.50000000E-01  8.50000000E-01  8.50000000E-01  8.50000000E-01  8.50000000E-01
  8.50000000E-01  8.50000000E-01  8.50000000E-01  8.50000000E-01  8.50000000E-01
  8.50000000E-01  8.50000000E-01  8.50000000E-01  8.50000000E-01  8.50000000E-01
  8.50000000E-01  8.50000000E-01  8.50000000E-01  8.50000000E-01  8.50000000E-01
  8.50000000E-01  8.50000000E-01  8.50000000E-01  8.50000000E-01  8.50000000E-01
  8.50000000E-01  8.50000000E-01  8.50000000E-01  8.50000000E-01  8.50000000E-01
  8.50000000E-01  8.50000000E-01  8.50000000E-01  8.50000000E-01  8.50000000E-01
  8.50000000E-01  8.50000000E-01  8.50000000E-01  8.50000000E-01  8.50000000E-01
  8.50000000E-01  8.50000000E-01  8.50000000E-01  8.50000000E-01  8.50000000E-01
  8.50000000E-01  8.50000000E-01  8.50000000E-01  8.50000000E-01  8.50000000E-01
  8.50000000E-01  8.50000000E-01  8.50000000E-01  8.50000000E-01  8.50000000E-01
  8.50000000E-01  8.50000000E-01  8.50000000E-01  8.50000000E-01  8.50000000E-01
  8.50000000E-01  8.50000000E-01  8.50000000E-01  8.50000000E-01  8.50000000E-01
  8.50000000E-01  8.50000000E-01  8.50000000E-01  8.50000000E-01  8.50000000E-01
  8.50000000E-01  8.50000000E-01  8.50000000E-01  8.50000000E-01  8.50000000E-01
  8.50000000E-01  8.50000000E-01  8.50000000E-01  8.50000000E-01  8.50000000E-01
  8.50000000E-01  8.50000000E-01  8.50000000E-01  8.50000000E-01  8.50000000E-01
  8.50000000E-01  8.50000000E-01  8.50000000E-01  8.50000000E-01  8.50000000E-01
  8.50000000E-01  8.50000000E-01  8.50000000E-01  8.50000000E-01  8.50000000E-01
  8.50000000E-01  8.50000000E-01  8.50000000E-01  8.50000000E-01  8.50000000E-01
  8.50000000E-01  8.50000000E-01  8.50000000E-01  8.50000000E-01  8.50000000E-01
  8.50000000E-01  8.50000000E-01  8.50000000E-01  8.50000000E-01  8.50000000E-01
  8.50000000E-01  8.50000000E-01  8.50000000E-01  8.50000000E-01  8.50000000E-01
  8.50000000E-01  8.50000000E-01  8.50000000E-01  8.50000000E-01  8.50000000E-01
  8.50000000E-01  8.50000000E-01  8.50000000E-01  8.50000000E-01  8.50000000E-01
  8.50000000E-01  8.50000000E-01  8.50000000E-01  8.50000000E-01  8.50000000E-01
  8.50000000E-01  8.50000000E-01  8.50000000E-01  8.50000000E-01  8.50000000E-01
  8.50000000E-01  8.50000000E-01  8.50000000E-01  8.50000000E-01  8.50000000E-01
  8.50000000E-01  8.50000000E-01  8.50000000E-01  8.50000000E-01  8.50000000E-01
  8.50000000E-01  8.50000000E-01  8.50000000E-01  8.50000000E-01  8.50000000E-01
  8.50000000E-01  8.50000000E-01  8.50000000E-01  8.50000000E-01  8.50000000E-01
  8.50000000E-01  8.50000000E-01  8.50000000E-01  8.50000000E-01  8.50000000E-01
  8.50000000E-01  8.50000000E-01  8.50000000E-01  8.50000000E-01  8.50000000E-01
  8.50000000E-01  8.50000000E-01  8.50000000E-01  8.50000000E-01  8.50000000E-01
  8.50000000E-01  8.50000000E-01  8.50000000E-01  8.50000000E-01  8.50000000E-01
  8.50000000E-01  8.50000000E-01  8.50000000E-01  8.50000000E-01  8.50000000E-01
  8.50000000E-01  8.50000000E-01  8.50000000E-01  8.50000000E-01  8.50000000E-01
  8.50000000E-01  8.50000000E-01  8.50000000E-01  8.50000000E-01  8.50000000E-01
  8.50000000E-01  8.50000000E-01  8.50000000E-01  8.50000000E-01  8.50000000E-01
  8.50000000E-01  8.50000000E-01  8.50000000E-01  8.50000000E-01  8.50000000E-01
  8.50000000E-01  8.50000000E-01  8.50000000E-01  8.50000000E-01  8.50000000E-01
  8.50000000E-01  8.50000000E-01  8.50000000E-01  8.50000000E-01  8.50000000E-01
  8.50000000E-01  8.50000000E-01  8.50000000E-01  8.50000000E-01  8.50000000E-01
  8.50000000E-01  8.50000000E-01  8.50000000E-01  8.50000000E-01  8.50000000E-01
  8.50000000E-01  8.50000000E-01  8.50000000E-01  8.50000000E-01  8.50000000E-01
  8.50000000E-01  8.50000000E-01  8.50000000E-01  8.50000000E-01  8.50000000E-01
  8.50000000E-01  8.50000000E-01  8.50000000E-01  8.50000000E-01  8.50000000E-01
  8.50000000E-01  8.50000000E-01  8.50000000E-01  8.50000000E-01  8.50000000E-01
  8.50000000E-01  8.50000000E-01  8.50000000E-01  8.50000000E-01  8.50000000E-01
  8.50000000E-01  8.50000000E-01  8.50000000E-01  8.50000000E-01  8.50000000E-01
  8.50000000E-01  8.50000000E-01  8.50000000E-01  8.50000000E-01  8.50000000E-01
  8.50000000E-01  8.50000000E-01  8.50000000E-01  8.50000000E-01  8.50000000E-01
  8.50000000E-01  8.50000000E-01  8.50000000E-01  8.50000000E-01  8.50000000E-01
  8.50000000E-01  8.50000000E-01  8.50000000E-01  8.50000000E-01  8.50000000E-01
  8.50000000E-01  8.50000000E-01  8.50000000E-01  8.50000000E-01  8.50000000E-01
  8.50000000E-01  8.50000000E-01  8.50000000E-01  8.50000000E-01  8.50000000E-01
  8.50000000E-01  8.50000000E-01  8.50000000E-01  8.50000000E-01  8.50000000E-01
  8.50000000E-01  8.50000000E-01  8.50000000E-01  8.50000000E-01  8.50000000E-01
  8.50000000E-01  8.50000000E-01  8.50000000E-01  8.50000000E-01  8.50000000E-01
  8.50000000E-01  8.50000000E-01  8.50000000E-01  8.50000000E-01  8.50000000E-01
  8.50000000E-01  8.50000000E-01  8.50000000E-01  8.50000000E-01  8.50000000E-01
  8.50000000E-01  8.50000000E-01  8.50000000E-01  8.50000000E-01  8.50000000E-01
  8.50000000E-01  8.50000000E-01  8.50000000E-01  8.50000000E-01  8.50000000E-01
  8.50000000E-01  8.50000000E-01  8.50000000E-01  8.50000000E-01  8.50000000E-01
  8.50000000E-01  8.50000000E-01  8.50000000E-01  8.50000000E-01  8.50000000E-01
  8.50000000E-01  8.50000000E-01  8.50000000E-01  8.50000000E-01  8.50000000E-01
  8.50000000E-01  8.50000000E-01  8.50000000E-01  8.50000000E-01  8.50000000E-01
  8.50000000E-01  8.50000000E-01  8.50000000E-01  8.50000000E-01  8.50000000E-01
  8.50000000E-01  8.50000000E-01  8.50000000E-01  8.50000000E-01  8.50000000E-01
  8.50000000E-01  8.50000000E-01  8.50000000E-01  8.50000000E-01  8.50000000E-01
  8.50000000E-01  8.50000000E-01  8.50000000E-01  8.50000000E-01  8.50000000E-01
  8.50000000E-01  8.50000000E-01  8.50000000E-01  8.50000000E-01  8.50000000E-01
  8.50000000E-01  8.50000000E-01  8.50000000E-01  8.50000000E-01  8.50000000E-01
  8.50000000E-01  8.50000000E-01  8.50000000E-01  8.50000000E-01  8.50000000E-01
  8.50000000E-01  8.50000000E-01  8.50000000E-01  8.50000000E-01  8.50000000E-01
  8.50000000E-01  8.50000000E-01  8.50000000E-01  8.50000000E-01  8.50000000E-01
  8.50000000E-01  8.50000000E-01  8.50000000E-01  8.50000000E-01  8.50000000E-01
  8.50000000E-01  8.50000000E-01  8.50000000E-01  8.50000000E-01  8.50000000E-01
  8.50000000E-01  8.50000000E-01  8.50000000E-01  8.50000000E-01  8.50000000E-01
  8.50000000E-01  8.50000000E-01  8.50000000E-01  8.50000000E-01  8.50000000E-01
  8.50000000E-01  8.50000000E-01  8.50000000E-01  8.50000000E-01  8.50000000E-01
  8.50000000E-01  8.50000000E-01  8.50000000E-01  8.50000000E-01  8.50000000E-01
  8.50000000E-01  8.50000000E-01  8.50000000E-01  8.50000000E-01  8.50000000E-01
  8.50000000E-01  8.50000000E-01  8.50000000E-01  8.50000000E-01  8.50000000E-01
  8.50000000E-01  8.50000000E-01  8.50000000E-01  8.50000000E-01  8.50000000E-01
  8.50000000E-01  8.50000000E-01  8.50000000E-01  8.50000000E-01  8.50000000E-01
  8.50000000E-01  8.50000000E-01  8.50000000E-01  8.50000000E-01  8.50000000E-01
  8.50000000E-01  8.50000000E-01  8.50000000E-01  8.50000000E-01  8.50000000E-01
  8.50000000E-01  8.50000000E-01  8.50000000E-01  8.50000000E-01  8.50000000E-01
  8.50000000E-01  8.50000000E-01  8.50000000E-01  8.50000000E-01  8.50000000E-01
  8.50000000E-01  8.50000000E-01  8.50000000E-01  8.50000000E-01  8.50000000E-01
  8.50000000E-01  8.50000000E-01  8.50000000E-01  8.50000000E-01  8.50000000E-01
  8.50000000E-01  8.50000000E-01  8.50000000E-01  8.50000000E-01  8.50000000E-01
  8.50000000E-01  8.50000000E-01  8.50000000E-01  8.50000000E-01  8.50000000E-01
  8.50000000E-01  8.50000000E-01  8.50000000E-01  8.50000000E-01  8.50000000E-01
  8.50000000E-01  8.50000000E-01  8.50000000E-01  8.50000000E-01  8.50000000E-01
  8.50000000E-01  8.50000000E-01  8.50000000E-01  8.50000000E-01  8.50000000E-01
  8.50000000E-01  8.50000000E-01  8.50000000E-01  8.50000000E-01  8.50000000E-01
  8.50000000E-01  8.50000000E-01  8.50000000E-01  8.50000000E-01  8.50000000E-01
  8.50000000E-01  8.50000000E-01  8.50000000E-01  8.50000000E-01  8.50000000E-01
  8.50000000E-01  8.50000000E-01  8.50000000E-01  8.50000000E-01  8.50000000E-01
  8.50000000E-01  8.50000000E-01  8.50000000E-01  8.50000000E-01  8.50000000E-01
  8.50000000E-01  8.50000000E-01  8.50000000E-01  8.50000000E-01  8.50000000E-01
  8.50000000E-01  8.50000000E-01  8.50000000E-01  8.50000000E-01  8.50000000E-01
  8.50000000E-01  8.50000000E-01  8.50000000E-01  8.50000000E-01  8.50000000E-01
  8.50000000E-01  8.50000000E-01  8.50000000E-01  8.50000000E-01  8.50000000E-01
  8.50000000E-01  8.50000000E-01  8.50000000E-01  8.50000000E-01  8.50000000E-01
  8.50000000E-01  8.50000000E-01  8.50000000E-01  8.50000000E-01  8.50000000E-01
  8.50000000E-01  8.50000000E-01  8.50000000E-01  8.50000000E-01  8.50000000E-01
  8.50000000E-01  8.50000000E-01  8.50000000E-01  8.50000000E-01  8.50000000E-01
  8.50000000E-01  8.50000000E-01  8.50000000E-01  8.50000000E-01  8.50000000E-01
  8.50000000E-01  8.50000000E-01  8.50000000E-01  8.50000000E-01  8.50000000E-01
  8.50000000E-01  8.50000000E-01  8.50000000E-01  8.50000000E-01  8.50000000E-01
  8.50000000E-01  8.50000000E-01  8.50000000E-01  8.50000000E-01  8.50000000E-01
  8.50000000E-01  8.50000000E-01  8.50000000E-01  8.50000000E-01  8.50000000E-01
  8.50000000E-01  8.50000000E-01  8.50000000E-01  8.50000000E-01  8.50000000E-01
  8.50000000E-01  8.50000000E-01  8.50000000E-01  8.50000000E-01  8.50000000E-01
  8.50000000E-01  8.50000000E-01  8.50000000E-01  8.50000000E-01  8.50000000E-01
  8.50000000E-01  8.50000000E-01  8.50000000E-01  8.50000000E-01  8.50000000E-01
  8.50000000E-01  8.50000000E-01  8.50000000E-01  8.50000000E-01  8.50000000E-01
  8.50000000E-01  8.50000000E-01  8.50000000E-01  8.50000000E-01  8.50000000E-01
  8.50000000E-01  8.50000000E-01  8.50000000E-01  8.50000000E-01  8.50000000E-01
  8.50000000E-01  8.50000000E-01  8.50000000E-01  8.50000000E-01  8.50000000E-01
  8.50000000E-01  8.50000000E-01  8.50000000E-01  8.50000000E-01  8.50000000E-01
  8.50000000E-01  8.50000000E-01  8.50000000E-01  8.50000000E-01  8.50000000E-01
  8.50000000E-01  8.50000000E-01  8.50000000E-01  8.50000000E-01  8.50000000E-01
  8.50000000E-01  8.50000000E-01  8.50000000E-01  8.50000000E-01  8.50000000E-01
  8.50000000E-01  8.50000000E-01  8.50000000E-01  8.50000000E-01  8.50000000E-01
  8.50000000E-01  8.50000000E-01  8.50000000E-01  8.50000000E-01  8.50000000E-01
  8.50000000E-01  8.50000000E-01  8.50000000E-01  8.50000000E-01  8.50000000E-01
  8.50000000E-01  8.50000000E-01  8.50000000E-01  8.50000000E-01  8.50000000E-01
  8.50000000E-01  8.50000000E-01  8.50000000E-01  8.50000000E-01  8.50000000E-01
  8.50000000E-01  8.50000000E-01  8.50000000E-01  8.50000000E-01  8.50000000E-01
  8.50000000E-01  8.50000000E-01  8.50000000E-01  8.50000000E-01  8.50000000E-01
  8.50000000E-01  8.50000000E-01  8.50000000E-01  8.50000000E-01  8.50000000E-01
  8.50000000E-01  8.50000000E-01  8.50000000E-01  8.50000000E-01  8.50000000E-01
  8.50000000E-01  8.50000000E-01  8.50000000E-01  8.50000000E-01  8.50000000E-01
  8.50000000E-01  8.50000000E-01  8.50000000E-01  8.50000000E-01  8.50000000E-01
  8.50000000E-01  8.50000000E-01  8.50000000E-01  8.50000000E-01  8.50000000E-01
  8.50000000E-01  8.50000000E-01  8.50000000E-01  8.50000000E-01  8.50000000E-01
  8.50000000E-01  8.50000000E-01  8.50000000E-01  8.50000000E-01  8.50000000E-01
  8.50000000E-01  8.50000000E-01  8.50000000E-01  8.50000000E-01  8.50000000E-01
  8.50000000E-01  8.50000000E-01  8.50000000E-01  8.50000000E-01  8.50000000E-01
  8.50000000E-01  8.50000000E-01  8.50000000E-01  8.50000000E-01  8.50000000E-01
  8.50000000E-01  8.50000000E-01  8.50000000E-01  8.50000000E-01  8.50000000E-01
  8.50000000E-01  8.50000000E-01  8.50000000E-01  8.50000000E-01  8.50000000E-01
  8.50000000E-01  8.50000000E-01  8.50000000E-01  8.50000000E-01  8.50000000E-01
  8.50000000E-01  8.50000000E-01  8.50000000E-01  8.50000000E-01  8.50000000E-01
  8.50000000E-01  8.50000000E-01  8.50000000E-01  8.50000000E-01  8.50000000E-01
  8.50000000E-01  8.50000000E-01  8.50000000E-01  8.50000000E-01  8.50000000E-01
  8.50000000E-01  8.50000000E-01  8.50000000E-01  8.50000000E-01  8.50000000E-01
  8.50000000E-01  8.50000000E-01  8.50000000E-01  8.50000000E-01  8.50000000E-01
  8.50000000E-01  8.50000000E-01  8.50000000E-01  8.50000000E-01  8.50000000E-01
  8.50000000E-01  8.50000000E-01  8.50000000E-01  8.50000000E-01  8.50000000E-01
  8.50000000E-01  8.50000000E-01  8.50000000E-01  8.50000000E-01  8.50000000E-01
  8.50000000E-01  8.50000000E-01  8.50000000E-01  8.50000000E-01  8.50000000E-01
  8.50000000E-01  8.50000000E-01  8.50000000E-01  8.50000000E-01  8.50000000E-01
  8.50000000E-01  8.50000000E-01  8.50000000E-01  8.50000000E-01  8.50000000E-01
  8.50000000E-01  8.50000000E-01  8.50000000E-01  8.50000000E-01  8.50000000E-01
  8.50000000E-01  8.50000000E-01  8.50000000E-01  8.50000000E-01  8.50000000E-01
  8.50000000E-01  8.50000000E-01  8.50000000E-01  8.50000000E-01  8.50000000E-01
  8.50000000E-01  8.50000000E-01  8.50000000E-01  8.50000000E-01  8.50000000E-01
  8.50000000E-01  8.50000000E-01  8.50000000E-01  8.50000000E-01  8.50000000E-01
  8.50000000E-01  8.50000000E-01  8.50000000E-01  8.50000000E-01  8.50000000E-01
  8.50000000E-01  8.50000000E-01  8.50000000E-01  8.50000000E-01  8.50000000E-01
  8.50000000E-01  8.50000000E-01  8.50000000E-01  8.50000000E-01  8.50000000E-01
  8.50000000E-01  8.50000000E-01  8.50000000E-01  8.50000000E-01  8.50000000E-01
  8.50000000E-01  8.50000000E-01  8.50000000E-01  8.50000000E-01  8.50000000E-01
  8.50000000E-01  8.50000000E-01  8.50000000E-01  8.50000000E-01  8.50000000E-01
  8.50000000E-01  8.50000000E-01  8.50000000E-01  8.50000000E-01  8.50000000E-01
  8.50000000E-01  8.50000000E-01  8.50000000E-01  8.50000000E-01  8.50000000E-01
  8.50000000E-01  8.50000000E-01  8.50000000E-01  8.50000000E-01  8.50000000E-01
  8.50000000E-01  8.50000000E-01  8.50000000E-01  8.50000000E-01  8.50000000E-01
  8.50000000E-01  8.50000000E-01  8.50000000E-01  8.50000000E-01  8.50000000E-01
  8.50000000E-01  8.50000000E-01  8.50000000E-01  8.50000000E-01  8.50000000E-01
  8.50000000E-01  8.50000000E-01  8.50000000E-01  8.50000000E-01  8.50000000E-01
  8.50000000E-01  8.50000000E-01  8.50000000E-01  8.50000000E-01  8.50000000E-01
  8.50000000E-01  8.50000000E-01  8.50000000E-01  8.50000000E-01  8.50000000E-01
  8.50000000E-01  8.50000000E-01  8.50000000E-01  8.50000000E-01  8.50000000E-01
  8.50000000E-01  8.50000000E-01  8.50000000E-01  8.50000000E-01  8.50000000E-01
  8.50000000E-01  8.50000000E-01  8.50000000E-01  8.50000000E-01  8.50000000E-01
  8.50000000E-01  8.50000000E-01  8.50000000E-01  8.50000000E-01  8.50000000E-01
  8.50000000E-01  8.50000000E-01  8.50000000E-01  8.50000000E-01  8.50000000E-01
  8.50000000E-01  8.50000000E-01  8.50000000E-01  8.50000000E-01  8.50000000E-01
  8.50000000E-01  8.50000000E-01  8.50000000E-01  8.50000000E-01  8.50000000E-01
  8.50000000E-01  8.50000000E-01  8.50000000E-01  8.50000000E-01  8.50000000E-01
  8.50000000E-01  8.50000000E-01  8.50000000E-01  8.50000000E-01  8.50000000E-01
  8.50000000E-01  8.50000000E-01  8.50000000E-01  8.50000000E-01  8.50000000E-01
  8.50000000E-01  8.50000000E-01  8.50000000E-01  8.50000000E-01  8.50000000E-01
  8.50000000E-01  8.50000000E-01  8.50000000E-01  8.50000000E-01  8.50000000E-01
  8.50000000E-01  8.50000000E-01  8.50000000E-01  8.50000000E-01  8.50000000E-01
  8.50000000E-01  8.50000000E-01  8.50000000E-01  8.50000000E-01  8.50000000E-01
  8.50000000E-01  8.50000000E-01  8.50000000E-01  8.50000000E-01  8.50000000E-01
  8.50000000E-01  8.50000000E-01  8.50000000E-01  8.50000000E-01  8.50000000E-01
  8.50000000E-01  8.50000000E-01  8.50000000E-01  8.50000000E-01  8.50000000E-01
  8.50000000E-01  8.50000000E-01  8.50000000E-01  8.50000000E-01  8.50000000E-01
  8.50000000E-01  8.50000000E-01  8.50000000E-01  8.50000000E-01  8.50000000E-01
  8.50000000E-01  8.50000000E-01  8.50000000E-01  8.50000000E-01  8.50000000E-01
  8.50000000E-01  8.50000000E-01  8.50000000E-01  8.50000000E-01  8.50000000E-01
  8.50000000E-01  8.50000000E-01  8.50000000E-01  8.50000000E-01  8.50000000E-01
  8.50000000E-01  8.50000000E-01  8.50000000E-01  8.50000000E-01  8.50000000E-01
  8.50000000E-01  8.50000000E-01  8.50000000E-01  8.50000000E-01  8.50000000E-01
  8.50000000E-01  8.50000000E-01  8.50000000E-01  8.50000000E-01  8.50000000E-01
  8.50000000E-01  8.50000000E-01  8.50000000E-01  8.50000000E-01  8.50000000E-01
  8.50000000E-01  8.50000000E-01  8.50000000E-01  8.50000000E-01  8.50000000E-01
  8.50000000E-01  8.50000000E-01  8.50000000E-01  8.50000000E-01  8.50000000E-01
  8.50000000E-01  8.50000000E-01  8.50000000E-01  8.50000000E-01  8.50000000E-01
  8.50000000E-01  8.50000000E-01  8.50000000E-01  8.50000000E-01  8.50000000E-01
  8.50000000E-01  8.50000000E-01  8.50000000E-01  8.50000000E-01  8.50000000E-01
  8.50000000E-01  8.50000000E-01  8.50000000E-01  8.50000000E-01  8.50000000E-01
  8.50000000E-01  8.50000000E-01  8.50000000E-01  8.50000000E-01  8.50000000E-01
  8.50000000E-01  8.50000000E-01  8.50000000E-01  8.50000000E-01  8.50000000E-01
  8.50000000E-01  8.50000000E-01  8.50000000E-01  8.50000000E-01  8.50000000E-01
  8.50000000E-01  8.50000000E-01  8.50000000E-01  8.50000000E-01  8.50000000E-01
  8.50000000E-01  8.50000000E-01  8.50000000E-01  8.50000000E-01  8.50000000E-01
  8.50000000E-01  8.50000000E-01  8.50000000E-01  8.50000000E-01  8.50000000E-01
  8.50000000E-01  8.50000000E-01  8.50000000E-01  8.50000000E-01  8.50000000E-01
  8.50000000E-01  8.50000000E-01  8.50000000E-01  8.50000000E-01  8.50000000E-01
  8.50000000E-01  8.50000000E-01  8.50000000E-01  8.50000000E-01  8.50000000E-01
  8.50000000E-01  8.50000000E-01  8.50000000E-01  8.50000000E-01  8.50000000E-01
  8.50000000E-01  8.50000000E-01  8.50000000E-01  8.50000000E-01  8.50000000E-01
  8.50000000E-01  8.50000000E-01  8.50000000E-01  8.50000000E-01  8.50000000E-01
  8.50000000E-01  8.50000000E-01  8.50000000E-01  8.50000000E-01  8.50000000E-01
  8.50000000E-01  8.50000000E-01  8.50000000E-01  8.50000000E-01  8.50000000E-01
  8.50000000E-01  8.50000000E-01  8.50000000E-01  8.50000000E-01  8.50000000E-01
  8.50000000E-01  8.50000000E-01  8.50000000E-01  8.50000000E-01  8.50000000E-01
  8.50000000E-01  8.50000000E-01  8.50000000E-01  8.50000000E-01  8.50000000E-01
  8.50000000E-01  8.50000000E-01  8.50000000E-01  8.50000000E-01  8.50000000E-01
  8.50000000E-01  8.50000000E-01  8.50000000E-01  8.50000000E-01  8.50000000E-01
  8.50000000E-01  8.50000000E-01  8.50000000E-01  8.50000000E-01  8.50000000E-01
  8.50000000E-01  8.50000000E-01  8.50000000E-01  8.50000000E-01  8.50000000E-01
  8.50000000E-01  8.50000000E-01  8.50000000E-01  8.50000000E-01  8.50000000E-01
  8.50000000E-01  8.50000000E-01  8.50000000E-01  8.50000000E-01  8.50000000E-01
  8.50000000E-01  8.50000000E-01  8.50000000E-01  8.50000000E-01  8.50000000E-01
  8.50000000E-01  8.50000000E-01  8.50000000E-01  8.50000000E-01  8.50000000E-01
  8.50000000E-01  8.50000000E-01  8.50000000E-01  8.50000000E-01  8.50000000E-01
  8.50000000E-01  8.50000000E-01  8.50000000E-01  8.50000000E-01  8.50000000E-01
  8.50000000E-01  8.50000000E-01  8.50000000E-01  8.50000000E-01  8.50000000E-01
  8.50000000E-01  8.50000000E-01  8.50000000E-01  8.50000000E-01  8.50000000E-01
  8.50000000E-01  8.50000000E-01  8.50000000E-01  8.50000000E-01  8.50000000E-01
  8.50000000E-01  8.50000000E-01  8.50000000E-01  8.50000000E-01  8.50000000E-01
  8.50000000E-01  8.50000000E-01  8.50000000E-01  8.50000000E-01  8.50000000E-01
  8.50000000E-01  8.50000000E-01  8.50000000E-01  8.50000000E-01  8.50000000E-01
  8.50000000E-01  8.50000000E-01  8.50000000E-01  8.50000000E-01  8.50000000E-01
  8.50000000E-01  8.50000000E-01  8.50000000E-01  8.50000000E-01  8.50000000E-01
  8.50000000E-01  8.50000000E-01  8.50000000E-01  8.50000000E-01  8.50000000E-01
  8.50000000E-01  8.50000000E-01  8.50000000E-01  8.50000000E-01  8.50000000E-01
  8.50000000E-01  8.50000000E-01  8.50000000E-01  8.50000000E-01  8.50000000E-01
  8.50000000E-01  8.50000000E-01  8.50000000E-01  8.50000000E-01  8.50000000E-01
  8.50000000E-01  8.50000000E-01  8.50000000E-01  8.50000000E-01  8.50000000E-01
  8.50000000E-01  8.50000000E-01  8.50000000E-01  8.50000000E-01  8.50000000E-01
  8.50000000E-01  8.50000000E-01  8.50000000E-01  8.50000000E-01  8.50000000E-01
  8.50000000E-01  8.50000000E-01  8.50000000E-01  8.50000000E-01  8.50000000E-01
  8.50000000E-01  8.50000000E-01  8.50000000E-01  8.50000000E-01  8.50000000E-01
  8.50000000E-01  8.50000000E-01  8.50000000E-01  8.50000000E-01  8.50000000E-01
  8.50000000E-01  8.50000000E-01  8.50000000E-01  8.50000000E-01  8.50000000E-01
  8.50000000E-01  8.50000000E-01  8.50000000E-01  8.50000000E-01  8.50000000E-01
  8.50000000E-01  8.50000000E-01  8.50000000E-01  8.50000000E-01  8.50000000E-01
  8.50000000E-01  8.50000000E-01  8.50000000E-01  8.50000000E-01  8.50000000E-01
  8.50000000E-01  8.50000000E-01  8.50000000E-01  8.50000000E-01  8.50000000E-01
  8.50000000E-01  8.50000000E-01  8.50000000E-01  8.50000000E-01  8.50000000E-01
  8.50000000E-01  8.50000000E-01  8.50000000E-01  8.50000000E-01  8.50000000E-01
  8.50000000E-01  8.50000000E-01  8.50000000E-01  8.50000000E-01  8.50000000E-01
  8.50000000E-01  8.50000000E-01  8.50000000E-01  8.50000000E-01  8.50000000E-01
  8.50000000E-01  8.50000000E-01  8.50000000E-01  8.50000000E-01  8.50000000E-01
  8.50000000E-01  8.50000000E-01  8.50000000E-01  8.50000000E-01  8.50000000E-01
  8.50000000E-01  8.50000000E-01  8.50000000E-01  8.50000000E-01  8.50000000E-01
  8.50000000E-01  8.50000000E-01  8.50000000E-01  8.50000000E-01  8.50000000E-01
  8.50000000E-01  8.50000000E-01  8.50000000E-01  8.50000000E-01  8.50000000E-01
  8.50000000E-01  8.50000000E-01  8.50000000E-01  8.50000000E-01  8.50000000E-01
  8.50000000E-01  8.50000000E-01  8.50000000E-01  8.50000000E-01  8.50000000E-01
  8.50000000E-01  8.50000000E-01  8.50000000E-01  8.50000000E-01  8.50000000E-01
  8.50000000E-01  8.50000000E-01  8.50000000E-01  8.50000000E-01  8.50000000E-01
  8.50000000E-01  8.50000000E-01  8.50000000E-01  8.50000000E-01  8.50000000E-01
  8.50000000E-01  8.50000000E-01  8.50000000E-01  8.50000000E-01  8.50000000E-01
  8.50000000E-01  8.50000000E-01  8.50000000E-01  8.50000000E-01  8.50000000E-01
  8.50000000E-01  8.50000000E-01  8.50000000E-01  8.50000000E-01  8.50000000E-01
  8.50000000E-01  8.50000000E-01  8.50000000E-01  8.50000000E-01  8.50000000E-01
  8.50000000E-01  8.50000000E-01  8.50000000E-01  8.50000000E-01  8.50000000E-01
  8.50000000E-01  8.50000000E-01  8.50000000E-01  8.50000000E-01  8.50000000E-01
  8.50000000E-01  8.50000000E-01  8.50000000E-01  8.50000000E-01  8.50000000E-01
  8.50000000E-01  8.50000000E-01  8.50000000E-01  8.50000000E-01  8.50000000E-01
  8.50000000E-01  8.50000000E-01  8.50000000E-01  8.50000000E-01  8.50000000E-01
  8.50000000E-01  8.50000000E-01  8.50000000E-01  8.50000000E-01  8.50000000E-01
  8.50000000E-01  8.50000000E-01  8.50000000E-01  8.50000000E-01  8.50000000E-01
  8.50000000E-01  8.50000000E-01  8.50000000E-01  8.50000000E-01  8.50000000E-01
  8.50000000E-01  8.50000000E-01  8.50000000E-01  8.50000000E-01  8.50000000E-01
  8.50000000E-01  8.50000000E-01  8.50000000E-01  8.50000000E-01  8.50000000E-01
  8.50000000E-01  8.50000000E-01  8.50000000E-01  8.50000000E-01  8.50000000E-01
  8.50000000E-01  8.50000000E-01  8.50000000E-01  8.50000000E-01  8.50000000E-01
  8.50000000E-01  8.50000000E-01  8.50000000E-01  8.50000000E-01  8.50000000E-01
  8.50000000E-01  8.50000000E-01  8.50000000E-01  8.50000000E-01  8.50000000E-01
  8.50000000E-01  8.50000000E-01  8.50000000E-01  8.50000000E-01  8.50000000E-01
  8.50000000E-01  8.50000000E-01  8.50000000E-01  8.50000000E-01  8.50000000E-01
  8.50000000E-01  8.50000000E-01  8.50000000E-01  8.50000000E-01  8.50000000E-01
  8.50000000E-01  8.50000000E-01  8.50000000E-01  8.50000000E-01  8.50000000E-01
  8.50000000E-01  8.50000000E-01  8.50000000E-01  8.50000000E-01  8.50000000E-01
  8.50000000E-01  8.50000000E-01  8.50000000E-01  8.50000000E-01  8.50000000E-01
  8.50000000E-01  8.50000000E-01  8.50000000E-01  8.50000000E-01  8.50000000E-01
  8.50000000E-01  8.50000000E-01  8.50000000E-01  8.50000000E-01  8.50000000E-01
  8.50000000E-01  8.50000000E-01  8.50000000E-01  8.50000000E-01  8.50000000E-01
  8.50000000E-01  8.50000000E-01  8.50000000E-01  8.50000000E-01  8.50000000E-01
  8.50000000E-01  8.50000000E-01  8.50000000E-01  8.50000000E-01  8.50000000E-01
  8.50000000E-01  8.50000000E-01  8.50000000E-01  8.50000000E-01  8.50000000E-01
  8.50000000E-01  8.50000000E-01  8.50000000E-01  8.50000000E-01  8.50000000E-01
  8.50000000E-01  8.50000000E-01  8.50000000E-01  8.50000000E-01  8.50000000E-01
  8.50000000E-01  8.50000000E-01  8.50000000E-01  8.50000000E-01  8.50000000E-01
  8.50000000E-01  8.50000000E-01  8.50000000E-01  8.50000000E-01  8.50000000E-01
  8.50000000E-01  8.50000000E-01  8.50000000E-01  8.50000000E-01  8.50000000E-01
  8.50000000E-01  8.50000000E-01  8.50000000E-01  8.50000000E-01  8.50000000E-01
  8.50000000E-01  8.50000000E-01  8.50000000E-01  8.50000000E-01  8.50000000E-01
  8.50000000E-01  8.50000000E-01  8.50000000E-01  8.50000000E-01  8.50000000E-01
  8.50000000E-01  8.50000000E-01  8.50000000E-01  8.50000000E-01  8.50000000E-01
  8.50000000E-01  8.50000000E-01  8.50000000E-01  8.50000000E-01  8.50000000E-01
  8.50000000E-01  8.50000000E-01  8.50000000E-01  8.50000000E-01  8.50000000E-01
  8.50000000E-01  8.50000000E-01  8.50000000E-01  8.50000000E-01  8.50000000E-01
  8.50000000E-01  8.50000000E-01  8.50000000E-01  8.50000000E-01  8.50000000E-01
  8.50000000E-01  8.50000000E-01  8.50000000E-01  8.50000000E-01  8.50000000E-01
  8.50000000E-01  8.50000000E-01  8.50000000E-01  8.50000000E-01  8.50000000E-01
  8.50000000E-01  8.50000000E-01  8.50000000E-01  8.50000000E-01  8.50000000E-01
  8.50000000E-01  8.50000000E-01  8.50000000E-01  8.50000000E-01  8.50000000E-01
  8.50000000E-01  8.50000000E-01  8.50000000E-01  8.50000000E-01  8.50000000E-01
  8.50000000E-01  8.50000000E-01  8.50000000E-01  8.50000000E-01  8.50000000E-01
  8.50000000E-01  8.50000000E-01  8.50000000E-01  8.50000000E-01  8.50000000E-01
  8.50000000E-01  8.50000000E-01  8.50000000E-01  8.50000000E-01  8.50000000E-01
  8.50000000E-01  8.50000000E-01  8.50000000E-01  8.50000000E-01  8.50000000E-01
  8.50000000E-01  8.50000000E-01  8.50000000E-01  8.50000000E-01  8.50000000E-01
  8.50000000E-01  8.50000000E-01  8.50000000E-01  8.50000000E-01  8.50000000E-01
  8.50000000E-01  8.50000000E-01  8.50000000E-01  8.50000000E-01  8.50000000E-01
  8.50000000E-01  8.50000000E-01  8.50000000E-01  8.50000000E-01  8.50000000E-01
  8.50000000E-01  8.50000000E-01  8.50000000E-01  8.50000000E-01  8.50000000E-01
  8.50000000E-01  8.50000000E-01  8.50000000E-01  8.50000000E-01  8.50000000E-01
  8.50000000E-01  8.50000000E-01  8.50000000E-01  8.50000000E-01  8.50000000E-01
  8.50000000E-01  8.50000000E-01  8.50000000E-01  8.50000000E-01  8.50000000E-01
  8.50000000E-01  8.50000000E-01  8.50000000E-01  8.50000000E-01  8.50000000E-01
  8.50000000E-01  8.50000000E-01  8.50000000E-01  8.50000000E-01  8.50000000E-01
  8.50000000E-01  8.50000000E-01  8.50000000E-01  8.50000000E-01  8.50000000E-01
  8.50000000E-01  8.50000000E-01  8.50000000E-01  8.50000000E-01  8.50000000E-01
  8.50000000E-01  8.50000000E-01  8.50000000E-01  8.50000000E-01  8.50000000E-01
  8.50000000E-01  8.50000000E-01  8.50000000E-01  8.50000000E-01  8.50000000E-01
  8.50000000E-01  8.50000000E-01  8.50000000E-01  8.50000000E-01  8.50000000E-01
  8.50000000E-01  8.50000000E-01  8.50000000E-01  8.50000000E-01  8.50000000E-01
  8.50000000E-01  8.50000000E-01  8.50000000E-01  8.50000000E-01  8.50000000E-01
  8.50000000E-01  8.50000000E-01  8.50000000E-01  8.50000000E-01  8.50000000E-01
  8.50000000E-01  8.50000000E-01  8.50000000E-01  8.50000000E-01  8.50000000E-01
  8.50000000E-01  8.50000000E-01  8.50000000E-01  8.50000000E-01  8.50000000E-01
  8.50000000E-01  8.50000000E-01  8.50000000E-01  8.50000000E-01  8.50000000E-01
  8.50000000E-01  8.50000000E-01  8.50000000E-01  8.50000000E-01  8.50000000E-01
  8.50000000E-01  8.50000000E-01  8.50000000E-01  8.50000000E-01  8.50000000E-01
  8.50000000E-01  8.50000000E-01  8.50000000E-01  8.50000000E-01  8.50000000E-01
  8.50000000E-01  8.50000000E-01  8.50000000E-01  8.50000000E-01  8.50000000E-01
  8.50000000E-01  8.50000000E-01  8.50000000E-01  8.50000000E-01  8.50000000E-01
  8.50000000E-01  8.50000000E-01  8.50000000E-01  8.50000000E-01  8.50000000E-01
  8.50000000E-01  8.50000000E-01  8.50000000E-01  8.50000000E-01  8.50000000E-01
  8.50000000E-01  8.50000000E-01  8.50000000E-01  8.50000000E-01  8.50000000E-01
  8.50000000E-01  8.50000000E-01  8.50000000E-01  8.50000000E-01  8.50000000E-01
  8.50000000E-01  8.50000000E-01  8.50000000E-01  8.50000000E-01  8.50000000E-01
  8.50000000E-01  8.50000000E-01  8.50000000E-01  8.50000000E-01  8.50000000E-01
  8.50000000E-01  8.50000000E-01  8.50000000E-01  8.50000000E-01  8.50000000E-01
  8.50000000E-01  8.50000000E-01  8.50000000E-01  8.50000000E-01  8.50000000E-01
  8.50000000E-01  8.50000000E-01  8.50000000E-01  8.50000000E-01  8.50000000E-01
  8.50000000E-01  8.50000000E-01  8.50000000E-01  8.50000000E-01  8.50000000E-01
  8.50000000E-01  8.50000000E-01  8.50000000E-01  8.50000000E-01  8.50000000E-01
  8.50000000E-01  8.50000000E-01  8.50000000E-01  8.50000000E-01  8.50000000E-01
  8.50000000E-01  8.50000000E-01  8.50000000E-01  8.50000000E-01  8.50000000E-01
  8.50000000E-01  8.50000000E-01  8.50000000E-01  8.50000000E-01  8.50000000E-01
  8.50000000E-01  8.50000000E-01  8.50000000E-01  8.50000000E-01  8.50000000E-01
  8.50000000E-01  8.50000000E-01  8.50000000E-01  8.50000000E-01  8.50000000E-01
  8.50000000E-01  8.50000000E-01  8.50000000E-01  8.50000000E-01  8.50000000E-01
  8.50000000E-01  8.50000000E-01  8.50000000E-01  8.50000000E-01  8.50000000E-01
  8.50000000E-01  8.50000000E-01  8.50000000E-01  8.50000000E-01  8.50000000E-01
  8.50000000E-01  8.50000000E-01  8.50000000E-01  8.50000000E-01  8.50000000E-01
  8.50000000E-01  8.50000000E-01  8.50000000E-01  8.50000000E-01  8.50000000E-01
  8.50000000E-01  8.50000000E-01  8.50000000E-01  8.50000000E-01  8.50000000E-01
  8.50000000E-01  8.50000000E-01  8.50000000E-01  8.50000000E-01  8.50000000E-01
  8.50000000E-01  8.50000000E-01  8.50000000E-01  8.50000000E-01  8.50000000E-01
  8.50000000E-01  8.50000000E-01  8.50000000E-01  8.50000000E-01  8.50000000E-01
  8.50000000E-01  8.50000000E-01  8.50000000E-01  8.50000000E-01  8.50000000E-01
  8.50000000E-01  8.50000000E-01  8.50000000E-01  8.50000000E-01  8.50000000E-01
  8.50000000E-01  8.50000000E-01  8.50000000E-01  8.50000000E-01  8.50000000E-01
  8.50000000E-01  8.50000000E-01  8.50000000E-01  8.50000000E-01  8.50000000E-01
  8.50000000E-01  8.50000000E-01  8.50000000E-01  8.50000000E-01  8.50000000E-01
  8.50000000E-01  8.50000000E-01  8.50000000E-01  8.50000000E-01  8.50000000E-01
  8.50000000E-01  8.50000000E-01  8.50000000E-01  8.50000000E-01  8.50000000E-01
  8.50000000E-01  8.50000000E-01  8.50000000E-01  8.50000000E-01  8.50000000E-01
  8.50000000E-01  8.50000000E-01  8.50000000E-01  8.50000000E-01  8.50000000E-01
  8.50000000E-01  8.50000000E-01  8.50000000E-01  8.50000000E-01  8.50000000E-01
  8.50000000E-01  8.50000000E-01  8.50000000E-01  8.50000000E-01  8.50000000E-01
  8.50000000E-01  8.50000000E-01  8.50000000E-01  8.50000000E-01  8.50000000E-01
  8.50000000E-01  8.50000000E-01  8.50000000E-01  8.50000000E-01  8.50000000E-01
  8.50000000E-01  8.50000000E-01  8.50000000E-01  8.50000000E-01  8.50000000E-01
  8.50000000E-01  8.50000000E-01  8.50000000E-01  8.50000000E-01  8.50000000E-01
  8.50000000E-01  8.50000000E-01  8.50000000E-01  8.50000000E-01  8.50000000E-01
  8.50000000E-01  8.50000000E-01  8.50000000E-01  8.50000000E-01  8.50000000E-01
  8.50000000E-01  8.50000000E-01  8.50000000E-01  8.50000000E-01  8.50000000E-01
  8.50000000E-01  8.50000000E-01  8.50000000E-01  8.50000000E-01  8.50000000E-01
  8.50000000E-01  8.50000000E-01  8.50000000E-01  8.50000000E-01  8.50000000E-01
  8.50000000E-01  8.50000000E-01  8.50000000E-01  8.50000000E-01  8.50000000E-01
  8.50000000E-01  8.50000000E-01  8.50000000E-01  8.50000000E-01  8.50000000E-01
  8.50000000E-01  8.50000000E-01  8.50000000E-01  8.50000000E-01  8.50000000E-01
  8.50000000E-01  8.50000000E-01  8.50000000E-01  8.50000000E-01  8.50000000E-01
  8.50000000E-01  8.50000000E-01  8.50000000E-01  8.50000000E-01  8.50000000E-01
  8.50000000E-01  8.50000000E-01  8.50000000E-01  8.50000000E-01  8.50000000E-01
  8.50000000E-01  8.50000000E-01  8.50000000E-01  8.50000000E-01  8.50000000E-01
  8.50000000E-01  8.50000000E-01  8.50000000E-01  8.50000000E-01  8.50000000E-01
  8.50000000E-01  8.50000000E-01  8.50000000E-01  8.50000000E-01  8.50000000E-01
  8.50000000E-01  8.50000000E-01  8.50000000E-01  8.50000000E-01  8.50000000E-01
  8.50000000E-01  8.50000000E-01  8.50000000E-01  8.50000000E-01  8.50000000E-01
  8.50000000E-01  8.50000000E-01  8.50000000E-01  8.50000000E-01  8.50000000E-01
  8.50000000E-01  8.50000000E-01  8.50000000E-01  8.50000000E-01  8.50000000E-01
  8.50000000E-01  8.50000000E-01  8.50000000E-01  8.50000000E-01  8.50000000E-01
  8.50000000E-01  8.50000000E-01  8.50000000E-01  8.50000000E-01  8.50000000E-01
  8.50000000E-01  8.50000000E-01  8.50000000E-01  8.50000000E-01  8.50000000E-01
  8.50000000E-01  8.50000000E-01  8.50000000E-01  8.50000000E-01  8.50000000E-01
  8.50000000E-01  8.50000000E-01  8.50000000E-01  8.50000000E-01  8.50000000E-01
  8.50000000E-01  8.50000000E-01  8.50000000E-01  8.50000000E-01  8.50000000E-01
  8.50000000E-01  8.50000000E-01  8.50000000E-01  8.50000000E-01  8.50000000E-01
  8.50000000E-01  8.50000000E-01  8.50000000E-01  8.50000000E-01  8.50000000E-01
  8.50000000E-01  8.50000000E-01  8.50000000E-01  8.50000000E-01  8.50000000E-01
  8.50000000E-01  8.50000000E-01  8.50000000E-01  8.50000000E-01  8.50000000E-01
  8.50000000E-01  8.50000000E-01  8.50000000E-01  8.50000000E-01  8.50000000E-01
  8.50000000E-01  8.50000000E-01  8.50000000E-01  8.50000000E-01  8.50000000E-01
  8.50000000E-01  8.50000000E-01  8.50000000E-01  8.50000000E-01  8.50000000E-01
  8.50000000E-01  8.50000000E-01  8.50000000E-01  8.50000000E-01  8.50000000E-01
  8.50000000E-01  8.50000000E-01  8.50000000E-01  8.50000000E-01  8.50000000E-01
  8.50000000E-01  8.50000000E-01  8.50000000E-01  8.50000000E-01  8.50000000E-01
  8.50000000E-01  8.50000000E-01  8.50000000E-01  8.50000000E-01  8.50000000E-01
  8.50000000E-01  8.50000000E-01  8.50000000E-01  8.50000000E-01  8.50000000E-01
  8.50000000E-01  8.50000000E-01  8.50000000E-01  8.50000000E-01  8.50000000E-01
  8.50000000E-01  8.50000000E-01  8.50000000E-01  8.50000000E-01  8.50000000E-01
  8.50000000E-01  8.50000000E-01  8.50000000E-01  8.50000000E-01  8.50000000E-01
  8.50000000E-01  8.50000000E-01  8.50000000E-01  8.50000000E-01  8.50000000E-01
  8.50000000E-01  8.50000000E-01  8.50000000E-01  8.50000000E-01  8.50000000E-01
  8.50000000E-01  8.50000000E-01  8.50000000E-01  8.50000000E-01  8.50000000E-01
  8.50000000E-01  8.50000000E-01  8.50000000E-01  8.50000000E-01  8.50000000E-01
  8.50000000E-01  8.50000000E-01  8.50000000E-01  8.50000000E-01  8.50000000E-01
  8.50000000E-01  8.50000000E-01  8.50000000E-01  8.50000000E-01  8.50000000E-01
  8.50000000E-01  8.50000000E-01  8.50000000E-01  8.50000000E-01  8.50000000E-01
  8.50000000E-01  8.50000000E-01  8.50000000E-01  8.50000000E-01  8.50000000E-01
  8.50000000E-01  8.50000000E-01  8.50000000E-01  8.50000000E-01  8.50000000E-01
  8.50000000E-01  8.50000000E-01  8.50000000E-01  8.50000000E-01  8.50000000E-01
  8.50000000E-01  8.50000000E-01  8.50000000E-01  8.50000000E-01  8.50000000E-01
  8.50000000E-01  8.50000000E-01  8.50000000E-01  8.50000000E-01  8.50000000E-01
  8.50000000E-01  8.50000000E-01  8.50000000E-01  8.50000000E-01  8.50000000E-01
  8.50000000E-01  8.50000000E-01  8.50000000E-01  8.50000000E-01  8.50000000E-01
  8.50000000E-01  8.50000000E-01  8.50000000E-01  8.50000000E-01  8.50000000E-01
  8.50000000E-01  8.50000000E-01  8.50000000E-01  8.50000000E-01  8.50000000E-01
  8.50000000E-01  8.50000000E-01  8.50000000E-01  8.50000000E-01  8.50000000E-01
  8.50000000E-01  8.50000000E-01  8.50000000E-01  8.50000000E-01  8.50000000E-01
  8.50000000E-01  8.50000000E-01  8.50000000E-01  8.50000000E-01  8.50000000E-01
  8.50000000E-01  8.50000000E-01  8.50000000E-01  8.50000000E-01  8.50000000E-01
  8.50000000E-01  8.50000000E-01  8.50000000E-01  8.50000000E-01  8.50000000E-01
  8.50000000E-01  8.50000000E-01  8.50000000E-01  8.50000000E-01  8.50000000E-01
  8.50000000E-01  8.50000000E-01  8.50000000E-01  8.50000000E-01  8.50000000E-01
  8.50000000E-01  8.50000000E-01  8.50000000E-01  8.50000000E-01  8.50000000E-01
  8.50000000E-01  8.50000000E-01  8.50000000E-01  8.50000000E-01  8.50000000E-01
  8.50000000E-01  8.50000000E-01  8.50000000E-01  8.50000000E-01  8.50000000E-01
  8.50000000E-01  8.50000000E-01  8.50000000E-01  8.50000000E-01  8.50000000E-01
  8.50000000E-01  8.50000000E-01  8.50000000E-01  8.50000000E-01  8.50000000E-01
  8.50000000E-01  8.50000000E-01  8.50000000E-01  8.50000000E-01  8.50000000E-01
  8.50000000E-01  8.50000000E-01  8.50000000E-01  8.50000000E-01  8.50000000E-01
  8.50000000E-01  8.50000000E-01  8.50000000E-01  8.50000000E-01  8.50000000E-01
  8.50000000E-01  8.50000000E-01  8.50000000E-01  8.50000000E-01  8.50000000E-01
  8.50000000E-01  8.50000000E-01  8.50000000E-01  8.50000000E-01  8.50000000E-01
  8.50000000E-01  8.50000000E-01  8.50000000E-01  8.50000000E-01  8.50000000E-01
  8.50000000E-01  8.50000000E-01  8.50000000E-01  8.50000000E-01  8.50000000E-01
  8.50000000E-01  8.50000000E-01  8.50000000E-01  8.50000000E-01  8.50000000E-01
  8.50000000E-01  8.50000000E-01  8.50000000E-01  8.50000000E-01  8.50000000E-01
  8.50000000E-01  8.50000000E-01  8.50000000E-01  8.50000000E-01  8.50000000E-01
  8.50000000E-01  8.50000000E-01  8.50000000E-01  8.50000000E-01  8.50000000E-01
  8.50000000E-01  8.50000000E-01  8.50000000E-01  8.50000000E-01  8.50000000E-01
  8.50000000E-01  8.50000000E-01  8.50000000E-01  8.50000000E-01  8.50000000E-01
  8.50000000E-01  8.50000000E-01  8.50000000E-01  8.50000000E-01  8.50000000E-01
  8.50000000E-01  8.50000000E-01  8.50000000E-01  8.50000000E-01  8.50000000E-01
  8.50000000E-01  8.50000000E-01  8.50000000E-01  8.50000000E-01  8.50000000E-01
  8.50000000E-01  8.50000000E-01  8.50000000E-01  8.50000000E-01  8.50000000E-01
  8.50000000E-01  8.50000000E-01  8.50000000E-01  8.50000000E-01  8.50000000E-01
  8.50000000E-01  8.50000000E-01  8.50000000E-01  8.50000000E-01  8.50000000E-01
  8.50000000E-01  8.50000000E-01  8.50000000E-01  8.50000000E-01  8.50000000E-01
  8.50000000E-01  8.50000000E-01  8.50000000E-01  8.50000000E-01  8.50000000E-01
  8.50000000E-01  8.50000000E-01  8.50000000E-01  8.50000000E-01  8.50000000E-01
  8.50000000E-01  8.50000000E-01  8.50000000E-01  8.50000000E-01  8.50000000E-01
  8.50000000E-01  8.50000000E-01  8.50000000E-01  8.50000000E-01  8.50000000E-01
  8.50000000E-01  8.50000000E-01  8.50000000E-01  8.50000000E-01  8.50000000E-01
  8.50000000E-01  8.50000000E-01  8.50000000E-01  8.50000000E-01  8.50000000E-01
  8.50000000E-01  8.50000000E-01  8.50000000E-01  8.50000000E-01  8.50000000E-01
  8.50000000E-01  8.50000000E-01  8.50000000E-01  8.50000000E-01  8.50000000E-01
  8.50000000E-01  8.50000000E-01  8.50000000E-01  8.50000000E-01  8.50000000E-01
  8.50000000E-01  8.50000000E-01  8.50000000E-01  8.50000000E-01  8.50000000E-01
  8.50000000E-01  8.50000000E-01  8.50000000E-01  8.50000000E-01  8.50000000E-01
  8.50000000E-01  8.50000000E-01  8.50000000E-01  8.50000000E-01  8.50000000E-01
  8.50000000E-01  8.50000000E-01  8.50000000E-01  8.50000000E-01  8.50000000E-01
  8.50000000E-01  8.50000000E-01  8.50000000E-01  8.50000000E-01  8.50000000E-01
  8.50000000E-01  8.50000000E-01  8.50000000E-01  8.50000000E-01  8.50000000E-01
  8.50000000E-01  8.50000000E-01  8.50000000E-01  8.50000000E-01  8.50000000E-01
  8.50000000E-01  8.50000000E-01  8.50000000E-01  8.50000000E-01  8.50000000E-01
  8.50000000E-01  8.50000000E-01  8.50000000E-01  8.50000000E-01  8.50000000E-01
  8.50000000E-01  8.50000000E-01  8.50000000E-01  8.50000000E-01  8.50000000E-01
  8.50000000E-01  8.50000000E-01  8.50000000E-01  8.50000000E-01  8.50000000E-01
  8.50000000E-01  8.50000000E-01  8.50000000E-01  8.50000000E-01  8.50000000E-01
  8.50000000E-01  8.50000000E-01  8.50000000E-01  8.50000000E-01  8.50000000E-01
  8.50000000E-01  8.50000000E-01  8.50000000E-01  8.50000000E-01  8.50000000E-01
  8.50000000E-01  8.50000000E-01  8.50000000E-01  8.50000000E-01  8.50000000E-01
  8.50000000E-01  8.50000000E-01  8.50000000E-01  8.50000000E-01  8.50000000E-01
  8.50000000E-01  8.50000000E-01  8.50000000E-01  8.50000000E-01  8.50000000E-01
  8.50000000E-01  8.50000000E-01  8.50000000E-01  8.50000000E-01  8.50000000E-01
  8.50000000E-01  8.50000000E-01  8.50000000E-01  8.50000000E-01  8.50000000E-01
  8.50000000E-01  8.50000000E-01  8.50000000E-01  8.50000000E-01  8.50000000E-01
  8.50000000E-01  8.50000000E-01  8.50000000E-01  8.50000000E-01  8.50000000E-01
  8.50000000E-01  8.50000000E-01  8.50000000E-01  8.50000000E-01  8.50000000E-01
  8.50000000E-01  8.50000000E-01  8.50000000E-01  8.50000000E-01  8.50000000E-01
  8.50000000E-01  8.50000000E-01  8.50000000E-01  8.50000000E-01  8.50000000E-01
  8.50000000E-01  8.50000000E-01  8.50000000E-01  8.50000000E-01  8.50000000E-01
  8.50000000E-01  8.50000000E-01  8.50000000E-01  8.50000000E-01  8.50000000E-01
  8.50000000E-01  8.50000000E-01  8.50000000E-01  8.50000000E-01  8.50000000E-01
  8.50000000E-01  8.50000000E-01  8.50000000E-01  8.50000000E-01  8.50000000E-01
  8.50000000E-01  8.50000000E-01  8.50000000E-01  8.50000000E-01  8.50000000E-01
  8.50000000E-01  8.50000000E-01  8.50000000E-01  8.50000000E-01  8.50000000E-01
  8.50000000E-01  8.50000000E-01  8.50000000E-01  8.50000000E-01  8.50000000E-01
  8.50000000E-01  8.50000000E-01  8.50000000E-01  8.50000000E-01  8.50000000E-01
  8.50000000E-01  8.50000000E-01  8.50000000E-01  8.50000000E-01  8.50000000E-01
  8.50000000E-01  8.50000000E-01  8.50000000E-01  8.50000000E-01  8.50000000E-01
  8.50000000E-01  8.50000000E-01  8.50000000E-01  8.50000000E-01  8.50000000E-01
  8.50000000E-01  8.50000000E-01  8.50000000E-01  8.50000000E-01  8.50000000E-01
  8.50000000E-01  8.50000000E-01  8.50000000E-01  8.50000000E-01  8.50000000E-01
  8.50000000E-01  8.50000000E-01  8.50000000E-01  8.50000000E-01  8.50000000E-01
  8.50000000E-01  8.50000000E-01  8.50000000E-01  8.50000000E-01  8.50000000E-01
  8.50000000E-01  8.50000000E-01  8.50000000E-01  8.50000000E-01  8.50000000E-01
  8.50000000E-01  8.50000000E-01  8.50000000E-01  8.50000000E-01  8.50000000E-01
  8.50000000E-01  8.50000000E-01  8.50000000E-01  8.50000000E-01  8.50000000E-01
  8.50000000E-01  8.50000000E-01  8.50000000E-01  8.50000000E-01  8.50000000E-01
  8.50000000E-01  8.50000000E-01  8.50000000E-01  8.50000000E-01  8.50000000E-01
  8.50000000E-01  8.50000000E-01  8.50000000E-01  8.50000000E-01  8.50000000E-01
  8.50000000E-01  8.50000000E-01  8.50000000E-01  8.50000000E-01  8.50000000E-01
  8.50000000E-01  8.50000000E-01  8.50000000E-01  8.50000000E-01  8.50000000E-01
  8.50000000E-01  8.50000000E-01  8.50000000E-01  8.50000000E-01  8.50000000E-01
  8.50000000E-01  8.50000000E-01  8.50000000E-01  8.50000000E-01  8.50000000E-01
  8.50000000E-01  8.50000000E-01  8.50000000E-01  8.50000000E-01  8.50000000E-01
  8.50000000E-01  8.50000000E-01  8.50000000E-01  8.50000000E-01  8.50000000E-01
  8.50000000E-01  8.50000000E-01  8.50000000E-01  8.50000000E-01  8.50000000E-01
  8.50000000E-01  8.50000000E-01  8.50000000E-01  8.50000000E-01  8.50000000E-01
  8.50000000E-01  8.50000000E-01  8.50000000E-01  8.50000000E-01  8.50000000E-01
  8.50000000E-01  8.50000000E-01  8.50000000E-01  8.50000000E-01  8.50000000E-01
  8.50000000E-01  8.50000000E-01  8.50000000E-01  8.50000000E-01  8.50000000E-01
  8.50000000E-01  8.50000000E-01  8.50000000E-01  8.50000000E-01  8.50000000E-01
  8.50000000E-01  8.50000000E-01  8.50000000E-01  8.50000000E-01  8.50000000E-01
  8.50000000E-01  8.50000000E-01  8.50000000E-01  8.50000000E-01  8.50000000E-01
  8.50000000E-01  8.50000000E-01  8.50000000E-01  8.50000000E-01  8.50000000E-01
  8.50000000E-01  8.50000000E-01  8.50000000E-01  8.50000000E-01  8.50000000E-01
  8.50000000E-01  8.50000000E-01  8.50000000E-01  8.50000000E-01  8.50000000E-01
  8.50000000E-01  8.50000000E-01  8.50000000E-01  8.50000000E-01  8.50000000E-01
  8.50000000E-01  8.50000000E-01  8.50000000E-01  8.50000000E-01  8.50000000E-01
  8.50000000E-01  8.50000000E-01  8.50000000E-01  8.50000000E-01  8.50000000E-01
  8.50000000E-01  8.50000000E-01  8.50000000E-01  8.50000000E-01  8.50000000E-01
  8.50000000E-01  8.50000000E-01  8.50000000E-01  8.50000000E-01  8.50000000E-01
  8.50000000E-01  8.50000000E-01  8.50000000E-01  8.50000000E-01  8.50000000E-01
  8.50000000E-01  8.50000000E-01  8.50000000E-01  8.50000000E-01  8.50000000E-01
  8.50000000E-01  8.50000000E-01  8.50000000E-01  8.50000000E-01  8.50000000E-01
  8.50000000E-01  8.50000000E-01  8.50000000E-01  8.50000000E-01  8.50000000E-01
  8.50000000E-01  8.50000000E-01  8.50000000E-01  8.50000000E-01  8.50000000E-01
  8.50000000E-01  8.50000000E-01  8.50000000E-01  8.50000000E-01  8.50000000E-01
  8.50000000E-01  8.50000000E-01  8.50000000E-01  8.50000000E-01  8.50000000E-01
  8.50000000E-01  8.50000000E-01  8.50000000E-01  8.50000000E-01  8.50000000E-01
  8.50000000E-01  8.50000000E-01  8.50000000E-01  8.50000000E-01  8.50000000E-01
  8.50000000E-01  8.50000000E-01  8.50000000E-01  8.50000000E-01  8.50000000E-01
  8.50000000E-01  8.50000000E-01  8.50000000E-01  8.50000000E-01  8.50000000E-01
  8.50000000E-01  8.50000000E-01  8.50000000E-01  8.50000000E-01  8.50000000E-01
  8.50000000E-01  8.50000000E-01  8.50000000E-01  8.50000000E-01  8.50000000E-01
  8.50000000E-01  8.50000000E-01  8.50000000E-01  8.50000000E-01  8.50000000E-01
  8.50000000E-01  8.50000000E-01  8.50000000E-01  8.50000000E-01  8.50000000E-01
  8.50000000E-01  8.50000000E-01  8.50000000E-01  8.50000000E-01  8.50000000E-01
  8.50000000E-01  8.50000000E-01  8.50000000E-01  8.50000000E-01  8.50000000E-01
  8.50000000E-01  8.50000000E-01  8.50000000E-01  8.50000000E-01  8.50000000E-01
  8.50000000E-01  8.50000000E-01  8.50000000E-01  8.50000000E-01  8.50000000E-01
  8.50000000E-01  8.50000000E-01  8.50000000E-01  8.50000000E-01  8.50000000E-01
  8.50000000E-01  8.50000000E-01  8.50000000E-01  8.50000000E-01  8.50000000E-01
  8.50000000E-01  8.50000000E-01  8.50000000E-01  8.50000000E-01  8.50000000E-01
  8.50000000E-01  8.50000000E-01  8.50000000E-01  8.50000000E-01  8.50000000E-01
  8.50000000E-01  8.50000000E-01  8.50000000E-01  8.50000000E-01  8.50000000E-01
  8.50000000E-01  8.50000000E-01  8.50000000E-01  8.50000000E-01  8.50000000E-01
  8.50000000E-01  8.50000000E-01  8.50000000E-01  8.50000000E-01  8.50000000E-01
  8.50000000E-01  8.50000000E-01  8.50000000E-01  8.50000000E-01  8.50000000E-01
  8.50000000E-01  8.50000000E-01  8.50000000E-01  8.50000000E-01  8.50000000E-01
  8.50000000E-01  8.50000000E-01  8.50000000E-01  8.50000000E-01  8.50000000E-01
  8.50000000E-01  8.50000000E-01  8.50000000E-01  8.50000000E-01  8.50000000E-01
  8.50000000E-01  8.50000000E-01  8.50000000E-01  8.50000000E-01  8.50000000E-01
  8.50000000E-01  8.50000000E-01  8.50000000E-01  8.50000000E-01  8.50000000E-01
  8.50000000E-01  8.50000000E-01  8.50000000E-01  8.50000000E-01  8.50000000E-01
  8.50000000E-01  8.50000000E-01  8.50000000E-01  8.50000000E-01  8.50000000E-01
  8.50000000E-01  8.50000000E-01  8.50000000E-01  8.50000000E-01  8.50000000E-01
  8.50000000E-01  8.50000000E-01  8.50000000E-01  8.50000000E-01  8.50000000E-01
  8.50000000E-01  8.50000000E-01  8.50000000E-01  8.50000000E-01  8.50000000E-01
  8.50000000E-01  8.50000000E-01  8.50000000E-01  8.50000000E-01  8.50000000E-01
  8.50000000E-01  8.50000000E-01  8.50000000E-01  8.50000000E-01  8.50000000E-01
  8.50000000E-01  8.50000000E-01  8.50000000E-01  8.50000000E-01  8.50000000E-01
  8.50000000E-01  8.50000000E-01  8.50000000E-01  8.50000000E-01  8.50000000E-01
  8.50000000E-01  8.50000000E-01  8.50000000E-01  8.50000000E-01  8.50000000E-01
  8.50000000E-01  8.50000000E-01  8.50000000E-01  8.50000000E-01  8.50000000E-01
  8.50000000E-01  8.50000000E-01  8.50000000E-01  8.50000000E-01  8.50000000E-01
  8.50000000E-01  8.50000000E-01  8.50000000E-01  8.50000000E-01  8.50000000E-01
  8.50000000E-01  8.50000000E-01  8.50000000E-01  8.50000000E-01  8.50000000E-01
  8.50000000E-01  8.50000000E-01  8.50000000E-01  8.50000000E-01  8.50000000E-01
  8.50000000E-01  8.50000000E-01  8.50000000E-01  8.50000000E-01  8.50000000E-01
  8.50000000E-01  8.50000000E-01  8.50000000E-01  8.50000000E-01  8.50000000E-01
  8.50000000E-01  8.50000000E-01  8.50000000E-01  8.50000000E-01  8.50000000E-01
  8.50000000E-01  8.50000000E-01  8.50000000E-01  8.50000000E-01  8.50000000E-01
  8.50000000E-01  8.50000000E-01  8.50000000E-01  8.50000000E-01  8.50000000E-01
  8.50000000E-01  8.50000000E-01  8.50000000E-01  8.50000000E-01  8.50000000E-01
  8.50000000E-01  8.50000000E-01  8.50000000E-01  8.50000000E-01  8.50000000E-01
  8.50000000E-01  8.50000000E-01  8.50000000E-01  8.50000000E-01  8.50000000E-01
  8.50000000E-01  8.50000000E-01  8.50000000E-01  8.50000000E-01  8.50000000E-01
  8.50000000E-01  8.50000000E-01  8.50000000E-01  8.50000000E-01  8.50000000E-01
  8.50000000E-01  8.50000000E-01  8.50000000E-01  8.50000000E-01  8.50000000E-01
  8.50000000E-01  8.50000000E-01  8.50000000E-01  8.50000000E-01  8.50000000E-01
  8.50000000E-01  8.50000000E-01  8.50000000E-01  8.50000000E-01  8.50000000E-01
  8.50000000E-01  8.50000000E-01  8.50000000E-01  8.50000000E-01  8.50000000E-01
  8.50000000E-01  8.50000000E-01  8.50000000E-01  8.50000000E-01  8.50000000E-01
  8.50000000E-01  8.50000000E-01  8.50000000E-01  8.50000000E-01  8.50000000E-01
  8.50000000E-01  8.50000000E-01  8.50000000E-01  8.50000000E-01  8.50000000E-01
  8.50000000E-01  8.50000000E-01  8.50000000E-01  8.50000000E-01  8.50000000E-01
  8.50000000E-01  8.50000000E-01  8.50000000E-01  8.50000000E-01  8.50000000E-01
  8.50000000E-01  8.50000000E-01  8.50000000E-01  8.50000000E-01  8.50000000E-01
  8.50000000E-01  8.50000000E-01  8.50000000E-01  8.50000000E-01  8.50000000E-01
  8.50000000E-01  8.50000000E-01  8.50000000E-01  8.50000000E-01  8.50000000E-01
  8.50000000E-01  8.50000000E-01  8.50000000E-01  8.50000000E-01  8.50000000E-01
  8.50000000E-01  8.50000000E-01  8.50000000E-01  8.50000000E-01  8.50000000E-01
  8.50000000E-01  8.50000000E-01  8.50000000E-01  8.50000000E-01  8.50000000E-01
  8.50000000E-01  8.50000000E-01  8.50000000E-01  8.50000000E-01  8.50000000E-01
  8.50000000E-01  8.50000000E-01  8.50000000E-01  8.50000000E-01  8.50000000E-01
  8.50000000E-01  8.50000000E-01  8.50000000E-01  8.50000000E-01  8.50000000E-01
  8.50000000E-01  8.50000000E-01  8.50000000E-01  8.50000000E-01  8.50000000E-01
  8.50000000E-01  8.50000000E-01  8.50000000E-01  8.50000000E-01  8.50000000E-01
  8.50000000E-01  8.50000000E-01  8.50000000E-01  8.50000000E-01  8.50000000E-01
  8.50000000E-01  8.50000000E-01  8.50000000E-01  8.50000000E-01  8.50000000E-01
  8.50000000E-01  8.50000000E-01  8.50000000E-01  8.50000000E-01  8.50000000E-01
  8.50000000E-01  8.50000000E-01  8.50000000E-01  8.50000000E-01  8.50000000E-01
  8.50000000E-01  8.50000000E-01  8.50000000E-01  8.50000000E-01  8.50000000E-01
  8.50000000E-01  8.50000000E-01  8.50000000E-01  8.50000000E-01  8.50000000E-01
  8.50000000E-01  8.50000000E-01  8.50000000E-01  8.50000000E-01  8.50000000E-01
  8.50000000E-01  8.50000000E-01  8.50000000E-01  8.50000000E-01  8.50000000E-01
  8.50000000E-01  8.50000000E-01  8.50000000E-01  8.50000000E-01  8.50000000E-01
  8.50000000E-01  8.50000000E-01  8.50000000E-01  8.50000000E-01  8.50000000E-01
  8.50000000E-01  8.50000000E-01  8.50000000E-01  8.50000000E-01  8.50000000E-01
  8.50000000E-01  8.50000000E-01  8.50000000E-01  8.50000000E-01  8.50000000E-01
  8.50000000E-01  8.50000000E-01  8.50000000E-01  8.50000000E-01  8.50000000E-01
  8.50000000E-01  8.50000000E-01  8.50000000E-01  8.50000000E-01  8.50000000E-01
  8.50000000E-01  8.50000000E-01  8.50000000E-01  8.50000000E-01  8.50000000E-01
  8.50000000E-01  8.50000000E-01  8.50000000E-01  8.50000000E-01  8.50000000E-01
  8.50000000E-01  8.50000000E-01  8.50000000E-01  8.50000000E-01  8.50000000E-01
  8.50000000E-01  8.50000000E-01  8.50000000E-01  8.50000000E-01  8.50000000E-01
  8.50000000E-01  8.50000000E-01  8.50000000E-01  8.50000000E-01  8.50000000E-01
  8.50000000E-01  8.50000000E-01  8.50000000E-01  8.50000000E-01  8.50000000E-01
  8.50000000E-01  8.50000000E-01  8.50000000E-01  8.50000000E-01  8.50000000E-01
  8.50000000E-01  8.50000000E-01  8.50000000E-01  8.50000000E-01  8.50000000E-01
  8.50000000E-01  8.50000000E-01  8.50000000E-01  8.50000000E-01  8.50000000E-01
  8.50000000E-01  8.50000000E-01  8.50000000E-01  8.50000000E-01  8.50000000E-01
  8.50000000E-01  8.50000000E-01  8.50000000E-01  8.50000000E-01  8.50000000E-01
  8.50000000E-01  8.50000000E-01  8.50000000E-01  8.50000000E-01  8.50000000E-01
  8.50000000E-01  8.50000000E-01  8.50000000E-01  8.50000000E-01  8.50000000E-01
  8.50000000E-01  8.50000000E-01  8.50000000E-01  8.50000000E-01  8.50000000E-01
  8.50000000E-01  8.50000000E-01  8.50000000E-01  8.50000000E-01  8.50000000E-01
  8.50000000E-01  8.50000000E-01  8.50000000E-01  8.50000000E-01  8.50000000E-01
  8.50000000E-01  8.50000000E-01  8.50000000E-01  8.50000000E-01  8.50000000E-01
  8.50000000E-01  8.50000000E-01  8.50000000E-01  8.50000000E-01  8.50000000E-01
  8.50000000E-01  8.50000000E-01  8.50000000E-01  8.50000000E-01  8.50000000E-01
  8.50000000E-01  8.50000000E-01  8.50000000E-01  8.50000000E-01  8.50000000E-01
  8.50000000E-01  8.50000000E-01  8.50000000E-01  8.50000000E-01  8.50000000E-01
  8.50000000E-01  8.50000000E-01  8.50000000E-01  8.50000000E-01  8.50000000E-01
  8.50000000E-01  8.50000000E-01  8.50000000E-01  8.50000000E-01  8.50000000E-01
  8.50000000E-01  8.50000000E-01  8.50000000E-01  8.50000000E-01  8.50000000E-01
  8.50000000E-01  8.50000000E-01  8.50000000E-01  8.50000000E-01  8.50000000E-01
  8.50000000E-01  8.50000000E-01  8.50000000E-01  8.50000000E-01  8.50000000E-01
  8.50000000E-01  8.50000000E-01  8.50000000E-01  8.50000000E-01  8.50000000E-01
  8.50000000E-01  8.50000000E-01  8.50000000E-01  8.50000000E-01  8.50000000E-01
  8.50000000E-01  8.50000000E-01  8.50000000E-01  8.50000000E-01  8.50000000E-01
  8.50000000E-01  8.50000000E-01  8.50000000E-01  8.50000000E-01  8.50000000E-01
  8.50000000E-01  8.50000000E-01  8.50000000E-01  8.50000000E-01  8.50000000E-01
  8.50000000E-01  8.50000000E-01  8.50000000E-01  8.50000000E-01  8.50000000E-01
  8.50000000E-01  8.50000000E-01  8.50000000E-01  8.50000000E-01  8.50000000E-01
  8.50000000E-01  8.50000000E-01  8.50000000E-01  8.50000000E-01  8.50000000E-01
  8.50000000E-01  8.50000000E-01  8.50000000E-01  8.50000000E-01  8.50000000E-01
  8.50000000E-01  8.50000000E-01  8.50000000E-01  8.50000000E-01  8.50000000E-01
  8.50000000E-01  8.50000000E-01  8.50000000E-01  8.50000000E-01  8.50000000E-01
  8.50000000E-01  8.50000000E-01  8.50000000E-01  8.50000000E-01  8.50000000E-01
  8.50000000E-01  8.50000000E-01  8.50000000E-01  8.50000000E-01  8.50000000E-01
  8.50000000E-01  8.50000000E-01  8.50000000E-01  8.50000000E-01  8.50000000E-01
  8.50000000E-01  8.50000000E-01  8.50000000E-01  8.50000000E-01  8.50000000E-01
  8.50000000E-01  8.50000000E-01  8.50000000E-01  8.50000000E-01  8.50000000E-01
  8.50000000E-01  8.50000000E-01  8.50000000E-01  8.50000000E-01  8.50000000E-01
  8.50000000E-01  8.50000000E-01  8.50000000E-01  8.50000000E-01  8.50000000E-01
  8.50000000E-01  8.50000000E-01  8.50000000E-01  8.50000000E-01  8.50000000E-01
  8.50000000E-01  8.50000000E-01  8.50000000E-01  8.50000000E-01  8.50000000E-01
  8.50000000E-01  8.50000000E-01  8.50000000E-01  8.50000000E-01  8.50000000E-01
  8.50000000E-01  8.50000000E-01  8.50000000E-01  8.50000000E-01  8.50000000E-01
  8.50000000E-01  8.50000000E-01  8.50000000E-01  8.50000000E-01  8.50000000E-01
  8.50000000E-01  8.50000000E-01  8.50000000E-01  8.50000000E-01  8.50000000E-01
  8.50000000E-01  8.50000000E-01  8.50000000E-01  8.50000000E-01  8.50000000E-01
  8.50000000E-01  8.50000000E-01  8.50000000E-01  8.50000000E-01  8.50000000E-01
  8.50000000E-01  8.50000000E-01  8.50000000E-01  8.50000000E-01  8.50000000E-01
  8.50000000E-01  8.50000000E-01  8.50000000E-01  8.50000000E-01  8.50000000E-01
  8.50000000E-01  8.50000000E-01  8.50000000E-01  8.50000000E-01  8.50000000E-01
  8.50000000E-01  8.50000000E-01  8.50000000E-01  8.50000000E-01  8.50000000E-01
  8.50000000E-01  8.50000000E-01  8.50000000E-01  8.50000000E-01  8.50000000E-01
  8.50000000E-01  8.50000000E-01  8.50000000E-01  8.50000000E-01  8.50000000E-01
  8.50000000E-01  8.50000000E-01  8.50000000E-01  8.50000000E-01  8.50000000E-01
  8.50000000E-01  8.50000000E-01  8.50000000E-01  8.50000000E-01  8.50000000E-01
  8.50000000E-01  8.50000000E-01  8.50000000E-01  8.50000000E-01  8.50000000E-01
  8.50000000E-01  8.50000000E-01  8.50000000E-01  8.50000000E-01  8.50000000E-01
  8.50000000E-01  8.50000000E-01  8.50000000E-01  8.50000000E-01  8.50000000E-01
  8.50000000E-01  8.50000000E-01  8.50000000E-01  8.50000000E-01  8.50000000E-01
  8.50000000E-01  8.50000000E-01  8.50000000E-01  8.50000000E-01  8.50000000E-01
  8.50000000E-01  8.50000000E-01  8.50000000E-01  8.50000000E-01  8.50000000E-01
  8.50000000E-01  8.50000000E-01  8.50000000E-01  8.50000000E-01  8.50000000E-01
  8.50000000E-01  8.50000000E-01  8.50000000E-01  8.50000000E-01  8.50000000E-01
  8.50000000E-01  8.50000000E-01  8.50000000E-01  8.50000000E-01  8.50000000E-01
  8.50000000E-01  8.50000000E-01  8.50000000E-01  8.50000000E-01  8.50000000E-01
  8.50000000E-01  8.50000000E-01  8.50000000E-01  8.50000000E-01  8.50000000E-01
  8.50000000E-01  8.50000000E-01  8.50000000E-01  8.50000000E-01  8.50000000E-01
  8.50000000E-01  8.50000000E-01  8.50000000E-01  8.50000000E-01  8.50000000E-01
  8.50000000E-01  8.50000000E-01  8.50000000E-01  8.50000000E-01  8.50000000E-01
  8.50000000E-01  8.50000000E-01  8.50000000E-01  8.50000000E-01  8.50000000E-01
  8.50000000E-01  8.50000000E-01  8.50000000E-01  8.50000000E-01  8.50000000E-01
  8.50000000E-01  8.50000000E-01  8.50000000E-01  8.50000000E-01  8.50000000E-01
  8.50000000E-01  8.50000000E-01  8.50000000E-01  8.50000000E-01  8.50000000E-01
  8.50000000E-01  8.50000000E-01  8.50000000E-01  8.50000000E-01  8.50000000E-01
  8.50000000E-01  8.50000000E-01  8.50000000E-01  8.50000000E-01  8.50000000E-01
  8.50000000E-01  8.50000000E-01  8.50000000E-01  8.50000000E-01  8.50000000E-01
  8.50000000E-01  8.50000000E-01  8.50000000E-01  8.50000000E-01  8.50000000E-01
  8.50000000E-01  8.50000000E-01  8.50000000E-01  8.50000000E-01  8.50000000E-01
  8.50000000E-01  8.50000000E-01  8.50000000E-01  8.50000000E-01  8.50000000E-01
  8.50000000E-01  8.50000000E-01  8.50000000E-01  8.50000000E-01  8.50000000E-01
  8.50000000E-01  8.50000000E-01  8.50000000E-01  8.50000000E-01  8.50000000E-01
  8.50000000E-01  8.50000000E-01  8.50000000E-01  8.50000000E-01  8.50000000E-01
  8.50000000E-01  8.50000000E-01  8.50000000E-01  8.50000000E-01  8.50000000E-01
  8.50000000E-01  8.50000000E-01  8.50000000E-01  8.50000000E-01  8.50000000E-01
  8.50000000E-01  8.50000000E-01  8.50000000E-01  8.50000000E-01  8.50000000E-01
  8.50000000E-01  8.50000000E-01  8.50000000E-01  8.50000000E-01  8.50000000E-01
  8.50000000E-01  8.50000000E-01  8.50000000E-01  8.50000000E-01  8.50000000E-01
  8.50000000E-01  8.50000000E-01  8.50000000E-01  8.50000000E-01  8.50000000E-01
  8.50000000E-01  8.50000000E-01  8.50000000E-01  8.50000000E-01  8.50000000E-01
  8.50000000E-01  8.50000000E-01  8.50000000E-01  8.50000000E-01  8.50000000E-01
  8.50000000E-01  8.50000000E-01  8.50000000E-01  8.50000000E-01  8.50000000E-01
  8.50000000E-01  8.50000000E-01  8.50000000E-01  8.50000000E-01  8.50000000E-01
  8.50000000E-01  8.50000000E-01  8.50000000E-01  8.50000000E-01  8.50000000E-01
  8.50000000E-01  8.50000000E-01  8.50000000E-01  8.50000000E-01  8.50000000E-01
  8.50000000E-01  8.50000000E-01  8.50000000E-01  8.50000000E-01  8.50000000E-01
  8.50000000E-01  8.50000000E-01  8.50000000E-01  8.50000000E-01  8.50000000E-01
  8.50000000E-01  8.50000000E-01  8.50000000E-01  8.50000000E-01  8.50000000E-01
  8.50000000E-01  8.50000000E-01  8.50000000E-01  8.50000000E-01  8.50000000E-01
  8.50000000E-01  8.50000000E-01  8.50000000E-01  8.50000000E-01  8.50000000E-01
  8.50000000E-01  8.50000000E-01  8.50000000E-01  8.50000000E-01  8.50000000E-01
  8.50000000E-01  8.50000000E-01  8.50000000E-01  8.50000000E-01  8.50000000E-01
  8.50000000E-01  8.50000000E-01  8.50000000E-01  8.50000000E-01  8.50000000E-01
  8.50000000E-01  8.50000000E-01  8.50000000E-01  8.50000000E-01  8.50000000E-01
  8.50000000E-01  8.50000000E-01  8.50000000E-01  8.50000000E-01  8.50000000E-01
  8.50000000E-01  8.50000000E-01  8.50000000E-01  8.50000000E-01  8.50000000E-01
  8.50000000E-01  8.50000000E-01  8.50000000E-01  8.50000000E-01  8.50000000E-01
  8.50000000E-01  8.50000000E-01  8.50000000E-01  8.50000000E-01  8.50000000E-01
  8.50000000E-01  8.50000000E-01  8.50000000E-01  8.50000000E-01  8.50000000E-01
  8.50000000E-01  8.50000000E-01  8.50000000E-01  8.50000000E-01  8.50000000E-01
  8.50000000E-01  8.50000000E-01  8.50000000E-01  8.50000000E-01  8.50000000E-01
  8.50000000E-01  8.50000000E-01  8.50000000E-01  8.50000000E-01  8.50000000E-01
  8.50000000E-01  8.50000000E-01  8.50000000E-01  8.50000000E-01  8.50000000E-01
  8.50000000E-01  8.50000000E-01  8.50000000E-01  8.50000000E-01  8.50000000E-01
  8.50000000E-01  8.50000000E-01  8.50000000E-01  8.50000000E-01  8.50000000E-01
  8.50000000E-01  8.50000000E-01  8.50000000E-01  8.50000000E-01  8.50000000E-01
  8.50000000E-01  8.50000000E-01  8.50000000E-01  8.50000000E-01  8.50000000E-01
  8.50000000E-01  8.50000000E-01  8.50000000E-01  8.50000000E-01  8.50000000E-01
  8.50000000E-01  8.50000000E-01  8.50000000E-01  8.50000000E-01  8.50000000E-01
  8.50000000E-01  8.50000000E-01  8.50000000E-01  8.50000000E-01  8.50000000E-01
  8.50000000E-01  8.50000000E-01  8.50000000E-01  8.50000000E-01  8.50000000E-01
  8.50000000E-01  8.50000000E-01  8.50000000E-01  8.50000000E-01  8.50000000E-01
  8.50000000E-01  8.50000000E-01  8.50000000E-01  8.50000000E-01  8.50000000E-01
  8.50000000E-01  8.50000000E-01  8.50000000E-01  8.50000000E-01  8.50000000E-01
  8.50000000E-01  8.50000000E-01  8.50000000E-01  8.50000000E-01  8.50000000E-01
  8.50000000E-01  8.50000000E-01  8.50000000E-01  8.50000000E-01  8.50000000E-01
  8.50000000E-01  8.50000000E-01  8.50000000E-01  8.50000000E-01  8.50000000E-01
  8.50000000E-01  8.50000000E-01  8.50000000E-01  8.50000000E-01  8.50000000E-01
  8.50000000E-01  8.50000000E-01  8.50000000E-01  8.50000000E-01  8.50000000E-01
  8.50000000E-01  8.50000000E-01  8.50000000E-01  8.50000000E-01  8.50000000E-01
  8.50000000E-01  8.50000000E-01  8.50000000E-01  8.50000000E-01  8.50000000E-01
  8.50000000E-01  8.50000000E-01  8.50000000E-01  8.50000000E-01  8.50000000E-01
  8.50000000E-01  8.50000000E-01  8.50000000E-01  8.50000000E-01  8.50000000E-01
  8.50000000E-01  8.50000000E-01  8.50000000E-01  8.50000000E-01  8.50000000E-01
  8.50000000E-01  8.50000000E-01  8.50000000E-01  8.50000000E-01  8.50000000E-01
  8.50000000E-01  8.50000000E-01  8.50000000E-01  8.50000000E-01  8.50000000E-01
  8.50000000E-01  8.50000000E-01  8.50000000E-01  8.50000000E-01  8.50000000E-01
  8.50000000E-01  8.50000000E-01  8.50000000E-01  8.50000000E-01  8.50000000E-01
  8.50000000E-01  8.50000000E-01  8.50000000E-01  8.50000000E-01  8.50000000E-01
  8.50000000E-01  8.50000000E-01  8.50000000E-01  8.50000000E-01  8.50000000E-01
  8.50000000E-01  8.50000000E-01  8.50000000E-01  8.50000000E-01  8.50000000E-01
  8.50000000E-01  8.50000000E-01  8.50000000E-01  8.50000000E-01  8.50000000E-01
  8.50000000E-01  8.50000000E-01  8.50000000E-01  8.50000000E-01  8.50000000E-01
  8.50000000E-01  8.50000000E-01  8.50000000E-01  8.50000000E-01  8.50000000E-01
  8.50000000E-01  8.50000000E-01  8.50000000E-01  8.50000000E-01  8.50000000E-01
  8.50000000E-01  8.50000000E-01  8.50000000E-01  8.50000000E-01  8.50000000E-01
  8.50000000E-01  8.50000000E-01  8.50000000E-01  8.50000000E-01  8.50000000E-01
  8.50000000E-01  8.50000000E-01  8.50000000E-01  8.50000000E-01  8.50000000E-01
  8.50000000E-01  8.50000000E-01  8.50000000E-01  8.50000000E-01  8.50000000E-01
  8.50000000E-01  8.50000000E-01  8.50000000E-01  8.50000000E-01  8.50000000E-01
  8.50000000E-01  8.50000000E-01  8.50000000E-01  8.50000000E-01  8.50000000E-01
  8.50000000E-01  8.50000000E-01  8.50000000E-01  8.50000000E-01  8.50000000E-01
  8.50000000E-01  8.50000000E-01  8.50000000E-01  8.50000000E-01  8.50000000E-01
  8.50000000E-01  8.50000000E-01  8.50000000E-01  8.50000000E-01  8.50000000E-01
  8.50000000E-01  8.50000000E-01  8.50000000E-01  8.50000000E-01  8.50000000E-01
  8.50000000E-01  8.50000000E-01  8.50000000E-01  8.50000000E-01  8.50000000E-01
  8.50000000E-01  8.50000000E-01  8.50000000E-01  8.50000000E-01  8.50000000E-01
  8.50000000E-01  8.50000000E-01  8.50000000E-01  8.50000000E-01  8.50000000E-01
  8.50000000E-01  8.50000000E-01  8.50000000E-01  8.50000000E-01  8.50000000E-01
  8.50000000E-01  8.50000000E-01  8.50000000E-01  8.50000000E-01  8.50000000E-01
  8.50000000E-01  8.50000000E-01  8.50000000E-01  8.50000000E-01  8.50000000E-01
  8.50000000E-01  8.50000000E-01  8.50000000E-01  8.50000000E-01  8.50000000E-01
  8.50000000E-01  8.50000000E-01  8.50000000E-01  8.50000000E-01  8.50000000E-01
  8.50000000E-01  8.50000000E-01  8.50000000E-01  8.50000000E-01  8.50000000E-01
  8.50000000E-01  8.50000000E-01  8.50000000E-01  8.50000000E-01  8.50000000E-01
  8.50000000E-01  8.50000000E-01  8.50000000E-01  8.50000000E-01  8.50000000E-01
  8.50000000E-01  8.50000000E-01  8.50000000E-01  8.50000000E-01  8.50000000E-01
  8.50000000E-01  8.50000000E-01  8.50000000E-01  8.50000000E-01  8.50000000E-01
  8.50000000E-01  8.50000000E-01  8.50000000E-01  8.50000000E-01  8.50000000E-01
  8.50000000E-01  8.50000000E-01  8.50000000E-01  8.50000000E-01  8.50000000E-01
  8.50000000E-01  8.50000000E-01  8.50000000E-01  8.50000000E-01  8.50000000E-01
  8.50000000E-01  8.50000000E-01  8.50000000E-01  8.50000000E-01  8.50000000E-01
  8.50000000E-01  8.50000000E-01  8.50000000E-01  8.50000000E-01  8.50000000E-01
  8.50000000E-01  8.50000000E-01  8.50000000E-01  8.50000000E-01  8.50000000E-01
  8.50000000E-01  8.50000000E-01  8.50000000E-01  8.50000000E-01  8.50000000E-01
  8.50000000E-01  8.50000000E-01  8.50000000E-01  8.50000000E-01  8.50000000E-01
  8.50000000E-01  8.50000000E-01  8.50000000E-01  8.50000000E-01  8.50000000E-01
  8.50000000E-01  8.50000000E-01  8.50000000E-01  8.50000000E-01  8.50000000E-01
  8.50000000E-01  8.50000000E-01  8.50000000E-01  8.50000000E-01  8.50000000E-01
  8.50000000E-01  8.50000000E-01  8.50000000E-01  8.50000000E-01  8.50000000E-01
  8.50000000E-01  8.50000000E-01  8.50000000E-01  8.50000000E-01  8.50000000E-01
  8.50000000E-01  8.50000000E-01  8.50000000E-01  8.50000000E-01  8.50000000E-01
  8.50000000E-01  8.50000000E-01  8.50000000E-01  8.50000000E-01  8.50000000E-01
  8.50000000E-01  8.50000000E-01  8.50000000E-01  8.50000000E-01  8.50000000E-01
  8.50000000E-01  8.50000000E-01  8.50000000E-01  8.50000000E-01  8.50000000E-01
  8.50000000E-01  8.50000000E-01  8.50000000E-01  8.50000000E-01  8.50000000E-01
  8.50000000E-01  8.50000000E-01  8.50000000E-01  8.50000000E-01  8.50000000E-01
  8.50000000E-01  8.50000000E-01  8.50000000E-01  8.50000000E-01  8.50000000E-01
  8.50000000E-01  8.50000000E-01  8.50000000E-01  8.50000000E-01  8.50000000E-01
  8.50000000E-01  8.50000000E-01  8.50000000E-01  8.50000000E-01  8.50000000E-01
  8.50000000E-01  8.50000000E-01  8.50000000E-01  8.50000000E-01  8.50000000E-01
  8.50000000E-01  8.50000000E-01  8.50000000E-01  8.50000000E-01  8.50000000E-01
  8.50000000E-01  8.50000000E-01  8.50000000E-01  8.50000000E-01  8.50000000E-01
  8.50000000E-01  8.50000000E-01  8.50000000E-01  8.50000000E-01  8.50000000E-01
  8.50000000E-01  8.50000000E-01  8.50000000E-01  8.50000000E-01  8.50000000E-01
  8.50000000E-01  8.50000000E-01  8.50000000E-01  8.50000000E-01  8.50000000E-01
  8.50000000E-01  8.50000000E-01  8.50000000E-01  8.50000000E-01  8.50000000E-01
  8.50000000E-01  8.50000000E-01  8.50000000E-01  8.50000000E-01  8.50000000E-01
  8.50000000E-01  8.50000000E-01  8.50000000E-01  8.50000000E-01  8.50000000E-01
  8.50000000E-01  8.50000000E-01  8.50000000E-01  8.50000000E-01  8.50000000E-01
  8.50000000E-01  8.50000000E-01  8.50000000E-01  8.50000000E-01  8.50000000E-01
  8.50000000E-01  8.50000000E-01  8.50000000E-01  8.50000000E-01  8.50000000E-01
  8.50000000E-01  8.50000000E-01  8.50000000E-01  8.50000000E-01  8.50000000E-01
  8.50000000E-01  8.50000000E-01  8.50000000E-01  8.50000000E-01  8.50000000E-01
  8.50000000E-01  8.50000000E-01  8.50000000E-01  8.50000000E-01  8.50000000E-01
  8.50000000E-01  8.50000000E-01  8.50000000E-01  8.50000000E-01  8.50000000E-01
  8.50000000E-01  8.50000000E-01  8.50000000E-01  8.50000000E-01  8.50000000E-01
  8.50000000E-01  8.50000000E-01  8.50000000E-01  8.50000000E-01  8.50000000E-01
  8.50000000E-01  8.50000000E-01  8.50000000E-01  8.50000000E-01  8.50000000E-01
  8.50000000E-01  8.50000000E-01  8.50000000E-01  8.50000000E-01  8.50000000E-01
  8.50000000E-01  8.50000000E-01  8.50000000E-01  8.50000000E-01  8.50000000E-01
  8.50000000E-01  8.50000000E-01  8.50000000E-01  8.50000000E-01  8.50000000E-01
  8.50000000E-01  8.50000000E-01  8.50000000E-01  8.50000000E-01  8.50000000E-01
  8.50000000E-01  8.50000000E-01  8.50000000E-01  8.50000000E-01  8.50000000E-01
  8.50000000E-01  8.50000000E-01  8.50000000E-01  8.50000000E-01  8.50000000E-01
  8.50000000E-01  8.50000000E-01  8.50000000E-01  8.50000000E-01  8.50000000E-01
  8.50000000E-01  8.50000000E-01  8.50000000E-01  8.50000000E-01  8.50000000E-01
  8.50000000E-01  8.50000000E-01  8.50000000E-01  8.50000000E-01  8.50000000E-01
  8.50000000E-01  8.50000000E-01  8.50000000E-01  8.50000000E-01  8.50000000E-01
  8.50000000E-01  8.50000000E-01  8.50000000E-01  8.50000000E-01  8.50000000E-01
  8.50000000E-01  8.50000000E-01  8.50000000E-01  8.50000000E-01  8.50000000E-01
  8.50000000E-01  8.50000000E-01  8.50000000E-01  8.50000000E-01  8.50000000E-01
  8.50000000E-01  8.50000000E-01  8.50000000E-01  8.50000000E-01  8.50000000E-01
  8.50000000E-01  8.50000000E-01  8.50000000E-01  8.50000000E-01  8.50000000E-01
  8.50000000E-01  8.50000000E-01  8.50000000E-01  8.50000000E-01  8.50000000E-01
  8.50000000E-01  8.50000000E-01  8.50000000E-01  8.50000000E-01  8.50000000E-01
  8.50000000E-01  8.50000000E-01  8.50000000E-01  8.50000000E-01  8.50000000E-01
  8.50000000E-01  8.50000000E-01  8.50000000E-01  8.50000000E-01  8.50000000E-01
  8.50000000E-01  8.50000000E-01  8.50000000E-01  8.50000000E-01  8.50000000E-01
  8.50000000E-01  8.50000000E-01  8.50000000E-01  8.50000000E-01  8.50000000E-01
  8.50000000E-01  8.50000000E-01  8.50000000E-01  8.50000000E-01  8.50000000E-01
  8.50000000E-01  8.50000000E-01  8.50000000E-01  8.50000000E-01  8.50000000E-01
  8.50000000E-01  8.50000000E-01  8.50000000E-01  8.50000000E-01  8.50000000E-01
  8.50000000E-01  8.50000000E-01  8.50000000E-01  8.50000000E-01  8.50000000E-01
  8.50000000E-01  8.50000000E-01  8.50000000E-01  8.50000000E-01  8.50000000E-01
  8.50000000E-01  8.50000000E-01  8.50000000E-01  8.50000000E-01  8.50000000E-01
  8.50000000E-01  8.50000000E-01  8.50000000E-01  8.50000000E-01  8.50000000E-01
  8.50000000E-01  8.50000000E-01  8.50000000E-01  8.50000000E-01  8.50000000E-01
  8.50000000E-01  8.50000000E-01  8.50000000E-01  8.50000000E-01  8.50000000E-01
  8.50000000E-01  8.50000000E-01  8.50000000E-01  8.50000000E-01  8.50000000E-01
  8.50000000E-01  8.50000000E-01  8.50000000E-01  8.50000000E-01  8.50000000E-01
  8.50000000E-01  8.50000000E-01  8.50000000E-01  8.50000000E-01  8.50000000E-01
  8.50000000E-01  8.50000000E-01  8.50000000E-01  8.50000000E-01  8.50000000E-01
  8.50000000E-01  8.50000000E-01  8.50000000E-01  8.50000000E-01  8.50000000E-01
  8.50000000E-01  8.50000000E-01  8.50000000E-01  8.50000000E-01  8.50000000E-01
  8.50000000E-01  8.50000000E-01  8.50000000E-01  8.50000000E-01  8.50000000E-01
  8.50000000E-01  8.50000000E-01  8.50000000E-01  8.50000000E-01  8.50000000E-01
  8.50000000E-01  8.50000000E-01  8.50000000E-01  8.50000000E-01  8.50000000E-01
  8.50000000E-01  8.50000000E-01  8.50000000E-01  8.50000000E-01  8.50000000E-01
  8.50000000E-01  8.50000000E-01  8.50000000E-01  8.50000000E-01  8.50000000E-01
  8.50000000E-01  8.50000000E-01  8.50000000E-01  8.50000000E-01  8.50000000E-01
  8.50000000E-01  8.50000000E-01  8.50000000E-01  8.50000000E-01  8.50000000E-01
  8.50000000E-01  8.50000000E-01  8.50000000E-01  8.50000000E-01  8.50000000E-01
  8.50000000E-01  8.50000000E-01  8.50000000E-01  8.50000000E-01  8.50000000E-01
  8.50000000E-01  8.50000000E-01  8.50000000E-01  8.50000000E-01  8.50000000E-01
  8.50000000E-01  8.50000000E-01  8.50000000E-01  8.50000000E-01  8.50000000E-01
  8.50000000E-01  8.50000000E-01  8.50000000E-01  8.50000000E-01  8.50000000E-01
  8.50000000E-01  8.50000000E-01  8.50000000E-01  8.50000000E-01  8.50000000E-01
  8.50000000E-01  8.50000000E-01  8.50000000E-01  8.50000000E-01  8.50000000E-01
  8.50000000E-01  8.50000000E-01  8.50000000E-01  8.50000000E-01  8.50000000E-01
  8.50000000E-01  8.50000000E-01  8.50000000E-01  8.50000000E-01  8.50000000E-01
  8.50000000E-01  8.50000000E-01  8.50000000E-01  8.50000000E-01  8.50000000E-01
  8.50000000E-01  8.50000000E-01  8.50000000E-01  8.50000000E-01  8.50000000E-01
  8.50000000E-01  8.50000000E-01  8.50000000E-01  8.50000000E-01  8.50000000E-01
  8.50000000E-01  8.50000000E-01  8.50000000E-01  8.50000000E-01  8.50000000E-01
  8.50000000E-01  8.50000000E-01  8.50000000E-01  8.50000000E-01  8.50000000E-01
  8.50000000E-01  8.50000000E-01  8.50000000E-01  8.50000000E-01  8.50000000E-01
  8.50000000E-01  8.50000000E-01  8.50000000E-01  8.50000000E-01  8.50000000E-01
  8.50000000E-01  8.50000000E-01  8.50000000E-01  8.50000000E-01  8.50000000E-01
  8.50000000E-01  8.50000000E-01  8.50000000E-01  8.50000000E-01  8.50000000E-01
  8.50000000E-01  8.50000000E-01  8.50000000E-01  8.50000000E-01  8.50000000E-01
  8.50000000E-01  8.50000000E-01  8.50000000E-01  8.50000000E-01  8.50000000E-01
  8.50000000E-01  8.50000000E-01  8.50000000E-01  8.50000000E-01  8.50000000E-01
  8.50000000E-01  8.50000000E-01  8.50000000E-01  8.50000000E-01  8.50000000E-01
  8.50000000E-01  8.50000000E-01  8.50000000E-01  8.50000000E-01  8.50000000E-01
  8.50000000E-01  8.50000000E-01  8.50000000E-01  8.50000000E-01  8.50000000E-01
  8.50000000E-01  8.50000000E-01  8.50000000E-01  8.50000000E-01  8.50000000E-01
  8.50000000E-01  8.50000000E-01  8.50000000E-01  8.50000000E-01  8.50000000E-01
  8.50000000E-01  8.50000000E-01  8.50000000E-01  8.50000000E-01  8.50000000E-01
  8.50000000E-01  8.50000000E-01  8.50000000E-01  8.50000000E-01  8.50000000E-01
  8.50000000E-01  8.50000000E-01  8.50000000E-01  8.50000000E-01  8.50000000E-01
  8.50000000E-01  8.50000000E-01  8.50000000E-01  8.50000000E-01  8.50000000E-01
  8.50000000E-01  8.50000000E-01  8.50000000E-01  8.50000000E-01  8.50000000E-01
  8.50000000E-01  8.50000000E-01  8.50000000E-01  8.50000000E-01  8.50000000E-01
  8.50000000E-01  8.50000000E-01  8.50000000E-01  8.50000000E-01  8.50000000E-01
  8.50000000E-01  8.50000000E-01  8.50000000E-01  8.50000000E-01  8.50000000E-01
  8.50000000E-01  8.50000000E-01  8.50000000E-01  8.50000000E-01  8.50000000E-01
  8.50000000E-01  8.50000000E-01  8.50000000E-01  8.50000000E-01  8.50000000E-01
  8.50000000E-01  8.50000000E-01  8.50000000E-01  8.50000000E-01  8.50000000E-01
  8.50000000E-01  8.50000000E-01  8.50000000E-01  8.50000000E-01  8.50000000E-01
  8.50000000E-01  8.50000000E-01  8.50000000E-01  8.50000000E-01  8.50000000E-01
  8.50000000E-01  8.50000000E-01  8.50000000E-01  8.50000000E-01  8.50000000E-01
  8.50000000E-01  8.50000000E-01  8.50000000E-01  8.50000000E-01  8.50000000E-01
  8.50000000E-01  8.50000000E-01  8.50000000E-01  8.50000000E-01  8.50000000E-01
  8.50000000E-01  8.50000000E-01  8.50000000E-01  8.50000000E-01  8.50000000E-01
  8.50000000E-01  8.50000000E-01  8.50000000E-01  8.50000000E-01  8.50000000E-01
  8.50000000E-01  8.50000000E-01  8.50000000E-01  8.50000000E-01  8.50000000E-01
  8.50000000E-01  8.50000000E-01  8.50000000E-01  8.50000000E-01  8.50000000E-01
  8.50000000E-01  8.50000000E-01  8.50000000E-01  8.50000000E-01  8.50000000E-01
  8.50000000E-01  8.50000000E-01  8.50000000E-01  8.50000000E-01  8.50000000E-01
  8.50000000E-01  8.50000000E-01  8.50000000E-01  8.50000000E-01  8.50000000E-01
  8.50000000E-01  8.50000000E-01  8.50000000E-01  8.50000000E-01  8.50000000E-01
  8.50000000E-01  8.50000000E-01  8.50000000E-01  8.50000000E-01  8.50000000E-01
  8.50000000E-01  8.50000000E-01  8.50000000E-01  8.50000000E-01  8.50000000E-01
  8.50000000E-01  8.50000000E-01  8.50000000E-01  8.50000000E-01  8.50000000E-01
  8.50000000E-01  8.50000000E-01  8.50000000E-01  8.50000000E-01  8.50000000E-01
  8.50000000E-01  8.50000000E-01  8.50000000E-01  8.50000000E-01  8.50000000E-01
  8.50000000E-01  8.50000000E-01  8.50000000E-01  8.50000000E-01  8.50000000E-01
  8.50000000E-01  8.50000000E-01  8.50000000E-01  8.50000000E-01  8.50000000E-01
  8.50000000E-01  8.50000000E-01  8.50000000E-01  8.50000000E-01  8.50000000E-01
  8.50000000E-01  8.50000000E-01  8.50000000E-01  8.50000000E-01  8.50000000E-01
  8.50000000E-01  8.50000000E-01  8.50000000E-01  8.50000000E-01  8.50000000E-01
  8.50000000E-01  8.50000000E-01  8.50000000E-01  8.50000000E-01  8.50000000E-01
  8.50000000E-01  8.50000000E-01  8.50000000E-01  8.50000000E-01  8.50000000E-01
  8.50000000E-01  8.50000000E-01  8.50000000E-01  8.50000000E-01  8.50000000E-01
  8.50000000E-01  8.50000000E-01  8.50000000E-01  8.50000000E-01  8.50000000E-01
  8.50000000E-01  8.50000000E-01  8.50000000E-01  8.50000000E-01  8.50000000E-01
  8.50000000E-01  8.50000000E-01  8.50000000E-01  8.50000000E-01  8.50000000E-01
  8.50000000E-01  8.50000000E-01  8.50000000E-01  8.50000000E-01  8.50000000E-01
  8.50000000E-01  8.50000000E-01  8.50000000E-01  8.50000000E-01  8.50000000E-01
  8.50000000E-01  8.50000000E-01  8.50000000E-01  8.50000000E-01  8.50000000E-01
  8.50000000E-01  8.50000000E-01  8.50000000E-01  8.50000000E-01  8.50000000E-01
  8.50000000E-01  8.50000000E-01  8.50000000E-01  8.50000000E-01  8.50000000E-01
  8.50000000E-01  8.50000000E-01  8.50000000E-01  8.50000000E-01  8.50000000E-01
  8.50000000E-01  8.50000000E-01  8.50000000E-01  8.50000000E-01  8.50000000E-01
  8.50000000E-01  8.50000000E-01  8.50000000E-01  8.50000000E-01  8.50000000E-01
  8.50000000E-01  8.50000000E-01  8.50000000E-01  8.50000000E-01  8.50000000E-01
  8.50000000E-01  8.50000000E-01  8.50000000E-01  8.50000000E-01  8.50000000E-01
  8.50000000E-01  8.50000000E-01  8.50000000E-01  8.50000000E-01  8.50000000E-01
  8.50000000E-01  8.50000000E-01  8.50000000E-01  8.50000000E-01  8.50000000E-01
  8.50000000E-01  8.50000000E-01  8.50000000E-01  8.50000000E-01  8.50000000E-01
  8.50000000E-01  8.50000000E-01  8.50000000E-01  8.50000000E-01  8.50000000E-01
  8.50000000E-01  8.50000000E-01  8.50000000E-01  8.50000000E-01  8.50000000E-01
  8.50000000E-01  8.50000000E-01  8.50000000E-01  8.50000000E-01  8.50000000E-01
  8.50000000E-01  8.50000000E-01  8.50000000E-01  8.50000000E-01  8.50000000E-01
  8.50000000E-01  8.50000000E-01  8.50000000E-01  8.50000000E-01  8.50000000E-01
  8.50000000E-01  8.50000000E-01  8.50000000E-01  8.50000000E-01  8.50000000E-01
  8.50000000E-01  8.50000000E-01  8.50000000E-01  8.50000000E-01  8.50000000E-01
  8.50000000E-01  8.50000000E-01  8.50000000E-01  8.50000000E-01  8.50000000E-01
  8.50000000E-01  8.50000000E-01  8.50000000E-01  8.50000000E-01  8.50000000E-01
  8.50000000E-01  8.50000000E-01  8.50000000E-01  8.50000000E-01  8.50000000E-01
  8.50000000E-01  8.50000000E-01  8.50000000E-01  8.50000000E-01  8.50000000E-01
  8.50000000E-01  8.50000000E-01  8.50000000E-01  8.50000000E-01  8.50000000E-01
  8.50000000E-01  8.50000000E-01  8.50000000E-01  8.50000000E-01  8.50000000E-01
  8.50000000E-01  8.50000000E-01  8.50000000E-01  8.50000000E-01  8.50000000E-01
  8.50000000E-01  8.50000000E-01  8.50000000E-01  8.50000000E-01  8.50000000E-01
  8.50000000E-01  8.50000000E-01  8.50000000E-01  8.50000000E-01  8.50000000E-01
  8.50000000E-01  8.50000000E-01  8.50000000E-01  8.50000000E-01  8.50000000E-01
  8.50000000E-01  8.50000000E-01  8.50000000E-01  8.50000000E-01  8.50000000E-01
  8.50000000E-01  8.50000000E-01  8.50000000E-01  8.50000000E-01  8.50000000E-01
  8.50000000E-01  8.50000000E-01  8.50000000E-01  8.50000000E-01  8.50000000E-01
  8.50000000E-01  8.50000000E-01  8.50000000E-01  8.50000000E-01  8.50000000E-01
  8.50000000E-01  8.50000000E-01  8.50000000E-01  8.50000000E-01  8.50000000E-01
  8.50000000E-01  8.50000000E-01  8.50000000E-01  8.50000000E-01  8.50000000E-01
  8.50000000E-01  8.50000000E-01  8.50000000E-01  8.50000000E-01  8.50000000E-01
  8.50000000E-01  8.50000000E-01  8.50000000E-01  8.50000000E-01  8.50000000E-01
  8.50000000E-01  8.50000000E-01  8.50000000E-01  8.50000000E-01  8.50000000E-01
  8.50000000E-01  8.50000000E-01  8.50000000E-01  8.50000000E-01  8.50000000E-01
  8.50000000E-01  8.50000000E-01  8.50000000E-01  8.50000000E-01  8.50000000E-01
  8.50000000E-01  8.50000000E-01  8.50000000E-01  8.50000000E-01  8.50000000E-01
  8.50000000E-01  8.50000000E-01  8.50000000E-01  8.50000000E-01  8.50000000E-01
  8.50000000E-01  8.50000000E-01  8.50000000E-01  8.50000000E-01  8.50000000E-01
  8.50000000E-01  8.50000000E-01  8.50000000E-01  8.50000000E-01  8.50000000E-01
  8.50000000E-01  8.50000000E-01  8.50000000E-01  8.50000000E-01  8.50000000E-01
  8.50000000E-01  8.50000000E-01  8.50000000E-01  8.50000000E-01  8.50000000E-01
  8.50000000E-01  8.50000000E-01  8.50000000E-01  8.50000000E-01  8.50000000E-01
  8.50000000E-01  8.50000000E-01  8.50000000E-01  8.50000000E-01  8.50000000E-01
  8.50000000E-01  8.50000000E-01  8.50000000E-01  8.50000000E-01  8.50000000E-01
  8.50000000E-01  8.50000000E-01  8.50000000E-01  8.50000000E-01  8.50000000E-01
  8.50000000E-01  8.50000000E-01  8.50000000E-01  8.50000000E-01  8.50000000E-01
  8.50000000E-01  8.50000000E-01  8.50000000E-01  8.50000000E-01  8.50000000E-01
  8.50000000E-01  8.50000000E-01  8.50000000E-01  8.50000000E-01  8.50000000E-01
  8.50000000E-01  8.50000000E-01  8.50000000E-01  8.50000000E-01  8.50000000E-01
  8.50000000E-01  8.50000000E-01  8.50000000E-01  8.50000000E-01  8.50000000E-01
  8.50000000E-01  8.50000000E-01  8.50000000E-01  8.50000000E-01  8.50000000E-01
  8.50000000E-01  8.50000000E-01  8.50000000E-01  8.50000000E-01  8.50000000E-01
  8.50000000E-01  8.50000000E-01  8.50000000E-01  8.50000000E-01  8.50000000E-01
  8.50000000E-01  8.50000000E-01  8.50000000E-01  8.50000000E-01  8.50000000E-01
  8.50000000E-01  8.50000000E-01  8.50000000E-01  8.50000000E-01  8.50000000E-01
  8.50000000E-01  8.50000000E-01  8.50000000E-01  8.50000000E-01  8.50000000E-01
  8.50000000E-01  8.50000000E-01  8.50000000E-01  8.50000000E-01  8.50000000E-01
  8.50000000E-01  8.50000000E-01  8.50000000E-01  8.50000000E-01  8.50000000E-01
  8.50000000E-01  8.50000000E-01  8.50000000E-01  8.50000000E-01  8.50000000E-01
  8.50000000E-01  8.50000000E-01  8.50000000E-01  8.50000000E-01  8.50000000E-01
  8.50000000E-01  8.50000000E-01  8.50000000E-01  8.50000000E-01  8.50000000E-01
  8.50000000E-01  8.50000000E-01  8.50000000E-01  8.50000000E-01  8.50000000E-01
  8.50000000E-01  8.50000000E-01  8.50000000E-01  8.50000000E-01  8.50000000E-01
  8.50000000E-01  8.50000000E-01  8.50000000E-01  8.50000000E-01  8.50000000E-01
  8.50000000E-01  8.50000000E-01  8.50000000E-01  8.50000000E-01  8.50000000E-01
  8.50000000E-01  8.50000000E-01  8.50000000E-01  8.50000000E-01  8.50000000E-01
  8.50000000E-01  8.50000000E-01  8.50000000E-01  8.50000000E-01  8.50000000E-01
  8.50000000E-01  8.50000000E-01  8.50000000E-01  8.50000000E-01  8.50000000E-01
  8.50000000E-01  8.50000000E-01  8.50000000E-01  8.50000000E-01  8.50000000E-01
  8.50000000E-01  8.50000000E-01  8.50000000E-01  8.50000000E-01  8.50000000E-01
  8.50000000E-01  8.50000000E-01  8.50000000E-01  8.50000000E-01  8.50000000E-01
  8.50000000E-01  8.50000000E-01  8.50000000E-01  8.50000000E-01  8.50000000E-01
  8.50000000E-01  8.50000000E-01  8.50000000E-01  8.50000000E-01  8.50000000E-01
  8.50000000E-01  8.50000000E-01  8.50000000E-01  8.50000000E-01  8.50000000E-01
  8.50000000E-01  8.50000000E-01  8.50000000E-01  8.50000000E-01  8.50000000E-01
  8.50000000E-01  8.50000000E-01  8.50000000E-01  8.50000000E-01  8.50000000E-01
  8.50000000E-01  8.50000000E-01  8.50000000E-01  8.50000000E-01  8.50000000E-01
  8.50000000E-01  8.50000000E-01  8.50000000E-01  8.50000000E-01  8.50000000E-01
  8.50000000E-01  8.50000000E-01  8.50000000E-01  8.50000000E-01  8.50000000E-01
  8.50000000E-01  8.50000000E-01  8.50000000E-01  8.50000000E-01  8.50000000E-01
  8.50000000E-01  8.50000000E-01  8.50000000E-01  8.50000000E-01  8.50000000E-01
  8.50000000E-01  8.50000000E-01  8.50000000E-01  8.50000000E-01  8.50000000E-01
  8.50000000E-01  8.50000000E-01  8.50000000E-01  8.50000000E-01  8.50000000E-01
  8.50000000E-01  8.50000000E-01  8.50000000E-01  8.50000000E-01  8.50000000E-01
  8.50000000E-01  8.50000000E-01  8.50000000E-01  8.50000000E-01  8.50000000E-01
  8.50000000E-01  8.50000000E-01  8.50000000E-01  8.50000000E-01  8.50000000E-01
  8.50000000E-01  8.50000000E-01  8.50000000E-01  8.50000000E-01  8.50000000E-01
  8.50000000E-01  8.50000000E-01  8.50000000E-01  8.50000000E-01  8.50000000E-01
  8.50000000E-01  8.50000000E-01  8.50000000E-01  8.50000000E-01  8.50000000E-01
  8.50000000E-01  8.50000000E-01  8.50000000E-01  8.50000000E-01  8.50000000E-01
  8.50000000E-01  8.50000000E-01  8.50000000E-01  8.50000000E-01  8.50000000E-01
  8.50000000E-01  8.50000000E-01  8.50000000E-01  8.50000000E-01  8.50000000E-01
  8.50000000E-01  8.50000000E-01  8.50000000E-01  8.50000000E-01  8.50000000E-01
  8.50000000E-01  8.50000000E-01  8.50000000E-01  8.50000000E-01  8.50000000E-01
  8.50000000E-01  8.50000000E-01  8.50000000E-01  8.50000000E-01  8.50000000E-01
  8.50000000E-01  8.50000000E-01  8.50000000E-01  8.50000000E-01  8.50000000E-01
  8.50000000E-01  8.50000000E-01  8.50000000E-01  8.50000000E-01  8.50000000E-01
  8.50000000E-01  8.50000000E-01  8.50000000E-01  8.50000000E-01  8.50000000E-01
  8.50000000E-01  8.50000000E-01  8.50000000E-01  8.50000000E-01  8.50000000E-01
  8.50000000E-01  8.50000000E-01  8.50000000E-01  8.50000000E-01  8.50000000E-01
  8.50000000E-01  8.50000000E-01  8.50000000E-01  8.50000000E-01  8.50000000E-01
  8.50000000E-01  8.50000000E-01  8.50000000E-01  8.50000000E-01  8.50000000E-01
  8.50000000E-01  8.50000000E-01  8.50000000E-01  8.50000000E-01  8.50000000E-01
  8.50000000E-01  8.50000000E-01  8.50000000E-01  8.50000000E-01  8.50000000E-01
  8.50000000E-01  8.50000000E-01  8.50000000E-01  8.50000000E-01  8.50000000E-01
  8.50000000E-01  8.50000000E-01  8.50000000E-01  8.50000000E-01  8.50000000E-01
  8.50000000E-01  8.50000000E-01  8.50000000E-01  8.50000000E-01  8.50000000E-01
  8.50000000E-01  8.50000000E-01  8.50000000E-01  8.50000000E-01  8.50000000E-01
  8.50000000E-01  8.50000000E-01  8.50000000E-01  8.50000000E-01  8.50000000E-01
  8.50000000E-01  8.50000000E-01  8.50000000E-01  8.50000000E-01  8.50000000E-01
  8.50000000E-01  8.50000000E-01  8.50000000E-01  8.50000000E-01  8.50000000E-01
  8.50000000E-01  8.50000000E-01  8.50000000E-01  8.50000000E-01  8.50000000E-01
  8.50000000E-01  8.50000000E-01  8.50000000E-01  8.50000000E-01  8.50000000E-01
  8.50000000E-01  8.50000000E-01  8.50000000E-01  8.50000000E-01  8.50000000E-01
  8.50000000E-01  8.50000000E-01  8.50000000E-01  8.50000000E-01  8.50000000E-01
  8.50000000E-01  8.50000000E-01  8.50000000E-01  8.50000000E-01  8.50000000E-01
  8.50000000E-01  8.50000000E-01  8.50000000E-01  8.50000000E-01  8.50000000E-01
  8.50000000E-01  8.50000000E-01  8.50000000E-01  8.50000000E-01  8.50000000E-01
  8.50000000E-01  8.50000000E-01  8.50000000E-01  8.50000000E-01  8.50000000E-01
  8.50000000E-01  8.50000000E-01  8.50000000E-01  8.50000000E-01  8.50000000E-01
  8.50000000E-01  8.50000000E-01  8.50000000E-01  8.50000000E-01  8.50000000E-01
  8.50000000E-01  8.50000000E-01  8.50000000E-01  8.50000000E-01  8.50000000E-01
  8.50000000E-01  8.50000000E-01  8.50000000E-01  8.50000000E-01  8.50000000E-01
  8.50000000E-01  8.50000000E-01  8.50000000E-01  8.50000000E-01  8.50000000E-01
  8.50000000E-01  8.50000000E-01  8.50000000E-01  8.50000000E-01  8.50000000E-01
  8.50000000E-01  8.50000000E-01  8.50000000E-01  8.50000000E-01  8.50000000E-01
  8.50000000E-01  8.50000000E-01  8.50000000E-01  8.50000000E-01  8.50000000E-01
  8.50000000E-01  8.50000000E-01  8.50000000E-01  8.50000000E-01  8.50000000E-01
  8.50000000E-01  8.50000000E-01  8.50000000E-01  8.50000000E-01  8.50000000E-01
  8.50000000E-01  8.50000000E-01  8.50000000E-01  8.50000000E-01  8.50000000E-01
  8.50000000E-01  8.50000000E-01  8.50000000E-01  8.50000000E-01  8.50000000E-01
  8.50000000E-01  8.50000000E-01  8.50000000E-01  8.50000000E-01  8.50000000E-01
  8.50000000E-01  8.50000000E-01  8.50000000E-01  8.50000000E-01  8.50000000E-01
  8.50000000E-01  8.50000000E-01  8.50000000E-01  8.50000000E-01  8.50000000E-01
  8.50000000E-01  8.50000000E-01  8.50000000E-01  8.50000000E-01  8.50000000E-01
  8.50000000E-01  8.50000000E-01  8.50000000E-01  8.50000000E-01  8.50000000E-01
  8.50000000E-01  8.50000000E-01  8.50000000E-01  8.50000000E-01  8.50000000E-01
  8.50000000E-01  8.50000000E-01  8.50000000E-01  8.50000000E-01  8.50000000E-01
  8.50000000E-01  8.50000000E-01  8.50000000E-01  8.50000000E-01  8.50000000E-01
  8.50000000E-01  8.50000000E-01  8.50000000E-01  8.50000000E-01  8.50000000E-01
  8.50000000E-01  8.50000000E-01  8.50000000E-01  8.50000000E-01  8.50000000E-01
  8.50000000E-01  8.50000000E-01  8.50000000E-01  8.50000000E-01  8.50000000E-01
  8.50000000E-01  8.50000000E-01  8.50000000E-01  8.50000000E-01  8.50000000E-01
  8.50000000E-01  8.50000000E-01  8.50000000E-01  8.50000000E-01  8.50000000E-01
  8.50000000E-01  8.50000000E-01  8.50000000E-01  8.50000000E-01  8.50000000E-01
  8.50000000E-01  8.50000000E-01  8.50000000E-01  8.50000000E-01  8.50000000E-01
  8.50000000E-01  8.50000000E-01  8.50000000E-01  8.50000000E-01  8.50000000E-01
  8.50000000E-01  8.50000000E-01  8.50000000E-01  8.50000000E-01  8.50000000E-01
  8.50000000E-01  8.50000000E-01  8.50000000E-01  8.50000000E-01  8.50000000E-01
  8.50000000E-01  8.50000000E-01  8.50000000E-01  8.50000000E-01  8.50000000E-01
  8.50000000E-01  8.50000000E-01  8.50000000E-01  8.50000000E-01  8.50000000E-01
  8.50000000E-01  8.50000000E-01  8.50000000E-01  8.50000000E-01  8.50000000E-01
  8.50000000E-01  8.50000000E-01  8.50000000E-01  8.50000000E-01  8.50000000E-01
  8.50000000E-01  8.50000000E-01  8.50000000E-01  8.50000000E-01  8.50000000E-01
  8.50000000E-01  8.50000000E-01  8.50000000E-01  8.50000000E-01  8.50000000E-01
  8.50000000E-01  8.50000000E-01  8.50000000E-01  8.50000000E-01  8.50000000E-01
  8.50000000E-01  8.50000000E-01  8.50000000E-01  8.50000000E-01  8.50000000E-01
  8.50000000E-01  8.50000000E-01  8.50000000E-01  8.50000000E-01  8.50000000E-01
  8.50000000E-01  8.50000000E-01  8.50000000E-01  8.50000000E-01  8.50000000E-01
  8.50000000E-01  8.50000000E-01  8.50000000E-01  8.50000000E-01  8.50000000E-01
  8.50000000E-01  8.50000000E-01  8.50000000E-01  8.50000000E-01  8.50000000E-01
  8.50000000E-01  8.50000000E-01  8.50000000E-01  8.50000000E-01  8.50000000E-01
  8.50000000E-01  8.50000000E-01  8.50000000E-01  8.50000000E-01  8.50000000E-01
  8.50000000E-01  8.50000000E-01  8.50000000E-01  8.50000000E-01  8.50000000E-01
  8.50000000E-01  8.50000000E-01  8.50000000E-01  8.50000000E-01  8.50000000E-01
  8.50000000E-01  8.50000000E-01  8.50000000E-01  8.50000000E-01  8.50000000E-01
  8.50000000E-01  8.50000000E-01  8.50000000E-01  8.50000000E-01  8.50000000E-01
  8.50000000E-01  8.50000000E-01  8.50000000E-01  8.50000000E-01  8.50000000E-01
  8.50000000E-01  8.50000000E-01  8.50000000E-01  8.50000000E-01  8.50000000E-01
  8.50000000E-01  8.50000000E-01  8.50000000E-01  8.50000000E-01  8.50000000E-01
  8.50000000E-01  8.50000000E-01  8.50000000E-01  8.50000000E-01  8.50000000E-01
  8.50000000E-01  8.50000000E-01  8.50000000E-01  8.50000000E-01  8.50000000E-01
  8.50000000E-01  8.50000000E-01  8.50000000E-01  8.50000000E-01  8.50000000E-01
  8.50000000E-01  8.50000000E-01  8.50000000E-01  8.50000000E-01  8.50000000E-01
  8.50000000E-01  8.50000000E-01  8.50000000E-01  8.50000000E-01  8.50000000E-01
  8.50000000E-01  8.50000000E-01  8.50000000E-01  8.50000000E-01  8.50000000E-01
  8.50000000E-01  8.50000000E-01  8.50000000E-01  8.50000000E-01  8.50000000E-01
  8.50000000E-01  8.50000000E-01  8.50000000E-01  8.50000000E-01  8.50000000E-01
  8.50000000E-01  8.50000000E-01  8.50000000E-01  8.50000000E-01  8.50000000E-01
  8.50000000E-01  8.50000000E-01  8.50000000E-01  8.50000000E-01  8.50000000E-01
  8.50000000E-01  8.50000000E-01  8.50000000E-01  8.50000000E-01  8.50000000E-01
  8.50000000E-01  8.50000000E-01  8.50000000E-01  8.50000000E-01  8.50000000E-01
  8.50000000E-01  8.50000000E-01  8.50000000E-01  8.50000000E-01  8.50000000E-01
  8.50000000E-01  8.50000000E-01  8.50000000E-01  8.50000000E-01  8.50000000E-01
  8.50000000E-01  8.50000000E-01  8.50000000E-01  8.50000000E-01  8.50000000E-01
  8.50000000E-01  8.50000000E-01  8.50000000E-01  8.50000000E-01  8.50000000E-01
  8.50000000E-01  8.50000000E-01  8.50000000E-01  8.50000000E-01  8.50000000E-01
  8.50000000E-01  8.50000000E-01  8.50000000E-01  8.50000000E-01  8.50000000E-01
  8.50000000E-01  8.50000000E-01  8.50000000E-01  8.50000000E-01  8.50000000E-01
  8.50000000E-01  8.50000000E-01  8.50000000E-01  8.50000000E-01  8.50000000E-01
  8.50000000E-01  8.50000000E-01  8.50000000E-01  8.50000000E-01  8.50000000E-01
  8.50000000E-01  8.50000000E-01  8.50000000E-01  8.50000000E-01  8.50000000E-01
  8.50000000E-01  8.50000000E-01  8.50000000E-01  8.50000000E-01  8.50000000E-01
  8.50000000E-01  8.50000000E-01  8.50000000E-01  8.50000000E-01  8.50000000E-01
  8.50000000E-01  8.50000000E-01  8.50000000E-01  8.50000000E-01  8.50000000E-01
  8.50000000E-01  8.50000000E-01  8.50000000E-01  8.50000000E-01  8.50000000E-01
  8.50000000E-01  8.50000000E-01  8.50000000E-01  8.50000000E-01  8.50000000E-01
  8.50000000E-01  8.50000000E-01  8.50000000E-01  8.50000000E-01  8.50000000E-01
  8.50000000E-01  8.50000000E-01  8.50000000E-01  8.50000000E-01  8.50000000E-01
  8.50000000E-01  8.50000000E-01  8.50000000E-01  8.50000000E-01  8.50000000E-01
  8.50000000E-01  8.50000000E-01  8.50000000E-01  8.50000000E-01  8.50000000E-01
  8.50000000E-01  8.50000000E-01  8.50000000E-01  8.50000000E-01  8.50000000E-01
  8.50000000E-01  8.50000000E-01  8.50000000E-01  8.50000000E-01  8.50000000E-01
  8.50000000E-01  8.50000000E-01  8.50000000E-01  8.50000000E-01  8.50000000E-01
  8.50000000E-01  8.50000000E-01  8.50000000E-01  8.50000000E-01  8.50000000E-01
  8.50000000E-01  8.50000000E-01  8.50000000E-01  8.50000000E-01  8.50000000E-01
  8.50000000E-01  8.50000000E-01  8.50000000E-01  8.50000000E-01  8.50000000E-01
  8.50000000E-01  8.50000000E-01  8.50000000E-01  8.50000000E-01  8.50000000E-01
  8.50000000E-01  8.50000000E-01  8.50000000E-01  8.50000000E-01  8.50000000E-01
  8.50000000E-01  8.50000000E-01  8.50000000E-01  8.50000000E-01  8.50000000E-01
  8.50000000E-01  8.50000000E-01  8.50000000E-01  8.50000000E-01  8.50000000E-01
  8.50000000E-01  8.50000000E-01  8.50000000E-01  8.50000000E-01  8.50000000E-01
  8.50000000E-01  8.50000000E-01  8.50000000E-01  8.50000000E-01  8.50000000E-01
  8.50000000E-01  8.50000000E-01  8.50000000E-01  8.50000000E-01  8.50000000E-01
  8.50000000E-01  8.50000000E-01  8.50000000E-01  8.50000000E-01  8.50000000E-01
  8.50000000E-01  8.50000000E-01  8.50000000E-01  8.50000000E-01  8.50000000E-01
  8.50000000E-01  8.50000000E-01  8.50000000E-01  8.50000000E-01  8.50000000E-01
  8.50000000E-01  8.50000000E-01  8.50000000E-01  8.50000000E-01  8.50000000E-01
  8.50000000E-01  8.50000000E-01  8.50000000E-01  8.50000000E-01  8.50000000E-01
  8.50000000E-01  8.50000000E-01  8.50000000E-01  8.50000000E-01  8.50000000E-01
  8.50000000E-01  8.50000000E-01  8.50000000E-01  8.50000000E-01  8.50000000E-01
  8.50000000E-01  8.50000000E-01  8.50000000E-01  8.50000000E-01  8.50000000E-01
  8.50000000E-01  8.50000000E-01  8.50000000E-01  8.50000000E-01  8.50000000E-01
  8.50000000E-01  8.50000000E-01  8.50000000E-01  8.50000000E-01  8.50000000E-01
  8.50000000E-01  8.50000000E-01  8.50000000E-01  8.50000000E-01  8.50000000E-01
  8.50000000E-01  8.50000000E-01  8.50000000E-01  8.50000000E-01  8.50000000E-01
  8.50000000E-01  8.50000000E-01  8.50000000E-01  8.50000000E-01  8.50000000E-01
  8.50000000E-01  8.50000000E-01  8.50000000E-01  8.50000000E-01  8.50000000E-01
  8.50000000E-01  8.50000000E-01  8.50000000E-01  8.50000000E-01  8.50000000E-01
  8.50000000E-01  8.50000000E-01  8.50000000E-01  8.50000000E-01  8.50000000E-01
  8.50000000E-01  8.50000000E-01  8.50000000E-01  8.50000000E-01  8.50000000E-01
  8.50000000E-01  8.50000000E-01  8.50000000E-01  8.50000000E-01  8.50000000E-01
  8.50000000E-01  8.50000000E-01  8.50000000E-01  8.50000000E-01  8.50000000E-01
  8.50000000E-01  8.50000000E-01  8.50000000E-01  8.50000000E-01  8.50000000E-01
  8.50000000E-01  8.50000000E-01  8.50000000E-01  8.50000000E-01  8.50000000E-01
  8.50000000E-01  8.50000000E-01  8.50000000E-01  8.50000000E-01  8.50000000E-01
  8.50000000E-01  8.50000000E-01  8.50000000E-01  8.50000000E-01  8.50000000E-01
  8.50000000E-01  8.50000000E-01  8.50000000E-01  8.50000000E-01  8.50000000E-01
  8.50000000E-01  8.50000000E-01  8.50000000E-01  8.50000000E-01  8.50000000E-01
  8.50000000E-01  8.50000000E-01  8.50000000E-01  8.50000000E-01  8.50000000E-01
  8.50000000E-01  8.50000000E-01  8.50000000E-01  8.50000000E-01  8.50000000E-01
  8.50000000E-01  8.50000000E-01  8.50000000E-01  8.50000000E-01  8.50000000E-01
  8.50000000E-01  8.50000000E-01  8.50000000E-01  8.50000000E-01  8.50000000E-01
  8.50000000E-01  8.50000000E-01  8.50000000E-01  8.50000000E-01  8.50000000E-01
  8.50000000E-01  8.50000000E-01  8.50000000E-01  8.50000000E-01  8.50000000E-01
  8.50000000E-01  8.50000000E-01  8.50000000E-01  8.50000000E-01  8.50000000E-01
  8.50000000E-01  8.50000000E-01  8.50000000E-01  8.50000000E-01  8.50000000E-01
  8.50000000E-01  8.50000000E-01  8.50000000E-01  8.50000000E-01  8.50000000E-01
  8.50000000E-01  8.50000000E-01  8.50000000E-01  8.50000000E-01  8.50000000E-01
  8.50000000E-01  8.50000000E-01  8.50000000E-01  8.50000000E-01  8.50000000E-01
  8.50000000E-01  8.50000000E-01  8.50000000E-01  8.50000000E-01  8.50000000E-01
  8.50000000E-01  8.50000000E-01  8.50000000E-01  8.50000000E-01  8.50000000E-01
  8.50000000E-01  8.50000000E-01  8.50000000E-01  8.50000000E-01  8.50000000E-01
  8.50000000E-01  8.50000000E-01  8.50000000E-01  8.50000000E-01  8.50000000E-01
  8.50000000E-01  8.50000000E-01  8.50000000E-01  8.50000000E-01  8.50000000E-01
  8.50000000E-01  8.50000000E-01  8.50000000E-01  8.50000000E-01  8.50000000E-01
  8.50000000E-01  8.50000000E-01  8.50000000E-01  8.50000000E-01  8.50000000E-01
  8.50000000E-01  8.50000000E-01  8.50000000E-01  8.50000000E-01  8.50000000E-01
  8.50000000E-01  8.50000000E-01  8.50000000E-01  8.50000000E-01  8.50000000E-01
  8.50000000E-01  8.50000000E-01  8.50000000E-01  8.50000000E-01  8.50000000E-01
  8.50000000E-01  8.50000000E-01  8.50000000E-01  8.50000000E-01  8.50000000E-01
  8.50000000E-01  8.50000000E-01  8.50000000E-01  8.50000000E-01  8.50000000E-01
  8.50000000E-01  8.50000000E-01  8.50000000E-01  8.50000000E-01  8.50000000E-01
  8.50000000E-01  8.50000000E-01  8.50000000E-01  8.50000000E-01  8.50000000E-01
  8.50000000E-01  8.50000000E-01  8.50000000E-01  8.50000000E-01  8.50000000E-01
  8.50000000E-01  8.50000000E-01  8.50000000E-01  8.50000000E-01  8.50000000E-01
  8.50000000E-01  8.50000000E-01  8.50000000E-01  8.50000000E-01  8.50000000E-01
  8.50000000E-01  8.50000000E-01  8.50000000E-01  8.50000000E-01  8.50000000E-01
  8.50000000E-01  8.50000000E-01  8.50000000E-01  8.50000000E-01  8.50000000E-01
  8.50000000E-01  8.50000000E-01  8.50000000E-01  8.50000000E-01  8.50000000E-01
  8.50000000E-01  8.50000000E-01  8.50000000E-01  8.50000000E-01  8.50000000E-01
  8.50000000E-01  8.50000000E-01  8.50000000E-01  8.50000000E-01  8.50000000E-01
  8.50000000E-01  8.50000000E-01  8.50000000E-01  8.50000000E-01  8.50000000E-01
  8.50000000E-01  8.50000000E-01  8.50000000E-01  8.50000000E-01  8.50000000E-01
  8.50000000E-01  8.50000000E-01  8.50000000E-01  8.50000000E-01  8.50000000E-01
  8.50000000E-01  8.50000000E-01  8.50000000E-01  8.50000000E-01  8.50000000E-01
  8.50000000E-01  8.50000000E-01  8.50000000E-01  8.50000000E-01  8.50000000E-01
  8.50000000E-01  8.50000000E-01  8.50000000E-01  8.50000000E-01  8.50000000E-01
  8.50000000E-01  8.50000000E-01  8.50000000E-01  8.50000000E-01  8.50000000E-01
  8.50000000E-01  8.50000000E-01  8.50000000E-01  8.50000000E-01  8.50000000E-01
  8.50000000E-01  8.50000000E-01  8.50000000E-01  8.50000000E-01  8.50000000E-01
  8.50000000E-01  8.50000000E-01  8.50000000E-01  8.50000000E-01  8.50000000E-01
  8.50000000E-01  8.50000000E-01  8.50000000E-01  8.50000000E-01  8.50000000E-01
  8.50000000E-01  8.50000000E-01  8.50000000E-01  8.50000000E-01  8.50000000E-01
  8.50000000E-01  8.50000000E-01  8.50000000E-01  8.50000000E-01  8.50000000E-01
  8.50000000E-01  8.50000000E-01  8.50000000E-01  8.50000000E-01  8.50000000E-01
  8.50000000E-01  8.50000000E-01  8.50000000E-01  8.50000000E-01  8.50000000E-01
  8.50000000E-01  8.50000000E-01  8.50000000E-01  8.50000000E-01  8.50000000E-01
  8.50000000E-01  8.50000000E-01  8.50000000E-01  8.50000000E-01  8.50000000E-01
  8.50000000E-01  8.50000000E-01  8.50000000E-01  8.50000000E-01  8.50000000E-01
  8.50000000E-01  8.50000000E-01  8.50000000E-01  8.50000000E-01  8.50000000E-01
  8.50000000E-01  8.50000000E-01  8.50000000E-01  8.50000000E-01  8.50000000E-01
  8.50000000E-01  8.50000000E-01  8.50000000E-01  8.50000000E-01  8.50000000E-01
  8.50000000E-01  8.50000000E-01  8.50000000E-01  8.50000000E-01  8.50000000E-01
  8.50000000E-01  8.50000000E-01  8.50000000E-01  8.50000000E-01  8.50000000E-01
  8.50000000E-01  8.50000000E-01  8.50000000E-01  8.50000000E-01  8.50000000E-01
  8.50000000E-01  8.50000000E-01  8.50000000E-01  8.50000000E-01  8.50000000E-01
  8.50000000E-01  8.50000000E-01  8.50000000E-01  8.50000000E-01  8.50000000E-01
  8.50000000E-01  8.50000000E-01  8.50000000E-01  8.50000000E-01  8.50000000E-01
  8.50000000E-01  8.50000000E-01  8.50000000E-01  8.50000000E-01  8.50000000E-01
  8.50000000E-01  8.50000000E-01  8.50000000E-01  8.50000000E-01  8.50000000E-01
  8.50000000E-01  8.50000000E-01  8.50000000E-01  8.50000000E-01  8.50000000E-01
  8.50000000E-01  8.50000000E-01  8.50000000E-01  8.50000000E-01  8.50000000E-01
  8.50000000E-01  8.50000000E-01  8.50000000E-01  8.50000000E-01  8.50000000E-01
  8.50000000E-01  8.50000000E-01  8.50000000E-01  8.50000000E-01  8.50000000E-01
  8.50000000E-01  8.50000000E-01  8.50000000E-01  8.50000000E-01  8.50000000E-01
  8.50000000E-01  8.50000000E-01  8.50000000E-01  8.50000000E-01  8.50000000E-01
  8.50000000E-01  8.50000000E-01  8.50000000E-01  8.50000000E-01  8.50000000E-01
  8.50000000E-01  8.50000000E-01  8.50000000E-01  8.50000000E-01  8.50000000E-01
  8.50000000E-01  8.50000000E-01  8.50000000E-01  8.50000000E-01  8.50000000E-01
  8.50000000E-01  8.50000000E-01  8.50000000E-01  8.50000000E-01  8.50000000E-01
  8.50000000E-01  8.50000000E-01  8.50000000E-01  8.50000000E-01  8.50000000E-01
  8.50000000E-01  8.50000000E-01  8.50000000E-01  8.50000000E-01  8.50000000E-01
  8.50000000E-01  8.50000000E-01  8.50000000E-01  8.50000000E-01  8.50000000E-01
  8.50000000E-01  8.50000000E-01  8.50000000E-01  8.50000000E-01  8.50000000E-01
  8.50000000E-01  8.50000000E-01  8.50000000E-01  8.50000000E-01  8.50000000E-01
  8.50000000E-01  8.50000000E-01  8.50000000E-01  8.50000000E-01  8.50000000E-01
  8.50000000E-01  8.50000000E-01  8.50000000E-01  8.50000000E-01  8.50000000E-01
  8.50000000E-01  8.50000000E-01  8.50000000E-01  8.50000000E-01  8.50000000E-01
  8.50000000E-01  8.50000000E-01  8.50000000E-01  8.50000000E-01  8.50000000E-01
  8.50000000E-01  8.50000000E-01  8.50000000E-01  8.50000000E-01  8.50000000E-01
  8.50000000E-01  8.50000000E-01  8.50000000E-01  8.50000000E-01  8.50000000E-01
  8.50000000E-01  8.50000000E-01  8.50000000E-01  8.50000000E-01  8.50000000E-01
  8.50000000E-01  8.50000000E-01  8.50000000E-01  8.50000000E-01  8.50000000E-01
  8.50000000E-01  8.50000000E-01  8.50000000E-01  8.50000000E-01  8.50000000E-01
  8.50000000E-01  8.50000000E-01  8.50000000E-01  8.50000000E-01  8.50000000E-01
  8.50000000E-01  8.50000000E-01  8.50000000E-01  8.50000000E-01  8.50000000E-01
  8.50000000E-01  8.50000000E-01  8.50000000E-01  8.50000000E-01  8.50000000E-01
  8.50000000E-01  8.50000000E-01  8.50000000E-01  8.50000000E-01  8.50000000E-01
  8.50000000E-01  8.50000000E-01  8.50000000E-01  8.50000000E-01  8.50000000E-01
  8.50000000E-01  8.50000000E-01  8.50000000E-01  8.50000000E-01  8.50000000E-01
  8.50000000E-01  8.50000000E-01  8.50000000E-01  8.50000000E-01  8.50000000E-01
  8.50000000E-01  8.50000000E-01  8.50000000E-01  8.50000000E-01  8.50000000E-01
  8.50000000E-01  8.50000000E-01  8.50000000E-01  8.50000000E-01  8.50000000E-01
  8.50000000E-01  8.50000000E-01  8.50000000E-01  8.50000000E-01  8.50000000E-01
  8.50000000E-01  8.50000000E-01  8.50000000E-01  8.50000000E-01  8.50000000E-01
  8.50000000E-01  8.50000000E-01  8.50000000E-01  8.50000000E-01  8.50000000E-01
  8.50000000E-01  8.50000000E-01  8.50000000E-01  8.50000000E-01  8.50000000E-01
  8.50000000E-01  8.50000000E-01  8.50000000E-01  8.50000000E-01  8.50000000E-01
  8.50000000E-01  8.50000000E-01  8.50000000E-01  8.50000000E-01  8.50000000E-01
  8.50000000E-01  8.50000000E-01  8.50000000E-01  8.50000000E-01  8.50000000E-01
  8.50000000E-01  8.50000000E-01  8.50000000E-01  8.50000000E-01  8.50000000E-01
  8.50000000E-01  8.50000000E-01  8.50000000E-01  8.50000000E-01  8.50000000E-01
  8.50000000E-01  8.50000000E-01  8.50000000E-01  8.50000000E-01  8.50000000E-01
  8.50000000E-01  8.50000000E-01  8.50000000E-01  8.50000000E-01  8.50000000E-01
  8.50000000E-01  8.50000000E-01  8.50000000E-01  8.50000000E-01  8.50000000E-01
  8.50000000E-01  8.50000000E-01  8.50000000E-01  8.50000000E-01  8.50000000E-01
  8.50000000E-01  8.50000000E-01  8.50000000E-01  8.50000000E-01  8.50000000E-01
  8.50000000E-01  8.50000000E-01  8.50000000E-01  8.50000000E-01  8.50000000E-01
  8.50000000E-01  8.50000000E-01  8.50000000E-01  8.50000000E-01  8.50000000E-01
  8.50000000E-01  8.50000000E-01  8.50000000E-01  8.50000000E-01  8.50000000E-01
  8.50000000E-01  8.50000000E-01  8.50000000E-01  8.50000000E-01  8.50000000E-01
  8.50000000E-01  8.50000000E-01  8.50000000E-01  8.50000000E-01  8.50000000E-01
  8.50000000E-01  8.50000000E-01  8.50000000E-01  8.50000000E-01  8.50000000E-01
  8.50000000E-01  8.50000000E-01  8.50000000E-01  8.50000000E-01  8.50000000E-01
  8.50000000E-01  8.50000000E-01  8.50000000E-01  8.50000000E-01  8.50000000E-01
  8.50000000E-01  8.50000000E-01  8.50000000E-01  8.50000000E-01  8.50000000E-01
  8.50000000E-01  8.50000000E-01  8.50000000E-01  8.50000000E-01  8.50000000E-01
  8.50000000E-01  8.50000000E-01  8.50000000E-01  8.50000000E-01  8.50000000E-01
  8.50000000E-01  8.50000000E-01  8.50000000E-01  8.50000000E-01  8.50000000E-01
  8.50000000E-01  8.50000000E-01  8.50000000E-01  8.50000000E-01  8.50000000E-01
  8.50000000E-01  8.50000000E-01  8.50000000E-01  8.50000000E-01  8.50000000E-01
  8.50000000E-01  8.50000000E-01  8.50000000E-01  8.50000000E-01  8.50000000E-01
  8.50000000E-01  8.50000000E-01  8.50000000E-01  8.50000000E-01  8.50000000E-01
  8.50000000E-01  8.50000000E-01  8.50000000E-01  8.50000000E-01  8.50000000E-01
  8.50000000E-01  8.50000000E-01  8.50000000E-01  8.50000000E-01  8.50000000E-01
  8.50000000E-01  8.50000000E-01  8.50000000E-01  8.50000000E-01  8.50000000E-01
  8.50000000E-01  8.50000000E-01  8.50000000E-01  8.50000000E-01  8.50000000E-01
  8.50000000E-01  8.50000000E-01  8.50000000E-01  8.50000000E-01  8.50000000E-01
  8.50000000E-01  8.50000000E-01  8.50000000E-01  8.50000000E-01  8.50000000E-01
  8.50000000E-01  8.50000000E-01  8.50000000E-01  8.50000000E-01  8.50000000E-01
  8.50000000E-01  8.50000000E-01  8.50000000E-01  8.50000000E-01  8.50000000E-01
  8.50000000E-01  8.50000000E-01  8.50000000E-01  8.50000000E-01  8.50000000E-01
  8.50000000E-01  8.50000000E-01  8.50000000E-01  8.50000000E-01  8.50000000E-01
  8.50000000E-01  8.50000000E-01  8.50000000E-01  8.50000000E-01  8.50000000E-01
  8.50000000E-01  8.50000000E-01  8.50000000E-01  8.50000000E-01  8.50000000E-01
  8.50000000E-01  8.50000000E-01  8.50000000E-01  8.50000000E-01  8.50000000E-01
  8.50000000E-01  8.50000000E-01  8.50000000E-01  8.50000000E-01  8.50000000E-01
  8.50000000E-01  8.50000000E-01  8.50000000E-01  8.50000000E-01  8.50000000E-01
  8.50000000E-01  8.50000000E-01  8.50000000E-01  8.50000000E-01  8.50000000E-01
  8.50000000E-01  8.50000000E-01  8.50000000E-01  8.50000000E-01  8.50000000E-01
  8.50000000E-01  8.50000000E-01  8.50000000E-01  8.50000000E-01  8.50000000E-01
  8.50000000E-01  8.50000000E-01  8.50000000E-01  8.50000000E-01  8.50000000E-01
  8.50000000E-01  8.50000000E-01  8.50000000E-01  8.50000000E-01  8.50000000E-01
  8.50000000E-01  8.50000000E-01  8.50000000E-01  8.50000000E-01  8.50000000E-01
  8.50000000E-01  8.50000000E-01  8.50000000E-01  8.50000000E-01  8.50000000E-01
  8.50000000E-01  8.50000000E-01  8.50000000E-01  8.50000000E-01  8.50000000E-01
  8.50000000E-01  8.50000000E-01  8.50000000E-01  8.50000000E-01  8.50000000E-01
  8.50000000E-01  8.50000000E-01  8.50000000E-01  8.50000000E-01  8.50000000E-01
  8.50000000E-01  8.50000000E-01  8.50000000E-01  8.50000000E-01  8.50000000E-01
  8.50000000E-01  8.50000000E-01  8.50000000E-01  8.50000000E-01  8.50000000E-01
  8.50000000E-01  8.50000000E-01  8.50000000E-01  8.50000000E-01  8.50000000E-01
  8.50000000E-01  8.50000000E-01  8.50000000E-01  8.50000000E-01  8.50000000E-01
  8.50000000E-01  8.50000000E-01  8.50000000E-01  8.50000000E-01  8.50000000E-01
  8.50000000E-01  8.50000000E-01  8.50000000E-01  8.50000000E-01  8.50000000E-01
  8.50000000E-01  8.50000000E-01  8.50000000E-01  8.50000000E-01  8.50000000E-01
  8.50000000E-01  8.50000000E-01  8.50000000E-01  8.50000000E-01  8.50000000E-01
  8.50000000E-01  8.50000000E-01  8.50000000E-01  8.50000000E-01  8.50000000E-01
  8.50000000E-01  8.50000000E-01  8.50000000E-01  8.50000000E-01  8.50000000E-01
  8.50000000E-01  8.50000000E-01  8.50000000E-01  8.50000000E-01  8.50000000E-01
  8.50000000E-01  8.50000000E-01  8.50000000E-01  8.50000000E-01  8.50000000E-01
  8.50000000E-01  8.50000000E-01  8.50000000E-01  8.50000000E-01  8.50000000E-01
  8.50000000E-01  8.50000000E-01  8.50000000E-01  8.50000000E-01  8.50000000E-01
  8.50000000E-01  8.50000000E-01  8.50000000E-01  8.50000000E-01  8.50000000E-01
  8.50000000E-01  8.50000000E-01  8.50000000E-01  8.50000000E-01  8.50000000E-01
  8.50000000E-01  8.50000000E-01  8.50000000E-01  8.50000000E-01  8.50000000E-01
  8.50000000E-01  8.50000000E-01  8.50000000E-01  8.50000000E-01  8.50000000E-01
  8.50000000E-01  8.50000000E-01  8.50000000E-01  8.50000000E-01  8.50000000E-01
  8.50000000E-01  8.50000000E-01  8.50000000E-01  8.50000000E-01  8.50000000E-01
  8.50000000E-01  8.50000000E-01  8.50000000E-01  8.50000000E-01  8.50000000E-01
  8.50000000E-01  8.50000000E-01  8.50000000E-01  8.50000000E-01  8.50000000E-01
  8.50000000E-01  8.50000000E-01  8.50000000E-01  8.50000000E-01  8.50000000E-01
  8.50000000E-01  8.50000000E-01  8.50000000E-01  8.50000000E-01  8.50000000E-01
  8.50000000E-01  8.50000000E-01  8.50000000E-01  8.50000000E-01  8.50000000E-01
  8.50000000E-01  8.50000000E-01  8.50000000E-01  8.50000000E-01  8.50000000E-01
  8.50000000E-01  8.50000000E-01  8.50000000E-01  8.50000000E-01  8.50000000E-01
  8.50000000E-01  8.50000000E-01  8.50000000E-01  8.50000000E-01  8.50000000E-01
  8.50000000E-01  8.50000000E-01  8.50000000E-01  8.50000000E-01  8.50000000E-01
  8.50000000E-01  8.50000000E-01  8.50000000E-01  8.50000000E-01  8.50000000E-01
  8.50000000E-01  8.50000000E-01  8.50000000E-01  8.50000000E-01  8.50000000E-01
  8.50000000E-01  8.50000000E-01  8.50000000E-01  8.50000000E-01  8.50000000E-01
  8.50000000E-01  8.50000000E-01  8.50000000E-01  8.50000000E-01  8.50000000E-01
  8.50000000E-01  8.50000000E-01  8.50000000E-01  8.50000000E-01  8.50000000E-01
  8.50000000E-01  8.50000000E-01  8.50000000E-01  8.50000000E-01  8.50000000E-01
  8.50000000E-01  8.50000000E-01  8.50000000E-01  8.50000000E-01  8.50000000E-01
  8.50000000E-01  8.50000000E-01  8.50000000E-01  8.50000000E-01  8.50000000E-01
  8.50000000E-01  8.50000000E-01  8.50000000E-01  8.50000000E-01  8.50000000E-01
  8.50000000E-01  8.50000000E-01  8.50000000E-01  8.50000000E-01  8.50000000E-01
  8.50000000E-01  8.50000000E-01  8.50000000E-01  8.50000000E-01  8.50000000E-01
  8.50000000E-01  8.50000000E-01  8.50000000E-01  8.50000000E-01  8.50000000E-01
  8.50000000E-01  8.50000000E-01  8.50000000E-01  8.50000000E-01  8.50000000E-01
  8.50000000E-01  8.50000000E-01  8.50000000E-01  8.50000000E-01  8.50000000E-01
  8.50000000E-01  8.50000000E-01  8.50000000E-01  8.50000000E-01  8.50000000E-01
  8.50000000E-01  8.50000000E-01  8.50000000E-01  8.50000000E-01  8.50000000E-01
  8.50000000E-01  8.50000000E-01  8.50000000E-01  8.50000000E-01  8.50000000E-01
  8.50000000E-01  8.50000000E-01  8.50000000E-01  8.50000000E-01  8.50000000E-01
  8.50000000E-01  8.50000000E-01  8.50000000E-01  8.50000000E-01  8.50000000E-01
  8.50000000E-01  8.50000000E-01  8.50000000E-01  8.50000000E-01  8.50000000E-01
  8.50000000E-01  8.50000000E-01  8.50000000E-01  8.50000000E-01  8.50000000E-01
  8.50000000E-01  8.50000000E-01  8.50000000E-01  8.50000000E-01  8.50000000E-01
  8.50000000E-01  8.50000000E-01  8.50000000E-01  8.50000000E-01  8.50000000E-01
  8.50000000E-01  8.50000000E-01  8.50000000E-01  8.50000000E-01  8.50000000E-01
  8.50000000E-01  8.50000000E-01  8.50000000E-01  8.50000000E-01  8.50000000E-01
  8.50000000E-01  8.50000000E-01  8.50000000E-01  8.50000000E-01  8.50000000E-01
  8.50000000E-01  8.50000000E-01  8.50000000E-01  8.50000000E-01  8.50000000E-01
  8.50000000E-01  8.50000000E-01  8.50000000E-01  8.50000000E-01  8.50000000E-01
  8.50000000E-01  8.50000000E-01  8.50000000E-01  8.50000000E-01  8.50000000E-01
  8.50000000E-01  8.50000000E-01  8.50000000E-01  8.50000000E-01  8.50000000E-01
  8.50000000E-01  8.50000000E-01  8.50000000E-01  8.50000000E-01  8.50000000E-01
  8.50000000E-01  8.50000000E-01  8.50000000E-01  8.50000000E-01  8.50000000E-01
  8.50000000E-01  8.50000000E-01  8.50000000E-01  8.50000000E-01  8.50000000E-01
  8.50000000E-01  8.50000000E-01  8.50000000E-01  8.50000000E-01  8.50000000E-01
  8.50000000E-01  8.50000000E-01  8.50000000E-01  8.50000000E-01  8.50000000E-01
  8.50000000E-01  8.50000000E-01  8.50000000E-01  8.50000000E-01  8.50000000E-01
  8.50000000E-01  8.50000000E-01  8.50000000E-01  8.50000000E-01  8.50000000E-01
  8.50000000E-01  8.50000000E-01  8.50000000E-01  8.50000000E-01  8.50000000E-01
  8.50000000E-01  8.50000000E-01  8.50000000E-01  8.50000000E-01  8.50000000E-01
  8.50000000E-01  8.50000000E-01  8.50000000E-01  8.50000000E-01  8.50000000E-01
  8.50000000E-01  8.50000000E-01  8.50000000E-01  8.50000000E-01  8.50000000E-01
  8.50000000E-01  8.50000000E-01  8.50000000E-01  8.50000000E-01  8.50000000E-01
  8.50000000E-01  8.50000000E-01  8.50000000E-01  8.50000000E-01  8.50000000E-01
  8.50000000E-01  8.50000000E-01  8.50000000E-01  8.50000000E-01  8.50000000E-01
  8.50000000E-01  8.50000000E-01  8.50000000E-01  8.50000000E-01  8.50000000E-01
  8.50000000E-01  8.50000000E-01  8.50000000E-01  8.50000000E-01  8.50000000E-01
  8.50000000E-01  8.50000000E-01  8.50000000E-01  8.50000000E-01  8.50000000E-01
  8.50000000E-01  8.50000000E-01  8.50000000E-01  8.50000000E-01  8.50000000E-01
  8.50000000E-01  8.50000000E-01  8.50000000E-01  8.50000000E-01  8.50000000E-01
  8.50000000E-01  8.50000000E-01  8.50000000E-01  8.50000000E-01  8.50000000E-01
  8.50000000E-01  8.50000000E-01  8.50000000E-01  8.50000000E-01  8.50000000E-01
  8.50000000E-01  8.50000000E-01  8.50000000E-01  8.50000000E-01  8.50000000E-01
  8.50000000E-01  8.50000000E-01  8.50000000E-01  8.50000000E-01  8.50000000E-01
  8.50000000E-01  8.50000000E-01  8.50000000E-01  8.50000000E-01  8.50000000E-01
  8.50000000E-01  8.50000000E-01  8.50000000E-01  8.50000000E-01  8.50000000E-01
  8.50000000E-01  8.50000000E-01  8.50000000E-01  8.50000000E-01  8.50000000E-01
  8.50000000E-01  8.50000000E-01  8.50000000E-01  8.50000000E-01  8.50000000E-01
  8.50000000E-01  8.50000000E-01  8.50000000E-01  8.50000000E-01  8.50000000E-01
  8.50000000E-01  8.50000000E-01  8.50000000E-01  8.50000000E-01  8.50000000E-01
  8.50000000E-01  8.50000000E-01  8.50000000E-01  8.50000000E-01  8.50000000E-01
  8.50000000E-01  8.50000000E-01  8.50000000E-01  8.50000000E-01  8.50000000E-01
  8.50000000E-01  8.50000000E-01  8.50000000E-01  8.50000000E-01  8.50000000E-01
  8.50000000E-01  8.50000000E-01  8.50000000E-01  8.50000000E-01  8.50000000E-01
  8.50000000E-01  8.50000000E-01  8.50000000E-01  8.50000000E-01  8.50000000E-01
  8.50000000E-01  8.50000000E-01  8.50000000E-01  8.50000000E-01  8.50000000E-01
  8.50000000E-01  8.50000000E-01  8.50000000E-01  8.50000000E-01  8.50000000E-01
  8.50000000E-01  8.50000000E-01  8.50000000E-01  8.50000000E-01  8.50000000E-01
  8.50000000E-01  8.50000000E-01  8.50000000E-01  8.50000000E-01  8.50000000E-01
  8.50000000E-01  8.50000000E-01  8.50000000E-01  8.50000000E-01  8.50000000E-01
  8.50000000E-01  8.50000000E-01  8.50000000E-01  8.50000000E-01  8.50000000E-01
  8.50000000E-01  8.50000000E-01  8.50000000E-01  8.50000000E-01  8.50000000E-01
  8.50000000E-01  8.50000000E-01  8.50000000E-01  8.50000000E-01  8.50000000E-01
  8.50000000E-01  8.50000000E-01  8.50000000E-01  8.50000000E-01  8.50000000E-01
  8.50000000E-01  8.50000000E-01  8.50000000E-01  8.50000000E-01  8.50000000E-01
  8.50000000E-01  8.50000000E-01  8.50000000E-01  8.50000000E-01  8.50000000E-01
  8.50000000E-01  8.50000000E-01  8.50000000E-01  8.50000000E-01  8.50000000E-01
  8.50000000E-01  8.50000000E-01  8.50000000E-01  8.50000000E-01  8.50000000E-01
  8.50000000E-01  8.50000000E-01  8.50000000E-01  8.50000000E-01  8.50000000E-01
  8.50000000E-01  8.50000000E-01  8.50000000E-01  8.50000000E-01  8.50000000E-01
  8.50000000E-01  8.50000000E-01  8.50000000E-01  8.50000000E-01  8.50000000E-01
  8.50000000E-01  8.50000000E-01  8.50000000E-01  8.50000000E-01  8.50000000E-01
  8.50000000E-01  8.50000000E-01  8.50000000E-01  8.50000000E-01  8.50000000E-01
  8.50000000E-01  8.50000000E-01  8.50000000E-01  8.50000000E-01  8.50000000E-01
  8.50000000E-01  8.50000000E-01  8.50000000E-01  8.50000000E-01  8.50000000E-01
  8.50000000E-01  8.50000000E-01  8.50000000E-01  8.50000000E-01  8.50000000E-01
  8.50000000E-01  8.50000000E-01  8.50000000E-01  8.50000000E-01  8.50000000E-01
  8.50000000E-01  8.50000000E-01  8.50000000E-01  8.50000000E-01  8.50000000E-01
  8.50000000E-01  8.50000000E-01  8.50000000E-01  8.50000000E-01  8.50000000E-01
  8.50000000E-01  8.50000000E-01  8.50000000E-01  8.50000000E-01  8.50000000E-01
  8.50000000E-01  8.50000000E-01  8.50000000E-01  8.50000000E-01  8.50000000E-01
  8.50000000E-01  8.50000000E-01  8.50000000E-01  8.50000000E-01  8.50000000E-01
  8.50000000E-01  8.50000000E-01  8.50000000E-01  8.50000000E-01  8.50000000E-01
  8.50000000E-01  8.50000000E-01  8.50000000E-01  8.50000000E-01  8.50000000E-01
  8.50000000E-01  8.50000000E-01  8.50000000E-01  8.50000000E-01  8.50000000E-01
  8.50000000E-01  8.50000000E-01  8.50000000E-01  8.50000000E-01  8.50000000E-01
  8.50000000E-01  8.50000000E-01  8.50000000E-01  8.50000000E-01  8.50000000E-01
  8.50000000E-01  8.50000000E-01  8.50000000E-01  8.50000000E-01  8.50000000E-01
  8.50000000E-01  8.50000000E-01  8.50000000E-01  8.50000000E-01  8.50000000E-01
  8.50000000E-01  8.50000000E-01  8.50000000E-01  8.50000000E-01  8.50000000E-01
  8.50000000E-01  8.50000000E-01  8.50000000E-01  8.50000000E-01  8.50000000E-01
  8.50000000E-01  8.50000000E-01  8.50000000E-01  8.50000000E-01  8.50000000E-01
  8.50000000E-01  8.50000000E-01  8.50000000E-01  8.50000000E-01  8.50000000E-01
  8.50000000E-01  8.50000000E-01  8.50000000E-01  8.50000000E-01  8.50000000E-01
  8.50000000E-01  8.50000000E-01  8.50000000E-01  8.50000000E-01  8.50000000E-01
  8.50000000E-01  8.50000000E-01  8.50000000E-01  8.50000000E-01  8.50000000E-01
  8.50000000E-01  8.50000000E-01  8.50000000E-01  8.50000000E-01  8.50000000E-01
  8.50000000E-01  8.50000000E-01  8.50000000E-01  8.50000000E-01  8.50000000E-01
  8.50000000E-01  8.50000000E-01  8.50000000E-01  8.50000000E-01  8.50000000E-01
  8.50000000E-01  8.50000000E-01  8.50000000E-01  8.50000000E-01  8.50000000E-01
  8.50000000E-01  8.50000000E-01  8.50000000E-01  8.50000000E-01  8.50000000E-01
  8.50000000E-01  8.50000000E-01  8.50000000E-01  8.50000000E-01  8.50000000E-01
  8.50000000E-01  8.50000000E-01  8.50000000E-01  8.50000000E-01  8.50000000E-01
  8.50000000E-01  8.50000000E-01  8.50000000E-01  8.50000000E-01  8.50000000E-01
  8.50000000E-01  8.50000000E-01  8.50000000E-01  8.50000000E-01  8.50000000E-01
  8.50000000E-01  8.50000000E-01  8.50000000E-01  8.50000000E-01  8.50000000E-01
  8.50000000E-01  8.50000000E-01  8.50000000E-01  8.50000000E-01  8.50000000E-01
  8.50000000E-01  8.50000000E-01  8.50000000E-01  8.50000000E-01  8.50000000E-01
  8.50000000E-01  8.50000000E-01  8.50000000E-01  8.50000000E-01  8.50000000E-01
  8.50000000E-01  8.50000000E-01  8.50000000E-01  8.50000000E-01  8.50000000E-01
  8.50000000E-01  8.50000000E-01  8.50000000E-01  8.50000000E-01  8.50000000E-01
  8.50000000E-01  8.50000000E-01  8.50000000E-01  8.50000000E-01  8.50000000E-01
  8.50000000E-01  8.50000000E-01  8.50000000E-01  8.50000000E-01  8.50000000E-01
  8.50000000E-01  8.50000000E-01  8.50000000E-01  8.50000000E-01  8.50000000E-01
  8.50000000E-01  8.50000000E-01  8.50000000E-01  8.50000000E-01  8.50000000E-01
  8.50000000E-01  8.50000000E-01  8.50000000E-01  8.50000000E-01  8.50000000E-01
  8.50000000E-01  8.50000000E-01  8.50000000E-01  8.50000000E-01  8.50000000E-01
  8.50000000E-01  8.50000000E-01  8.50000000E-01  8.50000000E-01  8.50000000E-01
  8.50000000E-01  8.50000000E-01  8.50000000E-01  8.50000000E-01  8.50000000E-01
  8.50000000E-01  8.50000000E-01  8.50000000E-01  8.50000000E-01  8.50000000E-01
  8.50000000E-01  8.50000000E-01  8.50000000E-01  8.50000000E-01  8.50000000E-01
  8.50000000E-01  8.50000000E-01  8.50000000E-01  8.50000000E-01  8.50000000E-01
  8.50000000E-01  8.50000000E-01  8.50000000E-01  8.50000000E-01  8.50000000E-01
  8.50000000E-01  8.50000000E-01  8.50000000E-01  8.50000000E-01  8.50000000E-01
  8.50000000E-01  8.50000000E-01  8.50000000E-01  8.50000000E-01  8.50000000E-01
  8.50000000E-01  8.50000000E-01  8.50000000E-01  8.50000000E-01  8.50000000E-01
  8.50000000E-01  8.50000000E-01  8.50000000E-01  8.50000000E-01  8.50000000E-01
  8.50000000E-01  8.50000000E-01  8.50000000E-01  8.50000000E-01  8.50000000E-01
  8.50000000E-01  8.50000000E-01  8.50000000E-01  8.50000000E-01  8.50000000E-01
  8.50000000E-01  8.50000000E-01  8.50000000E-01  8.50000000E-01  8.50000000E-01
  8.50000000E-01  8.50000000E-01  8.50000000E-01  8.50000000E-01  8.50000000E-01
  8.50000000E-01  8.50000000E-01  8.50000000E-01  8.50000000E-01  8.50000000E-01
  8.50000000E-01  8.50000000E-01  8.50000000E-01  8.50000000E-01  8.50000000E-01
  8.50000000E-01  8.50000000E-01  8.50000000E-01  8.50000000E-01  8.50000000E-01
  8.50000000E-01  8.50000000E-01  8.50000000E-01  8.50000000E-01  8.50000000E-01
  8.50000000E-01  8.50000000E-01  8.50000000E-01  8.50000000E-01  8.50000000E-01
  8.50000000E-01  8.50000000E-01  8.50000000E-01  8.50000000E-01  8.50000000E-01
  8.50000000E-01  8.50000000E-01  8.50000000E-01  8.50000000E-01  8.50000000E-01
  8.50000000E-01  8.50000000E-01  8.50000000E-01  8.50000000E-01  8.50000000E-01
  8.50000000E-01  8.50000000E-01  8.50000000E-01  8.50000000E-01  8.50000000E-01
  8.50000000E-01  8.50000000E-01  8.50000000E-01  8.50000000E-01  8.50000000E-01
  8.50000000E-01  8.50000000E-01  8.50000000E-01  8.50000000E-01  8.50000000E-01
  8.50000000E-01  8.50000000E-01  8.50000000E-01  8.50000000E-01  8.50000000E-01
  8.50000000E-01  8.50000000E-01  8.50000000E-01  8.50000000E-01  8.50000000E-01
  8.50000000E-01  8.50000000E-01  8.50000000E-01  8.50000000E-01  8.50000000E-01
  8.50000000E-01  8.50000000E-01  8.50000000E-01  8.50000000E-01  8.50000000E-01
  8.50000000E-01  8.50000000E-01  8.50000000E-01  8.50000000E-01  8.50000000E-01
  8.50000000E-01  8.50000000E-01  8.50000000E-01  8.50000000E-01  8.50000000E-01
  8.50000000E-01  8.50000000E-01  8.50000000E-01  8.50000000E-01  8.50000000E-01
  8.50000000E-01  8.50000000E-01  8.50000000E-01  8.50000000E-01  8.50000000E-01
  8.50000000E-01  8.50000000E-01  8.50000000E-01  8.50000000E-01  8.50000000E-01
  8.50000000E-01  8.50000000E-01  8.50000000E-01  8.50000000E-01  8.50000000E-01
  8.50000000E-01  8.50000000E-01  8.50000000E-01  8.50000000E-01  8.50000000E-01
  8.50000000E-01  8.50000000E-01  8.50000000E-01  8.50000000E-01  8.50000000E-01
  8.50000000E-01  8.50000000E-01  8.50000000E-01  8.50000000E-01  8.50000000E-01
  8.50000000E-01  8.50000000E-01  8.50000000E-01  8.50000000E-01  8.50000000E-01
  8.50000000E-01  8.50000000E-01  8.50000000E-01  8.50000000E-01  8.50000000E-01
  8.50000000E-01  8.50000000E-01  8.50000000E-01  8.50000000E-01  8.50000000E-01
  8.50000000E-01  8.50000000E-01  8.50000000E-01  8.50000000E-01  8.50000000E-01
  8.50000000E-01  8.50000000E-01  8.50000000E-01  8.50000000E-01  8.50000000E-01
  8.50000000E-01  8.50000000E-01  8.50000000E-01  8.50000000E-01  8.50000000E-01
  8.50000000E-01  8.50000000E-01  8.50000000E-01  8.50000000E-01  8.50000000E-01
  8.50000000E-01  8.50000000E-01  8.50000000E-01  8.50000000E-01  8.50000000E-01
  8.50000000E-01  8.50000000E-01  8.50000000E-01  8.50000000E-01  8.50000000E-01
  8.50000000E-01  8.50000000E-01  8.50000000E-01  8.50000000E-01  8.50000000E-01
  8.50000000E-01  8.50000000E-01  8.50000000E-01  8.50000000E-01  8.50000000E-01
  8.50000000E-01  8.50000000E-01  8.50000000E-01  8.50000000E-01  8.50000000E-01
  8.50000000E-01  8.50000000E-01  8.50000000E-01  8.50000000E-01  8.50000000E-01
  8.50000000E-01  8.50000000E-01  8.50000000E-01  8.50000000E-01  8.50000000E-01
  8.50000000E-01  8.50000000E-01  8.50000000E-01  8.50000000E-01  8.50000000E-01
  8.50000000E-01  8.50000000E-01  8.50000000E-01  8.50000000E-01  8.50000000E-01
  8.50000000E-01  8.50000000E-01  8.50000000E-01  8.50000000E-01  8.50000000E-01
  8.50000000E-01  8.50000000E-01  8.50000000E-01  8.50000000E-01  8.50000000E-01
  8.50000000E-01  8.50000000E-01  8.50000000E-01  8.50000000E-01  8.50000000E-01
  8.50000000E-01  8.50000000E-01  8.50000000E-01  8.50000000E-01  8.50000000E-01
  8.50000000E-01  8.50000000E-01  8.50000000E-01  8.50000000E-01  8.50000000E-01
  8.50000000E-01  8.50000000E-01  8.50000000E-01  8.50000000E-01  8.50000000E-01
  8.50000000E-01  8.50000000E-01  8.50000000E-01  8.50000000E-01  8.50000000E-01
  8.50000000E-01  8.50000000E-01  8.50000000E-01  8.50000000E-01  8.50000000E-01
  8.50000000E-01  8.50000000E-01  8.50000000E-01  8.50000000E-01  8.50000000E-01
  8.50000000E-01  8.50000000E-01  8.50000000E-01  8.50000000E-01  8.50000000E-01
  8.50000000E-01  8.50000000E-01  8.50000000E-01  8.50000000E-01  8.50000000E-01
  8.50000000E-01  8.50000000E-01  8.50000000E-01  8.50000000E-01  8.50000000E-01
  8.50000000E-01  8.50000000E-01  8.50000000E-01  8.50000000E-01  8.50000000E-01
  8.50000000E-01  8.50000000E-01  8.50000000E-01  8.50000000E-01  8.50000000E-01
  8.50000000E-01  8.50000000E-01  8.50000000E-01  8.50000000E-01  8.50000000E-01
  8.50000000E-01  8.50000000E-01  8.50000000E-01  8.50000000E-01  8.50000000E-01
  8.50000000E-01  8.50000000E-01  8.50000000E-01  8.50000000E-01  8.50000000E-01
  8.50000000E-01  8.50000000E-01  8.50000000E-01  8.50000000E-01  8.50000000E-01
  8.50000000E-01  8.50000000E-01  8.50000000E-01  8.50000000E-01  8.50000000E-01
  8.50000000E-01  8.50000000E-01  8.50000000E-01  8.50000000E-01  8.50000000E-01
  8.50000000E-01  8.50000000E-01  8.50000000E-01  8.50000000E-01  8.50000000E-01
  8.50000000E-01  8.50000000E-01  8.50000000E-01  8.50000000E-01  8.50000000E-01
  8.50000000E-01  8.50000000E-01  8.50000000E-01  8.50000000E-01  8.50000000E-01
  8.50000000E-01  8.50000000E-01  8.50000000E-01  8.50000000E-01  8.50000000E-01
  8.50000000E-01  8.50000000E-01  8.50000000E-01  8.50000000E-01  8.50000000E-01
  8.50000000E-01  8.50000000E-01  8.50000000E-01  8.50000000E-01  8.50000000E-01
  8.50000000E-01  8.50000000E-01  8.50000000E-01  8.50000000E-01  8.50000000E-01
  8.50000000E-01  8.50000000E-01  8.50000000E-01  8.50000000E-01  8.50000000E-01
  8.50000000E-01  8.50000000E-01  8.50000000E-01  8.50000000E-01  8.50000000E-01
  8.50000000E-01  8.50000000E-01  8.50000000E-01  8.50000000E-01  8.50000000E-01
  8.50000000E-01  8.50000000E-01  8.50000000E-01  8.50000000E-01  8.50000000E-01
  8.50000000E-01  8.50000000E-01  8.50000000E-01  8.50000000E-01  8.50000000E-01
  8.50000000E-01  8.50000000E-01  8.50000000E-01  8.50000000E-01  8.50000000E-01
  8.50000000E-01  8.50000000E-01  8.50000000E-01  8.50000000E-01  8.50000000E-01
  8.50000000E-01  8.50000000E-01  8.50000000E-01  8.50000000E-01  8.50000000E-01
  8.50000000E-01  8.50000000E-01  8.50000000E-01  8.50000000E-01  8.50000000E-01
  8.50000000E-01  8.50000000E-01  8.50000000E-01  8.50000000E-01  8.50000000E-01
  8.50000000E-01  8.50000000E-01  8.50000000E-01  8.50000000E-01  8.50000000E-01
  8.50000000E-01  8.50000000E-01  8.50000000E-01  8.50000000E-01  8.50000000E-01
  8.50000000E-01  8.50000000E-01  8.50000000E-01  8.50000000E-01  8.50000000E-01
  8.50000000E-01  8.50000000E-01  8.50000000E-01  8.50000000E-01  8.50000000E-01
  8.50000000E-01  8.50000000E-01  8.50000000E-01  8.50000000E-01  8.50000000E-01
  8.50000000E-01  8.50000000E-01  8.50000000E-01  8.50000000E-01  8.50000000E-01
  8.50000000E-01  8.50000000E-01  8.50000000E-01  8.50000000E-01  8.50000000E-01
  8.50000000E-01  8.50000000E-01  8.50000000E-01  8.50000000E-01  8.50000000E-01
  8.50000000E-01  8.50000000E-01  8.50000000E-01  8.50000000E-01  8.50000000E-01
  8.50000000E-01  8.50000000E-01  8.50000000E-01  8.50000000E-01  8.50000000E-01
  8.50000000E-01  8.50000000E-01  8.50000000E-01  8.50000000E-01  8.50000000E-01
  8.50000000E-01  8.50000000E-01  8.50000000E-01  8.50000000E-01  8.50000000E-01
  8.50000000E-01  8.50000000E-01  8.50000000E-01  8.50000000E-01  8.50000000E-01
  8.50000000E-01  8.50000000E-01  8.50000000E-01  8.50000000E-01  8.50000000E-01
  8.50000000E-01  8.50000000E-01  8.50000000E-01  8.50000000E-01  8.50000000E-01
  8.50000000E-01  8.50000000E-01  8.50000000E-01  8.50000000E-01  8.50000000E-01
  8.50000000E-01  8.50000000E-01  8.50000000E-01  8.50000000E-01  8.50000000E-01
  8.50000000E-01  8.50000000E-01  8.50000000E-01  8.50000000E-01  8.50000000E-01
  8.50000000E-01  8.50000000E-01  8.50000000E-01  8.50000000E-01  8.50000000E-01
  8.50000000E-01  8.50000000E-01  8.50000000E-01  8.50000000E-01  8.50000000E-01
  8.50000000E-01  8.50000000E-01  8.50000000E-01  8.50000000E-01  8.50000000E-01
  8.50000000E-01  8.50000000E-01  8.50000000E-01  8.50000000E-01  8.50000000E-01
  8.50000000E-01  8.50000000E-01  8.50000000E-01  8.50000000E-01  8.50000000E-01
  8.50000000E-01  8.50000000E-01  8.50000000E-01  8.50000000E-01  8.50000000E-01
  8.50000000E-01  8.50000000E-01  8.50000000E-01  8.50000000E-01  8.50000000E-01
  8.50000000E-01  8.50000000E-01  8.50000000E-01  8.50000000E-01  8.50000000E-01
  8.50000000E-01  8.50000000E-01  8.50000000E-01  8.50000000E-01  8.50000000E-01
  8.50000000E-01  8.50000000E-01  8.50000000E-01  8.50000000E-01  8.50000000E-01
  8.50000000E-01  8.50000000E-01  8.50000000E-01  8.50000000E-01  8.50000000E-01
  8.50000000E-01  8.50000000E-01  8.50000000E-01  8.50000000E-01  8.50000000E-01
  8.50000000E-01  8.50000000E-01  8.50000000E-01  8.50000000E-01  8.50000000E-01
  8.50000000E-01  8.50000000E-01  8.50000000E-01  8.50000000E-01  8.50000000E-01
  8.50000000E-01  8.50000000E-01  8.50000000E-01  8.50000000E-01  8.50000000E-01
  8.50000000E-01  8.50000000E-01  8.50000000E-01  8.50000000E-01  8.50000000E-01
  8.50000000E-01  8.50000000E-01  8.50000000E-01  8.50000000E-01  8.50000000E-01
  8.50000000E-01  8.50000000E-01  8.50000000E-01  8.50000000E-01  8.50000000E-01
  8.50000000E-01  8.50000000E-01  8.50000000E-01  8.50000000E-01  8.50000000E-01
  8.50000000E-01  8.50000000E-01  8.50000000E-01  8.50000000E-01  8.50000000E-01
  8.50000000E-01  8.50000000E-01  8.50000000E-01  8.50000000E-01  8.50000000E-01
  8.50000000E-01  8.50000000E-01  8.50000000E-01  8.50000000E-01  8.50000000E-01
  8.50000000E-01  8.50000000E-01  8.50000000E-01  8.50000000E-01  8.50000000E-01
  8.50000000E-01  8.50000000E-01  8.50000000E-01  8.50000000E-01  8.50000000E-01
  8.50000000E-01  8.50000000E-01  8.50000000E-01  8.50000000E-01  8.50000000E-01
  8.50000000E-01  8.50000000E-01  8.50000000E-01  8.50000000E-01  8.50000000E-01
  8.50000000E-01  8.50000000E-01  8.50000000E-01  8.50000000E-01  8.50000000E-01
  8.50000000E-01  8.50000000E-01  8.50000000E-01  8.50000000E-01  8.50000000E-01
  8.50000000E-01  8.50000000E-01  8.50000000E-01  8.50000000E-01  8.50000000E-01
  8.50000000E-01  8.50000000E-01  8.50000000E-01  8.50000000E-01  8.50000000E-01
  8.50000000E-01  8.50000000E-01  8.50000000E-01  8.50000000E-01  8.50000000E-01
  8.50000000E-01  8.50000000E-01  8.50000000E-01  8.50000000E-01  8.50000000E-01
  8.50000000E-01  8.50000000E-01  8.50000000E-01  8.50000000E-01  8.50000000E-01
  8.50000000E-01  8.50000000E-01  8.50000000E-01  8.50000000E-01  8.50000000E-01
  8.50000000E-01  8.50000000E-01  8.50000000E-01  8.50000000E-01  8.50000000E-01
  8.50000000E-01  8.50000000E-01  8.50000000E-01  8.50000000E-01  8.50000000E-01
  8.50000000E-01  8.50000000E-01  8.50000000E-01  8.50000000E-01  8.50000000E-01
  8.50000000E-01  8.50000000E-01  8.50000000E-01  8.50000000E-01  8.50000000E-01
  8.50000000E-01  8.50000000E-01  8.50000000E-01  8.50000000E-01  8.50000000E-01
  8.50000000E-01  8.50000000E-01  8.50000000E-01  8.50000000E-01  8.50000000E-01
  8.50000000E-01  8.50000000E-01  8.50000000E-01  8.50000000E-01  8.50000000E-01
  8.50000000E-01  8.50000000E-01  8.50000000E-01  8.50000000E-01  8.50000000E-01
  8.50000000E-01  8.50000000E-01  8.50000000E-01  8.50000000E-01  8.50000000E-01
  8.50000000E-01  8.50000000E-01  8.50000000E-01  8.50000000E-01  8.50000000E-01
  8.50000000E-01  8.50000000E-01  8.50000000E-01  8.50000000E-01  8.50000000E-01
  8.50000000E-01  8.50000000E-01  8.50000000E-01  8.50000000E-01  8.50000000E-01
  8.50000000E-01  8.50000000E-01  8.50000000E-01  8.50000000E-01  8.50000000E-01
  8.50000000E-01  8.50000000E-01  8.50000000E-01  8.50000000E-01  8.50000000E-01
  8.50000000E-01  8.50000000E-01  8.50000000E-01  8.50000000E-01  8.50000000E-01
  8.50000000E-01  8.50000000E-01  8.50000000E-01  8.50000000E-01  8.50000000E-01
  8.50000000E-01  8.50000000E-01  8.50000000E-01  8.50000000E-01  8.50000000E-01
  8.50000000E-01  8.50000000E-01  8.50000000E-01  8.50000000E-01  8.50000000E-01
  8.50000000E-01  8.50000000E-01  8.50000000E-01  8.50000000E-01  8.50000000E-01
  8.50000000E-01  8.50000000E-01  8.50000000E-01  8.50000000E-01  8.50000000E-01
  8.50000000E-01  8.50000000E-01  8.50000000E-01  8.50000000E-01  8.50000000E-01
  8.50000000E-01  8.50000000E-01  8.50000000E-01  8.50000000E-01  8.50000000E-01
  8.50000000E-01  8.50000000E-01  8.50000000E-01  8.50000000E-01  8.50000000E-01
  8.50000000E-01  8.50000000E-01  8.50000000E-01  8.50000000E-01  8.50000000E-01
  8.50000000E-01  8.50000000E-01  8.50000000E-01  8.50000000E-01  8.50000000E-01
  8.50000000E-01  8.50000000E-01  8.50000000E-01  8.50000000E-01  8.50000000E-01
  8.50000000E-01  8.50000000E-01  8.50000000E-01  8.50000000E-01  8.50000000E-01
  8.50000000E-01  8.50000000E-01  8.50000000E-01  8.50000000E-01  8.50000000E-01
  8.50000000E-01  8.50000000E-01  8.50000000E-01  8.50000000E-01  8.50000000E-01
  8.50000000E-01  8.50000000E-01  8.50000000E-01  8.50000000E-01  8.50000000E-01
  8.50000000E-01  8.50000000E-01  8.50000000E-01  8.50000000E-01  8.50000000E-01
  8.50000000E-01  8.50000000E-01  8.50000000E-01  8.50000000E-01  8.50000000E-01
  8.50000000E-01  8.50000000E-01  8.50000000E-01  8.50000000E-01  8.50000000E-01
  8.50000000E-01  8.50000000E-01  8.50000000E-01  8.50000000E-01  8.50000000E-01
  8.50000000E-01  8.50000000E-01  8.50000000E-01  8.50000000E-01  8.50000000E-01
  8.50000000E-01  8.50000000E-01  8.50000000E-01  8.50000000E-01  8.50000000E-01
  8.50000000E-01  8.50000000E-01  8.50000000E-01  8.50000000E-01  8.50000000E-01
  8.50000000E-01  8.50000000E-01  8.50000000E-01  8.50000000E-01  8.50000000E-01
  8.50000000E-01  8.50000000E-01  8.50000000E-01  8.50000000E-01  8.50000000E-01
  8.50000000E-01  8.50000000E-01  8.50000000E-01  8.50000000E-01  8.50000000E-01
  8.50000000E-01  8.50000000E-01  8.50000000E-01  8.50000000E-01  8.50000000E-01
  8.50000000E-01  8.50000000E-01  8.50000000E-01  8.50000000E-01  8.50000000E-01
  8.50000000E-01  8.50000000E-01  8.50000000E-01  8.50000000E-01  8.50000000E-01
  8.50000000E-01  8.50000000E-01  8.50000000E-01  8.50000000E-01  8.50000000E-01
  8.50000000E-01  8.50000000E-01  8.50000000E-01  8.50000000E-01  8.50000000E-01
  8.50000000E-01  8.50000000E-01  8.50000000E-01  8.50000000E-01  8.50000000E-01
  8.50000000E-01  8.50000000E-01  8.50000000E-01  8.50000000E-01  8.50000000E-01
  8.50000000E-01  8.50000000E-01  8.50000000E-01  8.50000000E-01  8.50000000E-01
  8.50000000E-01  8.50000000E-01  8.50000000E-01  8.50000000E-01  8.50000000E-01
  8.50000000E-01  8.50000000E-01  8.50000000E-01  8.50000000E-01  8.50000000E-01
  8.50000000E-01  8.50000000E-01  8.50000000E-01  8.50000000E-01  8.50000000E-01
  8.50000000E-01  8.50000000E-01  8.50000000E-01  8.50000000E-01  8.50000000E-01
  8.50000000E-01  8.50000000E-01  8.50000000E-01  8.50000000E-01  8.50000000E-01
  8.50000000E-01  8.50000000E-01  8.50000000E-01  8.50000000E-01  8.50000000E-01
  8.50000000E-01  8.50000000E-01  8.50000000E-01  8.50000000E-01  8.50000000E-01
  8.50000000E-01  8.50000000E-01  8.50000000E-01  8.50000000E-01  8.50000000E-01
  8.50000000E-01  8.50000000E-01  8.50000000E-01  8.50000000E-01  8.50000000E-01
  8.50000000E-01  8.50000000E-01  8.50000000E-01  8.50000000E-01  8.50000000E-01
  8.50000000E-01  8.50000000E-01  8.50000000E-01  8.50000000E-01  8.50000000E-01
  8.50000000E-01  8.50000000E-01  8.50000000E-01  8.50000000E-01  8.50000000E-01
  8.50000000E-01  8.50000000E-01  8.50000000E-01  8.50000000E-01  8.50000000E-01
  8.50000000E-01  8.50000000E-01  8.50000000E-01  8.50000000E-01  8.50000000E-01
  8.50000000E-01  8.50000000E-01  8.50000000E-01  8.50000000E-01  8.50000000E-01
  8.50000000E-01  8.50000000E-01  8.50000000E-01  8.50000000E-01  8.50000000E-01
  8.50000000E-01  8.50000000E-01  8.50000000E-01  8.50000000E-01  8.50000000E-01
  8.50000000E-01  8.50000000E-01  8.50000000E-01  8.50000000E-01  8.50000000E-01
  8.50000000E-01  8.50000000E-01  8.50000000E-01  8.50000000E-01  8.50000000E-01
  8.50000000E-01  8.50000000E-01  8.50000000E-01  8.50000000E-01  8.50000000E-01
  8.50000000E-01  8.50000000E-01  8.50000000E-01  8.50000000E-01  8.50000000E-01
  8.50000000E-01  8.50000000E-01  8.50000000E-01  8.50000000E-01  8.50000000E-01
  8.50000000E-01  8.50000000E-01  8.50000000E-01  8.50000000E-01  8.50000000E-01
  8.50000000E-01  8.50000000E-01  8.50000000E-01  8.50000000E-01  8.50000000E-01
  8.50000000E-01  8.50000000E-01  8.50000000E-01  8.50000000E-01  8.50000000E-01
  8.50000000E-01  8.50000000E-01  8.50000000E-01  8.50000000E-01  8.50000000E-01
  8.50000000E-01  8.50000000E-01  8.50000000E-01  8.50000000E-01  8.50000000E-01
  8.50000000E-01  8.50000000E-01  8.50000000E-01  8.50000000E-01  8.50000000E-01
  8.50000000E-01  8.50000000E-01  8.50000000E-01  8.50000000E-01  8.50000000E-01
  8.50000000E-01  8.50000000E-01  8.50000000E-01  8.50000000E-01  8.50000000E-01
  8.50000000E-01  8.50000000E-01  8.50000000E-01  8.50000000E-01  8.50000000E-01
  8.50000000E-01  8.50000000E-01  8.50000000E-01  8.50000000E-01  8.50000000E-01
  8.50000000E-01  8.50000000E-01  8.50000000E-01  8.50000000E-01  8.50000000E-01
  8.50000000E-01  8.50000000E-01  8.50000000E-01  8.50000000E-01  8.50000000E-01
  8.50000000E-01  8.50000000E-01  8.50000000E-01  8.50000000E-01  8.50000000E-01
  8.50000000E-01  8.50000000E-01  8.50000000E-01  8.50000000E-01  8.50000000E-01
  8.50000000E-01  8.50000000E-01  8.50000000E-01  8.50000000E-01  8.50000000E-01
  8.50000000E-01  8.50000000E-01  8.50000000E-01  8.50000000E-01  8.50000000E-01
  8.50000000E-01  8.50000000E-01  8.50000000E-01  8.50000000E-01  8.50000000E-01
  8.50000000E-01  8.50000000E-01  8.50000000E-01  8.50000000E-01  8.50000000E-01
  8.50000000E-01  8.50000000E-01  8.50000000E-01  8.50000000E-01  8.50000000E-01
  8.50000000E-01  8.50000000E-01  8.50000000E-01  8.50000000E-01  8.50000000E-01
  8.50000000E-01  8.50000000E-01  8.50000000E-01  8.50000000E-01  8.50000000E-01
  8.50000000E-01  8.50000000E-01  8.50000000E-01  8.50000000E-01  8.50000000E-01
  8.50000000E-01  8.50000000E-01  8.50000000E-01  8.50000000E-01  8.50000000E-01
  8.50000000E-01  8.50000000E-01  8.50000000E-01  8.50000000E-01  8.50000000E-01
  8.50000000E-01  8.50000000E-01  8.50000000E-01  8.50000000E-01  8.50000000E-01
  8.50000000E-01  8.50000000E-01  8.50000000E-01  8.50000000E-01  8.50000000E-01
  8.50000000E-01  8.50000000E-01  8.50000000E-01  8.50000000E-01  8.50000000E-01
  8.50000000E-01  8.50000000E-01  8.50000000E-01  8.50000000E-01  8.50000000E-01
  8.50000000E-01  8.50000000E-01  8.50000000E-01  8.50000000E-01  8.50000000E-01
  8.50000000E-01  8.50000000E-01  8.50000000E-01  8.50000000E-01  8.50000000E-01
  8.50000000E-01  8.50000000E-01  8.50000000E-01  8.50000000E-01  8.50000000E-01
  8.50000000E-01  8.50000000E-01  8.50000000E-01  8.50000000E-01  8.50000000E-01
  8.50000000E-01  8.50000000E-01  8.50000000E-01  8.50000000E-01  8.50000000E-01
  8.50000000E-01  8.50000000E-01  8.50000000E-01  8.50000000E-01  8.50000000E-01
  8.50000000E-01  8.50000000E-01  8.50000000E-01  8.50000000E-01  8.50000000E-01
  8.50000000E-01  8.50000000E-01  8.50000000E-01  8.50000000E-01  8.50000000E-01
  8.50000000E-01  8.50000000E-01  8.50000000E-01  8.50000000E-01  8.50000000E-01
  8.50000000E-01  8.50000000E-01  8.50000000E-01  8.50000000E-01  8.50000000E-01
  8.50000000E-01  8.50000000E-01  8.50000000E-01  8.50000000E-01  8.50000000E-01
  8.50000000E-01  8.50000000E-01  8.50000000E-01  8.50000000E-01  8.50000000E-01
  8.50000000E-01  8.50000000E-01  8.50000000E-01  8.50000000E-01  8.50000000E-01
  8.50000000E-01  8.50000000E-01  8.50000000E-01  8.50000000E-01  8.50000000E-01
  8.50000000E-01  8.50000000E-01  8.50000000E-01  8.50000000E-01  8.50000000E-01
  8.50000000E-01  8.50000000E-01  8.50000000E-01  8.50000000E-01  8.50000000E-01
  8.50000000E-01  8.50000000E-01  8.50000000E-01  8.50000000E-01  8.50000000E-01
  8.50000000E-01  8.50000000E-01  8.50000000E-01  8.50000000E-01  8.50000000E-01
  8.50000000E-01  8.50000000E-01  8.50000000E-01  8.50000000E-01  8.50000000E-01
  8.50000000E-01  8.50000000E-01  8.50000000E-01  8.50000000E-01  8.50000000E-01
  8.50000000E-01  8.50000000E-01  8.50000000E-01  8.50000000E-01  8.50000000E-01
  8.50000000E-01  8.50000000E-01  8.50000000E-01  8.50000000E-01  8.50000000E-01
  8.50000000E-01  8.50000000E-01  8.50000000E-01  8.50000000E-01  8.50000000E-01
  8.50000000E-01  8.50000000E-01  8.50000000E-01  8.50000000E-01  8.50000000E-01
  8.50000000E-01  8.50000000E-01  8.50000000E-01  8.50000000E-01  8.50000000E-01
  8.50000000E-01  8.50000000E-01  8.50000000E-01  8.50000000E-01  8.50000000E-01
  8.50000000E-01  8.50000000E-01  8.50000000E-01  8.50000000E-01  8.50000000E-01
  8.50000000E-01  8.50000000E-01  8.50000000E-01  8.50000000E-01  8.50000000E-01
  8.50000000E-01  8.50000000E-01  8.50000000E-01  8.50000000E-01  8.50000000E-01
  8.50000000E-01  8.50000000E-01  8.50000000E-01  8.50000000E-01  8.50000000E-01
  8.50000000E-01  8.50000000E-01  8.50000000E-01  8.50000000E-01  8.50000000E-01
  8.50000000E-01  8.50000000E-01  8.50000000E-01  8.50000000E-01  8.50000000E-01
  8.50000000E-01  8.50000000E-01  8.50000000E-01  8.50000000E-01  8.50000000E-01
  8.50000000E-01  8.50000000E-01  8.50000000E-01  8.50000000E-01  8.50000000E-01
  8.50000000E-01  8.50000000E-01  8.50000000E-01  8.50000000E-01  8.50000000E-01
  8.50000000E-01  8.50000000E-01  8.50000000E-01  8.50000000E-01  8.50000000E-01
  8.50000000E-01  8.50000000E-01  8.50000000E-01  8.50000000E-01  8.50000000E-01
  8.50000000E-01  8.50000000E-01  8.50000000E-01  8.50000000E-01  8.50000000E-01
  8.50000000E-01  8.50000000E-01  8.50000000E-01  8.50000000E-01  8.50000000E-01
  8.50000000E-01  8.50000000E-01  8.50000000E-01  8.50000000E-01  8.50000000E-01
  8.50000000E-01  8.50000000E-01  8.50000000E-01  8.50000000E-01  8.50000000E-01
  8.50000000E-01  8.50000000E-01  8.50000000E-01  8.50000000E-01  8.50000000E-01
  8.50000000E-01  8.50000000E-01  8.50000000E-01  8.50000000E-01  8.50000000E-01
  8.50000000E-01  8.50000000E-01  8.50000000E-01  8.50000000E-01  8.50000000E-01
  8.50000000E-01  8.50000000E-01  8.50000000E-01  8.50000000E-01  8.50000000E-01
  8.50000000E-01  8.50000000E-01  8.50000000E-01  8.50000000E-01  8.50000000E-01
  8.50000000E-01  8.50000000E-01  8.50000000E-01  8.50000000E-01  8.50000000E-01
  8.50000000E-01  8.50000000E-01  8.50000000E-01  8.50000000E-01  8.50000000E-01
  8.50000000E-01  8.50000000E-01  8.50000000E-01  8.50000000E-01  8.50000000E-01
  8.50000000E-01  8.50000000E-01  8.50000000E-01  8.50000000E-01  8.50000000E-01
  8.50000000E-01  8.50000000E-01  8.50000000E-01  8.50000000E-01  8.50000000E-01
  8.50000000E-01  8.50000000E-01  8.50000000E-01  8.50000000E-01  8.50000000E-01
  8.50000000E-01  8.50000000E-01  8.50000000E-01  8.50000000E-01  8.50000000E-01
  8.50000000E-01  8.50000000E-01  8.50000000E-01  8.50000000E-01  8.50000000E-01
  8.50000000E-01  8.50000000E-01  8.50000000E-01  8.50000000E-01  8.50000000E-01
  8.50000000E-01  8.50000000E-01  8.50000000E-01  8.50000000E-01  8.50000000E-01
  8.50000000E-01  8.50000000E-01  8.50000000E-01  8.50000000E-01  8.50000000E-01
  8.50000000E-01  8.50000000E-01  8.50000000E-01  8.50000000E-01  8.50000000E-01
  8.50000000E-01  8.50000000E-01  8.50000000E-01  8.50000000E-01  8.50000000E-01
  8.50000000E-01  8.50000000E-01  8.50000000E-01  8.50000000E-01  8.50000000E-01
  8.50000000E-01  8.50000000E-01  8.50000000E-01  8.50000000E-01  8.50000000E-01
  8.50000000E-01  8.50000000E-01  8.50000000E-01  8.50000000E-01  8.50000000E-01
  8.50000000E-01  8.50000000E-01  8.50000000E-01  8.50000000E-01  8.50000000E-01
  8.50000000E-01  8.50000000E-01  8.50000000E-01  8.50000000E-01  8.50000000E-01
  8.50000000E-01  8.50000000E-01  8.50000000E-01  8.50000000E-01  8.50000000E-01
  8.50000000E-01  8.50000000E-01  8.50000000E-01  8.50000000E-01  8.50000000E-01
  8.50000000E-01  8.50000000E-01  8.50000000E-01  8.50000000E-01  8.50000000E-01
  8.50000000E-01  8.50000000E-01  8.50000000E-01  8.50000000E-01  8.50000000E-01
  8.50000000E-01  8.50000000E-01  8.50000000E-01  8.50000000E-01  8.50000000E-01
  8.50000000E-01  8.50000000E-01  8.50000000E-01  8.50000000E-01  8.50000000E-01
  8.50000000E-01  8.50000000E-01  8.50000000E-01  8.50000000E-01  8.50000000E-01
  8.50000000E-01  8.50000000E-01  8.50000000E-01  8.50000000E-01  8.50000000E-01
  8.50000000E-01  8.50000000E-01  8.50000000E-01  8.50000000E-01  8.50000000E-01
  8.50000000E-01  8.50000000E-01  8.50000000E-01  8.50000000E-01  8.50000000E-01
  8.50000000E-01  8.50000000E-01  8.50000000E-01  8.50000000E-01  8.50000000E-01
  8.50000000E-01  8.50000000E-01  8.50000000E-01  8.50000000E-01  8.50000000E-01
  8.50000000E-01  8.50000000E-01  8.50000000E-01  8.50000000E-01  8.50000000E-01
  8.50000000E-01  8.50000000E-01  8.50000000E-01  8.50000000E-01  8.50000000E-01
  8.50000000E-01  8.50000000E-01  8.50000000E-01  8.50000000E-01  8.50000000E-01
  8.50000000E-01  8.50000000E-01  8.50000000E-01  8.50000000E-01  8.50000000E-01
  8.50000000E-01  8.50000000E-01  8.50000000E-01  8.50000000E-01  8.50000000E-01
  8.50000000E-01  8.50000000E-01  8.50000000E-01  8.50000000E-01  8.50000000E-01
  8.50000000E-01  8.50000000E-01  8.50000000E-01  8.50000000E-01  8.50000000E-01
  8.50000000E-01  8.50000000E-01  8.50000000E-01  8.50000000E-01  8.50000000E-01
  8.50000000E-01  8.50000000E-01  8.50000000E-01  8.50000000E-01  8.50000000E-01
  8.50000000E-01  8.50000000E-01  8.50000000E-01  8.50000000E-01  8.50000000E-01
  8.50000000E-01  8.50000000E-01  8.50000000E-01  8.50000000E-01  8.50000000E-01
  8.50000000E-01  8.50000000E-01  8.50000000E-01  8.50000000E-01  8.50000000E-01
  8.50000000E-01  8.50000000E-01  8.50000000E-01  8.50000000E-01  8.50000000E-01
  8.50000000E-01  8.50000000E-01  8.50000000E-01  8.50000000E-01  8.50000000E-01
  8.50000000E-01  8.50000000E-01  8.50000000E-01  8.50000000E-01  8.50000000E-01
  8.50000000E-01  8.50000000E-01  8.50000000E-01  8.50000000E-01  8.50000000E-01
  8.50000000E-01  8.50000000E-01  8.50000000E-01  8.50000000E-01  8.50000000E-01
  8.50000000E-01  8.50000000E-01  8.50000000E-01  8.50000000E-01  8.50000000E-01
  8.50000000E-01  8.50000000E-01  8.50000000E-01  8.50000000E-01  8.50000000E-01
  8.50000000E-01  8.50000000E-01  8.50000000E-01  8.50000000E-01  8.50000000E-01
  8.50000000E-01  8.50000000E-01  8.50000000E-01  8.50000000E-01  8.50000000E-01
  8.50000000E-01  8.50000000E-01  8.50000000E-01  8.50000000E-01  8.50000000E-01
  8.50000000E-01  8.50000000E-01  8.50000000E-01  8.50000000E-01  8.50000000E-01
  8.50000000E-01  8.50000000E-01  8.50000000E-01  8.50000000E-01  8.50000000E-01
  8.50000000E-01  8.50000000E-01  8.50000000E-01  8.50000000E-01  8.50000000E-01
  8.50000000E-01  8.50000000E-01  8.50000000E-01  8.50000000E-01  8.50000000E-01
  8.50000000E-01  8.50000000E-01  8.50000000E-01  8.50000000E-01  8.50000000E-01
  8.50000000E-01  8.50000000E-01  8.50000000E-01  8.50000000E-01  8.50000000E-01
  8.50000000E-01  8.50000000E-01  8.50000000E-01  8.50000000E-01  8.50000000E-01
  8.50000000E-01  8.50000000E-01  8.50000000E-01  8.50000000E-01  8.50000000E-01
  8.50000000E-01  8.50000000E-01  8.50000000E-01  8.50000000E-01  8.50000000E-01
  8.50000000E-01  8.50000000E-01  8.50000000E-01  8.50000000E-01  8.50000000E-01
  8.50000000E-01  8.50000000E-01  8.50000000E-01  8.50000000E-01  8.50000000E-01
  8.50000000E-01  8.50000000E-01  8.50000000E-01  8.50000000E-01  8.50000000E-01
  8.50000000E-01  8.50000000E-01  8.50000000E-01  8.50000000E-01  8.50000000E-01
  8.50000000E-01  8.50000000E-01  8.50000000E-01  8.50000000E-01  8.50000000E-01
  8.50000000E-01  8.50000000E-01  8.50000000E-01  8.50000000E-01  8.50000000E-01
  8.50000000E-01  8.50000000E-01  8.50000000E-01  8.50000000E-01  8.50000000E-01
  8.50000000E-01  8.50000000E-01  8.50000000E-01  8.50000000E-01  8.50000000E-01
  8.50000000E-01  8.50000000E-01  8.50000000E-01  8.50000000E-01  8.50000000E-01
  8.50000000E-01  8.50000000E-01  8.50000000E-01  8.50000000E-01  8.50000000E-01
  8.50000000E-01  8.50000000E-01  8.50000000E-01  8.50000000E-01  8.50000000E-01
  8.50000000E-01  8.50000000E-01  8.50000000E-01  8.50000000E-01  8.50000000E-01
  8.50000000E-01  8.50000000E-01  8.50000000E-01  8.50000000E-01  8.50000000E-01
  8.50000000E-01  8.50000000E-01  8.50000000E-01  8.50000000E-01  8.50000000E-01
  8.50000000E-01  8.50000000E-01  8.50000000E-01  8.50000000E-01  8.50000000E-01
  8.50000000E-01  8.50000000E-01  8.50000000E-01  8.50000000E-01  8.50000000E-01
  8.50000000E-01  8.50000000E-01  8.50000000E-01  8.50000000E-01  8.50000000E-01
  8.50000000E-01  8.50000000E-01  8.50000000E-01  8.50000000E-01  8.50000000E-01
  8.50000000E-01  8.50000000E-01  8.50000000E-01  8.50000000E-01  8.50000000E-01
  8.50000000E-01  8.50000000E-01  8.50000000E-01  8.50000000E-01  8.50000000E-01
  8.50000000E-01  8.50000000E-01  8.50000000E-01  8.50000000E-01  8.50000000E-01
  8.50000000E-01  8.50000000E-01  8.50000000E-01  8.50000000E-01  8.50000000E-01
  8.50000000E-01  8.50000000E-01  8.50000000E-01  8.50000000E-01  8.50000000E-01
  8.50000000E-01  8.50000000E-01  8.50000000E-01  8.50000000E-01  8.50000000E-01
  8.50000000E-01  8.50000000E-01  8.50000000E-01  8.50000000E-01  8.50000000E-01
  8.50000000E-01  8.50000000E-01  8.50000000E-01  8.50000000E-01  8.50000000E-01
  8.50000000E-01  8.50000000E-01  8.50000000E-01  8.50000000E-01  8.50000000E-01
  8.50000000E-01  8.50000000E-01  8.50000000E-01  8.50000000E-01  8.50000000E-01
  8.50000000E-01  8.50000000E-01  8.50000000E-01  8.50000000E-01  8.50000000E-01
  8.50000000E-01  8.50000000E-01  8.50000000E-01  8.50000000E-01  8.50000000E-01
  8.50000000E-01  8.50000000E-01  8.50000000E-01  8.50000000E-01  8.50000000E-01
  8.50000000E-01  8.50000000E-01  8.50000000E-01  8.50000000E-01  8.50000000E-01
  8.50000000E-01  8.50000000E-01  8.50000000E-01  8.50000000E-01  8.50000000E-01
  8.50000000E-01  8.50000000E-01  8.50000000E-01  8.50000000E-01  8.50000000E-01
  8.50000000E-01  8.50000000E-01  8.50000000E-01  8.50000000E-01  8.50000000E-01
  8.50000000E-01  8.50000000E-01  8.50000000E-01  8.50000000E-01  8.50000000E-01
  8.50000000E-01  8.50000000E-01  8.50000000E-01  8.50000000E-01  8.50000000E-01
  8.50000000E-01  8.50000000E-01  8.50000000E-01  8.50000000E-01  8.50000000E-01
  8.50000000E-01  8.50000000E-01  8.50000000E-01  8.50000000E-01  8.50000000E-01
  8.50000000E-01  8.50000000E-01  8.50000000E-01  8.50000000E-01  8.50000000E-01
  8.50000000E-01  8.50000000E-01  8.50000000E-01  8.50000000E-01  8.50000000E-01
  8.50000000E-01  8.50000000E-01  8.50000000E-01  8.50000000E-01  8.50000000E-01
  8.50000000E-01  8.50000000E-01  8.50000000E-01  8.50000000E-01  8.50000000E-01
  8.50000000E-01  8.50000000E-01  8.50000000E-01  8.50000000E-01  8.50000000E-01
  8.50000000E-01  8.50000000E-01  8.50000000E-01  8.50000000E-01  8.50000000E-01
  8.50000000E-01  8.50000000E-01  8.50000000E-01  8.50000000E-01  8.50000000E-01
  8.50000000E-01  8.50000000E-01  8.50000000E-01  8.50000000E-01  8.50000000E-01
  8.50000000E-01  8.50000000E-01  8.50000000E-01  8.50000000E-01  8.50000000E-01
  8.50000000E-01  8.50000000E-01  8.50000000E-01  8.50000000E-01  8.50000000E-01
  8.50000000E-01  8.50000000E-01  8.50000000E-01  8.50000000E-01  8.50000000E-01
  8.50000000E-01  8.50000000E-01  8.50000000E-01  8.50000000E-01  8.50000000E-01
  8.50000000E-01  8.50000000E-01  8.50000000E-01  8.50000000E-01  8.50000000E-01
  8.50000000E-01  8.50000000E-01  8.50000000E-01  8.50000000E-01  8.50000000E-01
  8.50000000E-01  8.50000000E-01  8.50000000E-01  8.50000000E-01  8.50000000E-01
  8.50000000E-01  8.50000000E-01  8.50000000E-01  8.50000000E-01  8.50000000E-01
  8.50000000E-01  8.50000000E-01  8.50000000E-01  8.50000000E-01  8.50000000E-01
  8.50000000E-01  8.50000000E-01  8.50000000E-01  8.50000000E-01  8.50000000E-01
  8.50000000E-01  8.50000000E-01  8.50000000E-01  8.50000000E-01  8.50000000E-01
  8.50000000E-01  8.50000000E-01  8.50000000E-01  8.50000000E-01  8.50000000E-01
  8.50000000E-01  8.50000000E-01  8.50000000E-01  8.50000000E-01  8.50000000E-01
  8.50000000E-01  8.50000000E-01  8.50000000E-01  8.50000000E-01  8.50000000E-01
  8.50000000E-01  8.50000000E-01  8.50000000E-01  8.50000000E-01  8.50000000E-01
  8.50000000E-01  8.50000000E-01  8.50000000E-01  8.50000000E-01  8.50000000E-01
  8.50000000E-01  8.50000000E-01  8.50000000E-01  8.50000000E-01  8.50000000E-01
  8.50000000E-01  8.50000000E-01  8.50000000E-01  8.50000000E-01  8.50000000E-01
  8.50000000E-01  8.50000000E-01  8.50000000E-01  8.50000000E-01  8.50000000E-01
  8.50000000E-01  8.50000000E-01  8.50000000E-01  8.50000000E-01  8.50000000E-01
  8.50000000E-01  8.50000000E-01  8.50000000E-01  8.50000000E-01  8.50000000E-01
  8.50000000E-01  8.50000000E-01  8.50000000E-01  8.50000000E-01  8.50000000E-01
  8.50000000E-01  8.50000000E-01  8.50000000E-01  8.50000000E-01  8.50000000E-01
  8.50000000E-01  8.50000000E-01  8.50000000E-01  8.50000000E-01  8.50000000E-01
  8.50000000E-01  8.50000000E-01  8.50000000E-01  8.50000000E-01  8.50000000E-01
  8.50000000E-01  8.50000000E-01  8.50000000E-01  8.50000000E-01  8.50000000E-01
  8.50000000E-01  8.50000000E-01  8.50000000E-01  8.50000000E-01  8.50000000E-01
  8.50000000E-01  8.50000000E-01  8.50000000E-01  8.50000000E-01  8.50000000E-01
  8.50000000E-01  8.50000000E-01  8.50000000E-01  8.50000000E-01  8.50000000E-01
  8.50000000E-01  8.50000000E-01  8.50000000E-01  8.50000000E-01  8.50000000E-01
  8.50000000E-01  8.50000000E-01  8.50000000E-01  8.50000000E-01  8.50000000E-01
  8.50000000E-01  8.50000000E-01  8.50000000E-01  8.50000000E-01  8.50000000E-01
  8.50000000E-01  8.50000000E-01  8.50000000E-01  8.50000000E-01  8.50000000E-01
  8.50000000E-01  8.50000000E-01  8.50000000E-01  8.50000000E-01  8.50000000E-01
  8.50000000E-01  8.50000000E-01  8.50000000E-01  8.50000000E-01  8.50000000E-01
  8.50000000E-01  8.50000000E-01  8.50000000E-01  8.50000000E-01  8.50000000E-01
  8.50000000E-01  8.50000000E-01  8.50000000E-01  8.50000000E-01  8.50000000E-01
  8.50000000E-01  8.50000000E-01  8.50000000E-01  8.50000000E-01  8.50000000E-01
  8.50000000E-01  8.50000000E-01  8.50000000E-01  8.50000000E-01  8.50000000E-01
  8.50000000E-01  8.50000000E-01  8.50000000E-01  8.50000000E-01  8.50000000E-01
  8.50000000E-01  8.50000000E-01  8.50000000E-01  8.50000000E-01  8.50000000E-01
  8.50000000E-01  8.50000000E-01  8.50000000E-01  8.50000000E-01  8.50000000E-01
  8.50000000E-01  8.50000000E-01  8.50000000E-01  8.50000000E-01  8.50000000E-01
  8.50000000E-01  8.50000000E-01  8.50000000E-01  8.50000000E-01  8.50000000E-01
  8.50000000E-01  8.50000000E-01  8.50000000E-01  8.50000000E-01  8.50000000E-01
  8.50000000E-01  8.50000000E-01  8.50000000E-01  8.50000000E-01  8.50000000E-01
  8.50000000E-01  8.50000000E-01  8.50000000E-01  8.50000000E-01  8.50000000E-01
  8.50000000E-01  8.50000000E-01  8.50000000E-01  8.50000000E-01  8.50000000E-01
  8.50000000E-01  8.50000000E-01  8.50000000E-01  8.50000000E-01  8.50000000E-01
  8.50000000E-01  8.50000000E-01  8.50000000E-01  8.50000000E-01  8.50000000E-01
  8.50000000E-01  8.50000000E-01  8.50000000E-01  8.50000000E-01  8.50000000E-01
  8.50000000E-01  8.50000000E-01  8.50000000E-01  8.50000000E-01  8.50000000E-01
  8.50000000E-01  8.50000000E-01  8.50000000E-01  8.50000000E-01  8.50000000E-01
  8.50000000E-01  8.50000000E-01  8.50000000E-01  8.50000000E-01  8.50000000E-01
  8.50000000E-01  8.50000000E-01  8.50000000E-01  8.50000000E-01  8.50000000E-01
  8.50000000E-01  8.50000000E-01  8.50000000E-01  8.50000000E-01  8.50000000E-01
  8.50000000E-01  8.50000000E-01  8.50000000E-01  8.50000000E-01  8.50000000E-01
  8.50000000E-01  8.50000000E-01  8.50000000E-01  8.50000000E-01  8.50000000E-01
  8.50000000E-01  8.50000000E-01  8.50000000E-01  8.50000000E-01  8.50000000E-01
  8.50000000E-01  8.50000000E-01  8.50000000E-01  8.50000000E-01  8.50000000E-01
  8.50000000E-01  8.50000000E-01  8.50000000E-01  8.50000000E-01  8.50000000E-01
  8.50000000E-01  8.50000000E-01  8.50000000E-01  8.50000000E-01  8.50000000E-01
  8.50000000E-01  8.50000000E-01  8.50000000E-01  8.50000000E-01  8.50000000E-01
  8.50000000E-01  8.50000000E-01  8.50000000E-01  8.50000000E-01  8.50000000E-01
  8.50000000E-01  8.50000000E-01  8.50000000E-01  8.50000000E-01  8.50000000E-01
  8.50000000E-01  8.50000000E-01  8.50000000E-01  8.50000000E-01  8.50000000E-01
  8.50000000E-01  8.50000000E-01  8.50000000E-01  8.50000000E-01  8.50000000E-01
  8.50000000E-01  8.50000000E-01  8.50000000E-01  8.50000000E-01  8.50000000E-01
  8.50000000E-01  8.50000000E-01  8.50000000E-01  8.50000000E-01  8.50000000E-01
  8.50000000E-01  8.50000000E-01  8.50000000E-01  8.50000000E-01  8.50000000E-01
  8.50000000E-01  8.50000000E-01  8.50000000E-01  8.50000000E-01  8.50000000E-01
  8.50000000E-01  8.50000000E-01  8.50000000E-01  8.50000000E-01  8.50000000E-01
  8.50000000E-01  8.50000000E-01  8.50000000E-01  8.50000000E-01  8.50000000E-01
  8.50000000E-01  8.50000000E-01  8.50000000E-01  8.50000000E-01  8.50000000E-01
  8.50000000E-01  8.50000000E-01  8.50000000E-01  8.50000000E-01  8.50000000E-01
  8.50000000E-01  8.50000000E-01  8.50000000E-01  8.50000000E-01  8.50000000E-01
  8.50000000E-01  8.50000000E-01  8.50000000E-01  8.50000000E-01  8.50000000E-01
  8.50000000E-01  8.50000000E-01  8.50000000E-01  8.50000000E-01  8.50000000E-01
  8.50000000E-01  8.50000000E-01  8.50000000E-01  8.50000000E-01  8.50000000E-01
  8.50000000E-01  8.50000000E-01  8.50000000E-01  8.50000000E-01  8.50000000E-01
  8.50000000E-01  8.50000000E-01  8.50000000E-01  8.50000000E-01  8.50000000E-01
  8.50000000E-01  8.50000000E-01  8.50000000E-01  8.50000000E-01  8.50000000E-01
  8.50000000E-01  8.50000000E-01  8.50000000E-01  8.50000000E-01  8.50000000E-01
  8.50000000E-01  8.50000000E-01  8.50000000E-01  8.50000000E-01  8.50000000E-01
  8.50000000E-01  8.50000000E-01  8.50000000E-01  8.50000000E-01  8.50000000E-01
  8.50000000E-01  8.50000000E-01  8.50000000E-01  8.50000000E-01  8.50000000E-01
  8.50000000E-01  8.50000000E-01  8.50000000E-01  8.50000000E-01  8.50000000E-01
  8.50000000E-01  8.50000000E-01  8.50000000E-01  8.50000000E-01  8.50000000E-01
  8.50000000E-01  8.50000000E-01  8.50000000E-01  8.50000000E-01  8.50000000E-01
  8.50000000E-01  8.50000000E-01  8.50000000E-01  8.50000000E-01  8.50000000E-01
  8.50000000E-01  8.50000000E-01  8.50000000E-01  8.50000000E-01  8.50000000E-01
  8.50000000E-01  8.50000000E-01  8.50000000E-01  8.50000000E-01  8.50000000E-01
  8.50000000E-01  8.50000000E-01  8.50000000E-01  8.50000000E-01  8.50000000E-01
  8.50000000E-01  8.50000000E-01  8.50000000E-01  8.50000000E-01  8.50000000E-01
  8.50000000E-01  8.50000000E-01  8.50000000E-01  8.50000000E-01  8.50000000E-01
  8.50000000E-01  8.50000000E-01  8.50000000E-01  8.50000000E-01  8.50000000E-01
  8.50000000E-01  8.50000000E-01  8.50000000E-01  8.50000000E-01  8.50000000E-01
  8.50000000E-01  8.50000000E-01  8.50000000E-01  8.50000000E-01  8.50000000E-01
  8.50000000E-01  8.50000000E-01  8.50000000E-01  8.50000000E-01  8.50000000E-01
  8.50000000E-01  8.50000000E-01  8.50000000E-01  8.50000000E-01  8.50000000E-01
  8.50000000E-01  8.50000000E-01  8.50000000E-01  8.50000000E-01  8.50000000E-01
  8.50000000E-01  8.50000000E-01  8.50000000E-01  8.50000000E-01  8.50000000E-01
  8.50000000E-01  8.50000000E-01  8.50000000E-01  8.50000000E-01  8.50000000E-01
  8.50000000E-01  8.50000000E-01  8.50000000E-01  8.50000000E-01  8.50000000E-01
  8.50000000E-01  8.50000000E-01  8.50000000E-01  8.50000000E-01  8.50000000E-01
  8.50000000E-01  8.50000000E-01  8.50000000E-01  8.50000000E-01  8.50000000E-01
  8.50000000E-01  8.50000000E-01  8.50000000E-01  8.50000000E-01  8.50000000E-01
  8.50000000E-01  8.50000000E-01  8.50000000E-01  8.50000000E-01  8.50000000E-01
  8.50000000E-01  8.50000000E-01  8.50000000E-01  8.50000000E-01  8.50000000E-01
  8.50000000E-01  8.50000000E-01  8.50000000E-01  8.50000000E-01  8.50000000E-01
  8.50000000E-01  8.50000000E-01  8.50000000E-01  8.50000000E-01  8.50000000E-01
  8.50000000E-01  8.50000000E-01  8.50000000E-01  8.50000000E-01  8.50000000E-01
  8.50000000E-01  8.50000000E-01  8.50000000E-01  8.50000000E-01  8.50000000E-01
  8.50000000E-01  8.50000000E-01  8.50000000E-01  8.50000000E-01  8.50000000E-01
  8.50000000E-01  8.50000000E-01  8.50000000E-01  8.50000000E-01  8.50000000E-01
  8.50000000E-01  8.50000000E-01  8.50000000E-01  8.50000000E-01  8.50000000E-01
  8.50000000E-01  8.50000000E-01  8.50000000E-01  8.50000000E-01  8.50000000E-01
  8.50000000E-01  8.50000000E-01  8.50000000E-01  8.50000000E-01  8.50000000E-01
  8.50000000E-01  8.50000000E-01  8.50000000E-01  8.50000000E-01  8.50000000E-01
  8.50000000E-01  8.50000000E-01  8.50000000E-01  8.50000000E-01  8.50000000E-01
  8.50000000E-01  8.50000000E-01  8.50000000E-01  8.50000000E-01  8.50000000E-01
  8.50000000E-01  8.50000000E-01  8.50000000E-01  8.50000000E-01  8.50000000E-01
  8.50000000E-01  8.50000000E-01  8.50000000E-01  8.50000000E-01  8.50000000E-01
  8.50000000E-01  8.50000000E-01  8.50000000E-01  8.50000000E-01  8.50000000E-01
  8.50000000E-01  8.50000000E-01  8.50000000E-01  8.50000000E-01  8.50000000E-01
  8.50000000E-01  8.50000000E-01  8.50000000E-01  8.50000000E-01  8.50000000E-01
  8.50000000E-01  8.50000000E-01  8.50000000E-01  8.50000000E-01  8.50000000E-01
  8.50000000E-01  8.50000000E-01  8.50000000E-01  8.50000000E-01  8.50000000E-01
  8.50000000E-01  8.50000000E-01  8.50000000E-01  8.50000000E-01  8.50000000E-01
  8.50000000E-01  8.50000000E-01  8.50000000E-01  8.50000000E-01  8.50000000E-01
  8.50000000E-01  8.50000000E-01  8.50000000E-01  8.50000000E-01  8.50000000E-01
  8.50000000E-01  8.50000000E-01  8.50000000E-01  8.50000000E-01  8.50000000E-01
  8.50000000E-01  8.50000000E-01  8.50000000E-01  8.50000000E-01  8.50000000E-01
  8.50000000E-01  8.50000000E-01  8.50000000E-01  8.50000000E-01  8.50000000E-01
  8.50000000E-01  8.50000000E-01  8.50000000E-01  8.50000000E-01  8.50000000E-01
  8.50000000E-01  8.50000000E-01  8.50000000E-01  8.50000000E-01  8.50000000E-01
  8.50000000E-01  8.50000000E-01  8.50000000E-01  8.50000000E-01  8.50000000E-01
  8.50000000E-01  8.50000000E-01  8.50000000E-01  8.50000000E-01  8.50000000E-01
  8.50000000E-01  8.50000000E-01  8.50000000E-01  8.50000000E-01  8.50000000E-01
  8.50000000E-01  8.50000000E-01  8.50000000E-01  8.50000000E-01  8.50000000E-01
  8.50000000E-01  8.50000000E-01  8.50000000E-01  8.50000000E-01  8.50000000E-01
  8.50000000E-01  8.50000000E-01  8.50000000E-01  8.50000000E-01  8.50000000E-01
  8.50000000E-01  8.50000000E-01  8.50000000E-01  8.50000000E-01  8.50000000E-01
  8.50000000E-01  8.50000000E-01  8.50000000E-01  8.50000000E-01  8.50000000E-01
  8.50000000E-01  8.50000000E-01  8.50000000E-01  8.50000000E-01  8.50000000E-01
  8.50000000E-01  8.50000000E-01  8.50000000E-01  8.50000000E-01  8.50000000E-01
  8.50000000E-01  8.50000000E-01  8.50000000E-01  8.50000000E-01  8.50000000E-01
  8.50000000E-01  8.50000000E-01  8.50000000E-01  8.50000000E-01  8.50000000E-01
  8.50000000E-01  8.50000000E-01  8.50000000E-01  8.50000000E-01  8.50000000E-01
  8.50000000E-01  8.50000000E-01  8.50000000E-01  8.50000000E-01  8.50000000E-01
  8.50000000E-01  8.50000000E-01  8.50000000E-01  8.50000000E-01  8.50000000E-01
  8.50000000E-01  8.50000000E-01  8.50000000E-01  8.50000000E-01  8.50000000E-01
  8.50000000E-01  8.50000000E-01  8.50000000E-01  8.50000000E-01  8.50000000E-01
  8.50000000E-01  8.50000000E-01  8.50000000E-01  8.50000000E-01  8.50000000E-01
  8.50000000E-01  8.50000000E-01  8.50000000E-01  8.50000000E-01  8.50000000E-01
  8.50000000E-01  8.50000000E-01  8.50000000E-01  8.50000000E-01  8.50000000E-01
  8.50000000E-01  8.50000000E-01  8.50000000E-01  8.50000000E-01  8.50000000E-01
  8.50000000E-01  8.50000000E-01  8.50000000E-01  8.50000000E-01  8.50000000E-01
  8.50000000E-01  8.50000000E-01  8.50000000E-01  8.50000000E-01  8.50000000E-01
  8.50000000E-01  8.50000000E-01  8.50000000E-01  8.50000000E-01  8.50000000E-01
  8.50000000E-01  8.50000000E-01  8.50000000E-01  8.50000000E-01  8.50000000E-01
  8.50000000E-01  8.50000000E-01  8.50000000E-01  8.50000000E-01  8.50000000E-01
  8.50000000E-01  8.50000000E-01  8.50000000E-01  8.50000000E-01  8.50000000E-01
  8.50000000E-01  8.50000000E-01  8.50000000E-01  8.50000000E-01  8.50000000E-01
  8.50000000E-01  8.50000000E-01  8.50000000E-01  8.50000000E-01  8.50000000E-01
  8.50000000E-01  8.50000000E-01  8.50000000E-01  8.50000000E-01  8.50000000E-01
  8.50000000E-01  8.50000000E-01  8.50000000E-01  8.50000000E-01  8.50000000E-01
  8.50000000E-01  8.50000000E-01  8.50000000E-01  8.50000000E-01  8.50000000E-01
  8.50000000E-01  8.50000000E-01  8.50000000E-01  8.50000000E-01  8.50000000E-01
  8.50000000E-01  8.50000000E-01  8.50000000E-01  8.50000000E-01  8.50000000E-01
  8.50000000E-01  8.50000000E-01  8.50000000E-01  8.50000000E-01  8.50000000E-01
  8.50000000E-01  8.50000000E-01  8.50000000E-01  8.50000000E-01  8.50000000E-01
  8.50000000E-01  8.50000000E-01  8.50000000E-01  8.50000000E-01  8.50000000E-01
  8.50000000E-01  8.50000000E-01  8.50000000E-01  8.50000000E-01  8.50000000E-01
  8.50000000E-01  8.50000000E-01  8.50000000E-01  8.50000000E-01  8.50000000E-01
  8.50000000E-01  8.50000000E-01  8.50000000E-01  8.50000000E-01  8.50000000E-01
  8.50000000E-01  8.50000000E-01  8.50000000E-01  8.50000000E-01  8.50000000E-01
  8.50000000E-01  8.50000000E-01  8.50000000E-01  8.50000000E-01  8.50000000E-01
  8.50000000E-01  8.50000000E-01  8.50000000E-01  8.50000000E-01  8.50000000E-01
  8.50000000E-01  8.50000000E-01  8.50000000E-01  8.50000000E-01  8.50000000E-01
  8.50000000E-01  8.50000000E-01  8.50000000E-01  8.50000000E-01  8.50000000E-01
  8.50000000E-01  8.50000000E-01  8.50000000E-01  8.50000000E-01  8.50000000E-01
  8.50000000E-01  8.50000000E-01  8.50000000E-01  8.50000000E-01  8.50000000E-01
  8.50000000E-01  8.50000000E-01  8.50000000E-01  8.50000000E-01  8.50000000E-01
  8.50000000E-01  8.50000000E-01  8.50000000E-01  8.50000000E-01  8.50000000E-01
  8.50000000E-01  8.50000000E-01  8.50000000E-01  8.50000000E-01  8.50000000E-01
  8.50000000E-01  8.50000000E-01  8.50000000E-01  8.50000000E-01  8.50000000E-01
  8.50000000E-01  8.50000000E-01  8.50000000E-01  8.50000000E-01  8.50000000E-01
  8.50000000E-01  8.50000000E-01  8.50000000E-01  8.50000000E-01  8.50000000E-01
  8.50000000E-01  8.50000000E-01  8.50000000E-01  8.50000000E-01  8.50000000E-01
  8.50000000E-01  8.50000000E-01  8.50000000E-01  8.50000000E-01  8.50000000E-01
  8.50000000E-01  8.50000000E-01  8.50000000E-01  8.50000000E-01  8.50000000E-01
  8.50000000E-01  8.50000000E-01  8.50000000E-01  8.50000000E-01  8.50000000E-01
  8.50000000E-01  8.50000000E-01  8.50000000E-01  8.50000000E-01  8.50000000E-01
  8.50000000E-01  8.50000000E-01  8.50000000E-01  8.50000000E-01  8.50000000E-01
  8.50000000E-01  8.50000000E-01  8.50000000E-01  8.50000000E-01  8.50000000E-01
  8.50000000E-01  8.50000000E-01  8.50000000E-01  8.50000000E-01  8.50000000E-01
  8.50000000E-01  8.50000000E-01  8.50000000E-01  8.50000000E-01  8.50000000E-01
  8.50000000E-01  8.50000000E-01  8.50000000E-01  8.50000000E-01  8.50000000E-01
  8.50000000E-01  8.50000000E-01  8.50000000E-01  8.50000000E-01  8.50000000E-01
  8.50000000E-01  8.50000000E-01  8.50000000E-01  8.50000000E-01  8.50000000E-01
  8.50000000E-01  8.50000000E-01  8.50000000E-01  8.50000000E-01  8.50000000E-01
  8.50000000E-01  8.50000000E-01  8.50000000E-01  8.50000000E-01  8.50000000E-01
  8.50000000E-01  8.50000000E-01  8.50000000E-01  8.50000000E-01  8.50000000E-01
  8.50000000E-01  8.50000000E-01  8.50000000E-01  8.50000000E-01  8.50000000E-01
  8.50000000E-01  8.50000000E-01  8.50000000E-01  8.50000000E-01  8.50000000E-01
  8.50000000E-01  8.50000000E-01  8.50000000E-01  8.50000000E-01  8.50000000E-01
  8.50000000E-01  8.50000000E-01  8.50000000E-01  8.50000000E-01  8.50000000E-01
  8.50000000E-01  8.50000000E-01  8.50000000E-01  8.50000000E-01  8.50000000E-01
  8.50000000E-01  8.50000000E-01  8.50000000E-01  8.50000000E-01  8.50000000E-01
  8.50000000E-01  8.50000000E-01  8.50000000E-01  8.50000000E-01  8.50000000E-01
  8.50000000E-01  8.50000000E-01  8.50000000E-01  8.50000000E-01  8.50000000E-01
  8.50000000E-01  8.50000000E-01  8.50000000E-01  8.50000000E-01  8.50000000E-01
  8.50000000E-01  8.50000000E-01  8.50000000E-01  8.50000000E-01  8.50000000E-01
  8.50000000E-01  8.50000000E-01  8.50000000E-01  8.50000000E-01  8.50000000E-01
  8.50000000E-01  8.50000000E-01  8.50000000E-01  8.50000000E-01  8.50000000E-01
  8.50000000E-01  8.50000000E-01  8.50000000E-01  8.50000000E-01  8.50000000E-01
  8.50000000E-01  8.50000000E-01  8.50000000E-01  8.50000000E-01  8.50000000E-01
  8.50000000E-01  8.50000000E-01  8.50000000E-01  8.50000000E-01  8.50000000E-01
  8.50000000E-01  8.50000000E-01  8.50000000E-01  8.50000000E-01  8.50000000E-01
  8.50000000E-01  8.50000000E-01  8.50000000E-01  8.50000000E-01  8.50000000E-01
  8.50000000E-01  8.50000000E-01  8.50000000E-01  8.50000000E-01  8.50000000E-01
  8.50000000E-01  8.50000000E-01  8.50000000E-01  8.50000000E-01  8.50000000E-01
  8.50000000E-01  8.50000000E-01  8.50000000E-01  8.50000000E-01  8.50000000E-01
  8.50000000E-01  8.50000000E-01  8.50000000E-01  8.50000000E-01  8.50000000E-01
  8.50000000E-01  8.50000000E-01  8.50000000E-01  8.50000000E-01  8.50000000E-01
  8.50000000E-01  8.50000000E-01  8.50000000E-01  8.50000000E-01  8.50000000E-01
  8.50000000E-01  8.50000000E-01  8.50000000E-01  8.50000000E-01  8.50000000E-01
  8.50000000E-01  8.50000000E-01  8.50000000E-01  8.50000000E-01  8.50000000E-01
  8.50000000E-01  8.50000000E-01  8.50000000E-01  8.50000000E-01  8.50000000E-01
  8.50000000E-01  8.50000000E-01  8.50000000E-01  8.50000000E-01  8.50000000E-01
  8.50000000E-01  8.50000000E-01  8.50000000E-01  8.50000000E-01  8.50000000E-01
  8.50000000E-01  8.50000000E-01  8.50000000E-01  8.50000000E-01  8.50000000E-01
  8.50000000E-01  8.50000000E-01  8.50000000E-01  8.50000000E-01  8.50000000E-01
  8.50000000E-01  8.50000000E-01  8.50000000E-01  8.50000000E-01  8.50000000E-01
  8.50000000E-01  8.50000000E-01  8.50000000E-01  8.50000000E-01  8.50000000E-01
  8.50000000E-01  8.50000000E-01  8.50000000E-01  8.50000000E-01  8.50000000E-01
  8.50000000E-01  8.50000000E-01  8.50000000E-01  8.50000000E-01  8.50000000E-01
  8.50000000E-01  8.50000000E-01  8.50000000E-01  8.50000000E-01  8.50000000E-01
  8.50000000E-01  8.50000000E-01  8.50000000E-01  8.50000000E-01  8.50000000E-01
  8.50000000E-01  8.50000000E-01  8.50000000E-01  8.50000000E-01  8.50000000E-01
  8.50000000E-01  8.50000000E-01  8.50000000E-01  8.50000000E-01  8.50000000E-01
  8.50000000E-01  8.50000000E-01  8.50000000E-01  8.50000000E-01  8.50000000E-01
  8.50000000E-01  8.50000000E-01  8.50000000E-01  8.50000000E-01  8.50000000E-01
  8.50000000E-01  8.50000000E-01  8.50000000E-01  8.50000000E-01  8.50000000E-01
  8.50000000E-01  8.50000000E-01  8.50000000E-01  8.50000000E-01  8.50000000E-01
  8.50000000E-01  8.50000000E-01  8.50000000E-01  8.50000000E-01  8.50000000E-01
  8.50000000E-01  8.50000000E-01  8.50000000E-01  8.50000000E-01  8.50000000E-01
  8.50000000E-01  8.50000000E-01  8.50000000E-01  8.50000000E-01  8.50000000E-01
  8.50000000E-01  8.50000000E-01  8.50000000E-01  8.50000000E-01  8.50000000E-01
  8.50000000E-01  8.50000000E-01  8.50000000E-01  8.50000000E-01  8.50000000E-01
  8.50000000E-01  8.50000000E-01  8.50000000E-01  8.50000000E-01  8.50000000E-01
  8.50000000E-01  8.50000000E-01  8.50000000E-01  8.50000000E-01  8.50000000E-01
  8.50000000E-01  8.50000000E-01  8.50000000E-01  8.50000000E-01  8.50000000E-01
  8.50000000E-01  8.50000000E-01  8.50000000E-01  8.50000000E-01  8.50000000E-01
  8.50000000E-01  8.50000000E-01  8.50000000E-01  8.50000000E-01  8.50000000E-01
  8.50000000E-01  8.50000000E-01  8.50000000E-01  8.50000000E-01  8.50000000E-01
  8.50000000E-01  8.50000000E-01  8.50000000E-01  8.50000000E-01  8.50000000E-01
  8.50000000E-01  8.50000000E-01  8.50000000E-01  8.50000000E-01  8.50000000E-01
  8.50000000E-01  8.50000000E-01  8.50000000E-01  8.50000000E-01  8.50000000E-01
  8.50000000E-01  8.50000000E-01  8.50000000E-01  8.50000000E-01  8.50000000E-01
  8.50000000E-01  8.50000000E-01  8.50000000E-01  8.50000000E-01  8.50000000E-01
  8.50000000E-01  8.50000000E-01  8.50000000E-01  8.50000000E-01  8.50000000E-01
  8.50000000E-01  8.50000000E-01  8.50000000E-01  8.50000000E-01  8.50000000E-01
  8.50000000E-01  8.50000000E-01  8.50000000E-01  8.50000000E-01  8.50000000E-01
  8.50000000E-01  8.50000000E-01  8.50000000E-01  8.50000000E-01  8.50000000E-01
  8.50000000E-01  8.50000000E-01  8.50000000E-01  8.50000000E-01  8.50000000E-01
  8.50000000E-01  8.50000000E-01  8.50000000E-01  8.50000000E-01  8.50000000E-01
  8.50000000E-01  8.50000000E-01  8.50000000E-01  8.50000000E-01  8.50000000E-01
  8.50000000E-01  8.50000000E-01  8.50000000E-01  8.50000000E-01  8.50000000E-01
  8.50000000E-01  8.50000000E-01  8.50000000E-01  8.50000000E-01  8.50000000E-01
  8.50000000E-01  8.50000000E-01  8.50000000E-01  8.50000000E-01  8.50000000E-01
  8.50000000E-01  8.50000000E-01  8.50000000E-01  8.50000000E-01  8.50000000E-01
  8.50000000E-01  8.50000000E-01  8.50000000E-01  8.50000000E-01  8.50000000E-01
  8.50000000E-01  8.50000000E-01  8.50000000E-01  8.50000000E-01  8.50000000E-01
  8.50000000E-01  8.50000000E-01  8.50000000E-01  8.50000000E-01  8.50000000E-01
  8.50000000E-01  8.50000000E-01  8.50000000E-01  8.50000000E-01  8.50000000E-01
  8.50000000E-01  8.50000000E-01  8.50000000E-01  8.50000000E-01  8.50000000E-01
  8.50000000E-01  8.50000000E-01  8.50000000E-01  8.50000000E-01  8.50000000E-01
  8.50000000E-01  8.50000000E-01  8.50000000E-01  8.50000000E-01  8.50000000E-01
  8.50000000E-01  8.50000000E-01  8.50000000E-01  8.50000000E-01  8.50000000E-01
  8.50000000E-01  8.50000000E-01  8.50000000E-01  8.50000000E-01  8.50000000E-01
  8.50000000E-01  8.50000000E-01  8.50000000E-01  8.50000000E-01  8.50000000E-01
  8.50000000E-01  8.50000000E-01  8.50000000E-01  8.50000000E-01  8.50000000E-01
  8.50000000E-01  8.50000000E-01  8.50000000E-01  8.50000000E-01  8.50000000E-01
  8.50000000E-01  8.50000000E-01  8.50000000E-01  8.50000000E-01  8.50000000E-01
  8.50000000E-01  8.50000000E-01  8.50000000E-01  8.50000000E-01  8.50000000E-01
  8.50000000E-01  8.50000000E-01  8.50000000E-01  8.50000000E-01  8.50000000E-01
  8.50000000E-01  8.50000000E-01  8.50000000E-01  8.50000000E-01  8.50000000E-01
  8.50000000E-01  8.50000000E-01  8.50000000E-01  8.50000000E-01  8.50000000E-01
  8.50000000E-01  8.50000000E-01  8.50000000E-01  8.50000000E-01  8.50000000E-01
  8.50000000E-01  8.50000000E-01  8.50000000E-01  8.50000000E-01  8.50000000E-01
  8.50000000E-01  8.50000000E-01  8.50000000E-01  8.50000000E-01  8.50000000E-01
  8.50000000E-01  8.50000000E-01  8.50000000E-01  8.50000000E-01  8.50000000E-01
  8.50000000E-01  8.50000000E-01  8.50000000E-01  8.50000000E-01  8.50000000E-01
  8.50000000E-01  8.50000000E-01  8.50000000E-01  8.50000000E-01  8.50000000E-01
  8.50000000E-01  8.50000000E-01  8.50000000E-01  8.50000000E-01  8.50000000E-01
  8.50000000E-01  8.50000000E-01  8.50000000E-01  8.50000000E-01  8.50000000E-01
  8.50000000E-01  8.50000000E-01  8.50000000E-01  8.50000000E-01  8.50000000E-01
  8.50000000E-01  8.50000000E-01  8.50000000E-01  8.50000000E-01  8.50000000E-01
  8.50000000E-01  8.50000000E-01  8.50000000E-01  8.50000000E-01  8.50000000E-01
  8.50000000E-01  8.50000000E-01  8.50000000E-01  8.50000000E-01  8.50000000E-01
  8.50000000E-01  8.50000000E-01  8.50000000E-01  8.50000000E-01  8.50000000E-01
  8.50000000E-01  8.50000000E-01  8.50000000E-01  8.50000000E-01  8.50000000E-01
  8.50000000E-01  8.50000000E-01  8.50000000E-01  8.50000000E-01  8.50000000E-01
  8.50000000E-01  8.50000000E-01  8.50000000E-01  8.50000000E-01  8.50000000E-01
  8.50000000E-01  8.50000000E-01  8.50000000E-01  8.50000000E-01  8.50000000E-01
  8.50000000E-01  8.50000000E-01  8.50000000E-01  8.50000000E-01  8.50000000E-01
  8.50000000E-01  8.50000000E-01  8.50000000E-01  8.50000000E-01  8.50000000E-01
  8.50000000E-01  8.50000000E-01  8.50000000E-01  8.50000000E-01  8.50000000E-01
  8.50000000E-01  8.50000000E-01  8.50000000E-01  8.50000000E-01  8.50000000E-01
  8.50000000E-01  8.50000000E-01  8.50000000E-01  8.50000000E-01  8.50000000E-01
  8.50000000E-01  8.50000000E-01  8.50000000E-01  8.50000000E-01  8.50000000E-01
  8.50000000E-01  8.50000000E-01  8.50000000E-01  8.50000000E-01  8.50000000E-01
  8.50000000E-01  8.50000000E-01  8.50000000E-01  8.50000000E-01  8.50000000E-01
  8.50000000E-01  8.50000000E-01  8.50000000E-01  8.50000000E-01  8.50000000E-01
  8.50000000E-01  8.50000000E-01  8.50000000E-01  8.50000000E-01  8.50000000E-01
  8.50000000E-01  8.50000000E-01  8.50000000E-01  8.50000000E-01  8.50000000E-01
  8.50000000E-01  8.50000000E-01  8.50000000E-01  8.50000000E-01  8.50000000E-01
  8.50000000E-01  8.50000000E-01  8.50000000E-01  8.50000000E-01  8.50000000E-01
  8.50000000E-01  8.50000000E-01  8.50000000E-01  8.50000000E-01  8.50000000E-01
  8.50000000E-01  8.50000000E-01  8.50000000E-01  8.50000000E-01  8.50000000E-01
  8.50000000E-01  8.50000000E-01  8.50000000E-01  8.50000000E-01  8.50000000E-01
  8.50000000E-01  8.50000000E-01  8.50000000E-01  8.50000000E-01  8.50000000E-01
  8.50000000E-01  8.50000000E-01  8.50000000E-01  8.50000000E-01  8.50000000E-01
  8.50000000E-01  8.50000000E-01  8.50000000E-01  8.50000000E-01  8.50000000E-01
  8.50000000E-01  8.50000000E-01  8.50000000E-01  8.50000000E-01  8.50000000E-01
  8.50000000E-01  8.50000000E-01  8.50000000E-01  8.50000000E-01  8.50000000E-01
  8.50000000E-01  8.50000000E-01  8.50000000E-01  8.50000000E-01  8.50000000E-01
  8.50000000E-01  8.50000000E-01  8.50000000E-01  8.50000000E-01  8.50000000E-01
  8.50000000E-01  8.50000000E-01  8.50000000E-01  8.50000000E-01  8.50000000E-01
  8.50000000E-01  8.50000000E-01  8.50000000E-01  8.50000000E-01  8.50000000E-01
  8.50000000E-01  8.50000000E-01  8.50000000E-01  8.50000000E-01  8.50000000E-01
  8.50000000E-01  8.50000000E-01  8.50000000E-01  8.50000000E-01  8.50000000E-01
  8.50000000E-01  8.50000000E-01  8.50000000E-01  8.50000000E-01  8.50000000E-01
  8.50000000E-01  8.50000000E-01  8.50000000E-01  8.50000000E-01  8.50000000E-01
  8.50000000E-01  8.50000000E-01  8.50000000E-01  8.50000000E-01  8.50000000E-01
  8.50000000E-01  8.50000000E-01  8.50000000E-01  8.50000000E-01  8.50000000E-01
  8.50000000E-01  8.50000000E-01  8.50000000E-01  8.50000000E-01  8.50000000E-01
  8.50000000E-01  8.50000000E-01  8.50000000E-01  8.50000000E-01  8.50000000E-01
  8.50000000E-01  8.50000000E-01  8.50000000E-01  8.50000000E-01  8.50000000E-01
  8.50000000E-01  8.50000000E-01  8.50000000E-01  8.50000000E-01  8.50000000E-01
  8.50000000E-01  8.50000000E-01  8.50000000E-01  8.50000000E-01  8.50000000E-01
  8.50000000E-01  8.50000000E-01  8.50000000E-01  8.50000000E-01  8.50000000E-01
  8.50000000E-01  8.50000000E-01  8.50000000E-01  8.50000000E-01  8.50000000E-01
  8.50000000E-01  8.50000000E-01  8.50000000E-01  8.50000000E-01  8.50000000E-01
  8.50000000E-01  8.50000000E-01  8.50000000E-01  8.50000000E-01  8.50000000E-01
  8.50000000E-01  8.50000000E-01  8.50000000E-01  8.50000000E-01  8.50000000E-01
  8.50000000E-01  8.50000000E-01  8.50000000E-01  8.50000000E-01  8.50000000E-01
  8.50000000E-01  8.50000000E-01  8.50000000E-01  8.50000000E-01  8.50000000E-01
  8.50000000E-01  8.50000000E-01  8.50000000E-01  8.50000000E-01  8.50000000E-01
  8.50000000E-01  8.50000000E-01  8.50000000E-01  8.50000000E-01  8.50000000E-01
  8.50000000E-01  8.50000000E-01  8.50000000E-01  8.50000000E-01  8.50000000E-01
  8.50000000E-01  8.50000000E-01  8.50000000E-01  8.50000000E-01  8.50000000E-01
  8.50000000E-01  8.50000000E-01  8.50000000E-01  8.50000000E-01  8.50000000E-01
  8.50000000E-01  8.50000000E-01  8.50000000E-01  8.50000000E-01  8.50000000E-01
  8.50000000E-01  8.50000000E-01  8.50000000E-01  8.50000000E-01  8.50000000E-01
  8.50000000E-01  8.50000000E-01  8.50000000E-01  8.50000000E-01  8.50000000E-01
  8.50000000E-01  8.50000000E-01  8.50000000E-01  8.50000000E-01  8.50000000E-01
  8.50000000E-01  8.50000000E-01  8.50000000E-01  8.50000000E-01  8.50000000E-01
  8.50000000E-01  8.50000000E-01  8.50000000E-01  8.50000000E-01  8.50000000E-01
  8.50000000E-01  8.50000000E-01  8.50000000E-01  8.50000000E-01  8.50000000E-01
  8.50000000E-01  8.50000000E-01  8.50000000E-01  8.50000000E-01  8.50000000E-01
  8.50000000E-01  8.50000000E-01  8.50000000E-01  8.50000000E-01  8.50000000E-01
  8.50000000E-01  8.50000000E-01  8.50000000E-01  8.50000000E-01  8.50000000E-01
  8.50000000E-01  8.50000000E-01  8.50000000E-01  8.50000000E-01  8.50000000E-01
  8.50000000E-01  8.50000000E-01  8.50000000E-01  8.50000000E-01  8.50000000E-01
  8.50000000E-01  8.50000000E-01  8.50000000E-01  8.50000000E-01  8.50000000E-01
  8.50000000E-01  8.50000000E-01  8.50000000E-01  8.50000000E-01  8.50000000E-01
  8.50000000E-01  8.50000000E-01  8.50000000E-01  8.50000000E-01  8.50000000E-01
  8.50000000E-01  8.50000000E-01  8.50000000E-01  8.50000000E-01  8.50000000E-01
  8.50000000E-01  8.50000000E-01  8.50000000E-01  8.50000000E-01  8.50000000E-01
  8.50000000E-01  8.50000000E-01  8.50000000E-01  8.50000000E-01  8.50000000E-01
  8.50000000E-01  8.50000000E-01  8.50000000E-01  8.50000000E-01  8.50000000E-01
  8.50000000E-01  8.50000000E-01  8.50000000E-01  8.50000000E-01  8.50000000E-01
  8.50000000E-01  8.50000000E-01  8.50000000E-01  8.50000000E-01  8.50000000E-01
  8.50000000E-01  8.50000000E-01  8.50000000E-01  8.50000000E-01  8.50000000E-01
  8.50000000E-01  8.50000000E-01  8.50000000E-01  8.50000000E-01  8.50000000E-01
  8.50000000E-01  8.50000000E-01  8.50000000E-01  8.50000000E-01  8.50000000E-01
  8.50000000E-01  8.50000000E-01  8.50000000E-01  8.50000000E-01  8.50000000E-01
  8.50000000E-01  8.50000000E-01  8.50000000E-01  8.50000000E-01  8.50000000E-01
  8.50000000E-01  8.50000000E-01  8.50000000E-01  8.50000000E-01  8.50000000E-01
  8.50000000E-01  8.50000000E-01  8.50000000E-01  8.50000000E-01  8.50000000E-01
  8.50000000E-01  8.50000000E-01  8.50000000E-01  8.50000000E-01  8.50000000E-01
  8.50000000E-01  8.50000000E-01  8.50000000E-01  8.50000000E-01  8.50000000E-01
  8.50000000E-01  8.50000000E-01  8.50000000E-01  8.50000000E-01  8.50000000E-01
  8.50000000E-01  8.50000000E-01  8.50000000E-01  8.50000000E-01  8.50000000E-01
  8.50000000E-01  8.50000000E-01  8.50000000E-01  8.50000000E-01  8.50000000E-01
  8.50000000E-01  8.50000000E-01  8.50000000E-01  8.50000000E-01  8.50000000E-01
  8.50000000E-01  8.50000000E-01  8.50000000E-01  8.50000000E-01  8.50000000E-01
  8.50000000E-01  8.50000000E-01  8.50000000E-01  8.50000000E-01  8.50000000E-01
  8.50000000E-01  8.50000000E-01  8.50000000E-01  8.50000000E-01  8.50000000E-01
  8.50000000E-01  8.50000000E-01  8.50000000E-01  8.50000000E-01  8.50000000E-01
  8.50000000E-01  8.50000000E-01  8.50000000E-01  8.50000000E-01  8.50000000E-01
  8.50000000E-01  8.50000000E-01  8.50000000E-01  8.50000000E-01  8.50000000E-01
  8.50000000E-01  8.50000000E-01  8.50000000E-01  8.50000000E-01  8.50000000E-01
  8.50000000E-01  8.50000000E-01  8.50000000E-01  8.50000000E-01  8.50000000E-01
  8.50000000E-01  8.50000000E-01  8.50000000E-01  8.50000000E-01  8.50000000E-01
  8.50000000E-01  8.50000000E-01  8.50000000E-01  8.50000000E-01  8.50000000E-01
  8.50000000E-01  8.50000000E-01  8.50000000E-01  8.50000000E-01  8.50000000E-01
  8.50000000E-01  8.50000000E-01  8.50000000E-01  8.50000000E-01  8.50000000E-01
  8.50000000E-01  8.50000000E-01  8.50000000E-01  8.50000000E-01  8.50000000E-01
  8.50000000E-01  8.50000000E-01  8.50000000E-01  8.50000000E-01  8.50000000E-01
  8.50000000E-01  8.50000000E-01  8.50000000E-01  8.50000000E-01  8.50000000E-01
  8.50000000E-01  8.50000000E-01  8.50000000E-01  8.50000000E-01  8.50000000E-01
  8.50000000E-01  8.50000000E-01  8.50000000E-01  8.50000000E-01  8.50000000E-01
  8.50000000E-01  8.50000000E-01  8.50000000E-01  8.50000000E-01  8.50000000E-01
  8.50000000E-01  8.50000000E-01  8.50000000E-01  8.50000000E-01  8.50000000E-01
  8.50000000E-01  8.50000000E-01  8.50000000E-01  8.50000000E-01  8.50000000E-01
  8.50000000E-01  8.50000000E-01  8.50000000E-01  8.50000000E-01  8.50000000E-01
  8.50000000E-01  8.50000000E-01  8.50000000E-01  8.50000000E-01  8.50000000E-01
  8.50000000E-01  8.50000000E-01  8.50000000E-01  8.50000000E-01  8.50000000E-01
  8.50000000E-01  8.50000000E-01  8.50000000E-01  8.50000000E-01  8.50000000E-01
  8.50000000E-01  8.50000000E-01  8.50000000E-01  8.50000000E-01  8.50000000E-01
  8.50000000E-01  8.50000000E-01  8.50000000E-01  8.50000000E-01  8.50000000E-01
  8.50000000E-01  8.50000000E-01  8.50000000E-01  8.50000000E-01  8.50000000E-01
  8.50000000E-01  8.50000000E-01  8.50000000E-01  8.50000000E-01  8.50000000E-01
  8.50000000E-01  8.50000000E-01  8.50000000E-01  8.50000000E-01  8.50000000E-01
  8.50000000E-01  8.50000000E-01  8.50000000E-01  8.50000000E-01  8.50000000E-01
  8.50000000E-01  8.50000000E-01  8.50000000E-01  8.50000000E-01  8.50000000E-01
  8.50000000E-01  8.50000000E-01  8.50000000E-01  8.50000000E-01  8.50000000E-01
  8.50000000E-01  8.50000000E-01  8.50000000E-01  8.50000000E-01  8.50000000E-01
  8.50000000E-01  8.50000000E-01  8.50000000E-01  8.50000000E-01  8.50000000E-01
  8.50000000E-01  8.50000000E-01  8.50000000E-01  8.50000000E-01  8.50000000E-01
  8.50000000E-01  8.50000000E-01  8.50000000E-01  8.50000000E-01  8.50000000E-01
  8.50000000E-01  8.50000000E-01  8.50000000E-01  8.50000000E-01  8.50000000E-01
  8.50000000E-01  8.50000000E-01  8.50000000E-01  8.50000000E-01  8.50000000E-01
  8.50000000E-01  8.50000000E-01  8.50000000E-01  8.50000000E-01  8.50000000E-01
  8.50000000E-01  8.50000000E-01  8.50000000E-01  8.50000000E-01  8.50000000E-01
  8.50000000E-01  8.50000000E-01  8.50000000E-01  8.50000000E-01  8.50000000E-01
  8.50000000E-01  8.50000000E-01  8.50000000E-01  8.50000000E-01  8.50000000E-01
  8.50000000E-01  8.50000000E-01  8.50000000E-01  8.50000000E-01  8.50000000E-01
  8.50000000E-01  8.50000000E-01  8.50000000E-01  8.50000000E-01  8.50000000E-01
  8.50000000E-01  8.50000000E-01  8.50000000E-01  8.50000000E-01  8.50000000E-01
  8.50000000E-01  8.50000000E-01  8.50000000E-01  8.50000000E-01  8.50000000E-01
  8.50000000E-01  8.50000000E-01  8.50000000E-01  8.50000000E-01  8.50000000E-01
  8.50000000E-01  8.50000000E-01  8.50000000E-01  8.50000000E-01  8.50000000E-01
  8.50000000E-01  8.50000000E-01  8.50000000E-01  8.50000000E-01  8.50000000E-01
  8.50000000E-01  8.50000000E-01  8.50000000E-01  8.50000000E-01  8.50000000E-01
  8.50000000E-01  8.50000000E-01  8.50000000E-01  8.50000000E-01  8.50000000E-01
  8.50000000E-01  8.50000000E-01  8.50000000E-01  8.50000000E-01  8.50000000E-01
  8.50000000E-01  8.50000000E-01  8.50000000E-01  8.50000000E-01  8.50000000E-01
  8.50000000E-01  8.50000000E-01  8.50000000E-01  8.50000000E-01  8.50000000E-01
  8.50000000E-01  8.50000000E-01  8.50000000E-01  8.50000000E-01  8.50000000E-01
  8.50000000E-01  8.50000000E-01  8.50000000E-01  8.50000000E-01  8.50000000E-01
  8.50000000E-01  8.50000000E-01  8.50000000E-01  8.50000000E-01  8.50000000E-01
  8.50000000E-01  8.50000000E-01  8.50000000E-01  8.50000000E-01  8.50000000E-01
  8.50000000E-01  8.50000000E-01  8.50000000E-01  8.50000000E-01  8.50000000E-01
  8.50000000E-01  8.50000000E-01  8.50000000E-01  8.50000000E-01  8.50000000E-01
  8.50000000E-01  8.50000000E-01  8.50000000E-01  8.50000000E-01  8.50000000E-01
  8.50000000E-01  8.50000000E-01  8.50000000E-01  8.50000000E-01  8.50000000E-01
  8.50000000E-01  8.50000000E-01  8.50000000E-01  8.50000000E-01  8.50000000E-01
  8.50000000E-01  8.50000000E-01  8.50000000E-01  8.50000000E-01  8.50000000E-01
  8.50000000E-01  8.50000000E-01  8.50000000E-01  8.50000000E-01  8.50000000E-01
  8.50000000E-01  8.50000000E-01  8.50000000E-01  8.50000000E-01  8.50000000E-01
  8.50000000E-01  8.50000000E-01  8.50000000E-01  8.50000000E-01  8.50000000E-01
  8.50000000E-01  8.50000000E-01  8.50000000E-01  8.50000000E-01  8.50000000E-01
  8.50000000E-01  8.50000000E-01  8.50000000E-01  8.50000000E-01  8.50000000E-01
  8.50000000E-01  8.50000000E-01  8.50000000E-01  8.50000000E-01  8.50000000E-01
  8.50000000E-01  8.50000000E-01  8.50000000E-01  8.50000000E-01  8.50000000E-01
  8.50000000E-01  8.50000000E-01  8.50000000E-01  8.50000000E-01  8.50000000E-01
  8.50000000E-01  8.50000000E-01  8.50000000E-01  8.50000000E-01  8.50000000E-01
  8.50000000E-01  8.50000000E-01  8.50000000E-01  8.50000000E-01  8.50000000E-01
  8.50000000E-01  8.50000000E-01  8.50000000E-01  8.50000000E-01  8.50000000E-01
  8.50000000E-01  8.50000000E-01  8.50000000E-01  8.50000000E-01  8.50000000E-01
  8.50000000E-01  8.50000000E-01  8.50000000E-01  8.50000000E-01  8.50000000E-01
  8.50000000E-01  8.50000000E-01  8.50000000E-01  8.50000000E-01  8.50000000E-01
  8.50000000E-01  8.50000000E-01  8.50000000E-01  8.50000000E-01  8.50000000E-01
  8.50000000E-01  8.50000000E-01  8.50000000E-01  8.50000000E-01  8.50000000E-01
  8.50000000E-01  8.50000000E-01  8.50000000E-01  8.50000000E-01  8.50000000E-01
  8.50000000E-01  8.50000000E-01  8.50000000E-01  8.50000000E-01  8.50000000E-01
  8.50000000E-01  8.50000000E-01  8.50000000E-01  8.50000000E-01  8.50000000E-01
  8.50000000E-01  8.50000000E-01  8.50000000E-01  8.50000000E-01  8.50000000E-01
  8.50000000E-01  8.50000000E-01  8.50000000E-01  8.50000000E-01  8.50000000E-01
  8.50000000E-01  8.50000000E-01  8.50000000E-01  8.50000000E-01  8.50000000E-01
  8.50000000E-01  8.50000000E-01  8.50000000E-01  8.50000000E-01  8.50000000E-01
  8.50000000E-01  8.50000000E-01  8.50000000E-01  8.50000000E-01  8.50000000E-01
  8.50000000E-01  8.50000000E-01  8.50000000E-01  8.50000000E-01  8.50000000E-01
  8.50000000E-01  8.50000000E-01  8.50000000E-01  8.50000000E-01  8.50000000E-01
  8.50000000E-01  8.50000000E-01  8.50000000E-01  8.50000000E-01  8.50000000E-01
  8.50000000E-01  8.50000000E-01  8.50000000E-01  8.50000000E-01  8.50000000E-01
  8.50000000E-01  8.50000000E-01  8.50000000E-01  8.50000000E-01  8.50000000E-01
  8.50000000E-01  8.50000000E-01  8.50000000E-01  8.50000000E-01  8.50000000E-01
  8.50000000E-01  8.50000000E-01  8.50000000E-01  8.50000000E-01  8.50000000E-01
  8.50000000E-01  8.50000000E-01  8.50000000E-01  8.50000000E-01  8.50000000E-01
  8.50000000E-01  8.50000000E-01  8.50000000E-01  8.50000000E-01  8.50000000E-01
  8.50000000E-01  8.50000000E-01  8.50000000E-01  8.50000000E-01  8.50000000E-01
  8.50000000E-01  8.50000000E-01  8.50000000E-01  8.50000000E-01  8.50000000E-01
  8.50000000E-01  8.50000000E-01  8.50000000E-01  8.50000000E-01  8.50000000E-01
  8.50000000E-01  8.50000000E-01  8.50000000E-01  8.50000000E-01  8.50000000E-01
  8.50000000E-01  8.50000000E-01  8.50000000E-01  8.50000000E-01  8.50000000E-01
  8.50000000E-01  8.50000000E-01  8.50000000E-01  8.50000000E-01  8.50000000E-01
  8.50000000E-01  8.50000000E-01  8.50000000E-01  8.50000000E-01  8.50000000E-01
  8.50000000E-01  8.50000000E-01  8.50000000E-01  8.50000000E-01  8.50000000E-01
  8.50000000E-01  8.50000000E-01  8.50000000E-01  8.50000000E-01  8.50000000E-01
  8.50000000E-01  8.50000000E-01  8.50000000E-01  8.50000000E-01  8.50000000E-01
  8.50000000E-01  8.50000000E-01  8.50000000E-01  8.50000000E-01  8.50000000E-01
  8.50000000E-01  8.50000000E-01  8.50000000E-01  8.50000000E-01  8.50000000E-01
  8.50000000E-01  8.50000000E-01  8.50000000E-01  8.50000000E-01  8.50000000E-01
  8.50000000E-01  8.50000000E-01  8.50000000E-01  8.50000000E-01  8.50000000E-01
  8.50000000E-01  8.50000000E-01  8.50000000E-01  8.50000000E-01  8.50000000E-01
  8.50000000E-01  8.50000000E-01  8.50000000E-01  8.50000000E-01  8.50000000E-01
  8.50000000E-01  8.50000000E-01  8.50000000E-01  8.50000000E-01  8.50000000E-01
  8.50000000E-01  8.50000000E-01  8.50000000E-01  8.50000000E-01  8.50000000E-01
  8.50000000E-01  8.50000000E-01  8.50000000E-01  8.50000000E-01  8.50000000E-01
  8.50000000E-01  8.50000000E-01  8.50000000E-01  8.50000000E-01  8.50000000E-01
  8.50000000E-01  8.50000000E-01  8.50000000E-01  8.50000000E-01  8.50000000E-01
  8.50000000E-01  8.50000000E-01  8.50000000E-01  8.50000000E-01  8.50000000E-01
  8.50000000E-01  8.50000000E-01  8.50000000E-01  8.50000000E-01  8.50000000E-01
  8.50000000E-01  8.50000000E-01  8.50000000E-01  8.50000000E-01  8.50000000E-01
  8.50000000E-01  8.50000000E-01  8.50000000E-01  8.50000000E-01  8.50000000E-01
  8.50000000E-01  8.50000000E-01  8.50000000E-01  8.50000000E-01  8.50000000E-01
  8.50000000E-01  8.50000000E-01  8.50000000E-01  8.50000000E-01  8.50000000E-01
  8.50000000E-01  8.50000000E-01  8.50000000E-01  8.50000000E-01  8.50000000E-01
  8.50000000E-01  8.50000000E-01  8.50000000E-01  8.50000000E-01  8.50000000E-01
  8.50000000E-01  8.50000000E-01  8.50000000E-01  8.50000000E-01  8.50000000E-01
  8.50000000E-01  8.50000000E-01  8.50000000E-01  8.50000000E-01  8.50000000E-01
  8.50000000E-01  8.50000000E-01  8.50000000E-01  8.50000000E-01  8.50000000E-01
  8.50000000E-01  8.50000000E-01  8.50000000E-01  8.50000000E-01  8.50000000E-01
  8.50000000E-01  8.50000000E-01  8.50000000E-01  8.50000000E-01  8.50000000E-01
  8.50000000E-01  8.50000000E-01  8.50000000E-01  8.50000000E-01  8.50000000E-01
  8.50000000E-01  8.50000000E-01  8.50000000E-01  8.50000000E-01  8.50000000E-01
  8.50000000E-01  8.50000000E-01  8.50000000E-01  8.50000000E-01  8.50000000E-01
  8.50000000E-01  8.50000000E-01  8.50000000E-01  8.50000000E-01  8.50000000E-01
  8.50000000E-01  8.50000000E-01  8.50000000E-01  8.50000000E-01  8.50000000E-01
  8.50000000E-01  8.50000000E-01  8.50000000E-01  8.50000000E-01  8.50000000E-01
  8.50000000E-01  8.50000000E-01  8.50000000E-01  8.50000000E-01  8.50000000E-01
  8.50000000E-01  8.50000000E-01  8.50000000E-01  8.50000000E-01  8.50000000E-01
  8.50000000E-01  8.50000000E-01  8.50000000E-01  8.50000000E-01  8.50000000E-01
  8.50000000E-01  8.50000000E-01  8.50000000E-01  8.50000000E-01  8.50000000E-01
  8.50000000E-01  8.50000000E-01  8.50000000E-01  8.50000000E-01  8.50000000E-01
  8.50000000E-01  8.50000000E-01  8.50000000E-01  8.50000000E-01  8.50000000E-01
  8.50000000E-01  8.50000000E-01  8.50000000E-01  8.50000000E-01  8.50000000E-01
  8.50000000E-01  8.50000000E-01  8.50000000E-01  8.50000000E-01  8.50000000E-01
  8.50000000E-01  8.50000000E-01  8.50000000E-01  8.50000000E-01  8.50000000E-01
  8.50000000E-01  8.50000000E-01  8.50000000E-01  8.50000000E-01  8.50000000E-01
  8.50000000E-01  8.50000000E-01  8.50000000E-01  8.50000000E-01  8.50000000E-01
  8.50000000E-01  8.50000000E-01  8.50000000E-01  8.50000000E-01  8.50000000E-01
  8.50000000E-01  8.50000000E-01  8.50000000E-01  8.50000000E-01  8.50000000E-01
  8.50000000E-01  8.50000000E-01  8.50000000E-01  8.50000000E-01  8.50000000E-01
  8.50000000E-01  8.50000000E-01  8.50000000E-01  8.50000000E-01  8.50000000E-01
  8.50000000E-01  8.50000000E-01  8.50000000E-01  8.50000000E-01  8.50000000E-01
  8.50000000E-01  8.50000000E-01  8.50000000E-01  8.50000000E-01  8.50000000E-01
  8.50000000E-01  8.50000000E-01  8.50000000E-01  8.50000000E-01  8.50000000E-01
  8.50000000E-01  8.50000000E-01  8.50000000E-01  8.50000000E-01  8.50000000E-01
  8.50000000E-01  8.50000000E-01  8.50000000E-01  8.50000000E-01  8.50000000E-01
  8.50000000E-01  8.50000000E-01  8.50000000E-01  8.50000000E-01  8.50000000E-01
  8.50000000E-01  8.50000000E-01  8.50000000E-01  8.50000000E-01  8.50000000E-01
  8.50000000E-01  8.50000000E-01  8.50000000E-01  8.50000000E-01  8.50000000E-01
  8.50000000E-01  8.50000000E-01  8.50000000E-01  8.50000000E-01  8.50000000E-01
  8.50000000E-01  8.50000000E-01  8.50000000E-01  8.50000000E-01  8.50000000E-01
  8.50000000E-01  8.50000000E-01  8.50000000E-01  8.50000000E-01  8.50000000E-01
  8.50000000E-01  8.50000000E-01  8.50000000E-01  8.50000000E-01  8.50000000E-01
  8.50000000E-01  8.50000000E-01  8.50000000E-01  8.50000000E-01  8.50000000E-01
  8.50000000E-01  8.50000000E-01  8.50000000E-01  8.50000000E-01  8.50000000E-01
  8.50000000E-01  8.50000000E-01  8.50000000E-01  8.50000000E-01  8.50000000E-01
  8.50000000E-01  8.50000000E-01  8.50000000E-01  8.50000000E-01  8.50000000E-01
  8.50000000E-01  8.50000000E-01  8.50000000E-01  8.50000000E-01  8.50000000E-01
  8.50000000E-01  8.50000000E-01  8.50000000E-01  8.50000000E-01  8.50000000E-01
  8.50000000E-01  8.50000000E-01  8.50000000E-01  8.50000000E-01  8.50000000E-01
  8.50000000E-01  8.50000000E-01  8.50000000E-01  8.50000000E-01  8.50000000E-01
  8.50000000E-01  8.50000000E-01  8.50000000E-01  8.50000000E-01  8.50000000E-01
  8.50000000E-01  8.50000000E-01  8.50000000E-01  8.50000000E-01  8.50000000E-01
  8.50000000E-01  8.50000000E-01  8.50000000E-01  8.50000000E-01  8.50000000E-01
  8.50000000E-01  8.50000000E-01  8.50000000E-01  8.50000000E-01  8.50000000E-01
  8.50000000E-01  8.50000000E-01  8.50000000E-01  8.50000000E-01  8.50000000E-01
  8.50000000E-01  8.50000000E-01  8.50000000E-01  8.50000000E-01  8.50000000E-01
  8.50000000E-01  8.50000000E-01  8.50000000E-01  8.50000000E-01  8.50000000E-01
  8.50000000E-01  8.50000000E-01  8.50000000E-01  8.50000000E-01  8.50000000E-01
  8.50000000E-01  8.50000000E-01  8.50000000E-01  8.50000000E-01  8.50000000E-01
  8.50000000E-01  8.50000000E-01  8.50000000E-01  8.50000000E-01  8.50000000E-01
  8.50000000E-01  8.50000000E-01  8.50000000E-01  8.50000000E-01  8.50000000E-01
  8.50000000E-01  8.50000000E-01  8.50000000E-01  8.50000000E-01  8.50000000E-01
  8.50000000E-01  8.50000000E-01  8.50000000E-01  8.50000000E-01  8.50000000E-01
  8.50000000E-01  8.50000000E-01  8.50000000E-01  8.50000000E-01  8.50000000E-01
  8.50000000E-01  8.50000000E-01  8.50000000E-01  8.50000000E-01  8.50000000E-01
  8.50000000E-01  8.50000000E-01  8.50000000E-01  8.50000000E-01  8.50000000E-01
  8.50000000E-01  8.50000000E-01  8.50000000E-01  8.50000000E-01  8.50000000E-01
  8.50000000E-01  8.50000000E-01  8.50000000E-01  8.50000000E-01  8.50000000E-01
  8.50000000E-01  8.50000000E-01  8.50000000E-01  8.50000000E-01  8.50000000E-01
  8.50000000E-01  8.50000000E-01  8.50000000E-01  8.50000000E-01  8.50000000E-01
  8.50000000E-01  8.50000000E-01  8.50000000E-01  8.50000000E-01  8.50000000E-01
  8.50000000E-01  8.50000000E-01  8.50000000E-01  8.50000000E-01  8.50000000E-01
  8.50000000E-01  8.50000000E-01  8.50000000E-01  8.50000000E-01  8.50000000E-01
  8.50000000E-01  8.50000000E-01  8.50000000E-01  8.50000000E-01  8.50000000E-01
  8.50000000E-01  8.50000000E-01  8.50000000E-01  8.50000000E-01  8.50000000E-01
  8.50000000E-01  8.50000000E-01  8.50000000E-01  8.50000000E-01  8.50000000E-01
  8.50000000E-01  8.50000000E-01  8.50000000E-01  8.50000000E-01  8.50000000E-01
  8.50000000E-01  8.50000000E-01  8.50000000E-01  8.50000000E-01  8.50000000E-01
  8.50000000E-01  8.50000000E-01  8.50000000E-01  8.50000000E-01  8.50000000E-01
  8.50000000E-01  8.50000000E-01  8.50000000E-01  8.50000000E-01  8.50000000E-01
  8.50000000E-01  8.50000000E-01  8.50000000E-01  8.50000000E-01  8.50000000E-01
  8.50000000E-01  8.50000000E-01  8.50000000E-01  8.50000000E-01  8.50000000E-01
  8.50000000E-01  8.50000000E-01  8.50000000E-01  8.50000000E-01  8.50000000E-01
  8.50000000E-01  8.50000000E-01  8.50000000E-01  8.50000000E-01  8.50000000E-01
  8.50000000E-01  8.50000000E-01  8.50000000E-01  8.50000000E-01  8.50000000E-01
  8.50000000E-01  8.50000000E-01  8.50000000E-01  8.50000000E-01  8.50000000E-01
  8.50000000E-01  8.50000000E-01  8.50000000E-01  8.50000000E-01  8.50000000E-01
  8.50000000E-01  8.50000000E-01  8.50000000E-01  8.50000000E-01  8.50000000E-01
  8.50000000E-01  8.50000000E-01  8.50000000E-01  8.50000000E-01  8.50000000E-01
  8.50000000E-01  8.50000000E-01  8.50000000E-01  8.50000000E-01  8.50000000E-01
  8.50000000E-01  8.50000000E-01  8.50000000E-01  8.50000000E-01  8.50000000E-01
  8.50000000E-01  8.50000000E-01  8.50000000E-01  8.50000000E-01  8.50000000E-01
  8.50000000E-01  8.50000000E-01  8.50000000E-01  8.50000000E-01  8.50000000E-01
  8.50000000E-01  8.50000000E-01  8.50000000E-01  8.50000000E-01  8.50000000E-01
  8.50000000E-01  8.50000000E-01  8.50000000E-01  8.50000000E-01  8.50000000E-01
  8.50000000E-01  8.50000000E-01  8.50000000E-01  8.50000000E-01  8.50000000E-01
  8.50000000E-01  8.50000000E-01  8.50000000E-01  8.50000000E-01  8.50000000E-01
  8.50000000E-01  8.50000000E-01  8.50000000E-01  8.50000000E-01  8.50000000E-01
  8.50000000E-01  8.50000000E-01  8.50000000E-01  8.50000000E-01  8.50000000E-01
  8.50000000E-01  8.50000000E-01  8.50000000E-01  8.50000000E-01  8.50000000E-01
  8.50000000E-01  8.50000000E-01  8.50000000E-01  8.50000000E-01  8.50000000E-01
  8.50000000E-01  8.50000000E-01  8.50000000E-01  8.50000000E-01  8.50000000E-01
  8.50000000E-01  8.50000000E-01  8.50000000E-01  8.50000000E-01  8.50000000E-01
  8.50000000E-01  8.50000000E-01  8.50000000E-01  8.50000000E-01  8.50000000E-01
  8.50000000E-01  8.50000000E-01  8.50000000E-01  8.50000000E-01  8.50000000E-01
  8.50000000E-01  8.50000000E-01  8.50000000E-01  8.50000000E-01  8.50000000E-01
  8.50000000E-01  8.50000000E-01  8.50000000E-01  8.50000000E-01  8.50000000E-01
  8.50000000E-01  8.50000000E-01  8.50000000E-01  8.50000000E-01  8.50000000E-01
  8.50000000E-01  8.50000000E-01  8.50000000E-01  8.50000000E-01  8.50000000E-01
  8.50000000E-01  8.50000000E-01  8.50000000E-01  8.50000000E-01  8.50000000E-01
  8.50000000E-01  8.50000000E-01  8.50000000E-01  8.50000000E-01  8.50000000E-01
  8.50000000E-01  8.50000000E-01  8.50000000E-01  8.50000000E-01  8.50000000E-01
  8.50000000E-01  8.50000000E-01  8.50000000E-01  8.50000000E-01  8.50000000E-01
  8.50000000E-01  8.50000000E-01  8.50000000E-01  8.50000000E-01  8.50000000E-01
  8.50000000E-01  8.50000000E-01  8.50000000E-01  8.50000000E-01  8.50000000E-01
  8.50000000E-01  8.50000000E-01  8.50000000E-01  8.50000000E-01  8.50000000E-01
  8.50000000E-01  8.50000000E-01  8.50000000E-01  8.50000000E-01  8.50000000E-01
  8.50000000E-01  8.50000000E-01  8.50000000E-01  8.50000000E-01  8.50000000E-01
  8.50000000E-01  8.50000000E-01  8.50000000E-01  8.50000000E-01  8.50000000E-01
  8.50000000E-01  8.50000000E-01  8.50000000E-01  8.50000000E-01  8.50000000E-01
  8.50000000E-01  8.50000000E-01  8.50000000E-01  8.50000000E-01  8.50000000E-01
  8.50000000E-01  8.50000000E-01  8.50000000E-01  8.50000000E-01  8.50000000E-01
  8.50000000E-01  8.50000000E-01  8.50000000E-01  8.50000000E-01  8.50000000E-01
  8.50000000E-01  8.50000000E-01  8.50000000E-01  8.50000000E-01  8.50000000E-01
  8.50000000E-01  8.50000000E-01  8.50000000E-01  8.50000000E-01  8.50000000E-01
  8.50000000E-01  8.50000000E-01  8.50000000E-01  8.50000000E-01  8.50000000E-01
  8.50000000E-01  8.50000000E-01  8.50000000E-01  8.50000000E-01  8.50000000E-01
  8.50000000E-01  8.50000000E-01  8.50000000E-01  8.50000000E-01  8.50000000E-01
  8.50000000E-01  8.50000000E-01  8.50000000E-01  8.50000000E-01  8.50000000E-01
  8.50000000E-01  8.50000000E-01  8.50000000E-01  8.50000000E-01  8.50000000E-01
  8.50000000E-01  8.50000000E-01  8.50000000E-01  8.50000000E-01  8.50000000E-01
  8.50000000E-01  8.50000000E-01  8.50000000E-01  8.50000000E-01  8.50000000E-01
  8.50000000E-01  8.50000000E-01  8.50000000E-01  8.50000000E-01  8.50000000E-01
  8.50000000E-01  8.50000000E-01  8.50000000E-01  8.50000000E-01  8.50000000E-01
  8.50000000E-01  8.50000000E-01  8.50000000E-01  8.50000000E-01  8.50000000E-01
  8.50000000E-01  8.50000000E-01  8.50000000E-01  8.50000000E-01  8.50000000E-01
  8.50000000E-01  8.50000000E-01  8.50000000E-01  8.50000000E-01  8.50000000E-01
  8.50000000E-01  8.50000000E-01  8.50000000E-01  8.50000000E-01  8.50000000E-01
  8.50000000E-01  8.50000000E-01  8.50000000E-01  8.50000000E-01  8.50000000E-01
  8.50000000E-01  8.50000000E-01  8.50000000E-01  8.50000000E-01  8.50000000E-01
  8.50000000E-01  8.50000000E-01  8.50000000E-01  8.50000000E-01  8.50000000E-01
  8.50000000E-01  8.50000000E-01  8.50000000E-01  8.50000000E-01  8.50000000E-01
  8.50000000E-01  8.50000000E-01  8.50000000E-01  8.50000000E-01  8.50000000E-01
  8.50000000E-01  8.50000000E-01  8.50000000E-01  8.50000000E-01  8.50000000E-01
  8.50000000E-01  8.50000000E-01  8.50000000E-01  8.50000000E-01  8.50000000E-01
  8.50000000E-01  8.50000000E-01  8.50000000E-01  8.50000000E-01  8.50000000E-01
  8.50000000E-01  8.50000000E-01  8.50000000E-01  8.50000000E-01  8.50000000E-01
  8.50000000E-01  8.50000000E-01  8.50000000E-01  8.50000000E-01  8.50000000E-01
  8.50000000E-01  8.50000000E-01  8.50000000E-01  8.50000000E-01  8.50000000E-01
  8.50000000E-01  8.50000000E-01  8.50000000E-01  8.50000000E-01  8.50000000E-01
  8.50000000E-01  8.50000000E-01  8.50000000E-01  8.50000000E-01  8.50000000E-01
  8.50000000E-01  8.50000000E-01  8.50000000E-01  8.50000000E-01  8.50000000E-01
  8.50000000E-01  8.50000000E-01  8.50000000E-01  8.50000000E-01  8.50000000E-01
  8.50000000E-01  8.50000000E-01  8.50000000E-01  8.50000000E-01  8.50000000E-01
  8.50000000E-01  8.50000000E-01  8.50000000E-01  8.50000000E-01  8.50000000E-01
  8.50000000E-01  8.50000000E-01  8.50000000E-01  8.50000000E-01  8.50000000E-01
  8.50000000E-01  8.50000000E-01  8.50000000E-01  8.50000000E-01  8.50000000E-01
  8.50000000E-01  8.50000000E-01  8.50000000E-01  8.50000000E-01  8.50000000E-01
  8.50000000E-01  8.50000000E-01  8.50000000E-01  8.50000000E-01  8.50000000E-01
  8.50000000E-01  8.50000000E-01  8.50000000E-01  8.50000000E-01  8.50000000E-01
  8.50000000E-01  8.50000000E-01  8.50000000E-01  8.50000000E-01  8.50000000E-01
  8.50000000E-01  8.50000000E-01  8.50000000E-01  8.50000000E-01  8.50000000E-01
  8.50000000E-01  8.50000000E-01  8.50000000E-01  8.50000000E-01  8.50000000E-01
  8.50000000E-01  8.50000000E-01  8.50000000E-01  8.50000000E-01  8.50000000E-01
  8.50000000E-01  8.50000000E-01  8.50000000E-01  8.50000000E-01  8.50000000E-01
  8.50000000E-01  8.50000000E-01  8.50000000E-01  8.50000000E-01  8.50000000E-01
  8.50000000E-01  8.50000000E-01  8.50000000E-01  8.50000000E-01  8.50000000E-01
  8.50000000E-01  8.50000000E-01  8.50000000E-01  8.50000000E-01  8.50000000E-01
  8.50000000E-01  8.50000000E-01  8.50000000E-01  8.50000000E-01  8.50000000E-01
  8.50000000E-01  8.50000000E-01  8.50000000E-01  8.50000000E-01  8.50000000E-01
  8.50000000E-01  8.50000000E-01  8.50000000E-01  8.50000000E-01  8.50000000E-01
  8.50000000E-01  8.50000000E-01  8.50000000E-01  8.50000000E-01  8.50000000E-01
  8.50000000E-01  8.50000000E-01  8.50000000E-01  8.50000000E-01  8.50000000E-01
  8.50000000E-01  8.50000000E-01  8.50000000E-01  8.50000000E-01  8.50000000E-01
  8.50000000E-01  8.50000000E-01  8.50000000E-01  8.50000000E-01  8.50000000E-01
  8.50000000E-01  8.50000000E-01  8.50000000E-01  8.50000000E-01  8.50000000E-01
  8.50000000E-01  8.50000000E-01  8.50000000E-01  8.50000000E-01  8.50000000E-01
  8.50000000E-01  8.50000000E-01  8.50000000E-01  8.50000000E-01  8.50000000E-01
  8.50000000E-01  8.50000000E-01  8.50000000E-01  8.50000000E-01  8.50000000E-01
  8.50000000E-01  8.50000000E-01  8.50000000E-01  8.50000000E-01  8.50000000E-01
  8.50000000E-01  8.50000000E-01  8.50000000E-01  8.50000000E-01  8.50000000E-01
  8.50000000E-01  8.50000000E-01  8.50000000E-01  8.50000000E-01  8.50000000E-01
  8.50000000E-01  8.50000000E-01  8.50000000E-01  8.50000000E-01  8.50000000E-01
  8.50000000E-01  8.50000000E-01  8.50000000E-01  8.50000000E-01  8.50000000E-01
  8.50000000E-01  8.50000000E-01  8.50000000E-01  8.50000000E-01  8.50000000E-01
  8.50000000E-01  8.50000000E-01  8.50000000E-01  8.50000000E-01  8.50000000E-01
  8.50000000E-01  8.50000000E-01  8.50000000E-01  8.50000000E-01  8.50000000E-01
  8.50000000E-01  8.50000000E-01  8.50000000E-01  8.50000000E-01  8.50000000E-01
  8.50000000E-01  8.50000000E-01  8.50000000E-01  8.50000000E-01  8.50000000E-01
  8.50000000E-01  8.50000000E-01  8.50000000E-01  8.50000000E-01  8.50000000E-01
  8.50000000E-01  8.50000000E-01  8.50000000E-01  8.50000000E-01  8.50000000E-01
  8.50000000E-01  8.50000000E-01  8.50000000E-01  8.50000000E-01  8.50000000E-01
  8.50000000E-01  8.50000000E-01  8.50000000E-01  8.50000000E-01  8.50000000E-01
  8.50000000E-01  8.50000000E-01  8.50000000E-01  8.50000000E-01  8.50000000E-01
  8.50000000E-01  8.50000000E-01  8.50000000E-01  8.50000000E-01  8.50000000E-01
  8.50000000E-01  8.50000000E-01  8.50000000E-01  8.50000000E-01  8.50000000E-01
  8.50000000E-01  8.50000000E-01  8.50000000E-01  8.50000000E-01  8.50000000E-01
  8.50000000E-01  8.50000000E-01  8.50000000E-01  8.50000000E-01  8.50000000E-01
  8.50000000E-01  8.50000000E-01  8.50000000E-01  8.50000000E-01  8.50000000E-01
  8.50000000E-01  8.50000000E-01  8.50000000E-01  8.50000000E-01  8.50000000E-01
  8.50000000E-01  8.50000000E-01  8.50000000E-01  8.50000000E-01  8.50000000E-01
  8.50000000E-01  8.50000000E-01  8.50000000E-01  8.50000000E-01  8.50000000E-01
  8.50000000E-01  8.50000000E-01  8.50000000E-01  8.50000000E-01  8.50000000E-01
  8.50000000E-01  8.50000000E-01  8.50000000E-01  8.50000000E-01  8.50000000E-01
  8.50000000E-01  8.50000000E-01  8.50000000E-01  8.50000000E-01  8.50000000E-01
  8.50000000E-01  8.50000000E-01  8.50000000E-01  8.50000000E-01  8.50000000E-01
  8.50000000E-01  8.50000000E-01  8.50000000E-01  8.50000000E-01  8.50000000E-01
  8.50000000E-01  8.50000000E-01  8.50000000E-01  8.50000000E-01  8.50000000E-01
  8.50000000E-01  8.50000000E-01  8.50000000E-01  8.50000000E-01  8.50000000E-01
  8.50000000E-01  8.50000000E-01  8.50000000E-01  8.50000000E-01  8.50000000E-01
  8.50000000E-01  8.50000000E-01  8.50000000E-01  8.50000000E-01  8.50000000E-01
  8.50000000E-01  8.50000000E-01  8.50000000E-01  8.50000000E-01  8.50000000E-01
  8.50000000E-01  8.50000000E-01  8.50000000E-01  8.50000000E-01  8.50000000E-01
  8.50000000E-01  8.50000000E-01  8.50000000E-01  8.50000000E-01  8.50000000E-01
  8.50000000E-01  8.50000000E-01  8.50000000E-01  8.50000000E-01  8.50000000E-01
  8.50000000E-01  8.50000000E-01  8.50000000E-01  8.50000000E-01  8.50000000E-01
  8.50000000E-01  8.50000000E-01  8.50000000E-01  8.50000000E-01  8.50000000E-01
  8.50000000E-01  8.50000000E-01  8.50000000E-01  8.50000000E-01  8.50000000E-01
  8.50000000E-01  8.50000000E-01  8.50000000E-01  8.50000000E-01  8.50000000E-01
  8.50000000E-01  8.50000000E-01  8.50000000E-01  8.50000000E-01  8.50000000E-01
  8.50000000E-01  8.50000000E-01  8.50000000E-01  8.50000000E-01  8.50000000E-01
  8.50000000E-01  8.50000000E-01  8.50000000E-01  8.50000000E-01  8.50000000E-01
  8.50000000E-01  8.50000000E-01  8.50000000E-01  8.50000000E-01  8.50000000E-01
  8.50000000E-01  8.50000000E-01  8.50000000E-01  8.50000000E-01  8.50000000E-01
  8.50000000E-01  8.50000000E-01  8.50000000E-01  8.50000000E-01  8.50000000E-01
  8.50000000E-01  8.50000000E-01  8.50000000E-01  8.50000000E-01  8.50000000E-01
  8.50000000E-01  8.50000000E-01  8.50000000E-01  8.50000000E-01  8.50000000E-01
  8.50000000E-01  8.50000000E-01  8.50000000E-01  8.50000000E-01  8.50000000E-01
  8.50000000E-01  8.50000000E-01  8.50000000E-01  8.50000000E-01  8.50000000E-01
  8.50000000E-01  8.50000000E-01  8.50000000E-01  8.50000000E-01  8.50000000E-01
  8.50000000E-01  8.50000000E-01  8.50000000E-01  8.50000000E-01  8.50000000E-01
  8.50000000E-01  8.50000000E-01  8.50000000E-01  8.50000000E-01  8.50000000E-01
  8.50000000E-01  8.50000000E-01  8.50000000E-01  8.50000000E-01  8.50000000E-01
  8.50000000E-01  8.50000000E-01  8.50000000E-01  8.50000000E-01  8.50000000E-01
  8.50000000E-01  8.50000000E-01  8.50000000E-01  8.50000000E-01  8.50000000E-01
  8.50000000E-01  8.50000000E-01  8.50000000E-01  8.50000000E-01  8.50000000E-01
  8.50000000E-01  8.50000000E-01  8.50000000E-01  8.50000000E-01  8.50000000E-01
  8.50000000E-01  8.50000000E-01  8.50000000E-01  8.50000000E-01  8.50000000E-01
  8.50000000E-01  8.50000000E-01  8.50000000E-01  8.50000000E-01  8.50000000E-01
  8.50000000E-01  8.50000000E-01  8.50000000E-01  8.50000000E-01  8.50000000E-01
  8.50000000E-01  8.50000000E-01  8.50000000E-01  8.50000000E-01  8.50000000E-01
  8.50000000E-01  8.50000000E-01  8.50000000E-01  8.50000000E-01  8.50000000E-01
  8.50000000E-01  8.50000000E-01  8.50000000E-01  8.50000000E-01  8.50000000E-01
  8.50000000E-01  8.50000000E-01  8.50000000E-01  8.50000000E-01  8.50000000E-01
  8.50000000E-01  8.50000000E-01  8.50000000E-01  8.50000000E-01  8.50000000E-01
  8.50000000E-01  8.50000000E-01  8.50000000E-01  8.50000000E-01  8.50000000E-01
  8.50000000E-01  8.50000000E-01  8.50000000E-01  8.50000000E-01  8.50000000E-01
  8.50000000E-01  8.50000000E-01  8.50000000E-01  8.50000000E-01  8.50000000E-01
  8.50000000E-01  8.50000000E-01  8.50000000E-01  8.50000000E-01  8.50000000E-01
  8.50000000E-01  8.50000000E-01  8.50000000E-01  8.50000000E-01  8.50000000E-01
  8.50000000E-01  8.50000000E-01  8.50000000E-01  8.50000000E-01  8.50000000E-01
  8.50000000E-01  8.50000000E-01  8.50000000E-01  8.50000000E-01  8.50000000E-01
  8.50000000E-01  8.50000000E-01  8.50000000E-01  8.50000000E-01  8.50000000E-01
  8.50000000E-01  8.50000000E-01  8.50000000E-01  8.50000000E-01  8.50000000E-01
  8.50000000E-01  8.50000000E-01  8.50000000E-01  8.50000000E-01  8.50000000E-01
  8.50000000E-01  8.50000000E-01  8.50000000E-01  8.50000000E-01  8.50000000E-01
  8.50000000E-01  8.50000000E-01  8.50000000E-01  8.50000000E-01  8.50000000E-01
  8.50000000E-01  8.50000000E-01  8.50000000E-01  8.50000000E-01  8.50000000E-01
  8.50000000E-01  8.50000000E-01  8.50000000E-01  8.50000000E-01  8.50000000E-01
  8.50000000E-01  8.50000000E-01  8.50000000E-01  8.50000000E-01  8.50000000E-01
  8.50000000E-01  8.50000000E-01  8.50000000E-01  8.50000000E-01  8.50000000E-01
  8.50000000E-01  8.50000000E-01  8.50000000E-01  8.50000000E-01  8.50000000E-01
  8.50000000E-01  8.50000000E-01  8.50000000E-01  8.50000000E-01  8.50000000E-01
  8.50000000E-01  8.50000000E-01  8.50000000E-01  8.50000000E-01  8.50000000E-01
  8.50000000E-01  8.50000000E-01  8.50000000E-01  8.50000000E-01  8.50000000E-01
  8.50000000E-01  8.50000000E-01  8.50000000E-01  8.50000000E-01  8.50000000E-01
  8.50000000E-01  8.50000000E-01  8.50000000E-01  8.50000000E-01  8.50000000E-01
  8.50000000E-01  8.50000000E-01  8.50000000E-01  8.50000000E-01  8.50000000E-01
  8.50000000E-01  8.50000000E-01  8.50000000E-01  8.50000000E-01  8.50000000E-01
  8.50000000E-01  8.50000000E-01  8.50000000E-01  8.50000000E-01  8.50000000E-01
  8.50000000E-01  8.50000000E-01  8.50000000E-01  8.50000000E-01  8.50000000E-01
  8.50000000E-01  8.50000000E-01  8.50000000E-01  8.50000000E-01  8.50000000E-01
  8.50000000E-01  8.50000000E-01  8.50000000E-01  8.50000000E-01  8.50000000E-01
  8.50000000E-01  8.50000000E-01  8.50000000E-01  8.50000000E-01  8.50000000E-01
  8.50000000E-01  8.50000000E-01  8.50000000E-01  8.50000000E-01  8.50000000E-01
  8.50000000E-01  8.50000000E-01  8.50000000E-01  8.50000000E-01  8.50000000E-01
  8.50000000E-01  8.50000000E-01  8.50000000E-01  8.50000000E-01  8.50000000E-01
  8.50000000E-01  8.50000000E-01  8.50000000E-01  8.50000000E-01  8.50000000E-01
  8.50000000E-01  8.50000000E-01  8.50000000E-01  8.50000000E-01  8.50000000E-01
  8.50000000E-01  8.50000000E-01  8.50000000E-01  8.50000000E-01  8.50000000E-01
  8.50000000E-01  8.50000000E-01  8.50000000E-01  8.50000000E-01  8.50000000E-01
  8.50000000E-01  8.50000000E-01  8.50000000E-01  8.50000000E-01  8.50000000E-01
  8.50000000E-01  8.50000000E-01  8.50000000E-01  8.50000000E-01  8.50000000E-01
  8.50000000E-01  8.50000000E-01  8.50000000E-01  8.50000000E-01  8.50000000E-01
  8.50000000E-01  8.50000000E-01  8.50000000E-01  8.50000000E-01  8.50000000E-01
  8.50000000E-01  8.50000000E-01  8.50000000E-01  8.50000000E-01  8.50000000E-01
  8.50000000E-01  8.50000000E-01  8.50000000E-01  8.50000000E-01  8.50000000E-01
  8.50000000E-01  8.50000000E-01  8.50000000E-01  8.50000000E-01  8.50000000E-01
  8.50000000E-01  8.50000000E-01  8.50000000E-01  8.50000000E-01  8.50000000E-01
  8.50000000E-01  8.50000000E-01  8.50000000E-01  8.50000000E-01  8.50000000E-01
  8.50000000E-01  8.50000000E-01  8.50000000E-01  8.50000000E-01  8.50000000E-01
  8.50000000E-01  8.50000000E-01  8.50000000E-01  8.50000000E-01  8.50000000E-01
  8.50000000E-01  8.50000000E-01  8.50000000E-01  8.50000000E-01  8.50000000E-01
  8.50000000E-01  8.50000000E-01  8.50000000E-01  8.50000000E-01  8.50000000E-01
  8.50000000E-01  8.50000000E-01  8.50000000E-01  8.50000000E-01  8.50000000E-01
  8.50000000E-01  8.50000000E-01  8.50000000E-01  8.50000000E-01  8.50000000E-01
  8.50000000E-01  8.50000000E-01  8.50000000E-01  8.50000000E-01  8.50000000E-01
  8.50000000E-01  8.50000000E-01  8.50000000E-01  8.50000000E-01  8.50000000E-01
  8.50000000E-01  8.50000000E-01  8.50000000E-01  8.50000000E-01  8.50000000E-01
  8.50000000E-01  8.50000000E-01  8.50000000E-01  8.50000000E-01  8.50000000E-01
  8.50000000E-01  8.50000000E-01  8.50000000E-01  8.50000000E-01  8.50000000E-01
  8.50000000E-01  8.50000000E-01  8.50000000E-01  8.50000000E-01  8.50000000E-01
  8.50000000E-01  8.50000000E-01  8.50000000E-01  8.50000000E-01  8.50000000E-01
  8.50000000E-01  8.50000000E-01  8.50000000E-01  8.50000000E-01  8.50000000E-01
  8.50000000E-01  8.50000000E-01  8.50000000E-01  8.50000000E-01  8.50000000E-01
  8.50000000E-01  8.50000000E-01  8.50000000E-01  8.50000000E-01  8.50000000E-01
  8.50000000E-01  8.50000000E-01  8.50000000E-01  8.50000000E-01  8.50000000E-01
  8.50000000E-01  8.50000000E-01  8.50000000E-01  8.50000000E-01  8.50000000E-01
  8.50000000E-01  8.50000000E-01  8.50000000E-01  8.50000000E-01  8.50000000E-01
  8.50000000E-01  8.50000000E-01  8.50000000E-01  8.50000000E-01  8.50000000E-01
  8.50000000E-01  8.50000000E-01  8.50000000E-01  8.50000000E-01  8.50000000E-01
  8.50000000E-01  8.50000000E-01  8.50000000E-01  8.50000000E-01  8.50000000E-01
  8.50000000E-01  8.50000000E-01  8.50000000E-01  8.50000000E-01  8.50000000E-01
  8.50000000E-01  8.50000000E-01  8.50000000E-01  8.50000000E-01  8.50000000E-01
  8.50000000E-01  8.50000000E-01  8.50000000E-01  8.50000000E-01  8.50000000E-01
  8.50000000E-01  8.50000000E-01  8.50000000E-01  8.50000000E-01  8.50000000E-01
  8.50000000E-01  8.50000000E-01  8.50000000E-01  8.50000000E-01  8.50000000E-01
  8.50000000E-01  8.50000000E-01  8.50000000E-01  8.50000000E-01  8.50000000E-01
  8.50000000E-01  8.50000000E-01  8.50000000E-01  8.50000000E-01  8.50000000E-01
  8.50000000E-01  8.50000000E-01  8.50000000E-01  8.50000000E-01  8.50000000E-01
  8.50000000E-01  8.50000000E-01  8.50000000E-01  8.50000000E-01  8.50000000E-01
  8.50000000E-01  8.50000000E-01  8.50000000E-01  8.50000000E-01  8.50000000E-01
  8.50000000E-01  8.50000000E-01  8.50000000E-01  8.50000000E-01  8.50000000E-01
  8.50000000E-01  8.50000000E-01  8.50000000E-01  8.50000000E-01  8.50000000E-01
  8.50000000E-01  8.50000000E-01  8.50000000E-01  8.50000000E-01  8.50000000E-01
  8.50000000E-01  8.50000000E-01  8.50000000E-01  8.50000000E-01  8.50000000E-01
  8.50000000E-01  8.50000000E-01  8.50000000E-01  8.50000000E-01  8.50000000E-01
  8.50000000E-01  8.50000000E-01  8.50000000E-01  8.50000000E-01  8.50000000E-01
  8.50000000E-01  8.50000000E-01  8.50000000E-01  8.50000000E-01  8.50000000E-01
  8.50000000E-01  8.50000000E-01  8.50000000E-01  8.50000000E-01  8.50000000E-01
  8.50000000E-01  8.50000000E-01  8.50000000E-01  8.50000000E-01  8.50000000E-01
  8.50000000E-01  8.50000000E-01  8.50000000E-01  8.50000000E-01  8.50000000E-01
  8.50000000E-01  8.50000000E-01  8.50000000E-01  8.50000000E-01  8.50000000E-01
  8.50000000E-01  8.50000000E-01  8.50000000E-01  8.50000000E-01  8.50000000E-01
  8.50000000E-01  8.50000000E-01  8.50000000E-01  8.50000000E-01  8.50000000E-01
  8.50000000E-01  8.50000000E-01  8.50000000E-01  8.50000000E-01  8.50000000E-01
  8.50000000E-01  8.50000000E-01  8.50000000E-01  8.50000000E-01  8.50000000E-01
  8.50000000E-01  8.50000000E-01  8.50000000E-01  8.50000000E-01  8.50000000E-01
  8.50000000E-01  8.50000000E-01  8.50000000E-01  8.50000000E-01  8.50000000E-01
  8.50000000E-01  8.50000000E-01  8.50000000E-01  8.50000000E-01  8.50000000E-01
  8.50000000E-01  8.50000000E-01  8.50000000E-01  8.50000000E-01  8.50000000E-01
  8.50000000E-01  8.50000000E-01  8.50000000E-01  8.50000000E-01  8.50000000E-01
  8.50000000E-01  8.50000000E-01  8.50000000E-01  8.50000000E-01  8.50000000E-01
  8.50000000E-01  8.50000000E-01  8.50000000E-01  8.50000000E-01  8.50000000E-01
  8.50000000E-01  8.50000000E-01  8.50000000E-01  8.50000000E-01  8.50000000E-01
  8.50000000E-01  8.50000000E-01  8.50000000E-01  8.50000000E-01  8.50000000E-01
  8.50000000E-01  8.50000000E-01  8.50000000E-01  8.50000000E-01  8.50000000E-01
  8.50000000E-01  8.50000000E-01  8.50000000E-01  8.50000000E-01  8.50000000E-01
  8.50000000E-01  8.50000000E-01  8.50000000E-01  8.50000000E-01  8.50000000E-01
  8.50000000E-01  8.50000000E-01  8.50000000E-01  8.50000000E-01  8.50000000E-01
  8.50000000E-01  8.50000000E-01  8.50000000E-01  8.50000000E-01  8.50000000E-01
  8.50000000E-01  8.50000000E-01  8.50000000E-01  8.50000000E-01  8.50000000E-01
  8.50000000E-01  8.50000000E-01  8.50000000E-01  8.50000000E-01  8.50000000E-01
  8.50000000E-01  8.50000000E-01  8.50000000E-01  8.50000000E-01  8.50000000E-01
  8.50000000E-01  8.50000000E-01  8.50000000E-01  8.50000000E-01  8.50000000E-01
  8.50000000E-01  8.50000000E-01  8.50000000E-01  8.50000000E-01  8.50000000E-01
  8.50000000E-01  8.50000000E-01  8.50000000E-01  8.50000000E-01  8.50000000E-01
  8.50000000E-01  8.50000000E-01  8.50000000E-01  8.50000000E-01  8.50000000E-01
  8.50000000E-01  8.50000000E-01  8.50000000E-01  8.50000000E-01  8.50000000E-01
  8.50000000E-01  8.50000000E-01  8.50000000E-01  8.50000000E-01  8.50000000E-01
  8.50000000E-01  8.50000000E-01  8.50000000E-01  8.50000000E-01  8.50000000E-01
  8.50000000E-01  8.50000000E-01  8.50000000E-01  8.50000000E-01  8.50000000E-01
  8.50000000E-01  8.50000000E-01  8.50000000E-01  8.50000000E-01  8.50000000E-01
  8.50000000E-01  8.50000000E-01  8.50000000E-01  8.50000000E-01  8.50000000E-01
  8.50000000E-01  8.50000000E-01  8.50000000E-01  8.50000000E-01  8.50000000E-01
  8.50000000E-01  8.50000000E-01  8.50000000E-01  8.50000000E-01  8.50000000E-01
  8.50000000E-01  8.50000000E-01  8.50000000E-01  8.50000000E-01  8.50000000E-01
  8.50000000E-01  8.50000000E-01  8.50000000E-01  8.50000000E-01  8.50000000E-01
  8.50000000E-01  8.50000000E-01  8.50000000E-01  8.50000000E-01  8.50000000E-01
  8.50000000E-01  8.50000000E-01  8.50000000E-01  8.50000000E-01  8.50000000E-01
  8.50000000E-01  8.50000000E-01  8.50000000E-01  8.50000000E-01  8.50000000E-01
  8.50000000E-01  8.50000000E-01  8.50000000E-01  8.50000000E-01  8.50000000E-01
  8.50000000E-01  8.50000000E-01  8.50000000E-01  8.50000000E-01  8.50000000E-01
  8.50000000E-01  8.50000000E-01  8.50000000E-01  8.50000000E-01  8.50000000E-01
  8.50000000E-01  8.50000000E-01  8.50000000E-01  8.50000000E-01  8.50000000E-01
  8.50000000E-01  8.50000000E-01  8.50000000E-01  8.50000000E-01  8.50000000E-01
  8.50000000E-01  8.50000000E-01  8.50000000E-01  8.50000000E-01  8.50000000E-01
  8.50000000E-01  8.50000000E-01  8.50000000E-01  8.50000000E-01  8.50000000E-01
  8.50000000E-01  8.50000000E-01  8.50000000E-01  8.50000000E-01  8.50000000E-01
  8.50000000E-01  8.50000000E-01  8.50000000E-01  8.50000000E-01  8.50000000E-01
  8.50000000E-01  8.50000000E-01  8.50000000E-01  8.50000000E-01  8.50000000E-01
  8.50000000E-01  8.50000000E-01  8.50000000E-01  8.50000000E-01  8.50000000E-01
  8.50000000E-01  8.50000000E-01  8.50000000E-01  8.50000000E-01  8.50000000E-01
  8.50000000E-01  8.50000000E-01  8.50000000E-01  8.50000000E-01  8.50000000E-01
  8.50000000E-01  8.50000000E-01  8.50000000E-01  8.50000000E-01  8.50000000E-01
  8.50000000E-01  8.50000000E-01  8.50000000E-01  8.50000000E-01  8.50000000E-01
  8.50000000E-01  8.50000000E-01  8.50000000E-01  8.50000000E-01  8.50000000E-01
  8.50000000E-01  8.50000000E-01  8.50000000E-01  8.50000000E-01  8.50000000E-01
  8.50000000E-01  8.50000000E-01  8.50000000E-01  8.50000000E-01  8.50000000E-01
  8.50000000E-01  8.50000000E-01  8.50000000E-01  8.50000000E-01  8.50000000E-01
  8.50000000E-01  8.50000000E-01  8.50000000E-01  8.50000000E-01  8.50000000E-01
  8.50000000E-01  8.50000000E-01  8.50000000E-01  8.50000000E-01  8.50000000E-01
  8.50000000E-01  8.50000000E-01  8.50000000E-01  8.50000000E-01  8.50000000E-01
  8.50000000E-01  8.50000000E-01  8.50000000E-01  8.50000000E-01  8.50000000E-01
  8.50000000E-01  8.50000000E-01  8.50000000E-01  8.50000000E-01  8.50000000E-01
  8.50000000E-01  8.50000000E-01  8.50000000E-01  8.50000000E-01  8.50000000E-01
  8.50000000E-01  8.50000000E-01  8.50000000E-01  8.50000000E-01  8.50000000E-01
  8.50000000E-01  8.50000000E-01  8.50000000E-01  8.50000000E-01  8.50000000E-01
  8.50000000E-01  8.50000000E-01  8.50000000E-01  8.50000000E-01  8.50000000E-01
  8.50000000E-01  8.50000000E-01  8.50000000E-01  8.50000000E-01  8.50000000E-01
  8.50000000E-01  8.50000000E-01  8.50000000E-01  8.50000000E-01  8.50000000E-01
  8.50000000E-01  8.50000000E-01  8.50000000E-01  8.50000000E-01  8.50000000E-01
  8.50000000E-01  8.50000000E-01  8.50000000E-01  8.50000000E-01  8.50000000E-01
  8.50000000E-01  8.50000000E-01  8.50000000E-01  8.50000000E-01  8.50000000E-01
  8.50000000E-01  8.50000000E-01  8.50000000E-01  8.50000000E-01  8.50000000E-01
  8.50000000E-01  8.50000000E-01  8.50000000E-01  8.50000000E-01  8.50000000E-01
  8.50000000E-01  8.50000000E-01  8.50000000E-01  8.50000000E-01  8.50000000E-01
  8.50000000E-01  8.50000000E-01  8.50000000E-01  8.50000000E-01  8.50000000E-01
  8.50000000E-01  8.50000000E-01  8.50000000E-01  8.50000000E-01  8.50000000E-01
  8.50000000E-01  8.50000000E-01  8.50000000E-01  8.50000000E-01  8.50000000E-01
  8.50000000E-01  8.50000000E-01  8.50000000E-01  8.50000000E-01  8.50000000E-01
  8.50000000E-01  8.50000000E-01  8.50000000E-01  8.50000000E-01  8.50000000E-01
  8.50000000E-01  8.50000000E-01  8.50000000E-01  8.50000000E-01  8.50000000E-01
  8.50000000E-01  8.50000000E-01  8.50000000E-01  8.50000000E-01  8.50000000E-01
  8.50000000E-01  8.50000000E-01  8.50000000E-01  8.50000000E-01  8.50000000E-01
  8.50000000E-01  8.50000000E-01  8.50000000E-01  8.50000000E-01  8.50000000E-01
  8.50000000E-01  8.50000000E-01  8.50000000E-01  8.50000000E-01  8.50000000E-01
  8.50000000E-01  8.50000000E-01  8.50000000E-01  8.50000000E-01  8.50000000E-01
  8.50000000E-01  8.50000000E-01  8.50000000E-01  8.50000000E-01  8.50000000E-01
  8.50000000E-01  8.50000000E-01  8.50000000E-01  8.50000000E-01  8.50000000E-01
  8.50000000E-01  8.50000000E-01  8.50000000E-01  8.50000000E-01  8.50000000E-01
  8.50000000E-01  8.50000000E-01  8.50000000E-01  8.50000000E-01  8.50000000E-01
  8.50000000E-01  8.50000000E-01  8.50000000E-01  8.50000000E-01  8.50000000E-01
  8.50000000E-01  8.50000000E-01  8.50000000E-01  8.50000000E-01  8.50000000E-01
  8.50000000E-01  8.50000000E-01  8.50000000E-01  8.50000000E-01  8.50000000E-01
  8.50000000E-01  8.50000000E-01  8.50000000E-01  8.50000000E-01  8.50000000E-01
  8.50000000E-01  8.50000000E-01  8.50000000E-01  8.50000000E-01  8.50000000E-01
  8.50000000E-01  8.50000000E-01  8.50000000E-01  8.50000000E-01  8.50000000E-01
  8.50000000E-01  8.50000000E-01  8.50000000E-01  8.50000000E-01  8.50000000E-01
  8.50000000E-01  8.50000000E-01  8.50000000E-01  8.50000000E-01  8.50000000E-01
  8.50000000E-01  8.50000000E-01  8.50000000E-01  8.50000000E-01  8.50000000E-01
  8.50000000E-01  8.50000000E-01  8.50000000E-01  8.50000000E-01  8.50000000E-01
  8.50000000E-01  8.50000000E-01  8.50000000E-01  8.50000000E-01  8.50000000E-01
  8.50000000E-01  8.50000000E-01  8.50000000E-01  8.50000000E-01  8.50000000E-01
  8.50000000E-01  8.50000000E-01  8.50000000E-01  8.50000000E-01  8.50000000E-01
  8.50000000E-01  8.50000000E-01  8.50000000E-01  8.50000000E-01  8.50000000E-01
  8.50000000E-01  8.50000000E-01  8.50000000E-01  8.50000000E-01  8.50000000E-01
  8.50000000E-01  8.50000000E-01  8.50000000E-01  8.50000000E-01  8.50000000E-01
  8.50000000E-01  8.50000000E-01  8.50000000E-01  8.50000000E-01  8.50000000E-01
  8.50000000E-01  8.50000000E-01  8.50000000E-01  8.50000000E-01  8.50000000E-01
  8.50000000E-01  8.50000000E-01  8.50000000E-01  8.50000000E-01  8.50000000E-01
  8.50000000E-01  8.50000000E-01  8.50000000E-01  8.50000000E-01  8.50000000E-01
  8.50000000E-01  8.50000000E-01  8.50000000E-01  8.50000000E-01  8.50000000E-01
  8.50000000E-01  8.50000000E-01  8.50000000E-01  8.50000000E-01  8.50000000E-01
  8.50000000E-01  8.50000000E-01  8.50000000E-01  8.50000000E-01  8.50000000E-01
  8.50000000E-01  8.50000000E-01  8.50000000E-01  8.50000000E-01  8.50000000E-01
  8.50000000E-01  8.50000000E-01  8.50000000E-01  8.50000000E-01  8.50000000E-01
  8.50000000E-01  8.50000000E-01  8.50000000E-01  8.50000000E-01  8.50000000E-01
  8.50000000E-01  8.50000000E-01  8.50000000E-01  8.50000000E-01  8.50000000E-01
  8.50000000E-01  8.50000000E-01  8.50000000E-01  8.50000000E-01  8.50000000E-01
  8.50000000E-01  8.50000000E-01  8.50000000E-01  8.50000000E-01  8.50000000E-01
  8.50000000E-01  8.50000000E-01  8.50000000E-01  8.50000000E-01  8.50000000E-01
  8.50000000E-01  8.50000000E-01  8.50000000E-01  8.50000000E-01  8.50000000E-01
  8.50000000E-01  8.50000000E-01  8.50000000E-01  8.50000000E-01  8.50000000E-01
  8.50000000E-01  8.50000000E-01  8.50000000E-01  8.50000000E-01  8.50000000E-01
  8.50000000E-01  8.50000000E-01  8.50000000E-01  8.50000000E-01  8.50000000E-01
  8.50000000E-01  8.50000000E-01  8.50000000E-01  8.50000000E-01  8.50000000E-01
  8.50000000E-01  8.50000000E-01  8.50000000E-01  8.50000000E-01  8.50000000E-01
  8.50000000E-01  8.50000000E-01  8.50000000E-01  8.50000000E-01  8.50000000E-01
  8.50000000E-01  8.50000000E-01  8.50000000E-01  8.50000000E-01  8.50000000E-01
  8.50000000E-01  8.50000000E-01  8.50000000E-01  8.50000000E-01  8.50000000E-01
  8.50000000E-01  8.50000000E-01  8.50000000E-01  8.50000000E-01  8.50000000E-01
  8.50000000E-01  8.50000000E-01  8.50000000E-01  8.50000000E-01  8.50000000E-01
  8.50000000E-01  8.50000000E-01  8.50000000E-01  8.50000000E-01  8.50000000E-01
  8.50000000E-01  8.50000000E-01  8.50000000E-01  8.50000000E-01  8.50000000E-01
  8.50000000E-01  8.50000000E-01  8.50000000E-01  8.50000000E-01  8.50000000E-01
  8.50000000E-01  8.50000000E-01  8.50000000E-01  8.50000000E-01  8.50000000E-01
  8.50000000E-01  8.50000000E-01  8.50000000E-01  8.50000000E-01  8.50000000E-01
  8.50000000E-01  8.50000000E-01  8.50000000E-01  8.50000000E-01  8.50000000E-01
  8.50000000E-01  8.50000000E-01  8.50000000E-01  8.50000000E-01  8.50000000E-01
  8.50000000E-01  8.50000000E-01  8.50000000E-01  8.50000000E-01  8.50000000E-01
  8.50000000E-01  8.50000000E-01  8.50000000E-01  8.50000000E-01  8.50000000E-01
  8.50000000E-01  8.50000000E-01  8.50000000E-01  8.50000000E-01  8.50000000E-01
  8.50000000E-01  8.50000000E-01  8.50000000E-01  8.50000000E-01  8.50000000E-01
  8.50000000E-01  8.50000000E-01  8.50000000E-01  8.50000000E-01  8.50000000E-01
  8.50000000E-01  8.50000000E-01  8.50000000E-01  8.50000000E-01  8.50000000E-01
  8.50000000E-01  8.50000000E-01  8.50000000E-01  8.50000000E-01  8.50000000E-01
  8.50000000E-01  8.50000000E-01  8.50000000E-01  8.50000000E-01  8.50000000E-01
  8.50000000E-01  8.50000000E-01  8.50000000E-01  8.50000000E-01  8.50000000E-01
  8.50000000E-01  8.50000000E-01  8.50000000E-01  8.50000000E-01  8.50000000E-01
  8.50000000E-01  8.50000000E-01  8.50000000E-01  8.50000000E-01  8.50000000E-01
  8.50000000E-01  8.50000000E-01  8.50000000E-01  8.50000000E-01  8.50000000E-01
  8.50000000E-01  8.50000000E-01  8.50000000E-01  8.50000000E-01  8.50000000E-01
  8.50000000E-01  8.50000000E-01  8.50000000E-01  8.50000000E-01  8.50000000E-01
  8.50000000E-01  8.50000000E-01  8.50000000E-01  8.50000000E-01  8.50000000E-01
  8.50000000E-01  8.50000000E-01  8.50000000E-01  8.50000000E-01  8.50000000E-01
  8.50000000E-01  8.50000000E-01  8.50000000E-01  8.50000000E-01  8.50000000E-01
  8.50000000E-01  8.50000000E-01  8.50000000E-01  8.50000000E-01  8.50000000E-01
  8.50000000E-01  8.50000000E-01  8.50000000E-01  8.50000000E-01  8.50000000E-01
  8.50000000E-01  8.50000000E-01  8.50000000E-01  8.50000000E-01  8.50000000E-01
  8.50000000E-01  8.50000000E-01  8.50000000E-01  8.50000000E-01  8.50000000E-01
  8.50000000E-01  8.50000000E-01  8.50000000E-01  8.50000000E-01  8.50000000E-01
  8.50000000E-01  8.50000000E-01  8.50000000E-01  8.50000000E-01  8.50000000E-01
  8.50000000E-01  8.50000000E-01  8.50000000E-01  8.50000000E-01  8.50000000E-01
  8.50000000E-01  8.50000000E-01  8.50000000E-01  8.50000000E-01  8.50000000E-01
  8.50000000E-01  8.50000000E-01  8.50000000E-01  8.50000000E-01  8.50000000E-01
  8.50000000E-01  8.50000000E-01  8.50000000E-01  8.50000000E-01  8.50000000E-01
  8.50000000E-01  8.50000000E-01  8.50000000E-01  8.50000000E-01  8.50000000E-01
  8.50000000E-01  8.50000000E-01  8.50000000E-01  8.50000000E-01  8.50000000E-01
  8.50000000E-01  8.50000000E-01  8.50000000E-01  8.50000000E-01  8.50000000E-01
  8.50000000E-01  8.50000000E-01  8.50000000E-01  8.50000000E-01  8.50000000E-01
  8.50000000E-01  8.50000000E-01  8.50000000E-01  8.50000000E-01  8.50000000E-01
  8.50000000E-01  8.50000000E-01  8.50000000E-01  8.50000000E-01  8.50000000E-01
  8.50000000E-01  8.50000000E-01  8.50000000E-01  8.50000000E-01  8.50000000E-01
  8.50000000E-01  8.50000000E-01  8.50000000E-01  8.50000000E-01  8.50000000E-01
  8.50000000E-01  8.50000000E-01  8.50000000E-01  8.50000000E-01  8.50000000E-01
  8.50000000E-01  8.50000000E-01  8.50000000E-01  8.50000000E-01  8.50000000E-01
  8.50000000E-01  8.50000000E-01  8.50000000E-01  8.50000000E-01  8.50000000E-01
  8.50000000E-01  8.50000000E-01  8.50000000E-01  8.50000000E-01  8.50000000E-01
  8.50000000E-01  8.50000000E-01  8.50000000E-01  8.50000000E-01  8.50000000E-01
  8.50000000E-01  8.50000000E-01  8.50000000E-01  8.50000000E-01  8.50000000E-01
  8.50000000E-01  8.50000000E-01  8.50000000E-01  8.50000000E-01  8.50000000E-01
  8.50000000E-01  8.50000000E-01  8.50000000E-01  8.50000000E-01  8.50000000E-01
  8.50000000E-01  8.50000000E-01  8.50000000E-01  8.50000000E-01  8.50000000E-01
  8.50000000E-01  8.50000000E-01  8.50000000E-01  8.50000000E-01  8.50000000E-01
  8.50000000E-01  8.50000000E-01  8.50000000E-01  8.50000000E-01  8.50000000E-01
  8.50000000E-01  8.50000000E-01  8.50000000E-01  8.50000000E-01  8.50000000E-01
  8.50000000E-01  8.50000000E-01  8.50000000E-01  8.50000000E-01  8.50000000E-01
  8.50000000E-01  8.50000000E-01  8.50000000E-01  8.50000000E-01  8.50000000E-01
  8.50000000E-01  8.50000000E-01  8.50000000E-01  8.50000000E-01  8.50000000E-01
  8.50000000E-01  8.50000000E-01  8.50000000E-01  8.50000000E-01  8.50000000E-01
  8.50000000E-01  8.50000000E-01  8.50000000E-01  8.50000000E-01  8.50000000E-01
  8.50000000E-01  8.50000000E-01  8.50000000E-01  8.50000000E-01  8.50000000E-01
  8.50000000E-01  8.50000000E-01  8.50000000E-01  8.50000000E-01  8.50000000E-01
  8.50000000E-01  8.50000000E-01  8.50000000E-01  8.50000000E-01  8.50000000E-01
  8.50000000E-01  8.50000000E-01  8.50000000E-01  8.50000000E-01  8.50000000E-01
  8.50000000E-01  8.50000000E-01  8.50000000E-01  8.50000000E-01  8.50000000E-01
  8.50000000E-01  8.50000000E-01  8.50000000E-01  8.50000000E-01  8.50000000E-01
  8.50000000E-01  8.50000000E-01  8.50000000E-01  8.50000000E-01  8.50000000E-01
  8.50000000E-01  8.50000000E-01  8.50000000E-01  8.50000000E-01  8.50000000E-01
  8.50000000E-01  8.50000000E-01  8.50000000E-01  8.50000000E-01  8.50000000E-01
  8.50000000E-01  8.50000000E-01  8.50000000E-01  8.50000000E-01  8.50000000E-01
  8.50000000E-01  8.50000000E-01  8.50000000E-01  8.50000000E-01  8.50000000E-01
  8.50000000E-01  8.50000000E-01  8.50000000E-01  8.50000000E-01  8.50000000E-01
  8.50000000E-01  8.50000000E-01  8.50000000E-01  8.50000000E-01  8.50000000E-01
  8.50000000E-01  8.50000000E-01  8.50000000E-01  8.50000000E-01  8.50000000E-01
  8.50000000E-01  8.50000000E-01  8.50000000E-01  8.50000000E-01  8.50000000E-01
  8.50000000E-01  8.50000000E-01  8.50000000E-01  8.50000000E-01  8.50000000E-01
  8.50000000E-01  8.50000000E-01  8.50000000E-01  8.50000000E-01  8.50000000E-01
  8.50000000E-01  8.50000000E-01  8.50000000E-01  8.50000000E-01  8.50000000E-01
  8.50000000E-01  8.50000000E-01  8.50000000E-01  8.50000000E-01  8.50000000E-01
  8.50000000E-01  8.50000000E-01  8.50000000E-01  8.50000000E-01  8.50000000E-01
  8.50000000E-01  8.50000000E-01  8.50000000E-01  8.50000000E-01  8.50000000E-01
  8.50000000E-01  8.50000000E-01  8.50000000E-01  8.50000000E-01  8.50000000E-01
  8.50000000E-01  8.50000000E-01  8.50000000E-01  8.50000000E-01  8.50000000E-01
  8.50000000E-01  8.50000000E-01  8.50000000E-01  8.50000000E-01  8.50000000E-01
  8.50000000E-01  8.50000000E-01  8.50000000E-01  8.50000000E-01  8.50000000E-01
  8.50000000E-01  8.50000000E-01  8.50000000E-01  8.50000000E-01  8.50000000E-01
  8.50000000E-01  8.50000000E-01  8.50000000E-01  8.50000000E-01  8.50000000E-01
  8.50000000E-01  8.50000000E-01  8.50000000E-01  8.50000000E-01  8.50000000E-01
  8.50000000E-01  8.50000000E-01  8.50000000E-01  8.50000000E-01  8.50000000E-01
  8.50000000E-01  8.50000000E-01  8.50000000E-01  8.50000000E-01  8.50000000E-01
  8.50000000E-01  8.50000000E-01  8.50000000E-01  8.50000000E-01  8.50000000E-01
  8.50000000E-01  8.50000000E-01  8.50000000E-01  8.50000000E-01  8.50000000E-01
  8.50000000E-01  8.50000000E-01  8.50000000E-01  8.50000000E-01  8.50000000E-01
  8.50000000E-01  8.50000000E-01  8.50000000E-01  8.50000000E-01  8.50000000E-01
  8.50000000E-01  8.50000000E-01  8.50000000E-01  8.50000000E-01  8.50000000E-01
  8.50000000E-01  8.50000000E-01  8.50000000E-01  8.50000000E-01  8.50000000E-01
  8.50000000E-01  8.50000000E-01  8.50000000E-01  8.50000000E-01  8.50000000E-01
  8.50000000E-01  8.50000000E-01  8.50000000E-01  8.50000000E-01  8.50000000E-01
  8.50000000E-01  8.50000000E-01  8.50000000E-01  8.50000000E-01  8.50000000E-01
  8.50000000E-01  8.50000000E-01  8.50000000E-01  8.50000000E-01  8.50000000E-01
  8.50000000E-01  8.50000000E-01  8.50000000E-01  8.50000000E-01  8.50000000E-01
  8.50000000E-01  8.50000000E-01  8.50000000E-01  8.50000000E-01  8.50000000E-01
  8.50000000E-01  8.50000000E-01  8.50000000E-01  8.50000000E-01  8.50000000E-01
  8.50000000E-01  8.50000000E-01  8.50000000E-01  8.50000000E-01  8.50000000E-01
  8.50000000E-01  8.50000000E-01  8.50000000E-01  8.50000000E-01  8.50000000E-01
  8.50000000E-01  8.50000000E-01  8.50000000E-01  8.50000000E-01  8.50000000E-01
  8.50000000E-01  8.50000000E-01  8.50000000E-01  8.50000000E-01  8.50000000E-01
  8.50000000E-01  8.50000000E-01  8.50000000E-01  8.50000000E-01  8.50000000E-01
  8.50000000E-01  8.50000000E-01  8.50000000E-01  8.50000000E-01  8.50000000E-01
  8.50000000E-01  8.50000000E-01  8.50000000E-01  8.50000000E-01  8.50000000E-01
  8.50000000E-01  8.50000000E-01  8.50000000E-01  8.50000000E-01  8.50000000E-01
  8.50000000E-01  8.50000000E-01  8.50000000E-01  8.50000000E-01  8.50000000E-01
  8.50000000E-01  8.50000000E-01  8.50000000E-01  8.50000000E-01  8.50000000E-01
  8.50000000E-01  8.50000000E-01  8.50000000E-01  8.50000000E-01  8.50000000E-01
  8.50000000E-01  8.50000000E-01  8.50000000E-01  8.50000000E-01  8.50000000E-01
  8.50000000E-01  8.50000000E-01  8.50000000E-01  8.50000000E-01  8.50000000E-01
  8.50000000E-01  8.50000000E-01  8.50000000E-01  8.50000000E-01  8.50000000E-01
  8.50000000E-01  8.50000000E-01  8.50000000E-01  8.50000000E-01  8.50000000E-01
  8.50000000E-01  8.50000000E-01  8.50000000E-01  8.50000000E-01  8.50000000E-01
  8.50000000E-01  8.50000000E-01  8.50000000E-01  8.50000000E-01  8.50000000E-01
  8.50000000E-01  8.50000000E-01  8.50000000E-01  8.50000000E-01  8.50000000E-01
  8.50000000E-01  8.50000000E-01  8.50000000E-01  8.50000000E-01  8.50000000E-01
  8.50000000E-01  8.50000000E-01  8.50000000E-01  8.50000000E-01  8.50000000E-01
  8.50000000E-01  8.50000000E-01  8.50000000E-01  8.50000000E-01  8.50000000E-01
  8.50000000E-01  8.50000000E-01  8.50000000E-01  8.50000000E-01  8.50000000E-01
  8.50000000E-01  8.50000000E-01  8.50000000E-01  8.50000000E-01  8.50000000E-01
  8.50000000E-01  8.50000000E-01  8.50000000E-01  8.50000000E-01  8.50000000E-01
  8.50000000E-01  8.50000000E-01  8.50000000E-01  8.50000000E-01  8.50000000E-01
  8.50000000E-01  8.50000000E-01  8.50000000E-01  8.50000000E-01  8.50000000E-01
  8.50000000E-01  8.50000000E-01  8.50000000E-01  8.50000000E-01  8.50000000E-01
  8.50000000E-01  8.50000000E-01  8.50000000E-01  8.50000000E-01  8.50000000E-01
  8.50000000E-01  8.50000000E-01  8.50000000E-01  8.50000000E-01  8.50000000E-01
  8.50000000E-01  8.50000000E-01  8.50000000E-01  8.50000000E-01  8.50000000E-01
  8.50000000E-01  8.50000000E-01  8.50000000E-01  8.50000000E-01  8.50000000E-01
  8.50000000E-01  8.50000000E-01  8.50000000E-01  8.50000000E-01  8.50000000E-01
  8.50000000E-01  8.50000000E-01  8.50000000E-01  8.50000000E-01  8.50000000E-01
  8.50000000E-01  8.50000000E-01  8.50000000E-01  8.50000000E-01  8.50000000E-01
  8.50000000E-01  8.50000000E-01  8.50000000E-01  8.50000000E-01  8.50000000E-01
  8.50000000E-01  8.50000000E-01  8.50000000E-01  8.50000000E-01  8.50000000E-01
  8.50000000E-01  8.50000000E-01  8.50000000E-01  8.50000000E-01  8.50000000E-01
  8.50000000E-01  8.50000000E-01  8.50000000E-01  8.50000000E-01  8.50000000E-01
  8.50000000E-01  8.50000000E-01  8.50000000E-01  8.50000000E-01  8.50000000E-01
  8.50000000E-01  8.50000000E-01  8.50000000E-01  8.50000000E-01  8.50000000E-01
  8.50000000E-01  8.50000000E-01  8.50000000E-01  8.50000000E-01  8.50000000E-01
  8.50000000E-01  8.50000000E-01  8.50000000E-01  8.50000000E-01  8.50000000E-01
  8.50000000E-01  8.50000000E-01  8.50000000E-01  8.50000000E-01  8.50000000E-01
  8.50000000E-01  8.50000000E-01  8.50000000E-01  8.50000000E-01  8.50000000E-01
  8.50000000E-01  8.50000000E-01  8.50000000E-01  8.50000000E-01  8.50000000E-01
  8.50000000E-01  8.50000000E-01  8.50000000E-01  8.50000000E-01  8.50000000E-01
  8.50000000E-01  8.50000000E-01  8.50000000E-01  8.50000000E-01  8.50000000E-01
  8.50000000E-01  8.50000000E-01  8.50000000E-01  8.50000000E-01  8.50000000E-01
  8.50000000E-01  8.50000000E-01  8.50000000E-01  8.50000000E-01  8.50000000E-01
  8.50000000E-01  8.50000000E-01  8.50000000E-01  8.50000000E-01  8.50000000E-01
  8.50000000E-01  8.50000000E-01  8.50000000E-01  8.50000000E-01  8.50000000E-01
  8.50000000E-01  8.50000000E-01  8.50000000E-01  8.50000000E-01  8.50000000E-01
  8.50000000E-01  8.50000000E-01  8.50000000E-01  8.50000000E-01  8.50000000E-01
  8.50000000E-01  8.50000000E-01  8.50000000E-01  8.50000000E-01  8.50000000E-01
  8.50000000E-01  8.50000000E-01  8.50000000E-01  8.50000000E-01  8.50000000E-01
  8.50000000E-01  8.50000000E-01  8.50000000E-01  8.50000000E-01  8.50000000E-01
  8.50000000E-01  8.50000000E-01  8.50000000E-01  8.50000000E-01  8.50000000E-01
  8.50000000E-01  8.50000000E-01  8.50000000E-01  8.50000000E-01  8.50000000E-01
  8.50000000E-01  8.50000000E-01  8.50000000E-01  8.50000000E-01  8.50000000E-01
  8.50000000E-01  8.50000000E-01  8.50000000E-01  8.50000000E-01  8.50000000E-01
  8.50000000E-01  8.50000000E-01  8.50000000E-01  8.50000000E-01  8.50000000E-01
  8.50000000E-01  8.50000000E-01  8.50000000E-01  8.50000000E-01  8.50000000E-01
  8.50000000E-01  8.50000000E-01  8.50000000E-01  8.50000000E-01  8.50000000E-01
  8.50000000E-01  8.50000000E-01  8.50000000E-01  8.50000000E-01  8.50000000E-01
  8.50000000E-01  8.50000000E-01  8.50000000E-01  8.50000000E-01  8.50000000E-01
  8.50000000E-01  8.50000000E-01  8.50000000E-01  8.50000000E-01  8.50000000E-01
  8.50000000E-01  8.50000000E-01  8.50000000E-01  8.50000000E-01  8.50000000E-01
  8.50000000E-01  8.50000000E-01  8.50000000E-01  8.50000000E-01  8.50000000E-01
  8.50000000E-01  8.50000000E-01  8.50000000E-01  8.50000000E-01  8.50000000E-01
  8.50000000E-01  8.50000000E-01  8.50000000E-01  8.50000000E-01  8.50000000E-01
  8.50000000E-01  8.50000000E-01  8.50000000E-01  8.50000000E-01  8.50000000E-01
  8.50000000E-01  8.50000000E-01  8.50000000E-01  8.50000000E-01  8.50000000E-01
  8.50000000E-01  8.50000000E-01  8.50000000E-01  8.50000000E-01  8.50000000E-01
  8.50000000E-01  8.50000000E-01  8.50000000E-01  8.50000000E-01  8.50000000E-01
  8.50000000E-01  8.50000000E-01  8.50000000E-01  8.50000000E-01  8.50000000E-01
  8.50000000E-01  8.50000000E-01  8.50000000E-01  8.50000000E-01  8.50000000E-01
  8.50000000E-01  8.50000000E-01  8.50000000E-01  8.50000000E-01  8.50000000E-01
  8.50000000E-01  8.50000000E-01  8.50000000E-01  8.50000000E-01  8.50000000E-01
  8.50000000E-01  8.50000000E-01  8.50000000E-01  8.50000000E-01  8.50000000E-01
  8.50000000E-01  8.50000000E-01  8.50000000E-01  8.50000000E-01  8.50000000E-01
  8.50000000E-01  8.50000000E-01  8.50000000E-01  8.50000000E-01  8.50000000E-01
  8.50000000E-01  8.50000000E-01  8.50000000E-01  8.50000000E-01  8.50000000E-01
  8.50000000E-01  8.50000000E-01  8.50000000E-01  8.50000000E-01  8.50000000E-01
  8.50000000E-01  8.50000000E-01  8.50000000E-01  8.50000000E-01  8.50000000E-01
  8.50000000E-01  8.50000000E-01  8.50000000E-01  8.50000000E-01  8.50000000E-01
  8.50000000E-01  8.50000000E-01  8.50000000E-01  8.50000000E-01  8.50000000E-01
  8.50000000E-01  8.50000000E-01  8.50000000E-01  8.50000000E-01  8.50000000E-01
  8.50000000E-01  8.50000000E-01  8.50000000E-01  8.50000000E-01  8.50000000E-01
  8.50000000E-01  8.50000000E-01  8.50000000E-01  8.50000000E-01  8.50000000E-01
  8.50000000E-01  8.50000000E-01  8.50000000E-01  8.50000000E-01  8.50000000E-01
  8.50000000E-01  8.50000000E-01  8.50000000E-01  8.50000000E-01  8.50000000E-01
  8.50000000E-01  8.50000000E-01  8.50000000E-01  8.50000000E-01  8.50000000E-01
  8.50000000E-01  8.50000000E-01  8.50000000E-01  8.50000000E-01  8.50000000E-01
  8.50000000E-01  8.50000000E-01  8.50000000E-01  8.50000000E-01  8.50000000E-01
  8.50000000E-01  8.50000000E-01  8.50000000E-01  8.50000000E-01  8.50000000E-01
  8.50000000E-01  8.50000000E-01  8.50000000E-01  8.50000000E-01  8.50000000E-01
  8.50000000E-01  8.50000000E-01  8.50000000E-01  8.50000000E-01  8.50000000E-01
  8.50000000E-01  8.50000000E-01  8.50000000E-01  8.50000000E-01  8.50000000E-01
  8.50000000E-01  8.50000000E-01  8.50000000E-01  8.50000000E-01  8.50000000E-01
  8.50000000E-01  8.50000000E-01  8.50000000E-01  8.50000000E-01  8.50000000E-01
  8.50000000E-01  8.50000000E-01  8.50000000E-01  8.50000000E-01  8.50000000E-01
  8.50000000E-01  8.50000000E-01  8.50000000E-01  8.50000000E-01  8.50000000E-01
  8.50000000E-01  8.50000000E-01  8.50000000E-01  8.50000000E-01  8.50000000E-01
  8.50000000E-01  8.50000000E-01  8.50000000E-01  8.50000000E-01  8.50000000E-01
  8.50000000E-01  8.50000000E-01  8.50000000E-01  8.50000000E-01  8.50000000E-01
  8.50000000E-01  8.50000000E-01  8.50000000E-01  8.50000000E-01  8.50000000E-01
  8.50000000E-01  8.50000000E-01  8.50000000E-01  8.50000000E-01  8.50000000E-01
  8.50000000E-01  8.50000000E-01  8.50000000E-01  8.50000000E-01  8.50000000E-01
  8.50000000E-01  8.50000000E-01  8.50000000E-01  8.50000000E-01  8.50000000E-01
  8.50000000E-01  8.50000000E-01  8.50000000E-01  8.50000000E-01  8.50000000E-01
  8.50000000E-01  8.50000000E-01  8.50000000E-01  8.50000000E-01  8.50000000E-01
  8.50000000E-01  8.50000000E-01  8.50000000E-01  8.50000000E-01  8.50000000E-01
  8.50000000E-01  8.50000000E-01  8.50000000E-01  8.50000000E-01  8.50000000E-01
  8.50000000E-01  8.50000000E-01  8.50000000E-01  8.50000000E-01  8.50000000E-01
  8.50000000E-01  8.50000000E-01  8.50000000E-01  8.50000000E-01  8.50000000E-01
  8.50000000E-01  8.50000000E-01  8.50000000E-01  8.50000000E-01  8.50000000E-01
  8.50000000E-01  8.50000000E-01  8.50000000E-01  8.50000000E-01  8.50000000E-01
  8.50000000E-01  8.50000000E-01  8.50000000E-01  8.50000000E-01  8.50000000E-01
  8.50000000E-01  8.50000000E-01  8.50000000E-01  8.50000000E-01  8.50000000E-01
  8.50000000E-01  8.50000000E-01  8.50000000E-01  8.50000000E-01  8.50000000E-01
  8.50000000E-01  8.50000000E-01  8.50000000E-01  8.50000000E-01  8.50000000E-01
  8.50000000E-01  8.50000000E-01  8.50000000E-01  8.50000000E-01  8.50000000E-01
  8.50000000E-01  8.50000000E-01  8.50000000E-01  8.50000000E-01  8.50000000E-01
  8.50000000E-01  8.50000000E-01  8.50000000E-01  8.50000000E-01  8.50000000E-01
  8.50000000E-01  8.50000000E-01  8.50000000E-01  8.50000000E-01  8.50000000E-01
  8.50000000E-01  8.50000000E-01  8.50000000E-01  8.50000000E-01  8.50000000E-01
  8.50000000E-01  8.50000000E-01  8.50000000E-01  8.50000000E-01  8.50000000E-01
  8.50000000E-01  8.50000000E-01  8.50000000E-01  8.50000000E-01  8.50000000E-01
  8.50000000E-01  8.50000000E-01  8.50000000E-01  8.50000000E-01  8.50000000E-01
  8.50000000E-01  8.50000000E-01  8.50000000E-01  8.50000000E-01  8.50000000E-01
  8.50000000E-01  8.50000000E-01  8.50000000E-01  8.50000000E-01  8.50000000E-01
  8.50000000E-01  8.50000000E-01  8.50000000E-01  8.50000000E-01  8.50000000E-01
  8.50000000E-01  8.50000000E-01  8.50000000E-01  8.50000000E-01  8.50000000E-01
  8.50000000E-01  8.50000000E-01  8.50000000E-01  8.50000000E-01  8.50000000E-01
  8.50000000E-01  8.50000000E-01  8.50000000E-01  8.50000000E-01  8.50000000E-01
  8.50000000E-01  8.50000000E-01  8.50000000E-01  8.50000000E-01  8.50000000E-01
  8.50000000E-01  8.50000000E-01  8.50000000E-01  8.50000000E-01  8.50000000E-01
  8.50000000E-01  8.50000000E-01  8.50000000E-01  8.50000000E-01  8.50000000E-01
  8.50000000E-01  8.50000000E-01  8.50000000E-01  8.50000000E-01  8.50000000E-01
  8.50000000E-01  8.50000000E-01  8.50000000E-01  8.50000000E-01  8.50000000E-01
  8.50000000E-01  8.50000000E-01  8.50000000E-01  8.50000000E-01  8.50000000E-01
  8.50000000E-01  8.50000000E-01  8.50000000E-01  8.50000000E-01  8.50000000E-01
  8.50000000E-01  8.50000000E-01  8.50000000E-01  8.50000000E-01  8.50000000E-01
  8.50000000E-01  8.50000000E-01  8.50000000E-01  8.50000000E-01  8.50000000E-01
  8.50000000E-01  8.50000000E-01  8.50000000E-01  8.50000000E-01  8.50000000E-01
  8.50000000E-01  8.50000000E-01  8.50000000E-01  8.50000000E-01  8.50000000E-01
  8.50000000E-01  8.50000000E-01  8.50000000E-01  8.50000000E-01  8.50000000E-01
  8.50000000E-01  8.50000000E-01  8.50000000E-01  8.50000000E-01  8.50000000E-01
  8.50000000E-01  8.50000000E-01  8.50000000E-01  8.50000000E-01  8.50000000E-01
  8.50000000E-01  8.50000000E-01  8.50000000E-01  8.50000000E-01  8.50000000E-01
  8.50000000E-01  8.50000000E-01  8.50000000E-01  8.50000000E-01  8.50000000E-01
  8.50000000E-01  8.50000000E-01  8.50000000E-01  8.50000000E-01  8.50000000E-01
  8.50000000E-01  8.50000000E-01  8.50000000E-01  8.50000000E-01  8.50000000E-01
  8.50000000E-01  8.50000000E-01  8.50000000E-01  8.50000000E-01  8.50000000E-01
  8.50000000E-01  8.50000000E-01  8.50000000E-01  8.50000000E-01  8.50000000E-01
  8.50000000E-01  8.50000000E-01  8.50000000E-01  8.50000000E-01  8.50000000E-01
  8.50000000E-01  8.50000000E-01  8.50000000E-01  8.50000000E-01  8.50000000E-01
  8.50000000E-01  8.50000000E-01  8.50000000E-01  8.50000000E-01  8.50000000E-01
  8.50000000E-01  8.50000000E-01  8.50000000E-01  8.50000000E-01  8.50000000E-01
  8.50000000E-01  8.50000000E-01  8.50000000E-01  8.50000000E-01  8.50000000E-01
  8.50000000E-01  8.50000000E-01  8.50000000E-01  8.50000000E-01  8.50000000E-01
  8.50000000E-01  8.50000000E-01  8.50000000E-01  8.50000000E-01  8.50000000E-01
  8.50000000E-01  8.50000000E-01  8.50000000E-01  8.50000000E-01  8.50000000E-01
  8.50000000E-01  8.50000000E-01  8.50000000E-01  8.50000000E-01  8.50000000E-01
  8.50000000E-01  8.50000000E-01  8.50000000E-01  8.50000000E-01  8.50000000E-01
  8.50000000E-01  8.50000000E-01  8.50000000E-01  8.50000000E-01  8.50000000E-01
  8.50000000E-01  8.50000000E-01  8.50000000E-01  8.50000000E-01  8.50000000E-01
  8.50000000E-01  8.50000000E-01  8.50000000E-01  8.50000000E-01  8.50000000E-01
  8.50000000E-01  8.50000000E-01  8.50000000E-01  8.50000000E-01  8.50000000E-01
  8.50000000E-01  8.50000000E-01  8.50000000E-01  8.50000000E-01  8.50000000E-01
  8.50000000E-01  8.50000000E-01  8.50000000E-01  8.50000000E-01  8.50000000E-01
  8.50000000E-01  8.50000000E-01  8.50000000E-01  8.50000000E-01  8.50000000E-01
  8.50000000E-01  8.50000000E-01  8.50000000E-01  8.50000000E-01  8.50000000E-01
  8.50000000E-01  8.50000000E-01  8.50000000E-01  8.50000000E-01  8.50000000E-01
  8.50000000E-01  8.50000000E-01  8.50000000E-01  8.50000000E-01  8.50000000E-01
  8.50000000E-01  8.50000000E-01  8.50000000E-01  8.50000000E-01  8.50000000E-01
  8.50000000E-01  8.50000000E-01  8.50000000E-01  8.50000000E-01  8.50000000E-01
  8.50000000E-01  8.50000000E-01  8.50000000E-01  8.50000000E-01  8.50000000E-01
  8.50000000E-01  8.50000000E-01  8.50000000E-01  8.50000000E-01  8.50000000E-01
  8.50000000E-01  8.50000000E-01  8.50000000E-01  8.50000000E-01  8.50000000E-01
  8.50000000E-01  8.50000000E-01  8.50000000E-01  8.50000000E-01  8.50000000E-01
  8.50000000E-01  8.50000000E-01  8.50000000E-01  8.50000000E-01  8.50000000E-01
  8.50000000E-01  8.50000000E-01  8.50000000E-01  8.50000000E-01  8.50000000E-01
  8.50000000E-01  8.50000000E-01  8.50000000E-01  8.50000000E-01  8.50000000E-01
  8.50000000E-01  8.50000000E-01  8.50000000E-01  8.50000000E-01  8.50000000E-01
  8.50000000E-01  8.50000000E-01  8.50000000E-01  8.50000000E-01  8.50000000E-01
  8.50000000E-01  8.50000000E-01  8.50000000E-01  8.50000000E-01  8.50000000E-01
  8.50000000E-01  8.50000000E-01  8.50000000E-01  8.50000000E-01  8.50000000E-01
  8.50000000E-01  8.50000000E-01  8.50000000E-01  8.50000000E-01  8.50000000E-01
  8.50000000E-01  8.50000000E-01  8.50000000E-01  8.50000000E-01  8.50000000E-01
  8.50000000E-01  8.50000000E-01  8.50000000E-01  8.50000000E-01  8.50000000E-01
  8.50000000E-01  8.50000000E-01  8.50000000E-01  8.50000000E-01  8.50000000E-01
  8.50000000E-01  8.50000000E-01  8.50000000E-01  8.50000000E-01  8.50000000E-01
  8.50000000E-01  8.50000000E-01  8.50000000E-01  8.50000000E-01  8.50000000E-01
  8.50000000E-01  8.50000000E-01  8.50000000E-01  8.50000000E-01  8.50000000E-01
  8.50000000E-01  8.50000000E-01  8.50000000E-01  8.50000000E-01  8.50000000E-01
  8.50000000E-01  8.50000000E-01  8.50000000E-01  8.50000000E-01  8.50000000E-01
  8.50000000E-01  8.50000000E-01  8.50000000E-01  8.50000000E-01  8.50000000E-01
  8.50000000E-01  8.50000000E-01  8.50000000E-01  8.50000000E-01  8.50000000E-01
  8.50000000E-01  8.50000000E-01  8.50000000E-01  8.50000000E-01  8.50000000E-01
  8.50000000E-01  8.50000000E-01  8.50000000E-01  8.50000000E-01  8.50000000E-01
  8.50000000E-01  8.50000000E-01  8.50000000E-01  8.50000000E-01  8.50000000E-01
  8.50000000E-01  8.50000000E-01  8.50000000E-01  8.50000000E-01  8.50000000E-01
  8.50000000E-01  8.50000000E-01  8.50000000E-01  8.50000000E-01  8.50000000E-01
  8.50000000E-01  8.50000000E-01  8.50000000E-01  8.50000000E-01  8.50000000E-01
  8.50000000E-01  8.50000000E-01  8.50000000E-01  8.50000000E-01  8.50000000E-01
  8.50000000E-01  8.50000000E-01  8.50000000E-01  8.50000000E-01  8.50000000E-01
  8.50000000E-01  8.50000000E-01  8.50000000E-01  8.50000000E-01  8.50000000E-01
  8.50000000E-01  8.50000000E-01  8.50000000E-01  8.50000000E-01  8.50000000E-01
  8.50000000E-01  8.50000000E-01  8.50000000E-01  8.50000000E-01  8.50000000E-01
  8.50000000E-01  8.50000000E-01  8.50000000E-01  8.50000000E-01  8.50000000E-01
  8.50000000E-01  8.50000000E-01  8.50000000E-01  8.50000000E-01  8.50000000E-01
  8.50000000E-01  8.50000000E-01  8.50000000E-01  8.50000000E-01  8.50000000E-01
  8.50000000E-01  8.50000000E-01  8.50000000E-01  8.50000000E-01  8.50000000E-01
  8.50000000E-01  8.50000000E-01  8.50000000E-01  8.50000000E-01  8.50000000E-01
  8.50000000E-01  8.50000000E-01  8.50000000E-01  8.50000000E-01  8.50000000E-01
  8.50000000E-01  8.50000000E-01  8.50000000E-01  8.50000000E-01  8.50000000E-01
  8.50000000E-01  8.50000000E-01  8.50000000E-01  8.50000000E-01  8.50000000E-01
  8.50000000E-01  8.50000000E-01  8.50000000E-01  8.50000000E-01  8.50000000E-01
  8.50000000E-01  8.50000000E-01  8.50000000E-01  8.50000000E-01  8.50000000E-01
  8.50000000E-01  8.50000000E-01  8.50000000E-01  8.50000000E-01  8.50000000E-01
  8.50000000E-01  8.50000000E-01  8.50000000E-01  8.50000000E-01  8.50000000E-01
  8.50000000E-01  8.50000000E-01  8.50000000E-01  8.50000000E-01  8.50000000E-01
  8.50000000E-01  8.50000000E-01  8.50000000E-01  8.50000000E-01  8.50000000E-01
  8.50000000E-01  8.50000000E-01  8.50000000E-01  8.50000000E-01  8.50000000E-01
  8.50000000E-01  8.50000000E-01  8.50000000E-01  8.50000000E-01  8.50000000E-01
  8.50000000E-01  8.50000000E-01  8.50000000E-01  8.50000000E-01  8.50000000E-01
  8.50000000E-01  8.50000000E-01  8.50000000E-01  8.50000000E-01  8.50000000E-01
  8.50000000E-01  8.50000000E-01  8.50000000E-01  8.50000000E-01  8.50000000E-01
  8.50000000E-01  8.50000000E-01  8.50000000E-01  8.50000000E-01  8.50000000E-01
  8.50000000E-01  8.50000000E-01  8.50000000E-01  8.50000000E-01  8.50000000E-01
  8.50000000E-01  8.50000000E-01  8.50000000E-01  8.50000000E-01  8.50000000E-01
  8.50000000E-01  8.50000000E-01  8.50000000E-01  8.50000000E-01  8.50000000E-01
  8.50000000E-01  8.50000000E-01  8.50000000E-01  8.50000000E-01  8.50000000E-01
  8.50000000E-01  8.50000000E-01  8.50000000E-01  8.50000000E-01  8.50000000E-01
  8.50000000E-01  8.50000000E-01  8.50000000E-01  8.50000000E-01  8.50000000E-01
  8.50000000E-01  8.50000000E-01  8.50000000E-01  8.50000000E-01  8.50000000E-01
  8.50000000E-01  8.50000000E-01  8.50000000E-01  8.50000000E-01  8.50000000E-01
  8.50000000E-01  8.50000000E-01  8.50000000E-01  8.50000000E-01  8.50000000E-01
  8.50000000E-01  8.50000000E-01  8.50000000E-01  8.50000000E-01  8.50000000E-01
  8.50000000E-01  8.50000000E-01  8.50000000E-01  8.50000000E-01  8.50000000E-01
  8.50000000E-01  8.50000000E-01  8.50000000E-01  8.50000000E-01  8.50000000E-01
  8.50000000E-01  8.50000000E-01  8.50000000E-01  8.50000000E-01  8.50000000E-01
  8.50000000E-01  8.50000000E-01  8.50000000E-01  8.50000000E-01  8.50000000E-01
  8.50000000E-01  8.50000000E-01  8.50000000E-01  8.50000000E-01  8.50000000E-01
  8.50000000E-01  8.50000000E-01  8.50000000E-01  8.50000000E-01  8.50000000E-01
  8.50000000E-01  8.50000000E-01  8.50000000E-01  8.50000000E-01  8.50000000E-01
  8.50000000E-01  8.50000000E-01  8.50000000E-01  8.50000000E-01  8.50000000E-01
  8.50000000E-01  8.50000000E-01  8.50000000E-01  8.50000000E-01  8.50000000E-01
  8.50000000E-01  8.50000000E-01  8.50000000E-01  8.50000000E-01  8.50000000E-01
  8.50000000E-01  8.50000000E-01  8.50000000E-01  8.50000000E-01  8.50000000E-01
  8.50000000E-01  8.50000000E-01  8.50000000E-01  8.50000000E-01  8.50000000E-01
  8.50000000E-01  8.50000000E-01  8.50000000E-01  8.50000000E-01  8.50000000E-01
  8.50000000E-01  8.50000000E-01  8.50000000E-01  8.50000000E-01  8.50000000E-01
  8.50000000E-01  8.50000000E-01  8.50000000E-01  8.50000000E-01  8.50000000E-01
  8.50000000E-01  8.50000000E-01  8.50000000E-01  8.50000000E-01  8.50000000E-01
  8.50000000E-01  8.50000000E-01  8.50000000E-01  8.50000000E-01  8.50000000E-01
  8.50000000E-01  8.50000000E-01  8.50000000E-01  8.50000000E-01  8.50000000E-01
  8.50000000E-01  8.50000000E-01  8.50000000E-01  8.50000000E-01  8.50000000E-01
  8.50000000E-01  8.50000000E-01  8.50000000E-01  8.50000000E-01  8.50000000E-01
  8.50000000E-01  8.50000000E-01  8.50000000E-01  8.50000000E-01  8.50000000E-01
  8.50000000E-01  8.50000000E-01  8.50000000E-01  8.50000000E-01  8.50000000E-01
  8.50000000E-01  8.50000000E-01  8.50000000E-01  8.50000000E-01  8.50000000E-01
  8.50000000E-01  8.50000000E-01  8.50000000E-01  8.50000000E-01  8.50000000E-01
  8.50000000E-01  8.50000000E-01  8.50000000E-01  8.50000000E-01  8.50000000E-01
  8.50000000E-01  8.50000000E-01  8.50000000E-01  8.50000000E-01  8.50000000E-01
  8.50000000E-01  8.50000000E-01  8.50000000E-01  8.50000000E-01  8.50000000E-01
  8.50000000E-01  8.50000000E-01  8.50000000E-01  8.50000000E-01  8.50000000E-01
  8.50000000E-01  8.50000000E-01  8.50000000E-01  8.50000000E-01  8.50000000E-01
  8.50000000E-01  8.50000000E-01  8.50000000E-01  8.50000000E-01  8.50000000E-01
  8.50000000E-01  8.50000000E-01  8.50000000E-01  8.50000000E-01  8.50000000E-01
  8.50000000E-01  8.50000000E-01  8.50000000E-01  8.50000000E-01  8.50000000E-01
  8.50000000E-01  8.50000000E-01  8.50000000E-01  8.50000000E-01  8.50000000E-01
  8.50000000E-01  8.50000000E-01  8.50000000E-01  8.50000000E-01  8.50000000E-01
  8.50000000E-01  8.50000000E-01  8.50000000E-01  8.50000000E-01  8.50000000E-01
  8.50000000E-01  8.50000000E-01  8.50000000E-01  8.50000000E-01  8.50000000E-01
  8.50000000E-01  8.50000000E-01  8.50000000E-01  8.50000000E-01  8.50000000E-01
  8.50000000E-01  8.50000000E-01  8.50000000E-01  8.50000000E-01  8.50000000E-01
  8.50000000E-01  8.50000000E-01  8.50000000E-01  8.50000000E-01  8.50000000E-01
  8.50000000E-01  8.50000000E-01  8.50000000E-01  8.50000000E-01  8.50000000E-01
  8.50000000E-01  8.50000000E-01  8.50000000E-01  8.50000000E-01  8.50000000E-01
  8.50000000E-01  8.50000000E-01  8.50000000E-01  8.50000000E-01  8.50000000E-01
  8.50000000E-01  8.50000000E-01  8.50000000E-01  8.50000000E-01  8.50000000E-01
  8.50000000E-01  8.50000000E-01  8.50000000E-01  8.50000000E-01  8.50000000E-01
  8.50000000E-01  8.50000000E-01  8.50000000E-01  8.50000000E-01  8.50000000E-01
  8.50000000E-01  8.50000000E-01  8.50000000E-01  8.50000000E-01  8.50000000E-01
  8.50000000E-01  8.50000000E-01  8.50000000E-01  8.50000000E-01  8.50000000E-01
  8.50000000E-01  8.50000000E-01  8.50000000E-01  8.50000000E-01  8.50000000E-01
  8.50000000E-01  8.50000000E-01  8.50000000E-01  8.50000000E-01  8.50000000E-01
  8.50000000E-01  8.50000000E-01  8.50000000E-01  8.50000000E-01  8.50000000E-01
  8.50000000E-01  8.50000000E-01  8.50000000E-01  8.50000000E-01  8.50000000E-01
  8.50000000E-01  8.50000000E-01  8.50000000E-01  8.50000000E-01  8.50000000E-01
  8.50000000E-01  8.50000000E-01  8.50000000E-01  8.50000000E-01  8.50000000E-01
  8.50000000E-01  8.50000000E-01  8.50000000E-01  8.50000000E-01  8.50000000E-01
  8.50000000E-01  8.50000000E-01  8.50000000E-01  8.50000000E-01  8.50000000E-01
  8.50000000E-01  8.50000000E-01  8.50000000E-01  8.50000000E-01  8.50000000E-01
  8.50000000E-01  8.50000000E-01  8.50000000E-01  8.50000000E-01  8.50000000E-01
  8.50000000E-01  8.50000000E-01  8.50000000E-01  8.50000000E-01  8.50000000E-01
  8.50000000E-01  8.50000000E-01  8.50000000E-01  8.50000000E-01  8.50000000E-01
  8.50000000E-01  8.50000000E-01  8.50000000E-01  8.50000000E-01  8.50000000E-01
  8.50000000E-01  8.50000000E-01  8.50000000E-01  8.50000000E-01  8.50000000E-01
  8.50000000E-01  8.50000000E-01  8.50000000E-01  8.50000000E-01  8.50000000E-01
  8.50000000E-01  8.50000000E-01  8.50000000E-01  8.50000000E-01  8.50000000E-01
  8.50000000E-01  8.50000000E-01  8.50000000E-01  8.50000000E-01  8.50000000E-01
  8.50000000E-01  8.50000000E-01  8.50000000E-01  8.50000000E-01  8.50000000E-01
  8.50000000E-01  8.50000000E-01  8.50000000E-01  8.50000000E-01  8.50000000E-01
  8.50000000E-01  8.50000000E-01  8.50000000E-01  8.50000000E-01  8.50000000E-01
  8.50000000E-01  8.50000000E-01  8.50000000E-01  8.50000000E-01  8.50000000E-01
  8.50000000E-01  8.50000000E-01  8.50000000E-01  8.50000000E-01  8.50000000E-01
  8.50000000E-01  8.50000000E-01  8.50000000E-01  8.50000000E-01  8.50000000E-01
  8.50000000E-01  8.50000000E-01  8.50000000E-01  8.50000000E-01  8.50000000E-01
  8.50000000E-01  8.50000000E-01  8.50000000E-01  8.50000000E-01  8.50000000E-01
  8.50000000E-01  8.50000000E-01  8.50000000E-01  8.50000000E-01  8.50000000E-01
  8.50000000E-01  8.50000000E-01  8.50000000E-01  8.50000000E-01  8.50000000E-01
  8.50000000E-01  8.50000000E-01  8.50000000E-01  8.50000000E-01  8.50000000E-01
  8.50000000E-01  8.50000000E-01  8.50000000E-01  8.50000000E-01  8.50000000E-01
  8.50000000E-01  8.50000000E-01  8.50000000E-01  8.50000000E-01  8.50000000E-01
  8.50000000E-01  8.50000000E-01  8.50000000E-01  8.50000000E-01  8.50000000E-01
  8.50000000E-01  8.50000000E-01  8.50000000E-01  8.50000000E-01  8.50000000E-01
  8.50000000E-01  8.50000000E-01  8.50000000E-01  8.50000000E-01  8.50000000E-01
  8.50000000E-01  8.50000000E-01  8.50000000E-01  8.50000000E-01  8.50000000E-01
  8.50000000E-01  8.50000000E-01  8.50000000E-01  8.50000000E-01  8.50000000E-01
  8.50000000E-01  8.50000000E-01  8.50000000E-01  8.50000000E-01  8.50000000E-01
  8.50000000E-01  8.50000000E-01  8.50000000E-01  8.50000000E-01  8.50000000E-01
  8.50000000E-01  8.50000000E-01  8.50000000E-01  8.50000000E-01  8.50000000E-01
  8.50000000E-01  8.50000000E-01  8.50000000E-01  8.50000000E-01  8.50000000E-01
  8.50000000E-01  8.50000000E-01  8.50000000E-01  8.50000000E-01  8.50000000E-01
  8.50000000E-01  8.50000000E-01  8.50000000E-01  8.50000000E-01  8.50000000E-01
  8.50000000E-01  8.50000000E-01  8.50000000E-01  8.50000000E-01  8.50000000E-01
  8.50000000E-01  8.50000000E-01  8.50000000E-01  8.50000000E-01  8.50000000E-01
  8.50000000E-01  8.50000000E-01  8.50000000E-01  8.50000000E-01  8.50000000E-01
  8.50000000E-01  8.50000000E-01  8.50000000E-01  8.50000000E-01  8.50000000E-01
  8.50000000E-01  8.50000000E-01  8.50000000E-01  8.50000000E-01  8.50000000E-01
  8.50000000E-01  8.50000000E-01  8.50000000E-01  8.50000000E-01  8.50000000E-01
  8.50000000E-01  8.50000000E-01  8.50000000E-01  8.50000000E-01  8.50000000E-01
  8.50000000E-01  8.50000000E-01  8.50000000E-01  8.50000000E-01  8.50000000E-01
  8.50000000E-01  8.50000000E-01  8.50000000E-01  8.50000000E-01  8.50000000E-01
  8.50000000E-01  8.50000000E-01  8.50000000E-01  8.50000000E-01  8.50000000E-01
  8.50000000E-01  8.50000000E-01  8.50000000E-01  8.50000000E-01  8.50000000E-01
  8.50000000E-01  8.50000000E-01  8.50000000E-01  8.50000000E-01  8.50000000E-01
  8.50000000E-01  8.50000000E-01  8.50000000E-01  8.50000000E-01  8.50000000E-01
  8.50000000E-01  8.50000000E-01  8.50000000E-01  8.50000000E-01  8.50000000E-01
  8.50000000E-01  8.50000000E-01  8.50000000E-01  8.50000000E-01  8.50000000E-01
  8.50000000E-01  8.50000000E-01  8.50000000E-01  8.50000000E-01  8.50000000E-01
  8.50000000E-01  8.50000000E-01  8.50000000E-01  8.50000000E-01  8.50000000E-01
  8.50000000E-01  8.50000000E-01  8.50000000E-01  8.50000000E-01  8.50000000E-01
  8.50000000E-01  8.50000000E-01  8.50000000E-01  8.50000000E-01  8.50000000E-01
  8.50000000E-01  8.50000000E-01  8.50000000E-01  8.50000000E-01  8.50000000E-01
  8.50000000E-01  8.50000000E-01  8.50000000E-01  8.50000000E-01  8.50000000E-01
  8.50000000E-01  8.50000000E-01  8.50000000E-01  8.50000000E-01  8.50000000E-01
  8.50000000E-01  8.50000000E-01  8.50000000E-01  8.50000000E-01  8.50000000E-01
  8.50000000E-01  8.50000000E-01  8.50000000E-01  8.50000000E-01  8.50000000E-01
  8.50000000E-01  8.50000000E-01  8.50000000E-01  8.50000000E-01  8.50000000E-01
  8.50000000E-01  8.50000000E-01  8.50000000E-01  8.50000000E-01  8.50000000E-01
  8.50000000E-01  8.50000000E-01  8.50000000E-01  8.50000000E-01  8.50000000E-01
  8.50000000E-01  8.50000000E-01  8.50000000E-01  8.50000000E-01  8.50000000E-01
  8.50000000E-01  8.50000000E-01  8.50000000E-01  8.50000000E-01  8.50000000E-01
  8.50000000E-01  8.50000000E-01  8.50000000E-01  8.50000000E-01  8.50000000E-01
  8.50000000E-01  8.50000000E-01  8.50000000E-01  8.50000000E-01  8.50000000E-01
  8.50000000E-01  8.50000000E-01  8.50000000E-01  8.50000000E-01  8.50000000E-01
  8.50000000E-01  8.50000000E-01  8.50000000E-01  8.50000000E-01  8.50000000E-01
  8.50000000E-01  8.50000000E-01  8.50000000E-01  8.50000000E-01  8.50000000E-01
  8.50000000E-01  8.50000000E-01  8.50000000E-01  8.50000000E-01  8.50000000E-01
  8.50000000E-01  8.50000000E-01  8.50000000E-01  8.50000000E-01  8.50000000E-01
  8.50000000E-01  8.50000000E-01  8.50000000E-01  8.50000000E-01  8.50000000E-01
  8.50000000E-01  8.50000000E-01  8.50000000E-01  8.50000000E-01  8.50000000E-01
  8.50000000E-01  8.50000000E-01  8.50000000E-01  8.50000000E-01  8.50000000E-01
  8.50000000E-01  8.50000000E-01  8.50000000E-01  8.50000000E-01  8.50000000E-01
  8.50000000E-01  8.50000000E-01  8.50000000E-01  8.50000000E-01  8.50000000E-01
  8.50000000E-01  8.50000000E-01  8.50000000E-01  8.50000000E-01  8.50000000E-01
  8.50000000E-01  8.50000000E-01  8.50000000E-01  8.50000000E-01  8.50000000E-01
  8.50000000E-01  8.50000000E-01  8.50000000E-01  8.50000000E-01  8.50000000E-01
  8.50000000E-01  8.50000000E-01  8.50000000E-01  8.50000000E-01  8.50000000E-01
  8.50000000E-01  8.50000000E-01  8.50000000E-01  8.50000000E-01  8.50000000E-01
  8.50000000E-01  8.50000000E-01  8.50000000E-01  8.50000000E-01  8.50000000E-01
  8.50000000E-01  8.50000000E-01  8.50000000E-01  8.50000000E-01  8.50000000E-01
  8.50000000E-01  8.50000000E-01  8.50000000E-01  8.50000000E-01  8.50000000E-01
  8.50000000E-01  8.50000000E-01  8.50000000E-01  8.50000000E-01  8.50000000E-01
  8.50000000E-01  8.50000000E-01  8.50000000E-01  8.50000000E-01  8.50000000E-01
  8.50000000E-01  8.50000000E-01  8.50000000E-01  8.50000000E-01  8.50000000E-01
  8.50000000E-01  8.50000000E-01  8.50000000E-01  8.50000000E-01  8.50000000E-01
  8.50000000E-01  8.50000000E-01  8.50000000E-01  8.50000000E-01  8.50000000E-01
  8.50000000E-01  8.50000000E-01  8.50000000E-01  8.50000000E-01  8.50000000E-01
  8.50000000E-01  8.50000000E-01  8.50000000E-01  8.50000000E-01  8.50000000E-01
  8.50000000E-01  8.50000000E-01  8.50000000E-01  8.50000000E-01  8.50000000E-01
  8.50000000E-01  8.50000000E-01  8.50000000E-01  8.50000000E-01  8.50000000E-01
  8.50000000E-01  8.50000000E-01  8.50000000E-01  8.50000000E-01  8.50000000E-01
  8.50000000E-01  8.50000000E-01  8.50000000E-01  8.50000000E-01  8.50000000E-01
  8.50000000E-01  8.50000000E-01  8.50000000E-01  8.50000000E-01  8.50000000E-01
  8.50000000E-01  8.50000000E-01  8.50000000E-01  8.50000000E-01  8.50000000E-01
  8.50000000E-01  8.50000000E-01  8.50000000E-01  8.50000000E-01  8.50000000E-01
  8.50000000E-01  8.50000000E-01  8.50000000E-01  8.50000000E-01  8.50000000E-01
  8.50000000E-01  8.50000000E-01  8.50000000E-01  8.50000000E-01  8.50000000E-01
  8.50000000E-01  8.50000000E-01  8.50000000E-01  8.50000000E-01  8.50000000E-01
  8.50000000E-01  8.50000000E-01  8.50000000E-01  8.50000000E-01  8.50000000E-01
  8.50000000E-01  8.50000000E-01  8.50000000E-01  8.50000000E-01  8.50000000E-01
  8.50000000E-01  8.50000000E-01  8.50000000E-01  8.50000000E-01  8.50000000E-01
  8.50000000E-01  8.50000000E-01  8.50000000E-01  8.50000000E-01  8.50000000E-01
  8.50000000E-01  8.50000000E-01  8.50000000E-01  8.50000000E-01  8.50000000E-01
  8.50000000E-01  8.50000000E-01  8.50000000E-01  8.50000000E-01  8.50000000E-01
  8.50000000E-01  8.50000000E-01  8.50000000E-01  8.50000000E-01  8.50000000E-01
  8.50000000E-01  8.50000000E-01  8.50000000E-01  8.50000000E-01  8.50000000E-01
  8.50000000E-01  8.50000000E-01  8.50000000E-01  8.50000000E-01  8.50000000E-01
  8.50000000E-01  8.50000000E-01  8.50000000E-01  8.50000000E-01  8.50000000E-01
  8.50000000E-01  8.50000000E-01  8.50000000E-01  8.50000000E-01  8.50000000E-01
  8.50000000E-01  8.50000000E-01  8.50000000E-01  8.50000000E-01  8.50000000E-01
  8.50000000E-01  8.50000000E-01  8.50000000E-01  8.50000000E-01  8.50000000E-01
  8.50000000E-01  8.50000000E-01  8.50000000E-01  8.50000000E-01  8.50000000E-01
  8.50000000E-01  8.50000000E-01  8.50000000E-01  8.50000000E-01  8.50000000E-01
  8.50000000E-01  8.50000000E-01  8.50000000E-01  8.50000000E-01  8.50000000E-01
  8.50000000E-01  8.50000000E-01  8.50000000E-01  8.50000000E-01  8.50000000E-01
  8.50000000E-01  8.50000000E-01  8.50000000E-01  8.50000000E-01  8.50000000E-01
  8.50000000E-01  8.50000000E-01  8.50000000E-01  8.50000000E-01  8.50000000E-01
  8.50000000E-01  8.50000000E-01  8.50000000E-01  8.50000000E-01  8.50000000E-01
  8.50000000E-01  8.50000000E-01  8.50000000E-01  8.50000000E-01  8.50000000E-01
  8.50000000E-01  8.50000000E-01  8.50000000E-01  8.50000000E-01  8.50000000E-01
  8.50000000E-01  8.50000000E-01  8.50000000E-01  8.50000000E-01  8.50000000E-01
  8.50000000E-01  8.50000000E-01  8.50000000E-01  8.50000000E-01  8.50000000E-01
  8.50000000E-01  8.50000000E-01  8.50000000E-01  8.50000000E-01  8.50000000E-01
  8.50000000E-01  8.50000000E-01  8.50000000E-01  8.50000000E-01  8.50000000E-01
  8.50000000E-01  8.50000000E-01  8.50000000E-01  8.50000000E-01  8.50000000E-01
  8.50000000E-01  8.50000000E-01  8.50000000E-01  8.50000000E-01  8.50000000E-01
  8.50000000E-01  8.50000000E-01  8.50000000E-01  8.50000000E-01  8.50000000E-01
  8.50000000E-01  8.50000000E-01  8.50000000E-01  8.50000000E-01  8.50000000E-01
  8.50000000E-01  8.50000000E-01  8.50000000E-01  8.50000000E-01  8.50000000E-01
  8.50000000E-01  8.50000000E-01  8.50000000E-01  8.50000000E-01  8.50000000E-01
  8.50000000E-01  8.50000000E-01  8.50000000E-01  8.50000000E-01  8.50000000E-01
  8.50000000E-01  8.50000000E-01  8.50000000E-01  8.50000000E-01  8.50000000E-01
  8.50000000E-01  8.50000000E-01  8.50000000E-01  8.50000000E-01  8.50000000E-01
  8.50000000E-01  8.50000000E-01  8.50000000E-01  8.50000000E-01  8.50000000E-01
  8.50000000E-01  8.50000000E-01  8.50000000E-01  8.50000000E-01  8.50000000E-01
  8.50000000E-01  8.50000000E-01  8.50000000E-01  8.50000000E-01  8.50000000E-01
  8.50000000E-01  8.50000000E-01  8.50000000E-01  8.50000000E-01  8.50000000E-01
  8.50000000E-01  8.50000000E-01  8.50000000E-01  8.50000000E-01  8.50000000E-01
  8.50000000E-01  8.50000000E-01  8.50000000E-01  8.50000000E-01  8.50000000E-01
  8.50000000E-01  8.50000000E-01  8.50000000E-01  8.50000000E-01  8.50000000E-01
  8.50000000E-01  8.50000000E-01  8.50000000E-01  8.50000000E-01  8.50000000E-01
  8.50000000E-01  8.50000000E-01  8.50000000E-01  8.50000000E-01  8.50000000E-01
  8.50000000E-01  8.50000000E-01  8.50000000E-01  8.50000000E-01  8.50000000E-01
  8.50000000E-01  8.50000000E-01  8.50000000E-01  8.50000000E-01  8.50000000E-01
  8.50000000E-01  8.50000000E-01  8.50000000E-01  8.50000000E-01  8.50000000E-01
  8.50000000E-01  8.50000000E-01  8.50000000E-01  8.50000000E-01  8.50000000E-01
  8.50000000E-01  8.50000000E-01  8.50000000E-01  8.50000000E-01  8.50000000E-01
  8.50000000E-01  8.50000000E-01  8.50000000E-01  8.50000000E-01  8.50000000E-01
  8.50000000E-01  8.50000000E-01  8.50000000E-01  8.50000000E-01  8.50000000E-01
  8.50000000E-01  8.50000000E-01  8.50000000E-01  8.50000000E-01  8.50000000E-01
  8.50000000E-01  8.50000000E-01  8.50000000E-01  8.50000000E-01  8.50000000E-01
  8.50000000E-01  8.50000000E-01  8.50000000E-01  8.50000000E-01  8.50000000E-01
  8.50000000E-01  8.50000000E-01  8.50000000E-01  8.50000000E-01  8.50000000E-01
  8.50000000E-01  8.50000000E-01  8.50000000E-01  8.50000000E-01  8.50000000E-01
  8.50000000E-01  8.50000000E-01  8.50000000E-01  8.50000000E-01  8.50000000E-01
  8.50000000E-01  8.50000000E-01  8.50000000E-01  8.50000000E-01  8.50000000E-01
  8.50000000E-01  8.50000000E-01  8.50000000E-01  8.50000000E-01  8.50000000E-01
  8.50000000E-01  8.50000000E-01  8.50000000E-01  8.50000000E-01  8.50000000E-01
  8.50000000E-01  8.50000000E-01  8.50000000E-01  8.50000000E-01  8.50000000E-01
  8.50000000E-01  8.50000000E-01  8.50000000E-01  8.50000000E-01  8.50000000E-01
  8.50000000E-01  8.50000000E-01  8.50000000E-01  8.50000000E-01  8.50000000E-01
  8.50000000E-01  8.50000000E-01  8.50000000E-01  8.50000000E-01  8.50000000E-01
  8.50000000E-01  8.50000000E-01  8.50000000E-01  8.50000000E-01  8.50000000E-01
  8.50000000E-01  8.50000000E-01  8.50000000E-01  8.50000000E-01  8.50000000E-01
  8.50000000E-01  8.50000000E-01  8.50000000E-01  8.50000000E-01  8.50000000E-01
  8.50000000E-01  8.50000000E-01  8.50000000E-01  8.50000000E-01  8.50000000E-01
  8.50000000E-01  8.50000000E-01  8.50000000E-01  8.50000000E-01  8.50000000E-01
  8.50000000E-01  8.50000000E-01  8.50000000E-01  8.50000000E-01  8.50000000E-01
  8.50000000E-01  8.50000000E-01  8.50000000E-01  8.50000000E-01  8.50000000E-01
  8.50000000E-01  8.50000000E-01  8.50000000E-01  8.50000000E-01  8.50000000E-01
  8.50000000E-01  8.50000000E-01  8.50000000E-01  8.50000000E-01  8.50000000E-01
  8.50000000E-01  8.50000000E-01  8.50000000E-01  8.50000000E-01  8.50000000E-01
  8.50000000E-01  8.50000000E-01  8.50000000E-01  8.50000000E-01  8.50000000E-01
  8.50000000E-01  8.50000000E-01  8.50000000E-01  8.50000000E-01  8.50000000E-01
  8.50000000E-01  8.50000000E-01  8.50000000E-01  8.50000000E-01  8.50000000E-01
  8.50000000E-01  8.50000000E-01  8.50000000E-01  8.50000000E-01  8.50000000E-01
  8.50000000E-01  8.50000000E-01  8.50000000E-01  8.50000000E-01  8.50000000E-01
  8.50000000E-01  8.50000000E-01  8.50000000E-01  8.50000000E-01  8.50000000E-01
  8.50000000E-01  8.50000000E-01  8.50000000E-01  8.50000000E-01  8.50000000E-01
  8.50000000E-01  8.50000000E-01  8.50000000E-01  8.50000000E-01  8.50000000E-01
  8.50000000E-01  8.50000000E-01  8.50000000E-01  8.50000000E-01  8.50000000E-01
  8.50000000E-01  8.50000000E-01  8.50000000E-01  8.50000000E-01  8.50000000E-01
  8.50000000E-01  8.50000000E-01  8.50000000E-01  8.50000000E-01  8.50000000E-01
  8.50000000E-01  8.50000000E-01  8.50000000E-01  8.50000000E-01  8.50000000E-01
  8.50000000E-01  8.50000000E-01  8.50000000E-01  8.50000000E-01  8.50000000E-01
  8.50000000E-01  8.50000000E-01  8.50000000E-01  8.50000000E-01  8.50000000E-01
  8.50000000E-01  8.50000000E-01  8.50000000E-01  8.50000000E-01  8.50000000E-01
  8.50000000E-01  8.50000000E-01  8.50000000E-01  8.50000000E-01  8.50000000E-01
  8.50000000E-01  8.50000000E-01  8.50000000E-01  8.50000000E-01  8.50000000E-01
  8.50000000E-01  8.50000000E-01  8.50000000E-01  8.50000000E-01  8.50000000E-01
  8.50000000E-01  8.50000000E-01  8.50000000E-01  8.50000000E-01  8.50000000E-01
  8.50000000E-01  8.50000000E-01  8.50000000E-01  8.50000000E-01  8.50000000E-01
  8.50000000E-01  8.50000000E-01  8.50000000E-01  8.50000000E-01  8.50000000E-01
  8.50000000E-01  8.50000000E-01  8.50000000E-01  8.50000000E-01  8.50000000E-01
  8.50000000E-01  8.50000000E-01  8.50000000E-01  8.50000000E-01  8.50000000E-01
  8.50000000E-01  8.50000000E-01  8.50000000E-01  8.50000000E-01  8.50000000E-01
  8.50000000E-01  8.50000000E-01  8.50000000E-01  8.50000000E-01  8.50000000E-01
  8.50000000E-01  8.50000000E-01  8.50000000E-01  8.50000000E-01  8.50000000E-01
  8.50000000E-01  8.50000000E-01  8.50000000E-01  8.50000000E-01  8.50000000E-01
  8.50000000E-01  8.50000000E-01  8.50000000E-01  8.50000000E-01  8.50000000E-01
  8.50000000E-01  8.50000000E-01  8.50000000E-01  8.50000000E-01  8.50000000E-01
  8.50000000E-01  8.50000000E-01  8.50000000E-01  8.50000000E-01  8.50000000E-01
  8.50000000E-01  8.50000000E-01  8.50000000E-01  8.50000000E-01  8.50000000E-01
  8.50000000E-01  8.50000000E-01  8.50000000E-01  8.50000000E-01  8.50000000E-01
  8.50000000E-01  8.50000000E-01  8.50000000E-01  8.50000000E-01  8.50000000E-01
  8.50000000E-01  8.50000000E-01  8.50000000E-01  8.50000000E-01  8.50000000E-01
  8.50000000E-01  8.50000000E-01  8.50000000E-01  8.50000000E-01  8.50000000E-01
  8.50000000E-01  8.50000000E-01  8.50000000E-01  8.50000000E-01  8.50000000E-01
  8.50000000E-01  8.50000000E-01  8.50000000E-01  8.50000000E-01  8.50000000E-01
  8.50000000E-01  8.50000000E-01  8.50000000E-01  8.50000000E-01  8.50000000E-01
  8.50000000E-01  8.50000000E-01  8.50000000E-01  8.50000000E-01  8.50000000E-01
  8.50000000E-01  8.50000000E-01  8.50000000E-01  8.50000000E-01  8.50000000E-01
  8.50000000E-01  8.50000000E-01  8.50000000E-01  8.50000000E-01  8.50000000E-01
  8.50000000E-01  8.50000000E-01  8.50000000E-01  8.50000000E-01  8.50000000E-01
  8.50000000E-01  8.50000000E-01  8.50000000E-01  8.50000000E-01  8.50000000E-01
  8.50000000E-01  8.50000000E-01  8.50000000E-01  8.50000000E-01  8.50000000E-01
  8.50000000E-01  8.50000000E-01  8.50000000E-01  8.50000000E-01  8.50000000E-01
  8.50000000E-01  8.50000000E-01  8.50000000E-01  8.50000000E-01  8.50000000E-01
  8.50000000E-01  8.50000000E-01  8.50000000E-01  8.50000000E-01  8.50000000E-01
  8.50000000E-01  8.50000000E-01  8.50000000E-01  8.50000000E-01  8.50000000E-01
  8.50000000E-01  8.50000000E-01  8.50000000E-01  8.50000000E-01  8.50000000E-01
  8.50000000E-01  8.50000000E-01  8.50000000E-01  8.50000000E-01  8.50000000E-01
  8.50000000E-01  8.50000000E-01  8.50000000E-01  8.50000000E-01  8.50000000E-01
  8.50000000E-01  8.50000000E-01  8.50000000E-01  8.50000000E-01  8.50000000E-01
  8.50000000E-01  8.50000000E-01  8.50000000E-01  8.50000000E-01  8.50000000E-01
  8.50000000E-01  8.50000000E-01  8.50000000E-01  8.50000000E-01  8.50000000E-01
  8.50000000E-01  8.50000000E-01  8.50000000E-01  8.50000000E-01  8.50000000E-01
  8.50000000E-01  8.50000000E-01  8.50000000E-01  8.50000000E-01  8.50000000E-01
  8.50000000E-01  8.50000000E-01  8.50000000E-01  8.50000000E-01  8.50000000E-01
  8.50000000E-01  8.50000000E-01  8.50000000E-01  8.50000000E-01  8.50000000E-01
  8.50000000E-01  8.50000000E-01  8.50000000E-01  8.50000000E-01  8.50000000E-01
  8.50000000E-01  8.50000000E-01  8.50000000E-01  8.50000000E-01  8.50000000E-01
  8.50000000E-01  8.50000000E-01  8.50000000E-01  8.50000000E-01  8.50000000E-01
  8.50000000E-01  8.50000000E-01  8.50000000E-01  8.50000000E-01  8.50000000E-01
  8.50000000E-01  8.50000000E-01  8.50000000E-01  8.50000000E-01  8.50000000E-01
  8.50000000E-01  8.50000000E-01  8.50000000E-01  8.50000000E-01  8.50000000E-01
  8.50000000E-01  8.50000000E-01  8.50000000E-01  8.50000000E-01  8.50000000E-01
  8.50000000E-01  8.50000000E-01  8.50000000E-01  8.50000000E-01  8.50000000E-01
  8.50000000E-01  8.50000000E-01  8.50000000E-01  8.50000000E-01  8.50000000E-01
  8.50000000E-01  8.50000000E-01  8.50000000E-01  8.50000000E-01  8.50000000E-01
  8.50000000E-01  8.50000000E-01  8.50000000E-01  8.50000000E-01  8.50000000E-01
  8.50000000E-01  8.50000000E-01  8.50000000E-01  8.50000000E-01  8.50000000E-01
  8.50000000E-01  8.50000000E-01  8.50000000E-01  8.50000000E-01  8.50000000E-01
  8.50000000E-01  8.50000000E-01  8.50000000E-01  8.50000000E-01  8.50000000E-01
  8.50000000E-01  8.50000000E-01  8.50000000E-01  8.50000000E-01  8.50000000E-01
  8.50000000E-01  8.50000000E-01  8.50000000E-01  8.50000000E-01  8.50000000E-01
  8.50000000E-01  8.50000000E-01  8.50000000E-01  8.50000000E-01  8.50000000E-01
  8.50000000E-01  8.50000000E-01  8.50000000E-01  8.50000000E-01  8.50000000E-01
  8.50000000E-01  8.50000000E-01  8.50000000E-01  8.50000000E-01  8.50000000E-01
  8.50000000E-01  8.50000000E-01  8.50000000E-01  8.50000000E-01  8.50000000E-01
  8.50000000E-01  8.50000000E-01  8.50000000E-01  8.50000000E-01  8.50000000E-01
  8.50000000E-01  8.50000000E-01  8.50000000E-01  8.50000000E-01  8.50000000E-01
  8.50000000E-01  8.50000000E-01  8.50000000E-01  8.50000000E-01  8.50000000E-01
  8.50000000E-01  8.50000000E-01  8.50000000E-01  8.50000000E-01  8.50000000E-01
  8.50000000E-01  8.50000000E-01  8.50000000E-01  8.50000000E-01  8.50000000E-01
  8.50000000E-01  8.50000000E-01  8.50000000E-01  8.50000000E-01  8.50000000E-01
  8.50000000E-01  8.50000000E-01  8.50000000E-01  8.50000000E-01  8.50000000E-01
  8.50000000E-01  8.50000000E-01  8.50000000E-01  8.50000000E-01  8.50000000E-01
  8.50000000E-01  8.50000000E-01  8.50000000E-01  8.50000000E-01  8.50000000E-01
  8.50000000E-01  8.50000000E-01  8.50000000E-01  8.50000000E-01  8.50000000E-01
  8.50000000E-01  8.50000000E-01  8.50000000E-01  8.50000000E-01  8.50000000E-01
  8.50000000E-01  8.50000000E-01  8.50000000E-01  8.50000000E-01  8.50000000E-01
  8.50000000E-01  8.50000000E-01  8.50000000E-01  8.50000000E-01  8.50000000E-01
  8.50000000E-01  8.50000000E-01  8.50000000E-01  8.50000000E-01  8.50000000E-01
  8.50000000E-01  8.50000000E-01  8.50000000E-01  8.50000000E-01  8.50000000E-01
  8.50000000E-01  8.50000000E-01  8.50000000E-01  8.50000000E-01  8.50000000E-01
  8.50000000E-01  8.50000000E-01  8.50000000E-01  8.50000000E-01  8.50000000E-01
  8.50000000E-01  8.50000000E-01  8.50000000E-01  8.50000000E-01  8.50000000E-01
  8.50000000E-01  8.50000000E-01  8.50000000E-01  8.50000000E-01  8.50000000E-01
  8.50000000E-01  8.50000000E-01  8.50000000E-01  8.50000000E-01  8.50000000E-01
  8.50000000E-01  8.50000000E-01  8.50000000E-01  8.50000000E-01  8.50000000E-01
  8.50000000E-01  8.50000000E-01  8.50000000E-01  8.50000000E-01  8.50000000E-01
  8.50000000E-01  8.50000000E-01  8.50000000E-01  8.50000000E-01  8.50000000E-01
  8.50000000E-01  8.50000000E-01  8.50000000E-01  8.50000000E-01  8.50000000E-01
  8.50000000E-01  8.50000000E-01  8.50000000E-01  8.50000000E-01  8.50000000E-01
  8.50000000E-01  8.50000000E-01  8.50000000E-01  8.50000000E-01  8.50000000E-01
  8.50000000E-01  8.50000000E-01  8.50000000E-01  8.50000000E-01  8.50000000E-01
  8.50000000E-01  8.50000000E-01  8.50000000E-01  8.50000000E-01  8.50000000E-01
  8.50000000E-01  8.50000000E-01  8.50000000E-01  8.50000000E-01  8.50000000E-01
  8.50000000E-01  8.50000000E-01  8.50000000E-01  8.50000000E-01  8.50000000E-01
  8.50000000E-01  8.50000000E-01  8.50000000E-01  8.50000000E-01  8.50000000E-01
  8.50000000E-01  8.50000000E-01  8.50000000E-01  8.50000000E-01  8.50000000E-01
  8.50000000E-01  8.50000000E-01  8.50000000E-01  8.50000000E-01  8.50000000E-01
  8.50000000E-01  8.50000000E-01  8.50000000E-01  8.50000000E-01  8.50000000E-01
  8.50000000E-01  8.50000000E-01  8.50000000E-01  8.50000000E-01  8.50000000E-01
  8.50000000E-01  8.50000000E-01  8.50000000E-01  8.50000000E-01  8.50000000E-01
  8.50000000E-01  8.50000000E-01  8.50000000E-01  8.50000000E-01  8.50000000E-01
  8.50000000E-01  8.50000000E-01  8.50000000E-01  8.50000000E-01  8.50000000E-01
  8.50000000E-01  8.50000000E-01  8.50000000E-01  8.50000000E-01  8.50000000E-01
  8.50000000E-01  8.50000000E-01  8.50000000E-01  8.50000000E-01  8.50000000E-01
  8.50000000E-01  8.50000000E-01  8.50000000E-01  8.50000000E-01  8.50000000E-01
  8.50000000E-01  8.50000000E-01  8.50000000E-01  8.50000000E-01  8.50000000E-01
  8.50000000E-01  8.50000000E-01  8.50000000E-01  8.50000000E-01  8.50000000E-01
  8.50000000E-01  8.50000000E-01  8.50000000E-01  8.50000000E-01  8.50000000E-01
  8.50000000E-01  8.50000000E-01  8.50000000E-01  8.50000000E-01  8.50000000E-01
  8.50000000E-01  8.50000000E-01  8.50000000E-01  8.50000000E-01  8.50000000E-01
  8.50000000E-01  8.50000000E-01  8.50000000E-01  8.50000000E-01  8.50000000E-01
  8.50000000E-01  8.50000000E-01  8.50000000E-01  8.50000000E-01  8.50000000E-01
  8.50000000E-01  8.50000000E-01  8.50000000E-01  8.50000000E-01  8.50000000E-01
  8.50000000E-01  8.50000000E-01  8.50000000E-01  8.50000000E-01  8.50000000E-01
  8.50000000E-01  8.50000000E-01  8.50000000E-01  8.50000000E-01  8.50000000E-01
  8.50000000E-01  8.50000000E-01  8.50000000E-01  8.50000000E-01  8.50000000E-01
  8.50000000E-01  8.50000000E-01  8.50000000E-01  8.50000000E-01  8.50000000E-01
  8.50000000E-01  8.50000000E-01  8.50000000E-01  8.50000000E-01  8.50000000E-01
  8.50000000E-01  8.50000000E-01  8.50000000E-01  8.50000000E-01  8.50000000E-01
  8.50000000E-01  8.50000000E-01  8.50000000E-01  8.50000000E-01  8.50000000E-01
  8.50000000E-01  8.50000000E-01  8.50000000E-01  8.50000000E-01  8.50000000E-01
  8.50000000E-01  8.50000000E-01  8.50000000E-01  8.50000000E-01  8.50000000E-01
  8.50000000E-01  8.50000000E-01  8.50000000E-01  8.50000000E-01  8.50000000E-01
  8.50000000E-01  8.50000000E-01  8.50000000E-01  8.50000000E-01  8.50000000E-01
  8.50000000E-01  8.50000000E-01  8.50000000E-01  8.50000000E-01  8.50000000E-01
  8.50000000E-01  8.50000000E-01  8.50000000E-01  8.50000000E-01  8.50000000E-01
  8.50000000E-01  8.50000000E-01  8.50000000E-01  8.50000000E-01  8.50000000E-01
  8.50000000E-01  8.50000000E-01  8.50000000E-01  8.50000000E-01  8.50000000E-01
  8.50000000E-01  8.50000000E-01  8.50000000E-01  8.50000000E-01  8.50000000E-01
  8.50000000E-01  8.50000000E-01  8.50000000E-01  8.50000000E-01  8.50000000E-01
  8.50000000E-01  8.50000000E-01  8.50000000E-01  8.50000000E-01  8.50000000E-01
  8.50000000E-01  8.50000000E-01  8.50000000E-01  8.50000000E-01  8.50000000E-01
  8.50000000E-01  8.50000000E-01  8.50000000E-01  8.50000000E-01  8.50000000E-01
  8.50000000E-01  8.50000000E-01  8.50000000E-01  8.50000000E-01  8.50000000E-01
  8.50000000E-01  8.50000000E-01  8.50000000E-01  8.50000000E-01  8.50000000E-01
  8.50000000E-01  8.50000000E-01  8.50000000E-01  8.50000000E-01  8.50000000E-01
  8.50000000E-01  8.50000000E-01  8.50000000E-01  8.50000000E-01  8.50000000E-01
  8.50000000E-01  8.50000000E-01  8.50000000E-01  8.50000000E-01  8.50000000E-01
  8.50000000E-01  8.50000000E-01  8.50000000E-01  8.50000000E-01  8.50000000E-01
  8.50000000E-01  8.50000000E-01  8.50000000E-01  8.50000000E-01  8.50000000E-01
  8.50000000E-01  8.50000000E-01  8.50000000E-01  8.50000000E-01  8.50000000E-01
  8.50000000E-01  8.50000000E-01  8.50000000E-01  8.50000000E-01  8.50000000E-01
  8.50000000E-01  8.50000000E-01  8.50000000E-01  8.50000000E-01  8.50000000E-01
  8.50000000E-01  8.50000000E-01  8.50000000E-01  8.50000000E-01  8.50000000E-01
  8.50000000E-01  8.50000000E-01  8.50000000E-01  8.50000000E-01  8.50000000E-01
  8.50000000E-01  8.50000000E-01  8.50000000E-01  8.50000000E-01  8.50000000E-01
  8.50000000E-01  8.50000000E-01  8.50000000E-01  8.50000000E-01  8.50000000E-01
  8.50000000E-01  8.50000000E-01  8.50000000E-01  8.50000000E-01  8.50000000E-01
  8.50000000E-01  8.50000000E-01  8.50000000E-01  8.50000000E-01  8.50000000E-01
  8.50000000E-01  8.50000000E-01  8.50000000E-01  8.50000000E-01  8.50000000E-01
  8.50000000E-01  8.50000000E-01  8.50000000E-01  8.50000000E-01  8.50000000E-01
  8.50000000E-01  8.50000000E-01  8.50000000E-01  8.50000000E-01  8.50000000E-01
  8.50000000E-01  8.50000000E-01  8.50000000E-01  8.50000000E-01  8.50000000E-01
  8.50000000E-01  8.50000000E-01  8.50000000E-01  8.50000000E-01  8.50000000E-01
  8.50000000E-01  8.50000000E-01  8.50000000E-01  8.50000000E-01  8.50000000E-01
  8.50000000E-01  8.50000000E-01  8.50000000E-01  8.50000000E-01  8.50000000E-01
  8.50000000E-01  8.50000000E-01  8.50000000E-01  8.50000000E-01  8.50000000E-01
  8.50000000E-01  8.50000000E-01  8.50000000E-01  8.50000000E-01  8.50000000E-01
  8.50000000E-01  8.50000000E-01  8.50000000E-01  8.50000000E-01  8.50000000E-01
  8.50000000E-01  8.50000000E-01  8.50000000E-01  8.50000000E-01  8.50000000E-01
  8.50000000E-01  8.50000000E-01  8.50000000E-01  8.50000000E-01  8.50000000E-01
  8.50000000E-01  8.50000000E-01  8.50000000E-01  8.50000000E-01  8.50000000E-01
  8.50000000E-01  8.50000000E-01  8.50000000E-01  8.50000000E-01  8.50000000E-01
  8.50000000E-01  8.50000000E-01  8.50000000E-01  8.50000000E-01  8.50000000E-01
  8.50000000E-01  8.50000000E-01  8.50000000E-01  8.50000000E-01  8.50000000E-01
  8.50000000E-01  8.50000000E-01  8.50000000E-01  8.50000000E-01  8.50000000E-01
  8.50000000E-01  8.50000000E-01  8.50000000E-01  8.50000000E-01  8.50000000E-01
  8.50000000E-01  8.50000000E-01  8.50000000E-01  8.50000000E-01  8.50000000E-01
  8.50000000E-01  8.50000000E-01  8.50000000E-01  8.50000000E-01  8.50000000E-01
  8.50000000E-01  8.50000000E-01  8.50000000E-01  8.50000000E-01  8.50000000E-01
  8.50000000E-01  8.50000000E-01  8.50000000E-01  8.50000000E-01  8.50000000E-01
  8.50000000E-01  8.50000000E-01  8.50000000E-01  8.50000000E-01  8.50000000E-01
  8.50000000E-01  8.50000000E-01  8.50000000E-01  8.50000000E-01  8.50000000E-01
  8.50000000E-01  8.50000000E-01  8.50000000E-01  8.50000000E-01  8.50000000E-01
  8.50000000E-01  8.50000000E-01  8.50000000E-01  8.50000000E-01  8.50000000E-01
  8.50000000E-01  8.50000000E-01  8.50000000E-01  8.50000000E-01  8.50000000E-01
  8.50000000E-01  8.50000000E-01  8.50000000E-01  8.50000000E-01  8.50000000E-01
  8.50000000E-01  8.50000000E-01  8.50000000E-01  8.50000000E-01  8.50000000E-01
  8.50000000E-01  8.50000000E-01  8.50000000E-01  8.50000000E-01  8.50000000E-01
  8.50000000E-01  8.50000000E-01  8.50000000E-01  8.50000000E-01  8.50000000E-01
  8.50000000E-01  8.50000000E-01  8.50000000E-01  8.50000000E-01  8.50000000E-01
  8.50000000E-01  8.50000000E-01  8.50000000E-01  8.50000000E-01  8.50000000E-01
  8.50000000E-01  8.50000000E-01  8.50000000E-01  8.50000000E-01  8.50000000E-01
  8.50000000E-01  8.50000000E-01  8.50000000E-01  8.50000000E-01  8.50000000E-01
  8.50000000E-01  8.50000000E-01  8.50000000E-01  8.50000000E-01  8.50000000E-01
  8.50000000E-01  8.50000000E-01  8.50000000E-01  8.50000000E-01  8.50000000E-01
  8.50000000E-01  8.50000000E-01  8.50000000E-01  8.50000000E-01  8.50000000E-01
  8.50000000E-01  8.50000000E-01  8.50000000E-01  8.50000000E-01  8.50000000E-01
  8.50000000E-01  8.50000000E-01  8.50000000E-01  8.50000000E-01  8.50000000E-01
  8.50000000E-01  8.50000000E-01  8.50000000E-01  8.50000000E-01  8.50000000E-01
  8.50000000E-01  8.50000000E-01  8.50000000E-01  8.50000000E-01  8.50000000E-01
  8.50000000E-01  8.50000000E-01  8.50000000E-01  8.50000000E-01  8.50000000E-01
  8.50000000E-01  8.50000000E-01  8.50000000E-01  8.50000000E-01  8.50000000E-01
  8.50000000E-01  8.50000000E-01  8.50000000E-01  8.50000000E-01  8.50000000E-01
  8.50000000E-01  8.50000000E-01  8.50000000E-01  8.50000000E-01  8.50000000E-01
  8.50000000E-01  8.50000000E-01  8.50000000E-01  8.50000000E-01  8.50000000E-01
  8.50000000E-01  8.50000000E-01  8.50000000E-01  8.50000000E-01  8.50000000E-01
  8.50000000E-01  8.50000000E-01  8.50000000E-01  8.50000000E-01  8.50000000E-01
  8.50000000E-01  8.50000000E-01  8.50000000E-01  8.50000000E-01  8.50000000E-01
  8.50000000E-01  8.50000000E-01  8.50000000E-01  8.50000000E-01  8.50000000E-01
  8.50000000E-01  8.50000000E-01  8.50000000E-01  8.50000000E-01  8.50000000E-01
  8.50000000E-01  8.50000000E-01  8.50000000E-01  8.50000000E-01  8.50000000E-01
  8.50000000E-01  8.50000000E-01  8.50000000E-01  8.50000000E-01  8.50000000E-01
  8.50000000E-01  8.50000000E-01  8.50000000E-01  8.50000000E-01  8.50000000E-01
  8.50000000E-01  8.50000000E-01  8.50000000E-01  8.50000000E-01  8.50000000E-01
  8.50000000E-01  8.50000000E-01  8.50000000E-01  8.50000000E-01  8.50000000E-01
  8.50000000E-01  8.50000000E-01  8.50000000E-01  8.50000000E-01  8.50000000E-01
  8.50000000E-01  8.50000000E-01  8.50000000E-01  8.50000000E-01  8.50000000E-01
  8.50000000E-01  8.50000000E-01  8.50000000E-01  8.50000000E-01  8.50000000E-01
  8.50000000E-01  8.50000000E-01  8.50000000E-01  8.50000000E-01  8.50000000E-01
  8.50000000E-01  8.50000000E-01  8.50000000E-01  8.50000000E-01  8.50000000E-01
  8.50000000E-01  8.50000000E-01  8.50000000E-01  8.50000000E-01  8.50000000E-01
  8.50000000E-01  8.50000000E-01  8.50000000E-01  8.50000000E-01  8.50000000E-01
  8.50000000E-01  8.50000000E-01  8.50000000E-01  8.50000000E-01  8.50000000E-01
  8.50000000E-01  8.50000000E-01  8.50000000E-01  8.50000000E-01  8.50000000E-01
  8.50000000E-01  8.50000000E-01  8.50000000E-01  8.50000000E-01  8.50000000E-01
  8.50000000E-01  8.50000000E-01  8.50000000E-01  8.50000000E-01  8.50000000E-01
  8.50000000E-01  8.50000000E-01  8.50000000E-01  8.50000000E-01  8.50000000E-01
  8.50000000E-01  8.50000000E-01  8.50000000E-01  8.50000000E-01  8.50000000E-01
  8.50000000E-01  8.50000000E-01  8.50000000E-01  8.50000000E-01  8.50000000E-01
  8.50000000E-01  8.50000000E-01  8.50000000E-01  8.50000000E-01  8.50000000E-01
  8.50000000E-01  8.50000000E-01  8.50000000E-01  8.50000000E-01  8.50000000E-01
  8.50000000E-01  8.50000000E-01  8.50000000E-01  8.50000000E-01  8.50000000E-01
  8.50000000E-01  8.50000000E-01  8.50000000E-01  8.50000000E-01  8.50000000E-01
  8.50000000E-01  8.50000000E-01  8.50000000E-01  8.50000000E-01  8.50000000E-01
  8.50000000E-01  8.50000000E-01  8.50000000E-01  8.50000000E-01  8.50000000E-01
  8.50000000E-01  8.50000000E-01  8.50000000E-01  8.50000000E-01  8.50000000E-01
  8.50000000E-01  8.50000000E-01  8.50000000E-01  8.50000000E-01  8.50000000E-01
  8.50000000E-01  8.50000000E-01  8.50000000E-01  8.50000000E-01  8.50000000E-01
  8.50000000E-01  8.50000000E-01  8.50000000E-01  8.50000000E-01  8.50000000E-01
  8.50000000E-01  8.50000000E-01  8.50000000E-01  8.50000000E-01  8.50000000E-01
  8.50000000E-01  8.50000000E-01  8.50000000E-01  8.50000000E-01  8.50000000E-01
  8.50000000E-01  8.50000000E-01  8.50000000E-01  8.50000000E-01  8.50000000E-01
  8.50000000E-01  8.50000000E-01  8.50000000E-01  8.50000000E-01  8.50000000E-01
  8.50000000E-01  8.50000000E-01  8.50000000E-01  8.50000000E-01  8.50000000E-01
  8.50000000E-01  8.50000000E-01  8.50000000E-01  8.50000000E-01  8.50000000E-01
  8.50000000E-01  8.50000000E-01  8.50000000E-01  8.50000000E-01  8.50000000E-01
  8.50000000E-01  8.50000000E-01  8.50000000E-01  8.50000000E-01  8.50000000E-01
  8.50000000E-01  8.50000000E-01  8.50000000E-01  8.50000000E-01  8.50000000E-01
  8.50000000E-01  8.50000000E-01  8.50000000E-01  8.50000000E-01  8.50000000E-01
  8.50000000E-01  8.50000000E-01  8.50000000E-01  8.50000000E-01  8.50000000E-01
  8.50000000E-01  8.50000000E-01  8.50000000E-01  8.50000000E-01  8.50000000E-01
  8.50000000E-01  8.50000000E-01  8.50000000E-01  8.50000000E-01  8.50000000E-01
  8.50000000E-01  8.50000000E-01  8.50000000E-01  8.50000000E-01  8.50000000E-01
  8.50000000E-01  8.50000000E-01  8.50000000E-01  8.50000000E-01  8.50000000E-01
  8.50000000E-01  8.50000000E-01  8.50000000E-01  8.50000000E-01  8.50000000E-01
  8.50000000E-01  8.50000000E-01  8.50000000E-01  8.50000000E-01  8.50000000E-01
  8.50000000E-01  8.50000000E-01  8.50000000E-01  8.50000000E-01  8.50000000E-01
  8.50000000E-01  8.50000000E-01  8.50000000E-01  8.50000000E-01  8.50000000E-01
  8.50000000E-01  8.50000000E-01  8.50000000E-01  8.50000000E-01  8.50000000E-01
  8.50000000E-01  8.50000000E-01  8.50000000E-01  8.50000000E-01  8.50000000E-01
  8.50000000E-01  8.50000000E-01  8.50000000E-01  8.50000000E-01  8.50000000E-01
  8.50000000E-01  8.50000000E-01  8.50000000E-01  8.50000000E-01  8.50000000E-01
  8.50000000E-01  8.50000000E-01  8.50000000E-01  8.50000000E-01  8.50000000E-01
  8.50000000E-01  8.50000000E-01  8.50000000E-01  8.50000000E-01  8.50000000E-01
  8.50000000E-01  8.50000000E-01  8.50000000E-01  8.50000000E-01  8.50000000E-01
  8.50000000E-01  8.50000000E-01  8.50000000E-01  8.50000000E-01  8.50000000E-01
  8.50000000E-01  8.50000000E-01  8.50000000E-01  8.50000000E-01  8.50000000E-01
  8.50000000E-01  8.50000000E-01  8.50000000E-01  8.50000000E-01  8.50000000E-01
  8.50000000E-01  8.50000000E-01  8.50000000E-01  8.50000000E-01  8.50000000E-01
  8.50000000E-01  8.50000000E-01  8.50000000E-01  8.50000000E-01  8.50000000E-01
  8.50000000E-01  8.50000000E-01  8.50000000E-01  8.50000000E-01  8.50000000E-01
  8.50000000E-01  8.50000000E-01  8.50000000E-01  8.50000000E-01  8.50000000E-01
  8.50000000E-01  8.50000000E-01  8.50000000E-01  8.50000000E-01  8.50000000E-01
  8.50000000E-01  8.50000000E-01  8.50000000E-01  8.50000000E-01  8.50000000E-01
  8.50000000E-01  8.50000000E-01  8.50000000E-01  8.50000000E-01  8.50000000E-01
  8.50000000E-01  8.50000000E-01  8.50000000E-01  8.50000000E-01  8.50000000E-01
  8.50000000E-01  8.50000000E-01  8.50000000E-01  8.50000000E-01  8.50000000E-01
  8.50000000E-01  8.50000000E-01  8.50000000E-01  8.50000000E-01  8.50000000E-01
  8.50000000E-01  8.50000000E-01  8.50000000E-01  8.50000000E-01  8.50000000E-01
  8.50000000E-01  8.50000000E-01  8.50000000E-01  8.50000000E-01  8.50000000E-01
  8.50000000E-01  8.50000000E-01  8.50000000E-01  8.50000000E-01  8.50000000E-01
  8.50000000E-01  8.50000000E-01  8.50000000E-01  8.50000000E-01  8.50000000E-01
  8.50000000E-01  8.50000000E-01  8.50000000E-01  8.50000000E-01  8.50000000E-01
  8.50000000E-01  8.50000000E-01  8.50000000E-01  8.50000000E-01  8.50000000E-01
  8.50000000E-01  8.50000000E-01  8.50000000E-01  8.50000000E-01  8.50000000E-01
  8.50000000E-01  8.50000000E-01  8.50000000E-01  8.50000000E-01  8.50000000E-01
  8.50000000E-01  8.50000000E-01  8.50000000E-01  8.50000000E-01  8.50000000E-01
  8.50000000E-01  8.50000000E-01  8.50000000E-01  8.50000000E-01  8.50000000E-01
  8.50000000E-01  8.50000000E-01  8.50000000E-01  8.50000000E-01  8.50000000E-01
  8.50000000E-01  8.50000000E-01  8.50000000E-01  8.50000000E-01  8.50000000E-01
  8.50000000E-01  8.50000000E-01  8.50000000E-01  8.50000000E-01  8.50000000E-01
  8.50000000E-01  8.50000000E-01  8.50000000E-01  8.50000000E-01  8.50000000E-01
  8.50000000E-01  8.50000000E-01  8.50000000E-01  8.50000000E-01  8.50000000E-01
  8.50000000E-01  8.50000000E-01  8.50000000E-01  8.50000000E-01  8.50000000E-01
  8.50000000E-01  8.50000000E-01  8.50000000E-01  8.50000000E-01  8.50000000E-01
  8.50000000E-01  8.50000000E-01  8.50000000E-01  8.50000000E-01  8.50000000E-01
  8.50000000E-01  8.50000000E-01  8.50000000E-01  8.50000000E-01  8.50000000E-01
  8.50000000E-01  8.50000000E-01  8.50000000E-01  8.50000000E-01  8.50000000E-01
  8.50000000E-01  8.50000000E-01  8.50000000E-01  8.50000000E-01  8.50000000E-01
  8.50000000E-01  8.50000000E-01  8.50000000E-01  8.50000000E-01  8.50000000E-01
  8.50000000E-01  8.50000000E-01  8.50000000E-01  8.50000000E-01  8.50000000E-01
  8.50000000E-01  8.50000000E-01  8.50000000E-01  8.50000000E-01  8.50000000E-01
  8.50000000E-01  8.50000000E-01  8.50000000E-01  8.50000000E-01  8.50000000E-01
  8.50000000E-01  8.50000000E-01  8.50000000E-01  8.50000000E-01  8.50000000E-01
  8.50000000E-01  8.50000000E-01  8.50000000E-01  8.50000000E-01  8.50000000E-01
  8.50000000E-01  8.50000000E-01  8.50000000E-01  8.50000000E-01  8.50000000E-01
  8.50000000E-01  8.50000000E-01  8.50000000E-01  8.50000000E-01  8.50000000E-01
  8.50000000E-01  8.50000000E-01  8.50000000E-01  8.50000000E-01  8.50000000E-01
  8.50000000E-01  8.50000000E-01  8.50000000E-01  8.50000000E-01  8.50000000E-01
  8.50000000E-01  8.50000000E-01  8.50000000E-01  8.50000000E-01  8.50000000E-01
  8.50000000E-01  8.50000000E-01  8.50000000E-01  8.50000000E-01  8.50000000E-01
  8.50000000E-01  8.50000000E-01  8.50000000E-01  8.50000000E-01  8.50000000E-01
  8.50000000E-01  8.50000000E-01  8.50000000E-01  8.50000000E-01  8.50000000E-01
  8.50000000E-01  8.50000000E-01  8.50000000E-01  8.50000000E-01  8.50000000E-01
  8.50000000E-01  8.50000000E-01  8.50000000E-01  8.50000000E-01  8.50000000E-01
  8.50000000E-01  8.50000000E-01  8.50000000E-01  8.50000000E-01  8.50000000E-01
  8.50000000E-01  8.50000000E-01  8.50000000E-01  8.50000000E-01  8.50000000E-01
  8.50000000E-01  8.50000000E-01  8.50000000E-01  8.50000000E-01  8.50000000E-01
  8.50000000E-01  8.50000000E-01  8.50000000E-01  8.50000000E-01  8.50000000E-01
  8.50000000E-01  8.50000000E-01  8.50000000E-01  8.50000000E-01  8.50000000E-01
  8.50000000E-01  8.50000000E-01  8.50000000E-01  8.50000000E-01  8.50000000E-01
  8.50000000E-01  8.50000000E-01  8.50000000E-01  8.50000000E-01  8.50000000E-01
  8.50000000E-01  8.50000000E-01  8.50000000E-01  8.50000000E-01  8.50000000E-01
  8.50000000E-01  8.50000000E-01  8.50000000E-01  8.50000000E-01  8.50000000E-01
  8.50000000E-01  8.50000000E-01  8.50000000E-01  8.50000000E-01  8.50000000E-01
  8.50000000E-01  8.50000000E-01  8.50000000E-01  8.50000000E-01  8.50000000E-01
  8.50000000E-01  8.50000000E-01  8.50000000E-01  8.50000000E-01  8.50000000E-01
  8.50000000E-01  8.50000000E-01  8.50000000E-01  8.50000000E-01  8.50000000E-01
  8.50000000E-01  8.50000000E-01  8.50000000E-01  8.50000000E-01  8.50000000E-01
  8.50000000E-01  8.50000000E-01  8.50000000E-01  8.50000000E-01  8.50000000E-01
  8.50000000E-01  8.50000000E-01  8.50000000E-01  8.50000000E-01  8.50000000E-01
  8.50000000E-01  8.50000000E-01  8.50000000E-01  8.50000000E-01  8.50000000E-01
  8.50000000E-01  8.50000000E-01  8.50000000E-01  8.50000000E-01  8.50000000E-01
  8.50000000E-01  8.50000000E-01  8.50000000E-01  8.50000000E-01  8.50000000E-01
  8.50000000E-01  8.50000000E-01  8.50000000E-01  8.50000000E-01  8.50000000E-01
  8.50000000E-01  8.50000000E-01  8.50000000E-01  8.50000000E-01  8.50000000E-01
  8.50000000E-01  8.50000000E-01  8.50000000E-01  8.50000000E-01  8.50000000E-01
  8.50000000E-01  8.50000000E-01  8.50000000E-01  8.50000000E-01  8.50000000E-01
  8.50000000E-01  8.50000000E-01  8.50000000E-01  8.50000000E-01  8.50000000E-01
  8.50000000E-01  8.50000000E-01  8.50000000E-01  8.50000000E-01  8.50000000E-01
  8.50000000E-01  8.50000000E-01  8.50000000E-01  8.50000000E-01  8.50000000E-01
  8.50000000E-01  8.50000000E-01  8.50000000E-01  8.50000000E-01  8.50000000E-01
  8.50000000E-01  8.50000000E-01  8.50000000E-01  8.50000000E-01  8.50000000E-01
  8.50000000E-01  8.50000000E-01  8.50000000E-01  8.50000000E-01  8.50000000E-01
  8.50000000E-01  8.50000000E-01  8.50000000E-01  8.50000000E-01  8.50000000E-01
  8.50000000E-01  8.50000000E-01  8.50000000E-01  8.50000000E-01  8.50000000E-01
  8.50000000E-01  8.50000000E-01  8.50000000E-01  8.50000000E-01  8.50000000E-01
  8.50000000E-01  8.50000000E-01  8.50000000E-01  8.50000000E-01  8.50000000E-01
  8.50000000E-01  8.50000000E-01  8.50000000E-01  8.50000000E-01  8.50000000E-01
  8.50000000E-01  8.50000000E-01  8.50000000E-01  8.50000000E-01  8.50000000E-01
  8.50000000E-01  8.50000000E-01  8.50000000E-01  8.50000000E-01  8.50000000E-01
  8.50000000E-01  8.50000000E-01  8.50000000E-01  8.50000000E-01  8.50000000E-01
  8.50000000E-01  8.50000000E-01  8.50000000E-01  8.50000000E-01  8.50000000E-01
  8.50000000E-01  8.50000000E-01  8.50000000E-01  8.50000000E-01  8.50000000E-01
  8.50000000E-01  8.50000000E-01  8.50000000E-01  8.50000000E-01  8.50000000E-01
  8.50000000E-01  8.50000000E-01  8.50000000E-01  8.50000000E-01  8.50000000E-01
  8.50000000E-01  8.50000000E-01  8.50000000E-01  8.50000000E-01  8.50000000E-01
  8.50000000E-01  8.50000000E-01  8.50000000E-01  8.50000000E-01  8.50000000E-01
  8.50000000E-01  8.50000000E-01  8.50000000E-01  8.50000000E-01  8.50000000E-01
  8.50000000E-01  8.50000000E-01  8.50000000E-01  8.50000000E-01  8.50000000E-01
  8.50000000E-01  8.50000000E-01  8.50000000E-01  8.50000000E-01  8.50000000E-01
  8.50000000E-01  8.50000000E-01  8.50000000E-01  8.50000000E-01  8.50000000E-01
  8.50000000E-01  8.50000000E-01  8.50000000E-01  8.50000000E-01  8.50000000E-01
  8.50000000E-01  8.50000000E-01  8.50000000E-01  8.50000000E-01  8.50000000E-01
  8.50000000E-01  8.50000000E-01  8.50000000E-01  8.50000000E-01  8.50000000E-01
  8.50000000E-01  8.50000000E-01  8.50000000E-01  8.50000000E-01  8.50000000E-01
  8.50000000E-01  8.50000000E-01  8.50000000E-01  8.50000000E-01  8.50000000E-01
  8.50000000E-01  8.50000000E-01  8.50000000E-01  8.50000000E-01  8.50000000E-01
  8.50000000E-01  8.50000000E-01  8.50000000E-01  8.50000000E-01  8.50000000E-01
  8.50000000E-01  8.50000000E-01  8.50000000E-01  8.50000000E-01  8.50000000E-01
  8.50000000E-01  8.50000000E-01  8.50000000E-01  8.50000000E-01  8.50000000E-01
  8.50000000E-01  8.50000000E-01  8.50000000E-01  8.50000000E-01  8.50000000E-01
  8.50000000E-01  8.50000000E-01  8.50000000E-01  8.50000000E-01  8.50000000E-01
  8.50000000E-01  8.50000000E-01  8.50000000E-01  8.50000000E-01  8.50000000E-01
  8.50000000E-01  8.50000000E-01  8.50000000E-01  8.50000000E-01  8.50000000E-01
  8.50000000E-01  8.50000000E-01  8.50000000E-01  8.50000000E-01  8.50000000E-01
  8.50000000E-01  8.50000000E-01  8.50000000E-01  8.50000000E-01  8.50000000E-01
  8.50000000E-01  8.50000000E-01  8.50000000E-01  8.50000000E-01  8.50000000E-01
  8.50000000E-01  8.50000000E-01  8.50000000E-01  8.50000000E-01  8.50000000E-01
  8.50000000E-01  8.50000000E-01  8.50000000E-01  8.50000000E-01  8.50000000E-01
  8.50000000E-01  8.50000000E-01  8.50000000E-01  8.50000000E-01  8.50000000E-01
  8.50000000E-01  8.50000000E-01  8.50000000E-01  8.50000000E-01  8.50000000E-01
  8.50000000E-01  8.50000000E-01  8.50000000E-01  8.50000000E-01  8.50000000E-01
  8.50000000E-01  8.50000000E-01  8.50000000E-01  8.50000000E-01  8.50000000E-01
  8.50000000E-01  8.50000000E-01  8.50000000E-01  8.50000000E-01  8.50000000E-01
  8.50000000E-01  8.50000000E-01  8.50000000E-01  8.50000000E-01  8.50000000E-01
  8.50000000E-01  8.50000000E-01  8.50000000E-01  8.50000000E-01  8.50000000E-01
  8.50000000E-01  8.50000000E-01  8.50000000E-01  8.50000000E-01  8.50000000E-01
  8.50000000E-01  8.50000000E-01  8.50000000E-01  8.50000000E-01  8.50000000E-01
  8.50000000E-01  8.50000000E-01  8.50000000E-01  8.50000000E-01  8.50000000E-01
  8.50000000E-01  8.50000000E-01  8.50000000E-01  8.50000000E-01  8.50000000E-01
  8.50000000E-01  8.50000000E-01  8.50000000E-01  8.50000000E-01  8.50000000E-01
  8.50000000E-01  8.50000000E-01  8.50000000E-01  8.50000000E-01  8.50000000E-01
  8.50000000E-01  8.50000000E-01  8.50000000E-01  8.50000000E-01  8.50000000E-01
  8.50000000E-01  8.50000000E-01  8.50000000E-01  8.50000000E-01  8.50000000E-01
  8.50000000E-01  8.50000000E-01  8.50000000E-01  8.50000000E-01  8.50000000E-01
  8.50000000E-01  8.50000000E-01  8.50000000E-01  8.50000000E-01  8.50000000E-01
  8.50000000E-01  8.50000000E-01  8.50000000E-01  8.50000000E-01  8.50000000E-01
  8.50000000E-01  8.50000000E-01  8.50000000E-01  8.50000000E-01  8.50000000E-01
  8.50000000E-01  8.50000000E-01  8.50000000E-01  8.50000000E-01  8.50000000E-01
  8.50000000E-01  8.50000000E-01  8.50000000E-01  8.50000000E-01  8.50000000E-01
  8.50000000E-01  8.50000000E-01  8.50000000E-01  8.50000000E-01  8.50000000E-01
  8.50000000E-01  8.50000000E-01  8.50000000E-01  8.50000000E-01  8.50000000E-01
  8.50000000E-01  8.50000000E-01  8.50000000E-01  8.50000000E-01  8.50000000E-01
  8.50000000E-01  8.50000000E-01  8.50000000E-01  8.50000000E-01  8.50000000E-01
  8.50000000E-01  8.50000000E-01  8.50000000E-01  8.50000000E-01  8.50000000E-01
  8.50000000E-01  8.50000000E-01  8.50000000E-01  8.50000000E-01  8.50000000E-01
  8.50000000E-01  8.50000000E-01  8.50000000E-01  8.50000000E-01  8.50000000E-01
  8.50000000E-01  8.50000000E-01  8.50000000E-01  8.50000000E-01  8.50000000E-01
  8.50000000E-01  8.50000000E-01  8.50000000E-01  8.50000000E-01  8.50000000E-01
  8.50000000E-01  8.50000000E-01  8.50000000E-01  8.50000000E-01  8.50000000E-01
  8.50000000E-01  8.50000000E-01  8.50000000E-01  8.50000000E-01  8.50000000E-01
  8.50000000E-01  8.50000000E-01  8.50000000E-01  8.50000000E-01  8.50000000E-01
  8.50000000E-01  8.50000000E-01  8.50000000E-01  8.50000000E-01  8.50000000E-01
  8.50000000E-01  8.50000000E-01  8.50000000E-01  8.50000000E-01  8.50000000E-01
  8.50000000E-01  8.50000000E-01  8.50000000E-01  8.50000000E-01  8.50000000E-01
  8.50000000E-01  8.50000000E-01  8.50000000E-01  8.50000000E-01  8.50000000E-01
  8.50000000E-01  8.50000000E-01  8.50000000E-01  8.50000000E-01  8.50000000E-01
  8.50000000E-01  8.50000000E-01  8.50000000E-01  8.50000000E-01  8.50000000E-01
  8.50000000E-01  8.50000000E-01  8.50000000E-01  8.50000000E-01  8.50000000E-01
  8.50000000E-01  8.50000000E-01  8.50000000E-01  8.50000000E-01  8.50000000E-01
  8.50000000E-01  8.50000000E-01  8.50000000E-01  8.50000000E-01  8.50000000E-01
  8.50000000E-01  8.50000000E-01  8.50000000E-01  8.50000000E-01  8.50000000E-01
  8.50000000E-01  8.50000000E-01  8.50000000E-01  8.50000000E-01  8.50000000E-01
  8.50000000E-01  8.50000000E-01  8.50000000E-01  8.50000000E-01  8.50000000E-01
  8.50000000E-01  8.50000000E-01  8.50000000E-01  8.50000000E-01  8.50000000E-01
  8.50000000E-01  8.50000000E-01  8.50000000E-01  8.50000000E-01  8.50000000E-01
  8.50000000E-01  8.50000000E-01  8.50000000E-01  8.50000000E-01  8.50000000E-01
  8.50000000E-01  8.50000000E-01  8.50000000E-01  8.50000000E-01  8.50000000E-01
  8.50000000E-01  8.50000000E-01  8.50000000E-01  8.50000000E-01  8.50000000E-01
  8.50000000E-01  8.50000000E-01  8.50000000E-01  8.50000000E-01  8.50000000E-01
  8.50000000E-01  8.50000000E-01  8.50000000E-01  8.50000000E-01  8.50000000E-01
  8.50000000E-01  8.50000000E-01  8.50000000E-01  8.50000000E-01  8.50000000E-01
  8.50000000E-01  8.50000000E-01  8.50000000E-01  8.50000000E-01  8.50000000E-01
  8.50000000E-01  8.50000000E-01  8.50000000E-01  8.50000000E-01  8.50000000E-01
  8.50000000E-01  8.50000000E-01  8.50000000E-01  8.50000000E-01  8.50000000E-01
  8.50000000E-01  8.50000000E-01  8.50000000E-01  8.50000000E-01  8.50000000E-01
  8.50000000E-01  8.50000000E-01  8.50000000E-01  8.50000000E-01  8.50000000E-01
  8.50000000E-01  8.50000000E-01  8.50000000E-01  8.50000000E-01  8.50000000E-01
  8.50000000E-01  8.50000000E-01  8.50000000E-01  8.50000000E-01  8.50000000E-01
  8.50000000E-01  8.50000000E-01  8.50000000E-01  8.50000000E-01  8.50000000E-01
  8.50000000E-01  8.50000000E-01  8.50000000E-01  8.50000000E-01  8.50000000E-01
  8.50000000E-01  8.50000000E-01  8.50000000E-01  8.50000000E-01  8.50000000E-01
  8.50000000E-01  8.50000000E-01  8.50000000E-01  8.50000000E-01  8.50000000E-01
  8.50000000E-01  8.50000000E-01  8.50000000E-01  8.50000000E-01  8.50000000E-01
  8.50000000E-01  8.50000000E-01  8.50000000E-01  8.50000000E-01  8.50000000E-01
  8.50000000E-01  8.50000000E-01  8.50000000E-01  8.50000000E-01  8.50000000E-01
  8.50000000E-01  8.50000000E-01  8.50000000E-01  8.50000000E-01  8.50000000E-01
  8.50000000E-01  8.50000000E-01  8.50000000E-01  8.50000000E-01  8.50000000E-01
  8.50000000E-01  8.50000000E-01  8.50000000E-01  8.50000000E-01  8.50000000E-01
  8.50000000E-01  8.50000000E-01  8.50000000E-01  8.50000000E-01  8.50000000E-01
  8.50000000E-01  8.50000000E-01  8.50000000E-01  8.50000000E-01  8.50000000E-01
  8.50000000E-01  8.50000000E-01  8.50000000E-01  8.50000000E-01  8.50000000E-01
  8.50000000E-01  8.50000000E-01  8.50000000E-01  8.50000000E-01  8.50000000E-01
  8.50000000E-01  8.50000000E-01  8.50000000E-01  8.50000000E-01  8.50000000E-01
  8.50000000E-01  8.50000000E-01  8.50000000E-01  8.50000000E-01  8.50000000E-01
  8.50000000E-01  8.50000000E-01  8.50000000E-01  8.50000000E-01  8.50000000E-01
  8.50000000E-01  8.50000000E-01  8.50000000E-01  8.50000000E-01  8.50000000E-01
  8.50000000E-01  8.50000000E-01  8.50000000E-01  8.50000000E-01  8.50000000E-01
  8.50000000E-01  8.50000000E-01  8.50000000E-01  8.50000000E-01  8.50000000E-01
  8.50000000E-01  8.50000000E-01  8.50000000E-01  8.50000000E-01  8.50000000E-01
  8.50000000E-01  8.50000000E-01  8.50000000E-01  8.50000000E-01  8.50000000E-01
  8.50000000E-01  8.50000000E-01  8.50000000E-01  8.50000000E-01  8.50000000E-01
  8.50000000E-01  8.50000000E-01  8.50000000E-01  8.50000000E-01  8.50000000E-01
  8.50000000E-01  8.50000000E-01  8.50000000E-01  8.50000000E-01  8.50000000E-01
  8.50000000E-01  8.50000000E-01  8.50000000E-01  8.50000000E-01  8.50000000E-01
  8.50000000E-01  8.50000000E-01  8.50000000E-01  8.50000000E-01  8.50000000E-01
  8.50000000E-01  8.50000000E-01  8.50000000E-01  8.50000000E-01  8.50000000E-01
  8.50000000E-01  8.50000000E-01  8.50000000E-01  8.50000000E-01  8.50000000E-01
  8.50000000E-01  8.50000000E-01  8.50000000E-01  8.50000000E-01  8.50000000E-01
  8.50000000E-01  8.50000000E-01  8.50000000E-01  8.50000000E-01  8.50000000E-01
  8.50000000E-01  8.50000000E-01  8.50000000E-01  8.50000000E-01  8.50000000E-01
  8.50000000E-01  8.50000000E-01  8.50000000E-01  8.50000000E-01  8.50000000E-01
  8.50000000E-01  8.50000000E-01  8.50000000E-01  8.50000000E-01  8.50000000E-01
  8.50000000E-01  8.50000000E-01  8.50000000E-01  8.50000000E-01  8.50000000E-01
  8.50000000E-01  8.50000000E-01  8.50000000E-01  8.50000000E-01  8.50000000E-01
  8.50000000E-01  8.50000000E-01  8.50000000E-01  8.50000000E-01  8.50000000E-01
  8.50000000E-01  8.50000000E-01  8.50000000E-01  8.50000000E-01  8.50000000E-01
  8.50000000E-01  8.50000000E-01  8.50000000E-01  8.50000000E-01  8.50000000E-01
  8.50000000E-01  8.50000000E-01  8.50000000E-01  8.50000000E-01  8.50000000E-01
  8.50000000E-01  8.50000000E-01  8.50000000E-01  8.50000000E-01  8.50000000E-01
  8.50000000E-01  8.50000000E-01  8.50000000E-01  8.50000000E-01  8.50000000E-01
  8.50000000E-01  8.50000000E-01  8.50000000E-01  8.50000000E-01  8.50000000E-01
  8.50000000E-01  8.50000000E-01  8.50000000E-01  8.50000000E-01  8.50000000E-01
  8.50000000E-01  8.50000000E-01  8.50000000E-01  8.50000000E-01  8.50000000E-01
  8.50000000E-01  8.50000000E-01  8.50000000E-01  8.50000000E-01  8.50000000E-01
  8.50000000E-01  8.50000000E-01  8.50000000E-01  8.50000000E-01  8.50000000E-01
  8.50000000E-01  8.50000000E-01  8.50000000E-01  8.50000000E-01  8.50000000E-01
  8.50000000E-01  8.50000000E-01  8.50000000E-01  8.50000000E-01  8.50000000E-01
  8.50000000E-01  8.50000000E-01  8.50000000E-01  8.50000000E-01  8.50000000E-01
  8.50000000E-01  8.50000000E-01  8.50000000E-01  8.50000000E-01  8.50000000E-01
  8.50000000E-01  8.50000000E-01  8.50000000E-01  8.50000000E-01  8.50000000E-01
  8.50000000E-01  8.50000000E-01  8.50000000E-01  8.50000000E-01  8.50000000E-01
  8.50000000E-01  8.50000000E-01  8.50000000E-01  8.50000000E-01  8.50000000E-01
  8.50000000E-01  8.50000000E-01  8.50000000E-01  8.50000000E-01  8.50000000E-01
  8.50000000E-01  8.50000000E-01  8.50000000E-01  8.50000000E-01  8.50000000E-01
  8.50000000E-01  8.50000000E-01  8.50000000E-01  8.50000000E-01  8.50000000E-01
  8.50000000E-01  8.50000000E-01  8.50000000E-01  8.50000000E-01  8.50000000E-01
  8.50000000E-01  8.50000000E-01  8.50000000E-01  8.50000000E-01  8.50000000E-01
  8.50000000E-01  8.50000000E-01  8.50000000E-01  8.50000000E-01  8.50000000E-01
  8.50000000E-01  8.50000000E-01  8.50000000E-01  8.50000000E-01  8.50000000E-01
  8.50000000E-01  8.50000000E-01  8.50000000E-01  8.50000000E-01  8.50000000E-01
  8.50000000E-01  8.50000000E-01  8.50000000E-01  8.50000000E-01  8.50000000E-01
  8.50000000E-01  8.50000000E-01  8.50000000E-01  8.50000000E-01  8.50000000E-01
  8.50000000E-01  8.50000000E-01  8.50000000E-01  8.50000000E-01  8.50000000E-01
  8.50000000E-01  8.50000000E-01  8.50000000E-01  8.50000000E-01  8.50000000E-01
  8.50000000E-01  8.50000000E-01  8.50000000E-01  8.50000000E-01  8.50000000E-01
  8.50000000E-01  8.50000000E-01  8.50000000E-01  8.50000000E-01  8.50000000E-01
  8.50000000E-01  8.50000000E-01  8.50000000E-01  8.50000000E-01  8.50000000E-01
  8.50000000E-01  8.50000000E-01  8.50000000E-01  8.50000000E-01  8.50000000E-01
  8.50000000E-01  8.50000000E-01  8.50000000E-01  8.50000000E-01  8.50000000E-01
  8.50000000E-01  8.50000000E-01  8.50000000E-01  8.50000000E-01  8.50000000E-01
  8.50000000E-01  8.50000000E-01  8.50000000E-01  8.50000000E-01  8.50000000E-01
  8.50000000E-01  8.50000000E-01  8.50000000E-01  8.50000000E-01  8.50000000E-01
  8.50000000E-01  8.50000000E-01  8.50000000E-01  8.50000000E-01  8.50000000E-01
  8.50000000E-01  8.50000000E-01  8.50000000E-01  8.50000000E-01  8.50000000E-01
  8.50000000E-01  8.50000000E-01  8.50000000E-01  8.50000000E-01  8.50000000E-01
  8.50000000E-01  8.50000000E-01  8.50000000E-01  8.50000000E-01  8.50000000E-01
  8.50000000E-01  8.50000000E-01  8.50000000E-01  8.50000000E-01  8.50000000E-01
  8.50000000E-01  8.50000000E-01  8.50000000E-01  8.50000000E-01  8.50000000E-01
  8.50000000E-01  8.50000000E-01  8.50000000E-01  8.50000000E-01  8.50000000E-01
  8.50000000E-01  8.50000000E-01  8.50000000E-01  8.50000000E-01  8.50000000E-01
  8.50000000E-01  8.50000000E-01  8.50000000E-01  8.50000000E-01  8.50000000E-01
  8.50000000E-01  8.50000000E-01  8.50000000E-01  8.50000000E-01  8.50000000E-01
  8.50000000E-01  8.50000000E-01  8.50000000E-01  8.50000000E-01  8.50000000E-01
  8.50000000E-01  8.50000000E-01  8.50000000E-01  8.50000000E-01  8.50000000E-01
  8.50000000E-01  8.50000000E-01  8.50000000E-01  8.50000000E-01  8.50000000E-01
  8.50000000E-01  8.50000000E-01  8.50000000E-01  8.50000000E-01  8.50000000E-01
  8.50000000E-01  8.50000000E-01  8.50000000E-01  8.50000000E-01  8.50000000E-01
  8.50000000E-01  8.50000000E-01  8.50000000E-01  8.50000000E-01  8.50000000E-01
  8.50000000E-01  8.50000000E-01  8.50000000E-01  8.50000000E-01  8.50000000E-01
  8.50000000E-01  8.50000000E-01  8.50000000E-01  8.50000000E-01  8.50000000E-01
  8.50000000E-01  8.50000000E-01  8.50000000E-01  8.50000000E-01  8.50000000E-01
  8.50000000E-01  8.50000000E-01  8.50000000E-01  8.50000000E-01  8.50000000E-01
  8.50000000E-01  8.50000000E-01  8.50000000E-01  8.50000000E-01  8.50000000E-01
  8.50000000E-01  8.50000000E-01  8.50000000E-01  8.50000000E-01  8.50000000E-01
  8.50000000E-01  8.50000000E-01  8.50000000E-01  8.50000000E-01  8.50000000E-01
  8.50000000E-01  8.50000000E-01  8.50000000E-01  8.50000000E-01  8.50000000E-01
  8.50000000E-01  8.50000000E-01  8.50000000E-01  8.50000000E-01  8.50000000E-01
  8.50000000E-01  8.50000000E-01  8.50000000E-01  8.50000000E-01  8.50000000E-01
  8.50000000E-01  8.50000000E-01  8.50000000E-01  8.50000000E-01  8.50000000E-01
  8.50000000E-01  8.50000000E-01  8.50000000E-01  8.50000000E-01  8.50000000E-01
  8.50000000E-01  8.50000000E-01  8.50000000E-01  8.50000000E-01  8.50000000E-01
  8.50000000E-01  8.50000000E-01  8.50000000E-01  8.50000000E-01  8.50000000E-01
  8.50000000E-01  8.50000000E-01  8.50000000E-01  8.50000000E-01  8.50000000E-01
  8.50000000E-01  8.50000000E-01  8.50000000E-01  8.50000000E-01  8.50000000E-01
  8.50000000E-01  8.50000000E-01  8.50000000E-01  8.50000000E-01  8.50000000E-01
  8.50000000E-01  8.50000000E-01  8.50000000E-01  8.50000000E-01  8.50000000E-01
  8.50000000E-01  8.50000000E-01  8.50000000E-01  8.50000000E-01  8.50000000E-01
  8.50000000E-01  8.50000000E-01  8.50000000E-01  8.50000000E-01  8.50000000E-01
  8.50000000E-01  8.50000000E-01  8.50000000E-01  8.50000000E-01  8.50000000E-01
  8.50000000E-01  8.50000000E-01  8.50000000E-01  8.50000000E-01  8.50000000E-01
  8.50000000E-01  8.50000000E-01  8.50000000E-01  8.50000000E-01  8.50000000E-01
  8.50000000E-01  8.50000000E-01  8.50000000E-01  8.50000000E-01  8.50000000E-01
  8.50000000E-01  8.50000000E-01  8.50000000E-01  8.50000000E-01  8.50000000E-01
  8.50000000E-01  8.50000000E-01  8.50000000E-01  8.50000000E-01  8.50000000E-01
  8.50000000E-01  8.50000000E-01  8.50000000E-01  8.50000000E-01  8.50000000E-01
  8.50000000E-01  8.50000000E-01  8.50000000E-01  8.50000000E-01  8.50000000E-01
  8.50000000E-01  8.50000000E-01  8.50000000E-01  8.50000000E-01  8.50000000E-01
  8.50000000E-01  8.50000000E-01  8.50000000E-01  8.50000000E-01  8.50000000E-01
  8.50000000E-01  8.50000000E-01  8.50000000E-01  8.50000000E-01  8.50000000E-01
  8.50000000E-01  8.50000000E-01  8.50000000E-01  8.50000000E-01  8.50000000E-01
  8.50000000E-01  8.50000000E-01  8.50000000E-01  8.50000000E-01  8.50000000E-01
  8.50000000E-01  8.50000000E-01  8.50000000E-01  8.50000000E-01  8.50000000E-01
  8.50000000E-01  8.50000000E-01  8.50000000E-01  8.50000000E-01  8.50000000E-01
  8.50000000E-01  8.50000000E-01  8.50000000E-01  8.50000000E-01  8.50000000E-01
  8.50000000E-01  8.50000000E-01  8.50000000E-01  8.50000000E-01  8.50000000E-01
  8.50000000E-01  8.50000000E-01  8.50000000E-01  8.50000000E-01  8.50000000E-01
  8.50000000E-01  8.50000000E-01  8.50000000E-01  8.50000000E-01  8.50000000E-01
  8.50000000E-01  8.50000000E-01  8.50000000E-01  8.50000000E-01  8.50000000E-01
  8.50000000E-01  8.50000000E-01  8.50000000E-01  8.50000000E-01  8.50000000E-01
  8.50000000E-01  8.50000000E-01  8.50000000E-01  8.50000000E-01  8.50000000E-01
  8.50000000E-01  8.50000000E-01  8.50000000E-01  8.50000000E-01  8.50000000E-01
  8.50000000E-01  8.50000000E-01  8.50000000E-01  8.50000000E-01  8.50000000E-01
  8.50000000E-01  8.50000000E-01  8.50000000E-01  8.50000000E-01  8.50000000E-01
  8.50000000E-01  8.50000000E-01  8.50000000E-01  8.50000000E-01  8.50000000E-01
  8.50000000E-01  8.50000000E-01  8.50000000E-01  8.50000000E-01  8.50000000E-01
  8.50000000E-01  8.50000000E-01  8.50000000E-01  8.50000000E-01  8.50000000E-01
  8.50000000E-01  8.50000000E-01  8.50000000E-01  8.50000000E-01  8.50000000E-01
  8.50000000E-01  8.50000000E-01  8.50000000E-01  8.50000000E-01  8.50000000E-01
  8.50000000E-01  8.50000000E-01  8.50000000E-01  8.50000000E-01  8.50000000E-01
  8.50000000E-01  8.50000000E-01  8.50000000E-01  8.50000000E-01  8.50000000E-01
  8.50000000E-01  8.50000000E-01  8.50000000E-01  8.50000000E-01  8.50000000E-01
  8.50000000E-01  8.50000000E-01  8.50000000E-01  8.50000000E-01  8.50000000E-01
  8.50000000E-01  8.50000000E-01  8.50000000E-01  8.50000000E-01  8.50000000E-01
  8.50000000E-01  8.50000000E-01  8.50000000E-01  8.50000000E-01  8.50000000E-01
  8.50000000E-01  8.50000000E-01  8.50000000E-01  8.50000000E-01  8.50000000E-01
  8.50000000E-01  8.50000000E-01  8.50000000E-01  8.50000000E-01  8.50000000E-01
  8.50000000E-01  8.50000000E-01  8.50000000E-01  8.50000000E-01  8.50000000E-01
  8.50000000E-01  8.50000000E-01  8.50000000E-01  8.50000000E-01  8.50000000E-01
  8.50000000E-01  8.50000000E-01  8.50000000E-01  8.50000000E-01  8.50000000E-01
  8.50000000E-01  8.50000000E-01  8.50000000E-01  8.50000000E-01  8.50000000E-01
  8.50000000E-01  8.50000000E-01  8.50000000E-01  8.50000000E-01  8.50000000E-01
  8.50000000E-01  8.50000000E-01  8.50000000E-01  8.50000000E-01  8.50000000E-01
  8.50000000E-01  8.50000000E-01  8.50000000E-01  8.50000000E-01  8.50000000E-01
  8.50000000E-01  8.50000000E-01  8.50000000E-01  8.50000000E-01  8.50000000E-01
  8.50000000E-01  8.50000000E-01  8.50000000E-01  8.50000000E-01  8.50000000E-01
  8.50000000E-01  8.50000000E-01  8.50000000E-01  8.50000000E-01  8.50000000E-01
  8.50000000E-01  8.50000000E-01  8.50000000E-01  8.50000000E-01  8.50000000E-01
  8.50000000E-01  8.50000000E-01  8.50000000E-01  8.50000000E-01  8.50000000E-01
  8.50000000E-01  8.50000000E-01  8.50000000E-01  8.50000000E-01  8.50000000E-01
  8.50000000E-01  8.50000000E-01  8.50000000E-01  8.50000000E-01  8.50000000E-01
  8.50000000E-01  8.50000000E-01  8.50000000E-01  8.50000000E-01  8.50000000E-01
  8.50000000E-01  8.50000000E-01  8.50000000E-01  8.50000000E-01  8.50000000E-01
  8.50000000E-01  8.50000000E-01  8.50000000E-01  8.50000000E-01  8.50000000E-01
  8.50000000E-01  8.50000000E-01  8.50000000E-01  8.50000000E-01  8.50000000E-01
  8.50000000E-01  8.50000000E-01  8.50000000E-01  8.50000000E-01  8.50000000E-01
  8.50000000E-01  8.50000000E-01  8.50000000E-01  8.50000000E-01  8.50000000E-01
  8.50000000E-01  8.50000000E-01  8.50000000E-01  8.50000000E-01  8.50000000E-01
  8.50000000E-01  8.50000000E-01  8.50000000E-01  8.50000000E-01  8.50000000E-01
  8.50000000E-01  8.50000000E-01  8.50000000E-01  8.50000000E-01  8.50000000E-01
  8.50000000E-01  8.50000000E-01  8.50000000E-01  8.50000000E-01  8.50000000E-01
  8.50000000E-01  8.50000000E-01  8.50000000E-01  8.50000000E-01  8.50000000E-01
  8.50000000E-01  8.50000000E-01  8.50000000E-01  8.50000000E-01  8.50000000E-01
  8.50000000E-01  8.50000000E-01  8.50000000E-01  8.50000000E-01  8.50000000E-01
  8.50000000E-01  8.50000000E-01  8.50000000E-01  8.50000000E-01  8.50000000E-01
  8.50000000E-01  8.50000000E-01  8.50000000E-01  8.50000000E-01  8.50000000E-01
  8.50000000E-01  8.50000000E-01  8.50000000E-01  8.50000000E-01  8.50000000E-01
  8.50000000E-01  8.50000000E-01  8.50000000E-01  8.50000000E-01  8.50000000E-01
  8.50000000E-01  8.50000000E-01  8.50000000E-01  8.50000000E-01  8.50000000E-01
  8.50000000E-01  8.50000000E-01  8.50000000E-01  8.50000000E-01  8.50000000E-01
  8.50000000E-01  8.50000000E-01  8.50000000E-01  8.50000000E-01  8.50000000E-01
  8.50000000E-01  8.50000000E-01  8.50000000E-01  8.50000000E-01  8.50000000E-01
  8.50000000E-01  8.50000000E-01  8.50000000E-01  8.50000000E-01  8.50000000E-01
  8.50000000E-01  8.50000000E-01  8.50000000E-01  8.50000000E-01  8.50000000E-01
  8.50000000E-01  8.50000000E-01  8.50000000E-01  8.50000000E-01  8.50000000E-01
  8.50000000E-01  8.50000000E-01  8.50000000E-01  8.50000000E-01  8.50000000E-01
  8.50000000E-01  8.50000000E-01  8.50000000E-01  8.50000000E-01  8.50000000E-01
  8.50000000E-01  8.50000000E-01  8.50000000E-01  8.50000000E-01  8.50000000E-01
  8.50000000E-01  8.50000000E-01  8.50000000E-01  8.50000000E-01  8.50000000E-01
  8.50000000E-01  8.50000000E-01  8.50000000E-01  8.50000000E-01  8.50000000E-01
  8.50000000E-01  8.50000000E-01  8.50000000E-01  8.50000000E-01  8.50000000E-01
  8.50000000E-01  8.50000000E-01  8.50000000E-01  8.50000000E-01  8.50000000E-01
  8.50000000E-01  8.50000000E-01  8.50000000E-01  8.50000000E-01  8.50000000E-01
  8.50000000E-01  8.50000000E-01  8.50000000E-01  8.50000000E-01  8.50000000E-01
  8.50000000E-01  8.50000000E-01  8.50000000E-01  8.50000000E-01  8.50000000E-01
  8.50000000E-01  8.50000000E-01  8.50000000E-01  8.50000000E-01  8.50000000E-01
  8.50000000E-01  8.50000000E-01  8.50000000E-01  8.50000000E-01  8.50000000E-01
  8.50000000E-01  8.50000000E-01  8.50000000E-01  8.50000000E-01  8.50000000E-01
  8.50000000E-01  8.50000000E-01  8.50000000E-01  8.50000000E-01  8.50000000E-01
  8.50000000E-01  8.50000000E-01  8.50000000E-01  8.50000000E-01  8.50000000E-01
  8.50000000E-01  8.50000000E-01  8.50000000E-01  8.50000000E-01  8.50000000E-01
  8.50000000E-01  8.50000000E-01  8.50000000E-01  8.50000000E-01  8.50000000E-01
  8.50000000E-01  8.50000000E-01  8.50000000E-01  8.50000000E-01  8.50000000E-01
  8.50000000E-01  8.50000000E-01  8.50000000E-01  8.50000000E-01  8.50000000E-01
  8.50000000E-01  8.50000000E-01  8.50000000E-01  8.50000000E-01  8.50000000E-01
  8.50000000E-01  8.50000000E-01  8.50000000E-01  8.50000000E-01  8.50000000E-01
  8.50000000E-01  8.50000000E-01  8.50000000E-01  8.50000000E-01  8.50000000E-01
  8.50000000E-01  8.50000000E-01  8.50000000E-01  8.50000000E-01  8.50000000E-01
  8.50000000E-01  8.50000000E-01  8.50000000E-01  8.50000000E-01  8.50000000E-01
  8.50000000E-01  8.50000000E-01  8.50000000E-01  8.50000000E-01  8.50000000E-01
  8.50000000E-01  8.50000000E-01  8.50000000E-01  8.50000000E-01  8.50000000E-01
  8.50000000E-01  8.50000000E-01  8.50000000E-01  8.50000000E-01  8.50000000E-01
  8.50000000E-01  8.50000000E-01  8.50000000E-01  8.50000000E-01  8.50000000E-01
  8.50000000E-01  8.50000000E-01  8.50000000E-01  8.50000000E-01  8.50000000E-01
  8.50000000E-01  8.50000000E-01  8.50000000E-01  8.50000000E-01  8.50000000E-01
  8.50000000E-01  8.50000000E-01  8.50000000E-01  8.50000000E-01  8.50000000E-01
  8.50000000E-01  8.50000000E-01  8.50000000E-01  8.50000000E-01  8.50000000E-01
  8.50000000E-01  8.50000000E-01  8.50000000E-01  8.50000000E-01  8.50000000E-01
  8.50000000E-01  8.50000000E-01  8.50000000E-01  8.50000000E-01  8.50000000E-01
  8.50000000E-01  8.50000000E-01  8.50000000E-01  8.50000000E-01  8.50000000E-01
  8.50000000E-01  8.50000000E-01  8.50000000E-01  8.50000000E-01  8.50000000E-01
  8.50000000E-01  8.50000000E-01  8.50000000E-01  8.50000000E-01  8.50000000E-01
  8.50000000E-01  8.50000000E-01  8.50000000E-01  8.50000000E-01  8.50000000E-01
  8.50000000E-01  8.50000000E-01  8.50000000E-01  8.50000000E-01  8.50000000E-01
  8.50000000E-01  8.50000000E-01  8.50000000E-01  8.50000000E-01  8.50000000E-01
  8.50000000E-01  8.50000000E-01  8.50000000E-01  8.50000000E-01  8.50000000E-01
  8.50000000E-01  8.50000000E-01  8.50000000E-01  8.50000000E-01  8.50000000E-01
  8.50000000E-01  8.50000000E-01  8.50000000E-01  8.50000000E-01  8.50000000E-01
  8.50000000E-01  8.50000000E-01  8.50000000E-01  8.50000000E-01  8.50000000E-01
  8.50000000E-01  8.50000000E-01  8.50000000E-01  8.50000000E-01  8.50000000E-01
  8.50000000E-01  8.50000000E-01  8.50000000E-01  8.50000000E-01  8.50000000E-01
  8.50000000E-01  8.50000000E-01  8.50000000E-01  8.50000000E-01  8.50000000E-01
  8.50000000E-01  8.50000000E-01  8.50000000E-01  8.50000000E-01  8.50000000E-01
  8.50000000E-01  8.50000000E-01  8.50000000E-01  8.50000000E-01  8.50000000E-01
  8.50000000E-01  8.50000000E-01  8.50000000E-01  8.50000000E-01  8.50000000E-01
  8.50000000E-01  8.50000000E-01  8.50000000E-01  8.50000000E-01  8.50000000E-01
  8.50000000E-01  8.50000000E-01  8.50000000E-01  8.50000000E-01  8.50000000E-01
  8.50000000E-01  8.50000000E-01  8.50000000E-01  8.50000000E-01  8.50000000E-01
  8.50000000E-01  8.50000000E-01  8.50000000E-01  8.50000000E-01  8.50000000E-01
  8.50000000E-01  8.50000000E-01  8.50000000E-01  8.50000000E-01  8.50000000E-01
  8.50000000E-01  8.50000000E-01  8.50000000E-01  8.50000000E-01  8.50000000E-01
  8.50000000E-01  8.50000000E-01  8.50000000E-01  8.50000000E-01  8.50000000E-01
  8.50000000E-01  8.50000000E-01  8.50000000E-01  8.50000000E-01  8.50000000E-01
  8.50000000E-01  8.50000000E-01  8.50000000E-01  8.50000000E-01  8.50000000E-01
  8.50000000E-01  8.50000000E-01  8.50000000E-01  8.50000000E-01  8.50000000E-01
  8.50000000E-01  8.50000000E-01  8.50000000E-01  8.50000000E-01  8.50000000E-01
  8.50000000E-01  8.50000000E-01  8.50000000E-01  8.50000000E-01  8.50000000E-01
  8.50000000E-01  8.50000000E-01  8.50000000E-01  8.50000000E-01  8.50000000E-01
  8.50000000E-01  8.50000000E-01  8.50000000E-01  8.50000000E-01  8.50000000E-01
  8.50000000E-01  8.50000000E-01  8.50000000E-01  8.50000000E-01  8.50000000E-01
  8.50000000E-01  8.50000000E-01  8.50000000E-01  8.50000000E-01  8.50000000E-01
  8.50000000E-01  8.50000000E-01  8.50000000E-01  8.50000000E-01  8.50000000E-01
  8.50000000E-01  8.50000000E-01  8.50000000E-01  8.50000000E-01  8.50000000E-01
  8.50000000E-01  8.50000000E-01  8.50000000E-01  8.50000000E-01  8.50000000E-01
  8.50000000E-01  8.50000000E-01  8.50000000E-01  8.50000000E-01  8.50000000E-01
  8.50000000E-01  8.50000000E-01  8.50000000E-01  8.50000000E-01  8.50000000E-01
  8.50000000E-01  8.50000000E-01  8.50000000E-01  8.50000000E-01  8.50000000E-01
  8.50000000E-01  8.50000000E-01  8.50000000E-01  8.50000000E-01  8.50000000E-01
  8.50000000E-01  8.50000000E-01  8.50000000E-01  8.50000000E-01  8.50000000E-01
  8.50000000E-01  8.50000000E-01  8.50000000E-01  8.50000000E-01  8.50000000E-01
  8.50000000E-01  8.50000000E-01  8.50000000E-01  8.50000000E-01  8.50000000E-01
  8.50000000E-01  8.50000000E-01  8.50000000E-01  8.50000000E-01  8.50000000E-01
  8.50000000E-01  8.50000000E-01  8.50000000E-01  8.50000000E-01  8.50000000E-01
  8.50000000E-01  8.50000000E-01  8.50000000E-01  8.50000000E-01  8.50000000E-01
  8.50000000E-01  8.50000000E-01  8.50000000E-01  8.50000000E-01  8.50000000E-01
  8.50000000E-01  8.50000000E-01  8.50000000E-01  8.50000000E-01  8.50000000E-01
  8.50000000E-01  8.50000000E-01  8.50000000E-01  8.50000000E-01  8.50000000E-01
  8.50000000E-01  8.50000000E-01  8.50000000E-01  8.50000000E-01  8.50000000E-01
  8.50000000E-01  8.50000000E-01  8.50000000E-01  8.50000000E-01  8.50000000E-01
  8.50000000E-01  8.50000000E-01  8.50000000E-01  8.50000000E-01  8.50000000E-01
  8.50000000E-01  8.50000000E-01  8.50000000E-01  8.50000000E-01  8.50000000E-01
  8.50000000E-01  8.50000000E-01  8.50000000E-01  8.50000000E-01  8.50000000E-01
  8.50000000E-01  8.50000000E-01  8.50000000E-01  8.50000000E-01  8.50000000E-01
  8.50000000E-01  8.50000000E-01  8.50000000E-01  8.50000000E-01  8.50000000E-01
  8.50000000E-01  8.50000000E-01  8.50000000E-01  8.50000000E-01  8.50000000E-01
  8.50000000E-01  8.50000000E-01  8.50000000E-01  8.50000000E-01  8.50000000E-01
  8.50000000E-01  8.50000000E-01  8.50000000E-01  8.50000000E-01  8.50000000E-01
  8.50000000E-01  8.50000000E-01  8.50000000E-01  8.50000000E-01  8.50000000E-01
  8.50000000E-01  8.50000000E-01  8.50000000E-01  8.50000000E-01  8.50000000E-01
  8.50000000E-01  8.50000000E-01  8.50000000E-01  8.50000000E-01  8.50000000E-01
  8.50000000E-01  8.50000000E-01  8.50000000E-01  8.50000000E-01  8.50000000E-01
  8.50000000E-01  8.50000000E-01  8.50000000E-01  8.50000000E-01  8.50000000E-01
  8.50000000E-01  8.50000000E-01  8.50000000E-01  8.50000000E-01  8.50000000E-01
  8.50000000E-01  8.50000000E-01  8.50000000E-01  8.50000000E-01  8.50000000E-01
  8.50000000E-01  8.50000000E-01  8.50000000E-01  8.50000000E-01  8.50000000E-01
  8.50000000E-01  8.50000000E-01  8.50000000E-01  8.50000000E-01  8.50000000E-01
  8.50000000E-01  8.50000000E-01  8.50000000E-01  8.50000000E-01  8.50000000E-01
  8.50000000E-01  8.50000000E-01  8.50000000E-01  8.50000000E-01  8.50000000E-01
  8.50000000E-01  8.50000000E-01  8.50000000E-01  8.50000000E-01  8.50000000E-01
  8.50000000E-01  8.50000000E-01  8.50000000E-01  8.50000000E-01  8.50000000E-01
  8.50000000E-01  8.50000000E-01  8.50000000E-01  8.50000000E-01  8.50000000E-01
  8.50000000E-01  8.50000000E-01  8.50000000E-01  8.50000000E-01  8.50000000E-01
  8.50000000E-01  8.50000000E-01  8.50000000E-01  8.50000000E-01  8.50000000E-01
  8.50000000E-01  8.50000000E-01  8.50000000E-01  8.50000000E-01  8.50000000E-01
  8.50000000E-01  8.50000000E-01  8.50000000E-01  8.50000000E-01  8.50000000E-01
  8.50000000E-01  8.50000000E-01  8.50000000E-01  8.50000000E-01  8.50000000E-01
  8.50000000E-01  8.50000000E-01  8.50000000E-01  8.50000000E-01  8.50000000E-01
  8.50000000E-01  8.50000000E-01  8.50000000E-01  8.50000000E-01  8.50000000E-01
  8.50000000E-01  8.50000000E-01  8.50000000E-01  8.50000000E-01  8.50000000E-01
  8.50000000E-01  8.50000000E-01  8.50000000E-01  8.50000000E-01  8.50000000E-01
  8.50000000E-01  8.50000000E-01  8.50000000E-01  8.50000000E-01  8.50000000E-01
  8.50000000E-01  8.50000000E-01  8.50000000E-01  8.50000000E-01  8.50000000E-01
  8.50000000E-01  8.50000000E-01  8.50000000E-01  8.50000000E-01  8.50000000E-01
  8.50000000E-01  8.50000000E-01  8.50000000E-01  8.50000000E-01  8.50000000E-01
  8.50000000E-01  8.50000000E-01  8.50000000E-01  8.50000000E-01  8.50000000E-01
  8.50000000E-01  8.50000000E-01  8.50000000E-01  8.50000000E-01  8.50000000E-01
  8.50000000E-01  8.50000000E-01  8.50000000E-01  8.50000000E-01  8.50000000E-01
  8.50000000E-01  8.50000000E-01  8.50000000E-01  8.50000000E-01  8.50000000E-01
  8.50000000E-01  8.50000000E-01  8.50000000E-01  8.50000000E-01  8.50000000E-01
  8.50000000E-01  8.50000000E-01  8.50000000E-01  8.50000000E-01  8.50000000E-01
  8.50000000E-01  8.50000000E-01  8.50000000E-01  8.50000000E-01  8.50000000E-01
  8.50000000E-01  8.50000000E-01  8.50000000E-01  8.50000000E-01  8.50000000E-01
  8.50000000E-01  8.50000000E-01  8.50000000E-01  8.50000000E-01  8.50000000E-01
  8.50000000E-01  8.50000000E-01  8.50000000E-01  8.50000000E-01  8.50000000E-01
  8.50000000E-01  8.50000000E-01  8.50000000E-01  8.50000000E-01  8.50000000E-01
  8.50000000E-01  8.50000000E-01  8.50000000E-01  8.50000000E-01  8.50000000E-01
  8.50000000E-01  8.50000000E-01  8.50000000E-01  8.50000000E-01  8.50000000E-01
  8.50000000E-01  8.50000000E-01  8.50000000E-01  8.50000000E-01  8.50000000E-01
  8.50000000E-01  8.50000000E-01  8.50000000E-01  8.50000000E-01  8.50000000E-01
  8.50000000E-01  8.50000000E-01  8.50000000E-01  8.50000000E-01  8.50000000E-01
  8.50000000E-01  8.50000000E-01  8.50000000E-01  8.50000000E-01  8.50000000E-01
  8.50000000E-01  8.50000000E-01  8.50000000E-01  8.50000000E-01  8.50000000E-01
  8.50000000E-01  8.50000000E-01  8.50000000E-01  8.50000000E-01  8.50000000E-01
  8.50000000E-01  8.50000000E-01  8.50000000E-01  8.50000000E-01  8.50000000E-01
  8.50000000E-01  8.50000000E-01  8.50000000E-01  8.50000000E-01  8.50000000E-01
  8.50000000E-01  8.50000000E-01  8.50000000E-01  8.50000000E-01  8.50000000E-01
  8.50000000E-01  8.50000000E-01  8.50000000E-01  8.50000000E-01  8.50000000E-01
  8.50000000E-01  8.50000000E-01  8.50000000E-01  8.50000000E-01  8.50000000E-01
  8.50000000E-01  8.50000000E-01  8.50000000E-01  8.50000000E-01  8.50000000E-01
  8.50000000E-01  8.50000000E-01  8.50000000E-01  8.50000000E-01  8.50000000E-01
  8.50000000E-01  8.50000000E-01  8.50000000E-01  8.50000000E-01  8.50000000E-01
  8.50000000E-01  8.50000000E-01  8.50000000E-01  8.50000000E-01  8.50000000E-01
  8.50000000E-01  8.50000000E-01  8.50000000E-01  8.50000000E-01  8.50000000E-01
  8.50000000E-01  8.50000000E-01  8.50000000E-01  8.50000000E-01  8.50000000E-01
  8.50000000E-01  8.50000000E-01  8.50000000E-01  8.50000000E-01  8.50000000E-01
  8.50000000E-01  8.50000000E-01  8.50000000E-01  8.50000000E-01  8.50000000E-01
  8.50000000E-01  8.50000000E-01  8.50000000E-01  8.50000000E-01  8.50000000E-01
  8.50000000E-01  8.50000000E-01  8.50000000E-01  8.50000000E-01  8.50000000E-01
  8.50000000E-01  8.50000000E-01  8.50000000E-01  8.50000000E-01  8.50000000E-01
  8.50000000E-01  8.50000000E-01  8.50000000E-01  8.50000000E-01  8.50000000E-01
  8.50000000E-01  8.50000000E-01  8.50000000E-01  8.50000000E-01  8.50000000E-01
  8.50000000E-01  8.50000000E-01  8.50000000E-01  8.50000000E-01  8.50000000E-01
  8.50000000E-01  8.50000000E-01  8.50000000E-01  8.50000000E-01  8.50000000E-01
  8.50000000E-01  8.50000000E-01  8.50000000E-01  8.50000000E-01  8.50000000E-01
  8.50000000E-01  8.50000000E-01  8.50000000E-01  8.50000000E-01  8.50000000E-01
  8.50000000E-01  8.50000000E-01  8.50000000E-01  8.50000000E-01  8.50000000E-01
  8.50000000E-01  8.50000000E-01  8.50000000E-01  8.50000000E-01  8.50000000E-01
  8.50000000E-01  8.50000000E-01  8.50000000E-01  8.50000000E-01  8.50000000E-01
  8.50000000E-01  8.50000000E-01  8.50000000E-01  8.50000000E-01  8.50000000E-01
  8.50000000E-01  8.50000000E-01  8.50000000E-01  8.50000000E-01  8.50000000E-01
  8.50000000E-01  8.50000000E-01  8.50000000E-01  8.50000000E-01  8.50000000E-01
  8.50000000E-01  8.50000000E-01  8.50000000E-01  8.50000000E-01  8.50000000E-01
  8.50000000E-01  8.50000000E-01  8.50000000E-01  8.50000000E-01  8.50000000E-01
  8.50000000E-01  8.50000000E-01  8.50000000E-01  8.50000000E-01  8.50000000E-01
  8.50000000E-01  8.50000000E-01  8.50000000E-01  8.50000000E-01  8.50000000E-01
  8.50000000E-01  8.50000000E-01  8.50000000E-01  8.50000000E-01  8.50000000E-01
  8.50000000E-01  8.50000000E-01  8.50000000E-01  8.50000000E-01  8.50000000E-01
  8.50000000E-01  8.50000000E-01  8.50000000E-01  8.50000000E-01  8.50000000E-01
  8.50000000E-01  8.50000000E-01  8.50000000E-01  8.50000000E-01  8.50000000E-01
  8.50000000E-01  8.50000000E-01  8.50000000E-01  8.50000000E-01  8.50000000E-01
  8.50000000E-01  8.50000000E-01  8.50000000E-01  8.50000000E-01  8.50000000E-01
  8.50000000E-01  8.50000000E-01  8.50000000E-01  8.50000000E-01  8.50000000E-01
  8.50000000E-01  8.50000000E-01  8.50000000E-01  8.50000000E-01  8.50000000E-01
  8.50000000E-01  8.50000000E-01  8.50000000E-01  8.50000000E-01  8.50000000E-01
  8.50000000E-01  8.50000000E-01  8.50000000E-01  8.50000000E-01  8.50000000E-01
  8.50000000E-01  8.50000000E-01  8.50000000E-01  8.50000000E-01  8.50000000E-01
  8.50000000E-01  8.50000000E-01  8.50000000E-01  8.50000000E-01  8.50000000E-01
  8.50000000E-01  8.50000000E-01  8.50000000E-01  8.50000000E-01  8.50000000E-01
  8.50000000E-01  8.50000000E-01  8.50000000E-01  8.50000000E-01  8.50000000E-01
  8.50000000E-01  8.50000000E-01  8.50000000E-01  8.50000000E-01  8.50000000E-01
  8.50000000E-01  8.50000000E-01  8.50000000E-01  8.50000000E-01  8.50000000E-01
  8.50000000E-01  8.50000000E-01  8.50000000E-01  8.50000000E-01  8.50000000E-01
  8.50000000E-01  8.50000000E-01  8.50000000E-01  8.50000000E-01  8.50000000E-01
  8.50000000E-01  8.50000000E-01  8.50000000E-01  8.50000000E-01  8.50000000E-01
  8.50000000E-01  8.50000000E-01  8.50000000E-01  8.50000000E-01  8.50000000E-01
  8.50000000E-01  8.50000000E-01  8.50000000E-01  8.50000000E-01  8.50000000E-01
  8.50000000E-01  8.50000000E-01  8.50000000E-01  8.50000000E-01  8.50000000E-01
  8.50000000E-01  8.50000000E-01  8.50000000E-01  8.50000000E-01  8.50000000E-01
  8.50000000E-01  8.50000000E-01  8.50000000E-01  8.50000000E-01  8.50000000E-01
  8.50000000E-01  8.50000000E-01  8.50000000E-01  8.50000000E-01  8.50000000E-01
  8.50000000E-01  8.50000000E-01  8.50000000E-01  8.50000000E-01  8.50000000E-01
  8.50000000E-01  8.50000000E-01  8.50000000E-01  8.50000000E-01  8.50000000E-01
  8.50000000E-01  8.50000000E-01  8.50000000E-01  8.50000000E-01  8.50000000E-01
  8.50000000E-01  8.50000000E-01  8.50000000E-01  8.50000000E-01  8.50000000E-01
  8.50000000E-01  8.50000000E-01  8.50000000E-01  8.50000000E-01  8.50000000E-01
  8.50000000E-01  8.50000000E-01  8.50000000E-01  8.50000000E-01  8.50000000E-01
  8.50000000E-01  8.50000000E-01  8.50000000E-01  8.50000000E-01  8.50000000E-01
  8.50000000E-01  8.50000000E-01  8.50000000E-01  8.50000000E-01  8.50000000E-01
  8.50000000E-01  8.50000000E-01  8.50000000E-01  8.50000000E-01  8.50000000E-01
  8.50000000E-01  8.50000000E-01  8.50000000E-01  8.50000000E-01  8.50000000E-01
  8.50000000E-01  8.50000000E-01  8.50000000E-01  8.50000000E-01  8.50000000E-01
  8.50000000E-01  8.50000000E-01  8.50000000E-01  8.50000000E-01  8.50000000E-01
  8.50000000E-01  8.50000000E-01  8.50000000E-01  8.50000000E-01  8.50000000E-01
  8.50000000E-01  8.50000000E-01  8.50000000E-01  8.50000000E-01  8.50000000E-01
  8.50000000E-01  8.50000000E-01  8.50000000E-01  8.50000000E-01  8.50000000E-01
  8.50000000E-01  8.50000000E-01  8.50000000E-01  8.50000000E-01  8.50000000E-01
  8.50000000E-01  8.50000000E-01  8.50000000E-01  8.50000000E-01  8.50000000E-01
  8.50000000E-01  8.50000000E-01  8.50000000E-01  8.50000000E-01  8.50000000E-01
  8.50000000E-01  8.50000000E-01  8.50000000E-01  8.50000000E-01  8.50000000E-01
  8.50000000E-01  8.50000000E-01  8.50000000E-01  8.50000000E-01  8.50000000E-01
  8.50000000E-01  8.50000000E-01  8.50000000E-01  8.50000000E-01  8.50000000E-01
  8.50000000E-01  8.50000000E-01  8.50000000E-01  8.50000000E-01  8.50000000E-01
  8.50000000E-01  8.50000000E-01  8.50000000E-01  8.50000000E-01  8.50000000E-01
  8.50000000E-01  8.50000000E-01  8.50000000E-01  8.50000000E-01  8.50000000E-01
  8.50000000E-01  8.50000000E-01  8.50000000E-01  8.50000000E-01  8.50000000E-01
  8.50000000E-01  8.50000000E-01  8.50000000E-01  8.50000000E-01  8.50000000E-01
  8.50000000E-01  8.50000000E-01  8.50000000E-01  8.50000000E-01  8.50000000E-01
  8.50000000E-01  8.50000000E-01  8.50000000E-01  8.50000000E-01  8.50000000E-01
  8.50000000E-01  8.50000000E-01  8.50000000E-01  8.50000000E-01  8.50000000E-01
  8.50000000E-01  8.50000000E-01  8.50000000E-01  8.50000000E-01  8.50000000E-01
  8.50000000E-01  8.50000000E-01  8.50000000E-01  8.50000000E-01  8.50000000E-01
  8.50000000E-01  8.50000000E-01  8.50000000E-01  8.50000000E-01  8.50000000E-01
  8.50000000E-01  8.50000000E-01  8.50000000E-01  8.50000000E-01  8.50000000E-01
  8.50000000E-01  8.50000000E-01  8.50000000E-01  8.50000000E-01  8.50000000E-01
  8.50000000E-01  8.50000000E-01  8.50000000E-01  8.50000000E-01  8.50000000E-01
  8.50000000E-01  8.50000000E-01  8.50000000E-01  8.50000000E-01  8.50000000E-01
  8.50000000E-01  8.50000000E-01  8.50000000E-01  8.50000000E-01  8.50000000E-01
  8.50000000E-01  8.50000000E-01  8.50000000E-01  8.50000000E-01  8.50000000E-01
  8.50000000E-01  8.50000000E-01  8.50000000E-01  8.50000000E-01  8.50000000E-01
  8.50000000E-01  8.50000000E-01  8.50000000E-01  8.50000000E-01  8.50000000E-01
  8.50000000E-01  8.50000000E-01  8.50000000E-01  8.50000000E-01  8.50000000E-01
  8.50000000E-01  8.50000000E-01  8.50000000E-01  8.50000000E-01  8.50000000E-01
  8.50000000E-01  8.50000000E-01  8.50000000E-01  8.50000000E-01  8.50000000E-01
  8.50000000E-01  8.50000000E-01  8.50000000E-01  8.50000000E-01  8.50000000E-01
  8.50000000E-01  8.50000000E-01  8.50000000E-01  8.50000000E-01  8.50000000E-01
  8.50000000E-01  8.50000000E-01  8.50000000E-01  8.50000000E-01  8.50000000E-01
  8.50000000E-01  8.50000000E-01  8.50000000E-01  8.50000000E-01  8.50000000E-01
  8.50000000E-01  8.50000000E-01  8.50000000E-01  8.50000000E-01  8.50000000E-01
  8.50000000E-01  8.50000000E-01  8.50000000E-01  8.50000000E-01  8.50000000E-01
  8.50000000E-01  8.50000000E-01  8.50000000E-01  8.50000000E-01  8.50000000E-01
  8.50000000E-01  8.50000000E-01  8.50000000E-01  8.50000000E-01  8.50000000E-01
  8.50000000E-01  8.50000000E-01  8.50000000E-01  8.50000000E-01  8.50000000E-01
  8.50000000E-01  8.50000000E-01  8.50000000E-01  8.50000000E-01  8.50000000E-01
  8.50000000E-01  8.50000000E-01  8.50000000E-01  8.50000000E-01  8.50000000E-01
  8.50000000E-01  8.50000000E-01  8.50000000E-01  8.50000000E-01  8.50000000E-01
  8.50000000E-01  8.50000000E-01  8.50000000E-01  8.50000000E-01  8.50000000E-01
  8.50000000E-01  8.50000000E-01  8.50000000E-01  8.50000000E-01  8.50000000E-01
  8.50000000E-01  8.50000000E-01  8.50000000E-01  8.50000000E-01  8.50000000E-01
  8.50000000E-01  8.50000000E-01  8.50000000E-01  8.50000000E-01  8.50000000E-01
  8.50000000E-01  8.50000000E-01  8.50000000E-01  8.50000000E-01  8.50000000E-01
  8.50000000E-01  8.50000000E-01  8.50000000E-01  8.50000000E-01  8.50000000E-01
  8.50000000E-01  8.50000000E-01  8.50000000E-01  8.50000000E-01  8.50000000E-01
  8.50000000E-01  8.50000000E-01  8.50000000E-01  8.50000000E-01  8.50000000E-01
  8.50000000E-01  8.50000000E-01  8.50000000E-01  8.50000000E-01  8.50000000E-01
  8.50000000E-01  8.50000000E-01  8.50000000E-01  8.50000000E-01  8.50000000E-01
  8.50000000E-01  8.50000000E-01  8.50000000E-01  8.50000000E-01  8.50000000E-01
  8.50000000E-01  8.50000000E-01  8.50000000E-01  8.50000000E-01  8.50000000E-01
  8.50000000E-01  8.50000000E-01  8.50000000E-01  8.50000000E-01  8.50000000E-01
  8.50000000E-01  8.50000000E-01  8.50000000E-01  8.50000000E-01  8.50000000E-01
  8.50000000E-01  8.50000000E-01  8.50000000E-01  8.50000000E-01  8.50000000E-01
  8.50000000E-01  8.50000000E-01  8.50000000E-01  8.50000000E-01  8.50000000E-01
  8.50000000E-01  8.50000000E-01  8.50000000E-01  8.50000000E-01  8.50000000E-01
  8.50000000E-01  8.50000000E-01  8.50000000E-01  8.50000000E-01  8.50000000E-01
  8.50000000E-01  8.50000000E-01  8.50000000E-01  8.50000000E-01  8.50000000E-01
  8.50000000E-01  8.50000000E-01  8.50000000E-01  8.50000000E-01  8.50000000E-01
  8.50000000E-01  8.50000000E-01  8.50000000E-01  8.50000000E-01  8.50000000E-01
  8.50000000E-01  8.50000000E-01  8.50000000E-01  8.50000000E-01  8.50000000E-01
  8.50000000E-01  8.50000000E-01  8.50000000E-01  8.50000000E-01  8.50000000E-01
  8.50000000E-01  8.50000000E-01  8.50000000E-01  8.50000000E-01  8.50000000E-01
  8.50000000E-01  8.50000000E-01  8.50000000E-01  8.50000000E-01  8.50000000E-01
  8.50000000E-01  8.50000000E-01  8.50000000E-01  8.50000000E-01  8.50000000E-01
  8.50000000E-01  8.50000000E-01  8.50000000E-01  8.50000000E-01  8.50000000E-01
  8.50000000E-01  8.50000000E-01  8.50000000E-01  8.50000000E-01  8.50000000E-01
  8.50000000E-01  8.50000000E-01  8.50000000E-01  8.50000000E-01  8.50000000E-01
  8.50000000E-01  8.50000000E-01  8.50000000E-01  8.50000000E-01  8.50000000E-01
  8.50000000E-01  8.50000000E-01  8.50000000E-01  8.50000000E-01  8.50000000E-01
  8.50000000E-01  8.50000000E-01  8.50000000E-01  8.50000000E-01  8.50000000E-01
  8.50000000E-01  8.50000000E-01  8.50000000E-01  8.50000000E-01  8.50000000E-01
  8.50000000E-01  8.50000000E-01  8.50000000E-01  8.50000000E-01  8.50000000E-01
  8.50000000E-01  8.50000000E-01  8.50000000E-01  8.50000000E-01  8.50000000E-01
  8.50000000E-01  8.50000000E-01  8.50000000E-01  8.50000000E-01  8.50000000E-01
  8.50000000E-01  8.50000000E-01  8.50000000E-01  8.50000000E-01  8.50000000E-01
  8.50000000E-01  8.50000000E-01  8.50000000E-01  8.50000000E-01  8.50000000E-01
  8.50000000E-01  8.50000000E-01  8.50000000E-01  8.50000000E-01  8.50000000E-01
  8.50000000E-01  8.50000000E-01  8.50000000E-01  8.50000000E-01  8.50000000E-01
  8.50000000E-01  8.50000000E-01  8.50000000E-01  8.50000000E-01  8.50000000E-01
  8.50000000E-01  8.50000000E-01  8.50000000E-01  8.50000000E-01  8.50000000E-01
  8.50000000E-01  8.50000000E-01  8.50000000E-01  8.50000000E-01  8.50000000E-01
  8.50000000E-01  8.50000000E-01  8.50000000E-01  8.50000000E-01  8.50000000E-01
  8.50000000E-01  8.50000000E-01  8.50000000E-01  8.50000000E-01  8.50000000E-01
  8.50000000E-01  8.50000000E-01  8.50000000E-01  8.50000000E-01  8.50000000E-01
  8.50000000E-01  8.50000000E-01  8.50000000E-01  8.50000000E-01  8.50000000E-01
  8.50000000E-01  8.50000000E-01  8.50000000E-01  8.50000000E-01  8.50000000E-01
  8.50000000E-01  8.50000000E-01  8.50000000E-01  8.50000000E-01  8.50000000E-01
  8.50000000E-01  8.50000000E-01  8.50000000E-01  8.50000000E-01  8.50000000E-01
  8.50000000E-01  8.50000000E-01  8.50000000E-01  8.50000000E-01  8.50000000E-01
  8.50000000E-01  8.50000000E-01  8.50000000E-01  8.50000000E-01  8.50000000E-01
  8.50000000E-01  8.50000000E-01  8.50000000E-01  8.50000000E-01  8.50000000E-01
  8.50000000E-01  8.50000000E-01  8.50000000E-01  8.50000000E-01  8.50000000E-01
  8.50000000E-01  8.50000000E-01  8.50000000E-01  8.50000000E-01  8.50000000E-01
  8.50000000E-01  8.50000000E-01  8.50000000E-01  8.50000000E-01  8.50000000E-01
  8.50000000E-01  8.50000000E-01  8.50000000E-01  8.50000000E-01  8.50000000E-01
  8.50000000E-01  8.50000000E-01  8.50000000E-01  8.50000000E-01  8.50000000E-01
  8.50000000E-01  8.50000000E-01  8.50000000E-01  8.50000000E-01  8.50000000E-01
  8.50000000E-01  8.50000000E-01  8.50000000E-01  8.50000000E-01  8.50000000E-01
  8.50000000E-01  8.50000000E-01  8.50000000E-01  8.50000000E-01  8.50000000E-01
  8.50000000E-01  8.50000000E-01  8.50000000E-01  8.50000000E-01  8.50000000E-01
  8.50000000E-01  8.50000000E-01  8.50000000E-01  8.50000000E-01  8.50000000E-01
  8.50000000E-01  8.50000000E-01  8.50000000E-01  8.50000000E-01  8.50000000E-01
  8.50000000E-01  8.50000000E-01  8.50000000E-01  8.50000000E-01  8.50000000E-01
  8.50000000E-01  8.50000000E-01  8.50000000E-01  8.50000000E-01  8.50000000E-01
  8.50000000E-01  8.50000000E-01  8.50000000E-01  8.50000000E-01  8.50000000E-01
  8.50000000E-01  8.50000000E-01  8.50000000E-01  8.50000000E-01  8.50000000E-01
  8.50000000E-01  8.50000000E-01  8.50000000E-01  8.50000000E-01  8.50000000E-01
  8.50000000E-01  8.50000000E-01  8.50000000E-01  8.50000000E-01  8.50000000E-01
  8.50000000E-01  8.50000000E-01  8.50000000E-01  8.50000000E-01  8.50000000E-01
  8.50000000E-01  8.50000000E-01  8.50000000E-01  8.50000000E-01  8.50000000E-01
  8.50000000E-01  8.50000000E-01  8.50000000E-01  8.50000000E-01  8.50000000E-01
  8.50000000E-01  8.50000000E-01  8.50000000E-01  8.50000000E-01  8.50000000E-01
  8.50000000E-01  8.50000000E-01  8.50000000E-01  8.50000000E-01  8.50000000E-01
  8.50000000E-01  8.50000000E-01  8.50000000E-01  8.50000000E-01  8.50000000E-01
  8.50000000E-01  8.50000000E-01  8.50000000E-01  8.50000000E-01  8.50000000E-01
  8.50000000E-01  8.50000000E-01  8.50000000E-01  8.50000000E-01  8.50000000E-01
  8.50000000E-01  8.50000000E-01  8.50000000E-01  8.50000000E-01  8.50000000E-01
  8.50000000E-01  8.50000000E-01  8.50000000E-01  8.50000000E-01  8.50000000E-01
  8.50000000E-01  8.50000000E-01  8.50000000E-01  8.50000000E-01  8.50000000E-01
  8.50000000E-01  8.50000000E-01  8.50000000E-01  8.50000000E-01  8.50000000E-01
  8.50000000E-01  8.50000000E-01  8.50000000E-01  8.50000000E-01  8.50000000E-01
  8.50000000E-01  8.50000000E-01  8.50000000E-01  8.50000000E-01  8.50000000E-01
  8.50000000E-01  8.50000000E-01  8.50000000E-01  8.50000000E-01  8.50000000E-01
  8.50000000E-01  8.50000000E-01  8.50000000E-01  8.50000000E-01  8.50000000E-01
  8.50000000E-01  8.50000000E-01  8.50000000E-01  8.50000000E-01  8.50000000E-01
  8.50000000E-01  8.50000000E-01  8.50000000E-01  8.50000000E-01  8.50000000E-01
  8.50000000E-01  8.50000000E-01  8.50000000E-01  8.50000000E-01  8.50000000E-01
  8.50000000E-01  8.50000000E-01  8.50000000E-01  8.50000000E-01  8.50000000E-01
  8.50000000E-01  8.50000000E-01  8.50000000E-01  8.50000000E-01  8.50000000E-01
  8.50000000E-01  8.50000000E-01  8.50000000E-01  8.50000000E-01  8.50000000E-01
  8.50000000E-01  8.50000000E-01  8.50000000E-01  8.50000000E-01  8.50000000E-01
  8.50000000E-01  8.50000000E-01  8.50000000E-01  8.50000000E-01  8.50000000E-01
  8.50000000E-01  8.50000000E-01  8.50000000E-01  8.50000000E-01  8.50000000E-01
  8.50000000E-01  8.50000000E-01  8.50000000E-01  8.50000000E-01  8.50000000E-01
  8.50000000E-01  8.50000000E-01  8.50000000E-01  8.50000000E-01  8.50000000E-01
  8.50000000E-01  8.50000000E-01  8.50000000E-01  8.50000000E-01  8.50000000E-01
  8.50000000E-01  8.50000000E-01  8.50000000E-01  8.50000000E-01  8.50000000E-01
  8.50000000E-01  8.50000000E-01  8.50000000E-01  8.50000000E-01  8.50000000E-01
  8.50000000E-01  8.50000000E-01  8.50000000E-01  8.50000000E-01  8.50000000E-01
  8.50000000E-01  8.50000000E-01  8.50000000E-01  8.50000000E-01  8.50000000E-01
  8.50000000E-01  8.50000000E-01  8.50000000E-01  8.50000000E-01  8.50000000E-01
  8.50000000E-01  8.50000000E-01  8.50000000E-01  8.50000000E-01  8.50000000E-01
  8.50000000E-01  8.50000000E-01  8.50000000E-01  8.50000000E-01  8.50000000E-01
  8.50000000E-01  8.50000000E-01  8.50000000E-01  8.50000000E-01  8.50000000E-01
  8.50000000E-01  8.50000000E-01  8.50000000E-01  8.50000000E-01  8.50000000E-01
  8.50000000E-01  8.50000000E-01  8.50000000E-01  8.50000000E-01  8.50000000E-01
  8.50000000E-01  8.50000000E-01  8.50000000E-01  8.50000000E-01  8.50000000E-01
  8.50000000E-01  8.50000000E-01  8.50000000E-01  8.50000000E-01  8.50000000E-01
  8.50000000E-01  8.50000000E-01  8.50000000E-01  8.50000000E-01  8.50000000E-01
  8.50000000E-01  8.50000000E-01  8.50000000E-01  8.50000000E-01  8.50000000E-01
  8.50000000E-01  8.50000000E-01  8.50000000E-01  8.50000000E-01  8.50000000E-01
  8.50000000E-01  8.50000000E-01  8.50000000E-01  8.50000000E-01  8.50000000E-01
  8.50000000E-01  8.50000000E-01  8.50000000E-01  8.50000000E-01  8.50000000E-01
  8.50000000E-01  8.50000000E-01  8.50000000E-01  8.50000000E-01  8.50000000E-01
  8.50000000E-01  8.50000000E-01  8.50000000E-01  8.50000000E-01  8.50000000E-01
  8.50000000E-01  8.50000000E-01  8.50000000E-01  8.50000000E-01  8.50000000E-01
  8.50000000E-01  8.50000000E-01  8.50000000E-01  8.50000000E-01  8.50000000E-01
  8.50000000E-01  8.50000000E-01  8.50000000E-01  8.50000000E-01  8.50000000E-01
  8.50000000E-01  8.50000000E-01  8.50000000E-01  8.50000000E-01  8.50000000E-01
  8.50000000E-01  8.50000000E-01  8.50000000E-01  8.50000000E-01  8.50000000E-01
  8.50000000E-01  8.50000000E-01  8.50000000E-01  8.50000000E-01  8.50000000E-01
  8.50000000E-01  8.50000000E-01  8.50000000E-01  8.50000000E-01  8.50000000E-01
  8.50000000E-01  8.50000000E-01  8.50000000E-01  8.50000000E-01  8.50000000E-01
  8.50000000E-01  8.50000000E-01  8.50000000E-01  8.50000000E-01  8.50000000E-01
  8.50000000E-01  8.50000000E-01  8.50000000E-01  8.50000000E-01  8.50000000E-01
  8.50000000E-01  8.50000000E-01  8.50000000E-01  8.50000000E-01  8.50000000E-01
  8.50000000E-01  8.50000000E-01  8.50000000E-01  8.50000000E-01  8.50000000E-01
  8.50000000E-01  8.50000000E-01  8.50000000E-01  8.50000000E-01  8.50000000E-01
  8.50000000E-01  8.50000000E-01  8.50000000E-01  8.50000000E-01  8.50000000E-01
  8.50000000E-01  8.50000000E-01  8.50000000E-01  8.50000000E-01  8.50000000E-01
  8.50000000E-01  8.50000000E-01  8.50000000E-01  8.50000000E-01  8.50000000E-01
  8.50000000E-01  8.50000000E-01  8.50000000E-01  8.50000000E-01  8.50000000E-01
  8.50000000E-01  8.50000000E-01  8.50000000E-01  8.50000000E-01  8.50000000E-01
  8.50000000E-01  8.50000000E-01  8.50000000E-01  8.50000000E-01  8.50000000E-01
  8.50000000E-01  8.50000000E-01  8.50000000E-01  8.50000000E-01  8.50000000E-01
  8.50000000E-01  8.50000000E-01  8.50000000E-01  8.50000000E-01  8.50000000E-01
  8.50000000E-01  8.50000000E-01  8.50000000E-01  8.50000000E-01  8.50000000E-01
  8.50000000E-01  8.50000000E-01  8.50000000E-01  8.50000000E-01  8.50000000E-01
  8.50000000E-01  8.50000000E-01  8.50000000E-01  8.50000000E-01  8.50000000E-01
  8.50000000E-01  8.50000000E-01  8.50000000E-01  8.50000000E-01  8.50000000E-01
  8.50000000E-01  8.50000000E-01  8.50000000E-01  8.50000000E-01  8.50000000E-01
  8.50000000E-01  8.50000000E-01  8.50000000E-01  8.50000000E-01  8.50000000E-01
  8.50000000E-01  8.50000000E-01  8.50000000E-01  8.50000000E-01  8.50000000E-01
  8.50000000E-01  8.50000000E-01  8.50000000E-01  8.50000000E-01  8.50000000E-01
  8.50000000E-01  8.50000000E-01  8.50000000E-01  8.50000000E-01  8.50000000E-01
  8.50000000E-01  8.50000000E-01  8.50000000E-01  8.50000000E-01  8.50000000E-01
  8.50000000E-01  8.50000000E-01  8.50000000E-01  8.50000000E-01  8.50000000E-01
  8.50000000E-01  8.50000000E-01  8.50000000E-01  8.50000000E-01  8.50000000E-01
  8.50000000E-01  8.50000000E-01  8.50000000E-01  8.50000000E-01  8.50000000E-01
  8.50000000E-01  8.50000000E-01  8.50000000E-01  8.50000000E-01  8.50000000E-01
  8.50000000E-01  8.50000000E-01  8.50000000E-01  8.50000000E-01  8.50000000E-01
  8.50000000E-01  8.50000000E-01  8.50000000E-01  8.50000000E-01  8.50000000E-01
  8.50000000E-01  8.50000000E-01  8.50000000E-01  8.50000000E-01  8.50000000E-01
  8.50000000E-01  8.50000000E-01  8.50000000E-01  8.50000000E-01  8.50000000E-01
  8.50000000E-01  8.50000000E-01  8.50000000E-01  8.50000000E-01  8.50000000E-01
  8.50000000E-01  8.50000000E-01  8.50000000E-01  8.50000000E-01  8.50000000E-01
  8.50000000E-01  8.50000000E-01  8.50000000E-01  8.50000000E-01  8.50000000E-01
  8.50000000E-01  8.50000000E-01  8.50000000E-01  8.50000000E-01  8.50000000E-01
  8.50000000E-01  8.50000000E-01  8.50000000E-01  8.50000000E-01  8.50000000E-01
  8.50000000E-01  8.50000000E-01  8.50000000E-01  8.50000000E-01  8.50000000E-01
  8.50000000E-01  8.50000000E-01  8.50000000E-01  8.50000000E-01  8.50000000E-01
  8.50000000E-01  8.50000000E-01  8.50000000E-01  8.50000000E-01  8.50000000E-01
  8.50000000E-01  8.50000000E-01  8.50000000E-01  8.50000000E-01  8.50000000E-01
  8.50000000E-01  8.50000000E-01  8.50000000E-01  8.50000000E-01  8.50000000E-01
  8.50000000E-01  8.50000000E-01  8.50000000E-01  8.50000000E-01  8.50000000E-01
  8.50000000E-01  8.50000000E-01  8.50000000E-01  8.50000000E-01  8.50000000E-01
  8.50000000E-01  8.50000000E-01  8.50000000E-01  8.50000000E-01  8.50000000E-01
  8.50000000E-01  8.50000000E-01  8.50000000E-01  8.50000000E-01  8.50000000E-01
  8.50000000E-01  8.50000000E-01  8.50000000E-01  8.50000000E-01  8.50000000E-01
  8.50000000E-01  8.50000000E-01  8.50000000E-01  8.50000000E-01  8.50000000E-01
  8.50000000E-01  8.50000000E-01  8.50000000E-01  8.50000000E-01  8.50000000E-01
  8.50000000E-01  8.50000000E-01  8.50000000E-01  8.50000000E-01  8.50000000E-01
  8.50000000E-01  8.50000000E-01  8.50000000E-01  8.50000000E-01  8.50000000E-01
  8.50000000E-01  8.50000000E-01  8.50000000E-01  8.50000000E-01  8.50000000E-01
  8.50000000E-01  8.50000000E-01  8.50000000E-01  8.50000000E-01  8.50000000E-01
  8.50000000E-01  8.50000000E-01  8.50000000E-01  8.50000000E-01  8.50000000E-01
  8.50000000E-01  8.50000000E-01  8.50000000E-01  8.50000000E-01  8.50000000E-01
  8.50000000E-01  8.50000000E-01  8.50000000E-01  8.50000000E-01  8.50000000E-01
  8.50000000E-01  8.50000000E-01  8.50000000E-01  8.50000000E-01  8.50000000E-01
  8.50000000E-01  8.50000000E-01  8.50000000E-01  8.50000000E-01  8.50000000E-01
  8.50000000E-01  8.50000000E-01  8.50000000E-01  8.50000000E-01  8.50000000E-01
  8.50000000E-01  8.50000000E-01  8.50000000E-01  8.50000000E-01  8.50000000E-01
  8.50000000E-01  8.50000000E-01  8.50000000E-01  8.50000000E-01  8.50000000E-01
  8.50000000E-01  8.50000000E-01  8.50000000E-01  8.50000000E-01  8.50000000E-01
  8.50000000E-01  8.50000000E-01  8.50000000E-01  8.50000000E-01  8.50000000E-01
  8.50000000E-01  8.50000000E-01  8.50000000E-01  8.50000000E-01  8.50000000E-01
  8.50000000E-01  8.50000000E-01  8.50000000E-01  8.50000000E-01  8.50000000E-01
  8.50000000E-01  8.50000000E-01  8.50000000E-01  8.50000000E-01  8.50000000E-01
  8.50000000E-01  8.50000000E-01  8.50000000E-01  8.50000000E-01  8.50000000E-01
  8.50000000E-01  8.50000000E-01  8.50000000E-01  8.50000000E-01  8.50000000E-01
  8.50000000E-01  8.50000000E-01  8.50000000E-01  8.50000000E-01  8.50000000E-01
  8.50000000E-01  8.50000000E-01  8.50000000E-01  8.50000000E-01  8.50000000E-01
  8.50000000E-01  8.50000000E-01  8.50000000E-01  8.50000000E-01  8.50000000E-01
  8.50000000E-01  8.50000000E-01  8.50000000E-01  8.50000000E-01  8.50000000E-01
  8.50000000E-01  8.50000000E-01  8.50000000E-01  8.50000000E-01  8.50000000E-01
  8.50000000E-01  8.50000000E-01  8.50000000E-01  8.50000000E-01  8.50000000E-01
  8.50000000E-01  8.50000000E-01  8.50000000E-01  8.50000000E-01  8.50000000E-01
  8.50000000E-01  8.50000000E-01  8.50000000E-01  8.50000000E-01  8.50000000E-01
  8.50000000E-01  8.50000000E-01  8.50000000E-01  8.50000000E-01  8.50000000E-01
  8.50000000E-01  8.50000000E-01  8.50000000E-01  8.50000000E-01  8.50000000E-01
  8.50000000E-01  8.50000000E-01  8.50000000E-01  8.50000000E-01  8.50000000E-01
  8.50000000E-01  8.50000000E-01  8.50000000E-01  8.50000000E-01  8.50000000E-01
  8.50000000E-01  8.50000000E-01  8.50000000E-01  8.50000000E-01  8.50000000E-01
  8.50000000E-01  8.50000000E-01  8.50000000E-01  8.50000000E-01  8.50000000E-01
  8.50000000E-01  8.50000000E-01  8.50000000E-01  8.50000000E-01  8.50000000E-01
  8.50000000E-01  8.50000000E-01  8.50000000E-01  8.50000000E-01  8.50000000E-01
  8.50000000E-01  8.50000000E-01  8.50000000E-01  8.50000000E-01  8.50000000E-01
  8.50000000E-01  8.50000000E-01  8.50000000E-01  8.50000000E-01  8.50000000E-01
  8.50000000E-01  8.50000000E-01  8.50000000E-01  8.50000000E-01  8.50000000E-01
  8.50000000E-01  8.50000000E-01  8.50000000E-01  8.50000000E-01  8.50000000E-01
  8.50000000E-01  8.50000000E-01  8.50000000E-01  8.50000000E-01  8.50000000E-01
  8.50000000E-01  8.50000000E-01  8.50000000E-01  8.50000000E-01  8.50000000E-01
  8.50000000E-01  8.50000000E-01  8.50000000E-01  8.50000000E-01  8.50000000E-01
  8.50000000E-01  8.50000000E-01  8.50000000E-01  8.50000000E-01  8.50000000E-01
  8.50000000E-01  8.50000000E-01  8.50000000E-01  8.50000000E-01  8.50000000E-01
  8.50000000E-01  8.50000000E-01  8.50000000E-01  8.50000000E-01  8.50000000E-01
  8.50000000E-01  8.50000000E-01  8.50000000E-01  8.50000000E-01  8.50000000E-01
  8.50000000E-01  8.50000000E-01  8.50000000E-01  8.50000000E-01  8.50000000E-01
  8.50000000E-01  8.50000000E-01  8.50000000E-01  8.50000000E-01  8.50000000E-01
  8.50000000E-01  8.50000000E-01  8.50000000E-01  8.50000000E-01  8.50000000E-01
  8.50000000E-01  8.50000000E-01  8.50000000E-01  8.50000000E-01  8.50000000E-01
  8.50000000E-01  8.50000000E-01  8.50000000E-01  8.50000000E-01  8.50000000E-01
  8.50000000E-01  8.50000000E-01  8.50000000E-01  8.50000000E-01  8.50000000E-01
  8.50000000E-01  8.50000000E-01  8.50000000E-01  8.50000000E-01  8.50000000E-01
  8.50000000E-01  8.50000000E-01  8.50000000E-01  8.50000000E-01  8.50000000E-01
  8.50000000E-01  8.50000000E-01  8.50000000E-01  8.50000000E-01  8.50000000E-01
  8.50000000E-01  8.50000000E-01  8.50000000E-01  8.50000000E-01  8.50000000E-01
  8.50000000E-01  8.50000000E-01  8.50000000E-01  8.50000000E-01  8.50000000E-01
  8.50000000E-01  8.50000000E-01  8.50000000E-01  8.50000000E-01  8.50000000E-01
  8.50000000E-01  8.50000000E-01  8.50000000E-01  8.50000000E-01  8.50000000E-01
  8.50000000E-01  8.50000000E-01  8.50000000E-01  8.50000000E-01  8.50000000E-01
  8.50000000E-01  8.50000000E-01  8.50000000E-01  8.50000000E-01  8.50000000E-01
  8.50000000E-01  8.50000000E-01  8.50000000E-01  8.50000000E-01  8.50000000E-01
  8.50000000E-01  8.50000000E-01  8.50000000E-01  8.50000000E-01  8.50000000E-01
  8.50000000E-01  8.50000000E-01  8.50000000E-01  8.50000000E-01  8.50000000E-01
  8.50000000E-01  8.50000000E-01  8.50000000E-01  8.50000000E-01  8.50000000E-01
  8.50000000E-01  8.50000000E-01  8.50000000E-01  8.50000000E-01  8.50000000E-01
  8.50000000E-01  8.50000000E-01  8.50000000E-01  8.50000000E-01  8.50000000E-01
  8.50000000E-01  8.50000000E-01  8.50000000E-01  8.50000000E-01  8.50000000E-01
  8.50000000E-01  8.50000000E-01  8.50000000E-01  8.50000000E-01  8.50000000E-01
  8.50000000E-01  8.50000000E-01  8.50000000E-01  8.50000000E-01  8.50000000E-01
  8.50000000E-01  8.50000000E-01  8.50000000E-01  8.50000000E-01  8.50000000E-01
  8.50000000E-01  8.50000000E-01  8.50000000E-01  8.50000000E-01  8.50000000E-01
  8.50000000E-01  8.50000000E-01  8.50000000E-01  8.50000000E-01  8.50000000E-01
  8.50000000E-01  8.50000000E-01  8.50000000E-01  8.50000000E-01  8.50000000E-01
  8.50000000E-01  8.50000000E-01  8.50000000E-01  8.50000000E-01  8.50000000E-01
  8.50000000E-01  8.50000000E-01  8.50000000E-01  8.50000000E-01  8.50000000E-01
  8.50000000E-01  8.50000000E-01  8.50000000E-01  8.50000000E-01  8.50000000E-01
  8.50000000E-01  8.50000000E-01  8.50000000E-01  8.50000000E-01  8.50000000E-01
  8.50000000E-01  8.50000000E-01  8.50000000E-01  8.50000000E-01  8.50000000E-01
  8.50000000E-01  8.50000000E-01  8.50000000E-01  8.50000000E-01  8.50000000E-01
  8.50000000E-01  8.50000000E-01  8.50000000E-01  8.50000000E-01  8.50000000E-01
  8.50000000E-01  8.50000000E-01  8.50000000E-01  8.50000000E-01  8.50000000E-01
  8.50000000E-01  8.50000000E-01  8.50000000E-01  8.50000000E-01  8.50000000E-01
  8.50000000E-01  8.50000000E-01  8.50000000E-01  8.50000000E-01  8.50000000E-01
  8.50000000E-01  8.50000000E-01  8.50000000E-01  8.50000000E-01  8.50000000E-01
  8.50000000E-01  8.50000000E-01  8.50000000E-01  8.50000000E-01  8.50000000E-01
  8.50000000E-01  8.50000000E-01  8.50000000E-01  8.50000000E-01  8.50000000E-01
  8.50000000E-01  8.50000000E-01  8.50000000E-01  8.50000000E-01  8.50000000E-01
  8.50000000E-01  8.50000000E-01  8.50000000E-01  8.50000000E-01  8.50000000E-01
  8.50000000E-01  8.50000000E-01  8.50000000E-01  8.50000000E-01  8.50000000E-01
  8.50000000E-01  8.50000000E-01  8.50000000E-01  8.50000000E-01  8.50000000E-01
  8.50000000E-01  8.50000000E-01  8.50000000E-01  8.50000000E-01  8.50000000E-01
  8.50000000E-01  8.50000000E-01  8.50000000E-01  8.50000000E-01  8.50000000E-01
  8.50000000E-01  8.50000000E-01  8.50000000E-01  8.50000000E-01  8.50000000E-01
  8.50000000E-01  8.50000000E-01  8.50000000E-01  8.50000000E-01  8.50000000E-01
  8.50000000E-01  8.50000000E-01  8.50000000E-01  8.50000000E-01  8.50000000E-01
  8.50000000E-01  8.50000000E-01  8.50000000E-01  8.50000000E-01  8.50000000E-01
  8.50000000E-01  8.50000000E-01  8.50000000E-01  8.50000000E-01  8.50000000E-01
  8.50000000E-01  8.50000000E-01  8.50000000E-01  8.50000000E-01  8.50000000E-01
  8.50000000E-01  8.50000000E-01  8.50000000E-01  8.50000000E-01  8.50000000E-01
  8.50000000E-01  8.50000000E-01  8.50000000E-01  8.50000000E-01  8.50000000E-01
  8.50000000E-01  8.50000000E-01  8.50000000E-01  8.50000000E-01  8.50000000E-01
  8.50000000E-01  8.50000000E-01  8.50000000E-01  8.50000000E-01  8.50000000E-01
  8.50000000E-01  8.50000000E-01  8.50000000E-01  8.50000000E-01  8.50000000E-01
  8.50000000E-01  8.50000000E-01  8.50000000E-01  8.50000000E-01  8.50000000E-01
  8.50000000E-01  8.50000000E-01  8.50000000E-01  8.50000000E-01  8.50000000E-01
  8.50000000E-01  8.50000000E-01  8.50000000E-01  8.50000000E-01  8.50000000E-01
  8.50000000E-01  8.50000000E-01  8.50000000E-01  8.50000000E-01  8.50000000E-01
  8.50000000E-01  8.50000000E-01  8.50000000E-01  8.50000000E-01  8.50000000E-01
  8.50000000E-01  8.50000000E-01  8.50000000E-01  8.50000000E-01  8.50000000E-01
  8.50000000E-01  8.50000000E-01  8.50000000E-01  8.50000000E-01  8.50000000E-01
  8.50000000E-01  8.50000000E-01  8.50000000E-01  8.50000000E-01  8.50000000E-01
  8.50000000E-01  8.50000000E-01  8.50000000E-01  8.50000000E-01  8.50000000E-01
  8.50000000E-01  8.50000000E-01  8.50000000E-01  8.50000000E-01  8.50000000E-01
  8.50000000E-01  8.50000000E-01  8.50000000E-01  8.50000000E-01  8.50000000E-01
  8.50000000E-01  8.50000000E-01  8.50000000E-01  8.50000000E-01  8.50000000E-01
  8.50000000E-01  8.50000000E-01  8.50000000E-01  8.50000000E-01  8.50000000E-01
  8.50000000E-01  8.50000000E-01  8.50000000E-01  8.50000000E-01  8.50000000E-01
  8.50000000E-01  8.50000000E-01  8.50000000E-01  8.50000000E-01  8.50000000E-01
  8.50000000E-01  8.50000000E-01  8.50000000E-01  8.50000000E-01  8.50000000E-01
  8.50000000E-01  8.50000000E-01  8.50000000E-01  8.50000000E-01  8.50000000E-01
  8.50000000E-01  8.50000000E-01  8.50000000E-01  8.50000000E-01  8.50000000E-01
  8.50000000E-01  8.50000000E-01  8.50000000E-01  8.50000000E-01  8.50000000E-01
  8.50000000E-01  8.50000000E-01  8.50000000E-01  8.50000000E-01  8.50000000E-01
  8.50000000E-01  8.50000000E-01  8.50000000E-01  8.50000000E-01  8.50000000E-01
  8.50000000E-01  8.50000000E-01  8.50000000E-01  8.50000000E-01  8.50000000E-01
  8.50000000E-01  8.50000000E-01  8.50000000E-01  8.50000000E-01  8.50000000E-01
  8.50000000E-01  8.50000000E-01  8.50000000E-01  8.50000000E-01  8.50000000E-01
  8.50000000E-01  8.50000000E-01  8.50000000E-01  8.50000000E-01  8.50000000E-01
  8.50000000E-01  8.50000000E-01  8.50000000E-01  8.50000000E-01  8.50000000E-01
  8.50000000E-01  8.50000000E-01  8.50000000E-01  8.50000000E-01  8.50000000E-01
  8.50000000E-01  8.50000000E-01  8.50000000E-01  8.50000000E-01  8.50000000E-01
  8.50000000E-01  8.50000000E-01  8.50000000E-01  8.50000000E-01  8.50000000E-01
  8.50000000E-01  8.50000000E-01  8.50000000E-01  8.50000000E-01  8.50000000E-01
  8.50000000E-01  8.50000000E-01  8.50000000E-01  8.50000000E-01  8.50000000E-01
  8.50000000E-01  8.50000000E-01  8.50000000E-01  8.50000000E-01  8.50000000E-01
  8.50000000E-01  8.50000000E-01  8.50000000E-01  8.50000000E-01  8.50000000E-01
  8.50000000E-01  8.50000000E-01  8.50000000E-01  8.50000000E-01  8.50000000E-01
  8.50000000E-01  8.50000000E-01  8.50000000E-01  8.50000000E-01  8.50000000E-01
  8.50000000E-01  8.50000000E-01  8.50000000E-01  8.50000000E-01  8.50000000E-01
  8.50000000E-01  8.50000000E-01  8.50000000E-01  8.50000000E-01  8.50000000E-01
  8.50000000E-01  8.50000000E-01  8.50000000E-01  8.50000000E-01  8.50000000E-01
  8.50000000E-01  8.50000000E-01  8.50000000E-01  8.50000000E-01  8.50000000E-01
  8.50000000E-01  8.50000000E-01  8.50000000E-01  8.50000000E-01  8.50000000E-01
  8.50000000E-01  8.50000000E-01  8.50000000E-01  8.50000000E-01  8.50000000E-01
  8.50000000E-01  8.50000000E-01  8.50000000E-01  8.50000000E-01  8.50000000E-01
  8.50000000E-01  8.50000000E-01  8.50000000E-01  8.50000000E-01  8.50000000E-01
  8.50000000E-01  8.50000000E-01  8.50000000E-01  8.50000000E-01  8.50000000E-01
  8.50000000E-01  8.50000000E-01  8.50000000E-01  8.50000000E-01  8.50000000E-01
  8.50000000E-01  8.50000000E-01  8.50000000E-01  8.50000000E-01  8.50000000E-01
  8.50000000E-01  8.50000000E-01  8.50000000E-01  8.50000000E-01  8.50000000E-01
  8.50000000E-01  8.50000000E-01  8.50000000E-01  8.50000000E-01  8.50000000E-01
  8.50000000E-01  8.50000000E-01  8.50000000E-01  8.50000000E-01  8.50000000E-01
  8.50000000E-01  8.50000000E-01  8.50000000E-01  8.50000000E-01  8.50000000E-01
  8.50000000E-01  8.50000000E-01  8.50000000E-01  8.50000000E-01  8.50000000E-01
  8.50000000E-01  8.50000000E-01  8.50000000E-01  8.50000000E-01  8.50000000E-01
  8.50000000E-01  8.50000000E-01  8.50000000E-01  8.50000000E-01  8.50000000E-01
  8.50000000E-01  8.50000000E-01  8.50000000E-01  8.50000000E-01  8.50000000E-01
  8.50000000E-01  8.50000000E-01  8.50000000E-01  8.50000000E-01  8.50000000E-01
  8.50000000E-01  8.50000000E-01  8.50000000E-01  8.50000000E-01  8.50000000E-01
  8.50000000E-01  8.50000000E-01  8.50000000E-01  8.50000000E-01  8.50000000E-01
  8.50000000E-01  8.50000000E-01  8.50000000E-01  8.50000000E-01  8.50000000E-01
  8.50000000E-01  8.50000000E-01  8.50000000E-01  8.50000000E-01  8.50000000E-01
  8.50000000E-01  8.50000000E-01  8.50000000E-01  8.50000000E-01  8.50000000E-01
  8.50000000E-01  8.50000000E-01  8.50000000E-01  8.50000000E-01  8.50000000E-01
  8.50000000E-01  8.50000000E-01  8.50000000E-01  8.50000000E-01  8.50000000E-01
  8.50000000E-01  8.50000000E-01  8.50000000E-01  8.50000000E-01  8.50000000E-01
  8.50000000E-01  8.50000000E-01  8.50000000E-01  8.50000000E-01  8.50000000E-01
  8.50000000E-01  8.50000000E-01  8.50000000E-01  8.50000000E-01  8.50000000E-01
  8.50000000E-01  8.50000000E-01  8.50000000E-01  8.50000000E-01  8.50000000E-01
  8.50000000E-01  8.50000000E-01  8.50000000E-01  8.50000000E-01  8.50000000E-01
  8.50000000E-01  8.50000000E-01  8.50000000E-01  8.50000000E-01  8.50000000E-01
  8.50000000E-01  8.50000000E-01  8.50000000E-01  8.50000000E-01  8.50000000E-01
  8.50000000E-01  8.50000000E-01  8.50000000E-01  8.50000000E-01  8.50000000E-01
  8.50000000E-01  8.50000000E-01  8.50000000E-01  8.50000000E-01  8.50000000E-01
  8.50000000E-01  8.50000000E-01  8.50000000E-01  8.50000000E-01  8.50000000E-01
  8.50000000E-01  8.50000000E-01  8.50000000E-01  8.50000000E-01  8.50000000E-01
  8.50000000E-01  8.50000000E-01  8.50000000E-01  8.50000000E-01  8.50000000E-01
  8.50000000E-01  8.50000000E-01  8.50000000E-01  8.50000000E-01  8.50000000E-01
  8.50000000E-01  8.50000000E-01  8.50000000E-01  8.50000000E-01  8.50000000E-01
  8.50000000E-01  8.50000000E-01  8.50000000E-01  8.50000000E-01  8.50000000E-01
  8.50000000E-01  8.50000000E-01  8.50000000E-01  8.50000000E-01  8.50000000E-01
  8.50000000E-01  8.50000000E-01  8.50000000E-01  8.50000000E-01  8.50000000E-01
  8.50000000E-01  8.50000000E-01  8.50000000E-01  8.50000000E-01  8.50000000E-01
  8.50000000E-01  8.50000000E-01  8.50000000E-01  8.50000000E-01  8.50000000E-01
  8.50000000E-01  8.50000000E-01  8.50000000E-01  8.50000000E-01  8.50000000E-01
  8.50000000E-01  8.50000000E-01  8.50000000E-01  8.50000000E-01  8.50000000E-01
  8.50000000E-01  8.50000000E-01  8.50000000E-01  8.50000000E-01  8.50000000E-01
  8.50000000E-01  8.50000000E-01  8.50000000E-01  8.50000000E-01  8.50000000E-01
  8.50000000E-01  8.50000000E-01  8.50000000E-01  8.50000000E-01  8.50000000E-01
  8.50000000E-01  8.50000000E-01  8.50000000E-01  8.50000000E-01  8.50000000E-01
  8.50000000E-01  8.50000000E-01  8.50000000E-01  8.50000000E-01  8.50000000E-01
  8.50000000E-01  8.50000000E-01  8.50000000E-01  8.50000000E-01  8.50000000E-01
  8.50000000E-01  8.50000000E-01  8.50000000E-01  8.50000000E-01  8.50000000E-01
  8.50000000E-01  8.50000000E-01  8.50000000E-01  8.50000000E-01  8.50000000E-01
  8.50000000E-01  8.50000000E-01  8.50000000E-01  8.50000000E-01  8.50000000E-01
  8.50000000E-01  8.50000000E-01  8.50000000E-01  8.50000000E-01  8.50000000E-01
  8.50000000E-01  8.50000000E-01  8.50000000E-01  8.50000000E-01  8.50000000E-01
  8.50000000E-01  8.50000000E-01  8.50000000E-01  8.50000000E-01  8.50000000E-01
  8.50000000E-01  8.50000000E-01  8.50000000E-01  8.50000000E-01  8.50000000E-01
  8.50000000E-01  8.50000000E-01  8.50000000E-01  8.50000000E-01  8.50000000E-01
  8.50000000E-01  8.50000000E-01  8.50000000E-01  8.50000000E-01  8.50000000E-01
  8.50000000E-01  8.50000000E-01  8.50000000E-01  8.50000000E-01  8.50000000E-01
  8.50000000E-01  8.50000000E-01  8.50000000E-01  8.50000000E-01  8.50000000E-01
  8.50000000E-01  8.50000000E-01  8.50000000E-01  8.50000000E-01  8.50000000E-01
  8.50000000E-01  8.50000000E-01  8.50000000E-01  8.50000000E-01  8.50000000E-01
  8.50000000E-01  8.50000000E-01  8.50000000E-01  8.50000000E-01  8.50000000E-01
  8.50000000E-01  8.50000000E-01  8.50000000E-01  8.50000000E-01  8.50000000E-01
  8.50000000E-01  8.50000000E-01  8.50000000E-01  8.50000000E-01  8.50000000E-01
  8.50000000E-01  8.50000000E-01  8.50000000E-01  8.50000000E-01  8.50000000E-01
  8.50000000E-01  8.50000000E-01  8.50000000E-01  8.50000000E-01  8.50000000E-01
  8.50000000E-01  8.50000000E-01  8.50000000E-01  8.50000000E-01  8.50000000E-01
  8.50000000E-01  8.50000000E-01  8.50000000E-01  8.50000000E-01  8.50000000E-01
  8.50000000E-01  8.50000000E-01  8.50000000E-01  8.50000000E-01  8.50000000E-01
  8.50000000E-01  8.50000000E-01  8.50000000E-01  8.50000000E-01  8.50000000E-01
  8.50000000E-01  8.50000000E-01  8.50000000E-01  8.50000000E-01  8.50000000E-01
  8.50000000E-01  8.50000000E-01  8.50000000E-01  8.50000000E-01  8.50000000E-01
  8.50000000E-01  8.50000000E-01  8.50000000E-01  8.50000000E-01  8.50000000E-01
  8.50000000E-01  8.50000000E-01  8.50000000E-01  8.50000000E-01  8.50000000E-01
  8.50000000E-01  8.50000000E-01  8.50000000E-01  8.50000000E-01  8.50000000E-01
  8.50000000E-01  8.50000000E-01  8.50000000E-01  8.50000000E-01  8.50000000E-01
  8.50000000E-01  8.50000000E-01  8.50000000E-01  8.50000000E-01  8.50000000E-01
  8.50000000E-01  8.50000000E-01  8.50000000E-01  8.50000000E-01  8.50000000E-01
  8.50000000E-01  8.50000000E-01  8.50000000E-01  8.50000000E-01  8.50000000E-01
  8.50000000E-01  8.50000000E-01  8.50000000E-01  8.50000000E-01  8.50000000E-01
  8.50000000E-01  8.50000000E-01  8.50000000E-01  8.50000000E-01  8.50000000E-01
  8.50000000E-01  8.50000000E-01  8.50000000E-01  8.50000000E-01  8.50000000E-01
  8.50000000E-01  8.50000000E-01  8.50000000E-01  8.50000000E-01  8.50000000E-01
  8.50000000E-01  8.50000000E-01  8.50000000E-01  8.50000000E-01  8.50000000E-01
  8.50000000E-01  8.50000000E-01  8.50000000E-01  8.50000000E-01  8.50000000E-01
  8.50000000E-01  8.50000000E-01  8.50000000E-01  8.50000000E-01  8.50000000E-01
  8.50000000E-01  8.50000000E-01  8.50000000E-01  8.50000000E-01  8.50000000E-01
  8.50000000E-01  8.50000000E-01  8.50000000E-01  8.50000000E-01  8.50000000E-01
  8.50000000E-01  8.50000000E-01  8.50000000E-01  8.50000000E-01  8.50000000E-01
  8.50000000E-01  8.50000000E-01  8.50000000E-01  8.50000000E-01  8.50000000E-01
  8.50000000E-01  8.50000000E-01  8.50000000E-01  8.50000000E-01  8.50000000E-01
  8.50000000E-01  8.50000000E-01  8.50000000E-01  8.50000000E-01  8.50000000E-01
  8.50000000E-01  8.50000000E-01  8.50000000E-01  8.50000000E-01  8.50000000E-01
  8.50000000E-01  8.50000000E-01  8.50000000E-01  8.50000000E-01  8.50000000E-01
  8.50000000E-01  8.50000000E-01  8.50000000E-01  8.50000000E-01  8.50000000E-01
  8.50000000E-01  8.50000000E-01  8.50000000E-01  8.50000000E-01  8.50000000E-01
  8.50000000E-01  8.50000000E-01  8.50000000E-01  8.50000000E-01  8.50000000E-01
  8.50000000E-01  8.50000000E-01  8.50000000E-01  8.50000000E-01  8.50000000E-01
  8.50000000E-01  8.50000000E-01  8.50000000E-01  8.50000000E-01  8.50000000E-01
  8.50000000E-01  8.50000000E-01  8.50000000E-01  8.50000000E-01  8.50000000E-01
  8.50000000E-01  8.50000000E-01  8.50000000E-01  8.50000000E-01  8.50000000E-01
  8.50000000E-01  8.50000000E-01  8.50000000E-01  8.50000000E-01  8.50000000E-01
  8.50000000E-01  8.50000000E-01  8.50000000E-01  8.50000000E-01  8.50000000E-01
  8.50000000E-01  8.50000000E-01  8.50000000E-01  8.50000000E-01  8.50000000E-01
  8.50000000E-01  8.50000000E-01  8.50000000E-01  8.50000000E-01  8.50000000E-01
  8.50000000E-01  8.50000000E-01  8.50000000E-01  8.50000000E-01  8.50000000E-01
  8.50000000E-01  8.50000000E-01  8.50000000E-01  8.50000000E-01  8.50000000E-01
  8.50000000E-01  8.50000000E-01  8.50000000E-01  8.50000000E-01  8.50000000E-01
  8.50000000E-01  8.50000000E-01  8.50000000E-01  8.50000000E-01  8.50000000E-01
  8.50000000E-01  8.50000000E-01  8.50000000E-01  8.50000000E-01  8.50000000E-01
  8.50000000E-01  8.50000000E-01  8.50000000E-01  8.50000000E-01  8.50000000E-01
  8.50000000E-01  8.50000000E-01  8.50000000E-01  8.50000000E-01  8.50000000E-01
  8.50000000E-01  8.50000000E-01  8.50000000E-01  8.50000000E-01  8.50000000E-01
  8.50000000E-01  8.50000000E-01  8.50000000E-01  8.50000000E-01  8.50000000E-01
  8.50000000E-01  8.50000000E-01  8.50000000E-01  8.50000000E-01  8.50000000E-01
  8.50000000E-01  8.50000000E-01  8.50000000E-01  8.50000000E-01  8.50000000E-01
  8.50000000E-01  8.50000000E-01  8.50000000E-01  8.50000000E-01  8.50000000E-01
  8.50000000E-01  8.50000000E-01  8.50000000E-01  8.50000000E-01  8.50000000E-01
  8.50000000E-01  8.50000000E-01  8.50000000E-01  8.50000000E-01  8.50000000E-01
  8.50000000E-01  8.50000000E-01  8.50000000E-01  8.50000000E-01  8.50000000E-01
  8.50000000E-01  8.50000000E-01  8.50000000E-01  8.50000000E-01  8.50000000E-01
  8.50000000E-01  8.50000000E-01  8.50000000E-01  8.50000000E-01  8.50000000E-01
  8.50000000E-01  8.50000000E-01  8.50000000E-01  8.50000000E-01  8.50000000E-01
  8.50000000E-01  8.50000000E-01  8.50000000E-01  8.50000000E-01  8.50000000E-01
  8.50000000E-01  8.50000000E-01  8.50000000E-01  8.50000000E-01  8.50000000E-01
  8.50000000E-01  8.50000000E-01  8.50000000E-01  8.50000000E-01  8.50000000E-01
  8.50000000E-01  8.50000000E-01  8.50000000E-01  8.50000000E-01  8.50000000E-01
  8.50000000E-01  8.50000000E-01  8.50000000E-01  8.50000000E-01  8.50000000E-01
  8.50000000E-01  8.50000000E-01  8.50000000E-01  8.50000000E-01  8.50000000E-01
  8.50000000E-01  8.50000000E-01  8.50000000E-01  8.50000000E-01  8.50000000E-01
  8.50000000E-01  8.50000000E-01  8.50000000E-01  8.50000000E-01  8.50000000E-01
  8.50000000E-01  8.50000000E-01  8.50000000E-01  8.50000000E-01  8.50000000E-01
  8.50000000E-01  8.50000000E-01  8.50000000E-01  8.50000000E-01  8.50000000E-01
  8.50000000E-01  8.50000000E-01  8.50000000E-01  8.50000000E-01  8.50000000E-01
  8.50000000E-01  8.50000000E-01  8.50000000E-01  8.50000000E-01  8.50000000E-01
  8.50000000E-01  8.50000000E-01  8.50000000E-01  8.50000000E-01  8.50000000E-01
  8.50000000E-01  8.50000000E-01  8.50000000E-01  8.50000000E-01  8.50000000E-01
  8.50000000E-01  8.50000000E-01  8.50000000E-01  8.50000000E-01  8.50000000E-01
  8.50000000E-01  8.50000000E-01  8.50000000E-01  8.50000000E-01  8.50000000E-01
  8.50000000E-01  8.50000000E-01  8.50000000E-01  8.50000000E-01  8.50000000E-01
  8.50000000E-01  8.50000000E-01  8.50000000E-01  8.50000000E-01  8.50000000E-01
  8.50000000E-01  8.50000000E-01  8.50000000E-01  8.50000000E-01  8.50000000E-01
  8.50000000E-01  8.50000000E-01  8.50000000E-01  8.50000000E-01  8.50000000E-01
  8.50000000E-01  8.50000000E-01  8.50000000E-01  8.50000000E-01  8.50000000E-01
  8.50000000E-01  8.50000000E-01  8.50000000E-01  8.50000000E-01  8.50000000E-01
  8.50000000E-01  8.50000000E-01  8.50000000E-01  8.50000000E-01  8.50000000E-01
  8.50000000E-01  8.50000000E-01  8.50000000E-01  8.50000000E-01  8.50000000E-01
  8.50000000E-01  8.50000000E-01  8.50000000E-01  8.50000000E-01  8.50000000E-01
  8.50000000E-01  8.50000000E-01  8.50000000E-01  8.50000000E-01  8.50000000E-01
  8.50000000E-01  8.50000000E-01  8.50000000E-01  8.50000000E-01  8.50000000E-01
  8.50000000E-01  8.50000000E-01  8.50000000E-01  8.50000000E-01  8.50000000E-01
  8.50000000E-01  8.50000000E-01  8.50000000E-01  8.50000000E-01  8.50000000E-01
  8.50000000E-01  8.50000000E-01  8.50000000E-01  8.50000000E-01  8.50000000E-01
  8.50000000E-01  8.50000000E-01  8.50000000E-01  8.50000000E-01  8.50000000E-01
  8.50000000E-01  8.50000000E-01  8.50000000E-01  8.50000000E-01  8.50000000E-01
  8.50000000E-01  8.50000000E-01  8.50000000E-01  8.50000000E-01  8.50000000E-01
  8.50000000E-01  8.50000000E-01  8.50000000E-01  8.50000000E-01  8.50000000E-01
  8.50000000E-01  8.50000000E-01  8.50000000E-01  8.50000000E-01  8.50000000E-01
  8.50000000E-01  8.50000000E-01  8.50000000E-01  8.50000000E-01  8.50000000E-01
  8.50000000E-01  8.50000000E-01  8.50000000E-01  8.50000000E-01  8.50000000E-01
  8.50000000E-01  8.50000000E-01  8.50000000E-01  8.50000000E-01  8.50000000E-01
  8.50000000E-01  8.50000000E-01  8.50000000E-01  8.50000000E-01  8.50000000E-01
  8.50000000E-01  8.50000000E-01  8.50000000E-01  8.50000000E-01  8.50000000E-01
  8.50000000E-01  8.50000000E-01  8.50000000E-01  8.50000000E-01  8.50000000E-01
  8.50000000E-01  8.50000000E-01  8.50000000E-01  8.50000000E-01  8.50000000E-01
  8.50000000E-01  8.50000000E-01  8.50000000E-01  8.50000000E-01  8.50000000E-01
  8.50000000E-01  8.50000000E-01  8.50000000E-01  8.50000000E-01  8.50000000E-01
  8.50000000E-01  8.50000000E-01  8.50000000E-01  8.50000000E-01  8.50000000E-01
  8.50000000E-01  8.50000000E-01  8.50000000E-01  8.50000000E-01  8.50000000E-01
  8.50000000E-01  8.50000000E-01  8.50000000E-01  8.50000000E-01  8.50000000E-01
  8.50000000E-01  8.50000000E-01  8.50000000E-01  8.50000000E-01  8.50000000E-01
  8.50000000E-01  8.50000000E-01  8.50000000E-01  8.50000000E-01  8.50000000E-01
  8.50000000E-01  8.50000000E-01  8.50000000E-01  8.50000000E-01  8.50000000E-01
  8.50000000E-01  8.50000000E-01  8.50000000E-01  8.50000000E-01  8.50000000E-01
  8.50000000E-01  8.50000000E-01  8.50000000E-01  8.50000000E-01  8.50000000E-01
  8.50000000E-01  8.50000000E-01  8.50000000E-01  8.50000000E-01  8.50000000E-01
  8.50000000E-01  8.50000000E-01  8.50000000E-01  8.50000000E-01  8.50000000E-01
  8.50000000E-01  8.50000000E-01  8.50000000E-01  8.50000000E-01  8.50000000E-01
  8.50000000E-01  8.50000000E-01  8.50000000E-01  8.50000000E-01  8.50000000E-01
  8.50000000E-01  8.50000000E-01  8.50000000E-01  8.50000000E-01  8.50000000E-01
  8.50000000E-01  8.50000000E-01  8.50000000E-01  8.50000000E-01  8.50000000E-01
  8.50000000E-01  8.50000000E-01  8.50000000E-01  8.50000000E-01  8.50000000E-01
  8.50000000E-01  8.50000000E-01  8.50000000E-01  8.50000000E-01  8.50000000E-01
  8.50000000E-01  8.50000000E-01  8.50000000E-01  8.50000000E-01  8.50000000E-01
  8.50000000E-01  8.50000000E-01  8.50000000E-01  8.50000000E-01  8.50000000E-01
  8.50000000E-01  8.50000000E-01  8.50000000E-01  8.50000000E-01  8.50000000E-01
  8.50000000E-01  8.50000000E-01  8.50000000E-01  8.50000000E-01  8.50000000E-01
  8.50000000E-01  8.50000000E-01  8.50000000E-01  8.50000000E-01  8.50000000E-01
  8.50000000E-01  8.50000000E-01  8.50000000E-01  8.50000000E-01  8.50000000E-01
  8.50000000E-01  8.50000000E-01  8.50000000E-01  8.50000000E-01  8.50000000E-01
  8.50000000E-01  8.50000000E-01  8.50000000E-01  8.50000000E-01  8.50000000E-01
  8.50000000E-01  8.50000000E-01  8.50000000E-01  8.50000000E-01  8.50000000E-01
  8.50000000E-01  8.50000000E-01  8.50000000E-01  8.50000000E-01  8.50000000E-01
  8.50000000E-01  8.50000000E-01  8.50000000E-01  8.50000000E-01  8.50000000E-01
  8.50000000E-01  8.50000000E-01  8.50000000E-01  8.50000000E-01  8.50000000E-01
  8.50000000E-01  8.50000000E-01  8.50000000E-01  8.50000000E-01  8.50000000E-01
  8.50000000E-01  8.50000000E-01  8.50000000E-01  8.50000000E-01  8.50000000E-01
  8.50000000E-01  8.50000000E-01  8.50000000E-01  8.50000000E-01  8.50000000E-01
  8.50000000E-01  8.50000000E-01  8.50000000E-01  8.50000000E-01  8.50000000E-01
  8.50000000E-01  8.50000000E-01  8.50000000E-01  8.50000000E-01  8.50000000E-01
  8.50000000E-01  8.50000000E-01  8.50000000E-01  8.50000000E-01  8.50000000E-01
  8.50000000E-01  8.50000000E-01  8.50000000E-01  8.50000000E-01  8.50000000E-01
  8.50000000E-01  8.50000000E-01  8.50000000E-01  8.50000000E-01  8.50000000E-01
  8.50000000E-01  8.50000000E-01  8.50000000E-01  8.50000000E-01  8.50000000E-01
  8.50000000E-01  8.50000000E-01  8.50000000E-01  8.50000000E-01  8.50000000E-01
  8.50000000E-01  8.50000000E-01  8.50000000E-01  8.50000000E-01  8.50000000E-01
  8.50000000E-01  8.50000000E-01  8.50000000E-01  8.50000000E-01  8.50000000E-01
  8.50000000E-01  8.50000000E-01  8.50000000E-01  8.50000000E-01  8.50000000E-01
  8.50000000E-01  8.50000000E-01  8.50000000E-01  8.50000000E-01  8.50000000E-01
  8.50000000E-01  8.50000000E-01  8.50000000E-01  8.50000000E-01  8.50000000E-01
  8.50000000E-01  8.50000000E-01  8.50000000E-01  8.50000000E-01  8.50000000E-01
  8.50000000E-01  8.50000000E-01  8.50000000E-01  8.50000000E-01  8.50000000E-01
  8.50000000E-01  8.50000000E-01  8.50000000E-01  8.50000000E-01  8.50000000E-01
  8.50000000E-01  8.50000000E-01  8.50000000E-01  8.50000000E-01  8.50000000E-01
  8.50000000E-01  8.50000000E-01  8.50000000E-01  8.50000000E-01  8.50000000E-01
  8.50000000E-01  8.50000000E-01  8.50000000E-01  8.50000000E-01  8.50000000E-01
  8.50000000E-01  8.50000000E-01  8.50000000E-01  8.50000000E-01  8.50000000E-01
  8.50000000E-01  8.50000000E-01  8.50000000E-01  8.50000000E-01  8.50000000E-01
  8.50000000E-01  8.50000000E-01  8.50000000E-01  8.50000000E-01  8.50000000E-01
  8.50000000E-01  8.50000000E-01  8.50000000E-01  8.50000000E-01  8.50000000E-01
  8.50000000E-01  8.50000000E-01  8.50000000E-01  8.50000000E-01  8.50000000E-01
  8.50000000E-01  8.50000000E-01  8.50000000E-01  8.50000000E-01  8.50000000E-01
  8.50000000E-01  8.50000000E-01  8.50000000E-01  8.50000000E-01  8.50000000E-01
  8.50000000E-01  8.50000000E-01  8.50000000E-01  8.50000000E-01  8.50000000E-01
  8.50000000E-01  8.50000000E-01  8.50000000E-01  8.50000000E-01  8.50000000E-01
  8.50000000E-01  8.50000000E-01  8.50000000E-01  8.50000000E-01  8.50000000E-01
  8.50000000E-01  8.50000000E-01  8.50000000E-01  8.50000000E-01  8.50000000E-01
  8.50000000E-01  8.50000000E-01  8.50000000E-01  8.50000000E-01  8.50000000E-01
  8.50000000E-01  8.50000000E-01  8.50000000E-01  8.50000000E-01  8.50000000E-01
  8.50000000E-01  8.50000000E-01  8.50000000E-01  8.50000000E-01  8.50000000E-01
  8.50000000E-01  8.50000000E-01  8.50000000E-01  8.50000000E-01  8.50000000E-01
  8.50000000E-01  8.50000000E-01  8.50000000E-01  8.50000000E-01  8.50000000E-01
  8.50000000E-01  8.50000000E-01  8.50000000E-01  8.50000000E-01  8.50000000E-01
  8.50000000E-01  8.50000000E-01  8.50000000E-01  8.50000000E-01  8.50000000E-01
  8.50000000E-01  8.50000000E-01  8.50000000E-01  8.50000000E-01  8.50000000E-01
  8.50000000E-01  8.50000000E-01  8.50000000E-01  8.50000000E-01  8.50000000E-01
  8.50000000E-01  8.50000000E-01  8.50000000E-01  8.50000000E-01  8.50000000E-01
  8.50000000E-01  8.50000000E-01  8.50000000E-01  8.50000000E-01  8.50000000E-01
  8.50000000E-01  8.50000000E-01  8.50000000E-01  8.50000000E-01  8.50000000E-01
  8.50000000E-01  8.50000000E-01  8.50000000E-01  8.50000000E-01  8.50000000E-01
  8.50000000E-01  8.50000000E-01  8.50000000E-01  8.50000000E-01  8.50000000E-01
  8.50000000E-01  8.50000000E-01  8.50000000E-01  8.50000000E-01  8.50000000E-01
  8.50000000E-01  8.50000000E-01  8.50000000E-01  8.50000000E-01  8.50000000E-01
  8.50000000E-01  8.50000000E-01  8.50000000E-01  8.50000000E-01  8.50000000E-01
  8.50000000E-01  8.50000000E-01  8.50000000E-01  8.50000000E-01  8.50000000E-01
  8.50000000E-01  8.50000000E-01  8.50000000E-01  8.50000000E-01  8.50000000E-01
  8.50000000E-01  8.50000000E-01  8.50000000E-01  8.50000000E-01  8.50000000E-01
  8.50000000E-01  8.50000000E-01  8.50000000E-01  8.50000000E-01  8.50000000E-01
  8.50000000E-01  8.50000000E-01  8.50000000E-01  8.50000000E-01  8.50000000E-01
  8.50000000E-01  8.50000000E-01  8.50000000E-01  8.50000000E-01  8.50000000E-01
  8.50000000E-01  8.50000000E-01  8.50000000E-01  8.50000000E-01  8.50000000E-01
  8.50000000E-01  8.50000000E-01  8.50000000E-01  8.50000000E-01  8.50000000E-01
  8.50000000E-01  8.50000000E-01  8.50000000E-01  8.50000000E-01  8.50000000E-01
  8.50000000E-01  8.50000000E-01  8.50000000E-01  8.50000000E-01  8.50000000E-01
  8.50000000E-01  8.50000000E-01  8.50000000E-01  8.50000000E-01  8.50000000E-01
  8.50000000E-01  8.50000000E-01  8.50000000E-01  8.50000000E-01  8.50000000E-01
  8.50000000E-01  8.50000000E-01  8.50000000E-01  8.50000000E-01  8.50000000E-01
  8.50000000E-01  8.50000000E-01  8.50000000E-01  8.50000000E-01  8.50000000E-01
  8.50000000E-01  8.50000000E-01  8.50000000E-01  8.50000000E-01  8.50000000E-01
  8.50000000E-01  8.50000000E-01  8.50000000E-01  8.50000000E-01  8.50000000E-01
  8.50000000E-01  8.50000000E-01  8.50000000E-01  8.50000000E-01  8.50000000E-01
  8.50000000E-01  8.50000000E-01  8.50000000E-01  8.50000000E-01  8.50000000E-01
  8.50000000E-01  8.50000000E-01  8.50000000E-01  8.50000000E-01  8.50000000E-01
  8.50000000E-01  8.50000000E-01  8.50000000E-01  8.50000000E-01  8.50000000E-01
  8.50000000E-01  8.50000000E-01  8.50000000E-01  8.50000000E-01  8.50000000E-01
  8.50000000E-01  8.50000000E-01  8.50000000E-01  8.50000000E-01  8.50000000E-01
  8.50000000E-01  8.50000000E-01  8.50000000E-01  8.50000000E-01  8.50000000E-01
  8.50000000E-01  8.50000000E-01  8.50000000E-01  8.50000000E-01  8.50000000E-01
  8.50000000E-01  8.50000000E-01  8.50000000E-01  8.50000000E-01  8.50000000E-01
  8.50000000E-01  8.50000000E-01  8.50000000E-01  8.50000000E-01  8.50000000E-01
  8.50000000E-01  8.50000000E-01  8.50000000E-01  8.50000000E-01  8.50000000E-01
  8.50000000E-01  8.50000000E-01  8.50000000E-01  8.50000000E-01  8.50000000E-01
  8.50000000E-01  8.50000000E-01  8.50000000E-01  8.50000000E-01  8.50000000E-01
  8.50000000E-01  8.50000000E-01  8.50000000E-01  8.50000000E-01  8.50000000E-01
  8.50000000E-01  8.50000000E-01  8.50000000E-01  8.50000000E-01  8.50000000E-01
  8.50000000E-01  8.50000000E-01  8.50000000E-01  8.50000000E-01  8.50000000E-01
  8.50000000E-01  8.50000000E-01  8.50000000E-01  8.50000000E-01  8.50000000E-01
  8.50000000E-01  8.50000000E-01  8.50000000E-01  8.50000000E-01  8.50000000E-01
  8.50000000E-01  8.50000000E-01  8.50000000E-01  8.50000000E-01  8.50000000E-01
  8.50000000E-01  8.50000000E-01  8.50000000E-01  8.50000000E-01  8.50000000E-01
  8.50000000E-01  8.50000000E-01  8.50000000E-01  8.50000000E-01  8.50000000E-01
  8.50000000E-01  8.50000000E-01  8.50000000E-01  8.50000000E-01  8.50000000E-01
  8.50000000E-01  8.50000000E-01  8.50000000E-01  8.50000000E-01  8.50000000E-01
  8.50000000E-01  8.50000000E-01  8.50000000E-01  8.50000000E-01  8.50000000E-01
  8.50000000E-01  8.50000000E-01  8.50000000E-01  8.50000000E-01  8.50000000E-01
  8.50000000E-01  8.50000000E-01  8.50000000E-01  8.50000000E-01  8.50000000E-01
  8.50000000E-01  8.50000000E-01  8.50000000E-01  8.50000000E-01  8.50000000E-01
  8.50000000E-01  8.50000000E-01  8.50000000E-01  8.50000000E-01  8.50000000E-01
  8.50000000E-01  8.50000000E-01  8.50000000E-01  8.50000000E-01  8.50000000E-01
  8.50000000E-01  8.50000000E-01  8.50000000E-01  8.50000000E-01  8.50000000E-01
  8.50000000E-01  8.50000000E-01  8.50000000E-01  8.50000000E-01  8.50000000E-01
  8.50000000E-01  8.50000000E-01  8.50000000E-01  8.50000000E-01  8.50000000E-01
  8.50000000E-01  8.50000000E-01  8.50000000E-01  8.50000000E-01  8.50000000E-01
  8.50000000E-01  8.50000000E-01  8.50000000E-01  8.50000000E-01  8.50000000E-01
  8.50000000E-01  8.50000000E-01  8.50000000E-01  8.50000000E-01  8.50000000E-01
  8.50000000E-01  8.50000000E-01  8.50000000E-01  8.50000000E-01  8.50000000E-01
  8.50000000E-01  8.50000000E-01  8.50000000E-01  8.50000000E-01  8.50000000E-01
  8.50000000E-01  8.50000000E-01  8.50000000E-01  8.50000000E-01  8.50000000E-01
  8.50000000E-01  8.50000000E-01  8.50000000E-01  8.50000000E-01  8.50000000E-01
  8.50000000E-01  8.50000000E-01  8.50000000E-01  8.50000000E-01  8.50000000E-01
  8.50000000E-01  8.50000000E-01  8.50000000E-01  8.50000000E-01  8.50000000E-01
  8.50000000E-01  8.50000000E-01  8.50000000E-01  8.50000000E-01  8.50000000E-01
  8.50000000E-01  8.50000000E-01  8.50000000E-01  8.50000000E-01  8.50000000E-01
  8.50000000E-01  8.50000000E-01  8.50000000E-01  8.50000000E-01  8.50000000E-01
  8.50000000E-01  8.50000000E-01  8.50000000E-01  8.50000000E-01  8.50000000E-01
  8.50000000E-01  8.50000000E-01  8.50000000E-01  8.50000000E-01  8.50000000E-01
  8.50000000E-01  8.50000000E-01  8.50000000E-01  8.50000000E-01  8.50000000E-01
  8.50000000E-01  8.50000000E-01  8.50000000E-01  8.50000000E-01  8.50000000E-01
  8.50000000E-01  8.50000000E-01  8.50000000E-01  8.50000000E-01  8.50000000E-01
  8.50000000E-01  8.50000000E-01  8.50000000E-01  8.50000000E-01  8.50000000E-01
  8.50000000E-01  8.50000000E-01  8.50000000E-01  8.50000000E-01  8.50000000E-01
  8.50000000E-01  8.50000000E-01  8.50000000E-01  8.50000000E-01  8.50000000E-01
  8.50000000E-01  8.50000000E-01  8.50000000E-01  8.50000000E-01  8.50000000E-01
  8.50000000E-01  8.50000000E-01  8.50000000E-01  8.50000000E-01  8.50000000E-01
  8.50000000E-01  8.50000000E-01  8.50000000E-01  8.50000000E-01  8.50000000E-01
  8.50000000E-01  8.50000000E-01  8.50000000E-01  8.50000000E-01  8.50000000E-01
  8.50000000E-01  8.50000000E-01  8.50000000E-01  8.50000000E-01  8.50000000E-01
  8.50000000E-01  8.50000000E-01  8.50000000E-01  8.50000000E-01  8.50000000E-01
  8.50000000E-01  8.50000000E-01  8.50000000E-01  8.50000000E-01  8.50000000E-01
  8.50000000E-01  8.50000000E-01  8.50000000E-01  8.50000000E-01  8.50000000E-01
  8.50000000E-01  8.50000000E-01  8.50000000E-01  8.50000000E-01  8.50000000E-01
  8.50000000E-01  8.50000000E-01  8.50000000E-01  8.50000000E-01  8.50000000E-01
  8.50000000E-01  8.50000000E-01  8.50000000E-01  8.50000000E-01  8.50000000E-01
  8.50000000E-01  8.50000000E-01  8.50000000E-01  8.50000000E-01  8.50000000E-01
  8.50000000E-01  8.50000000E-01  8.50000000E-01  8.50000000E-01  8.50000000E-01
  8.50000000E-01  8.50000000E-01  8.50000000E-01  8.50000000E-01  8.50000000E-01
  8.50000000E-01  8.50000000E-01  8.50000000E-01  8.50000000E-01  8.50000000E-01
  8.50000000E-01  8.50000000E-01  8.50000000E-01  8.50000000E-01  8.50000000E-01
  8.50000000E-01  8.50000000E-01  8.50000000E-01  8.50000000E-01  8.50000000E-01
  8.50000000E-01  8.50000000E-01  8.50000000E-01  8.50000000E-01  8.50000000E-01
  8.50000000E-01  8.50000000E-01  8.50000000E-01  8.50000000E-01  8.50000000E-01
  8.50000000E-01  8.50000000E-01  8.50000000E-01  8.50000000E-01  8.50000000E-01
  8.50000000E-01  8.50000000E-01  8.50000000E-01  8.50000000E-01  8.50000000E-01
  8.50000000E-01  8.50000000E-01  8.50000000E-01  8.50000000E-01  8.50000000E-01
  8.50000000E-01  8.50000000E-01  8.50000000E-01  8.50000000E-01  8.50000000E-01
  8.50000000E-01  8.50000000E-01  8.50000000E-01  8.50000000E-01  8.50000000E-01
  8.50000000E-01  8.50000000E-01  8.50000000E-01  8.50000000E-01  8.50000000E-01
  8.50000000E-01  8.50000000E-01  8.50000000E-01  8.50000000E-01  8.50000000E-01
  8.50000000E-01  8.50000000E-01  8.50000000E-01  8.50000000E-01  8.50000000E-01
  8.50000000E-01  8.50000000E-01  8.50000000E-01  8.50000000E-01  8.50000000E-01
  8.50000000E-01  8.50000000E-01  8.50000000E-01  8.50000000E-01  8.50000000E-01
  8.50000000E-01  8.50000000E-01  8.50000000E-01  8.50000000E-01  8.50000000E-01
  8.50000000E-01  8.50000000E-01  8.50000000E-01  8.50000000E-01  8.50000000E-01
  8.50000000E-01  8.50000000E-01  8.50000000E-01  8.50000000E-01  8.50000000E-01
  8.50000000E-01  8.50000000E-01  8.50000000E-01  8.50000000E-01  8.50000000E-01
  8.50000000E-01  8.50000000E-01  8.50000000E-01  8.50000000E-01  8.50000000E-01
  8.50000000E-01  8.50000000E-01  8.50000000E-01  8.50000000E-01  8.50000000E-01
  8.50000000E-01  8.50000000E-01  8.50000000E-01  8.50000000E-01  8.50000000E-01
  8.50000000E-01  8.50000000E-01  8.50000000E-01  8.50000000E-01  8.50000000E-01
  8.50000000E-01  8.50000000E-01  8.50000000E-01  8.50000000E-01  8.50000000E-01
  8.50000000E-01  8.50000000E-01  8.50000000E-01  8.50000000E-01  8.50000000E-01
  8.50000000E-01  8.50000000E-01  8.50000000E-01  8.50000000E-01  8.50000000E-01
  8.50000000E-01  8.50000000E-01  8.50000000E-01  8.50000000E-01  8.50000000E-01
  8.50000000E-01  8.50000000E-01  8.50000000E-01  8.50000000E-01  8.50000000E-01
  8.50000000E-01  8.50000000E-01  8.50000000E-01  8.50000000E-01  8.50000000E-01
  8.50000000E-01  8.50000000E-01  8.50000000E-01  8.50000000E-01  8.50000000E-01
  8.50000000E-01  8.50000000E-01  8.50000000E-01  8.50000000E-01  8.50000000E-01
  8.50000000E-01  8.50000000E-01  8.50000000E-01  8.50000000E-01  8.50000000E-01
  8.50000000E-01  8.50000000E-01  8.50000000E-01  8.50000000E-01  8.50000000E-01
  8.50000000E-01  8.50000000E-01  8.50000000E-01  8.50000000E-01  8.50000000E-01
  8.50000000E-01  8.50000000E-01  8.50000000E-01  8.50000000E-01  8.50000000E-01
  8.50000000E-01  8.50000000E-01  8.50000000E-01  8.50000000E-01  8.50000000E-01
  8.50000000E-01  8.50000000E-01  8.50000000E-01  8.50000000E-01  8.50000000E-01
  8.50000000E-01  8.50000000E-01  8.50000000E-01  8.50000000E-01  8.50000000E-01
  8.50000000E-01  8.50000000E-01  8.50000000E-01  8.50000000E-01  8.50000000E-01
  8.50000000E-01  8.50000000E-01  8.50000000E-01  8.50000000E-01  8.50000000E-01
  8.50000000E-01  8.50000000E-01  8.50000000E-01  8.50000000E-01  8.50000000E-01
  8.50000000E-01  8.50000000E-01  8.50000000E-01  8.50000000E-01  8.50000000E-01
  8.50000000E-01  8.50000000E-01  8.50000000E-01  8.50000000E-01  8.50000000E-01
  8.50000000E-01  8.50000000E-01  8.50000000E-01  8.50000000E-01  8.50000000E-01
  8.50000000E-01  8.50000000E-01  8.50000000E-01  8.50000000E-01  8.50000000E-01
  8.50000000E-01  8.50000000E-01  8.50000000E-01  8.50000000E-01  8.50000000E-01
  8.50000000E-01  8.50000000E-01  8.50000000E-01  8.50000000E-01  8.50000000E-01
  8.50000000E-01  8.50000000E-01  8.50000000E-01  8.50000000E-01  8.50000000E-01
  8.50000000E-01  8.50000000E-01  8.50000000E-01  8.50000000E-01  8.50000000E-01
  8.50000000E-01  8.50000000E-01  8.50000000E-01  8.50000000E-01  8.50000000E-01
  8.50000000E-01  8.50000000E-01  8.50000000E-01  8.50000000E-01  8.50000000E-01
  8.50000000E-01  8.50000000E-01  8.50000000E-01  8.50000000E-01  8.50000000E-01
  8.50000000E-01  8.50000000E-01  8.50000000E-01  8.50000000E-01  8.50000000E-01
  8.50000000E-01  8.50000000E-01  8.50000000E-01  8.50000000E-01  8.50000000E-01
  8.50000000E-01  8.50000000E-01  8.50000000E-01  8.50000000E-01  8.50000000E-01
  8.50000000E-01  8.50000000E-01  8.50000000E-01  8.50000000E-01  8.50000000E-01
  8.50000000E-01  8.50000000E-01  8.50000000E-01  8.50000000E-01  8.50000000E-01
  8.50000000E-01  8.50000000E-01  8.50000000E-01  8.50000000E-01  8.50000000E-01
  8.50000000E-01  8.50000000E-01  8.50000000E-01  8.50000000E-01  8.50000000E-01
  8.50000000E-01  8.50000000E-01  8.50000000E-01  8.50000000E-01  8.50000000E-01
  8.50000000E-01  8.50000000E-01  8.50000000E-01  8.50000000E-01  8.50000000E-01
  8.50000000E-01  8.50000000E-01  8.50000000E-01  8.50000000E-01  8.50000000E-01
  8.50000000E-01  8.50000000E-01  8.50000000E-01  8.50000000E-01  8.50000000E-01
  8.50000000E-01  8.50000000E-01  8.50000000E-01  8.50000000E-01  8.50000000E-01
  8.50000000E-01  8.50000000E-01  8.50000000E-01  8.50000000E-01  8.50000000E-01
  8.50000000E-01  8.50000000E-01  8.50000000E-01  8.50000000E-01  8.50000000E-01
  8.50000000E-01  8.50000000E-01  8.50000000E-01  8.50000000E-01  8.50000000E-01
  8.50000000E-01  8.50000000E-01  8.50000000E-01  8.50000000E-01  8.50000000E-01
  8.50000000E-01  8.50000000E-01  8.50000000E-01  8.50000000E-01  8.50000000E-01
  8.50000000E-01  8.50000000E-01  8.50000000E-01  8.50000000E-01  8.50000000E-01
  8.50000000E-01  8.50000000E-01  8.50000000E-01  8.50000000E-01  8.50000000E-01
  8.50000000E-01  8.50000000E-01  8.50000000E-01  8.50000000E-01  8.50000000E-01
  8.50000000E-01  8.50000000E-01  8.50000000E-01  8.50000000E-01  8.50000000E-01
  8.50000000E-01  8.50000000E-01  8.50000000E-01  8.50000000E-01  8.50000000E-01
  8.50000000E-01  8.50000000E-01  8.50000000E-01  8.50000000E-01  8.50000000E-01
  8.50000000E-01  8.50000000E-01  8.50000000E-01  8.50000000E-01  8.50000000E-01
  8.50000000E-01  8.50000000E-01  8.50000000E-01  8.50000000E-01  8.50000000E-01
  8.50000000E-01  8.50000000E-01  8.50000000E-01  8.50000000E-01  8.50000000E-01
  8.50000000E-01  8.50000000E-01  8.50000000E-01  8.50000000E-01  8.50000000E-01
  8.50000000E-01  8.50000000E-01  8.50000000E-01  8.50000000E-01  8.50000000E-01
  8.50000000E-01  8.50000000E-01  8.50000000E-01  8.50000000E-01  8.50000000E-01
  8.50000000E-01  8.50000000E-01  8.50000000E-01  8.50000000E-01  8.50000000E-01
  8.50000000E-01  8.50000000E-01  8.50000000E-01  8.50000000E-01  8.50000000E-01
  8.50000000E-01  8.50000000E-01  8.50000000E-01  8.50000000E-01  8.50000000E-01
  8.50000000E-01  8.50000000E-01  8.50000000E-01  8.50000000E-01  8.50000000E-01
  8.50000000E-01  8.50000000E-01  8.50000000E-01  8.50000000E-01  8.50000000E-01
  8.50000000E-01  8.50000000E-01  8.50000000E-01  8.50000000E-01  8.50000000E-01
  8.50000000E-01  8.50000000E-01  8.50000000E-01  8.50000000E-01  8.50000000E-01
  8.50000000E-01  8.50000000E-01  8.50000000E-01  8.50000000E-01  8.50000000E-01
  8.50000000E-01  8.50000000E-01  8.50000000E-01  8.50000000E-01  8.50000000E-01
  8.50000000E-01  8.50000000E-01  8.50000000E-01  8.50000000E-01  8.50000000E-01
  8.50000000E-01  8.50000000E-01  8.50000000E-01  8.50000000E-01  8.50000000E-01
  8.50000000E-01  8.50000000E-01  8.50000000E-01  8.50000000E-01  8.50000000E-01
  8.50000000E-01  8.50000000E-01  8.50000000E-01  8.50000000E-01  8.50000000E-01
  8.50000000E-01  8.50000000E-01  8.50000000E-01  8.50000000E-01  8.50000000E-01
  8.50000000E-01  8.50000000E-01  8.50000000E-01  8.50000000E-01  8.50000000E-01
  8.50000000E-01  8.50000000E-01  8.50000000E-01  8.50000000E-01  8.50000000E-01
  8.50000000E-01  8.50000000E-01  8.50000000E-01  8.50000000E-01  8.50000000E-01
  8.50000000E-01  8.50000000E-01  8.50000000E-01  8.50000000E-01  8.50000000E-01
  8.50000000E-01  8.50000000E-01  8.50000000E-01  8.50000000E-01  8.50000000E-01
  8.50000000E-01  8.50000000E-01  8.50000000E-01  8.50000000E-01  8.50000000E-01
  8.50000000E-01  8.50000000E-01  8.50000000E-01  8.50000000E-01  8.50000000E-01
  8.50000000E-01  8.50000000E-01  8.50000000E-01  8.50000000E-01  8.50000000E-01
  8.50000000E-01  8.50000000E-01  8.50000000E-01  8.50000000E-01  8.50000000E-01
  8.50000000E-01  8.50000000E-01  8.50000000E-01  8.50000000E-01  8.50000000E-01
  8.50000000E-01  8.50000000E-01  8.50000000E-01  8.50000000E-01  8.50000000E-01
  8.50000000E-01  8.50000000E-01  8.50000000E-01  8.50000000E-01  8.50000000E-01
  8.50000000E-01  8.50000000E-01  8.50000000E-01  8.50000000E-01  8.50000000E-01
  8.50000000E-01  8.50000000E-01  8.50000000E-01  8.50000000E-01  8.50000000E-01
  8.50000000E-01  8.50000000E-01  8.50000000E-01  8.50000000E-01  8.50000000E-01
  8.50000000E-01  8.50000000E-01  8.50000000E-01  8.50000000E-01  8.50000000E-01
  8.50000000E-01  8.50000000E-01  8.50000000E-01  8.50000000E-01  8.50000000E-01
  8.50000000E-01  8.50000000E-01  8.50000000E-01  8.50000000E-01  8.50000000E-01
  8.50000000E-01  8.50000000E-01  8.50000000E-01  8.50000000E-01  8.50000000E-01
  8.50000000E-01  8.50000000E-01  8.50000000E-01  8.50000000E-01  8.50000000E-01
  8.50000000E-01  8.50000000E-01  8.50000000E-01  8.50000000E-01  8.50000000E-01
  8.50000000E-01  8.50000000E-01  8.50000000E-01  8.50000000E-01  8.50000000E-01
  8.50000000E-01  8.50000000E-01  8.50000000E-01  8.50000000E-01  8.50000000E-01
  8.50000000E-01  8.50000000E-01  8.50000000E-01  8.50000000E-01  8.50000000E-01
  8.50000000E-01  8.50000000E-01  8.50000000E-01  8.50000000E-01  8.50000000E-01
  8.50000000E-01  8.50000000E-01  8.50000000E-01  8.50000000E-01  8.50000000E-01
  8.50000000E-01  8.50000000E-01  8.50000000E-01  8.50000000E-01  8.50000000E-01
  8.50000000E-01  8.50000000E-01  8.50000000E-01  8.50000000E-01  8.50000000E-01
  8.50000000E-01  8.50000000E-01  8.50000000E-01  8.50000000E-01  8.50000000E-01
  8.50000000E-01  8.50000000E-01  8.50000000E-01  8.50000000E-01  8.50000000E-01
  8.50000000E-01  8.50000000E-01  8.50000000E-01  8.50000000E-01  8.50000000E-01
  8.50000000E-01  8.50000000E-01  8.50000000E-01  8.50000000E-01  8.50000000E-01
  8.50000000E-01  8.50000000E-01  8.50000000E-01  8.50000000E-01  8.50000000E-01
  8.50000000E-01  8.50000000E-01  8.50000000E-01  8.50000000E-01  8.50000000E-01
  8.50000000E-01  8.50000000E-01  8.50000000E-01  8.50000000E-01  8.50000000E-01
  8.50000000E-01  8.50000000E-01  8.50000000E-01  8.50000000E-01  8.50000000E-01
  8.50000000E-01  8.50000000E-01  8.50000000E-01  8.50000000E-01  8.50000000E-01
  8.50000000E-01  8.50000000E-01  8.50000000E-01  8.50000000E-01  8.50000000E-01
  8.50000000E-01  8.50000000E-01  8.50000000E-01  8.50000000E-01  8.50000000E-01
  8.50000000E-01  8.50000000E-01  8.50000000E-01  8.50000000E-01  8.50000000E-01
  8.50000000E-01  8.50000000E-01  8.50000000E-01  8.50000000E-01  8.50000000E-01
  8.50000000E-01  8.50000000E-01  8.50000000E-01  8.50000000E-01  8.50000000E-01
  8.50000000E-01  8.50000000E-01  8.50000000E-01  8.50000000E-01  8.50000000E-01
  8.50000000E-01  8.50000000E-01  8.50000000E-01  8.50000000E-01  8.50000000E-01
  8.50000000E-01  8.50000000E-01  8.50000000E-01  8.50000000E-01  8.50000000E-01
  8.50000000E-01  8.50000000E-01  8.50000000E-01  8.50000000E-01  8.50000000E-01
  8.50000000E-01  8.50000000E-01  8.50000000E-01  8.50000000E-01  8.50000000E-01
  8.50000000E-01  8.50000000E-01  8.50000000E-01  8.50000000E-01  8.50000000E-01
  8.50000000E-01  8.50000000E-01  8.50000000E-01  8.50000000E-01  8.50000000E-01
  8.50000000E-01  8.50000000E-01  8.50000000E-01  8.50000000E-01  8.50000000E-01
  8.50000000E-01  8.50000000E-01  8.50000000E-01  8.50000000E-01  8.50000000E-01
  8.50000000E-01  8.50000000E-01  8.50000000E-01  8.50000000E-01  8.50000000E-01
  8.50000000E-01  8.50000000E-01  8.50000000E-01  8.50000000E-01  8.50000000E-01
  8.50000000E-01  8.50000000E-01  8.50000000E-01  8.50000000E-01  8.50000000E-01
  8.50000000E-01  8.50000000E-01  8.50000000E-01  8.50000000E-01  8.50000000E-01
  8.50000000E-01  8.50000000E-01  8.50000000E-01  8.50000000E-01  8.50000000E-01
  8.50000000E-01  8.50000000E-01  8.50000000E-01  8.50000000E-01  8.50000000E-01
  8.50000000E-01  8.50000000E-01  8.50000000E-01  8.50000000E-01  8.50000000E-01
  8.50000000E-01  8.50000000E-01  8.50000000E-01  8.50000000E-01  8.50000000E-01
  8.50000000E-01  8.50000000E-01  8.50000000E-01  8.50000000E-01  8.50000000E-01
  8.50000000E-01  8.50000000E-01  8.50000000E-01  8.50000000E-01  8.50000000E-01
  8.50000000E-01  8.50000000E-01  8.50000000E-01  8.50000000E-01  8.50000000E-01
  8.50000000E-01  8.50000000E-01  8.50000000E-01  8.50000000E-01  8.50000000E-01
  8.50000000E-01  8.50000000E-01  8.50000000E-01  8.50000000E-01  8.50000000E-01
  8.50000000E-01  8.50000000E-01  8.50000000E-01  8.50000000E-01  8.50000000E-01
  8.50000000E-01  8.50000000E-01  8.50000000E-01  8.50000000E-01  8.50000000E-01
  8.50000000E-01  8.50000000E-01  8.50000000E-01  8.50000000E-01  8.50000000E-01
  8.50000000E-01  8.50000000E-01  8.50000000E-01  8.50000000E-01  8.50000000E-01
  8.50000000E-01  8.50000000E-01  8.50000000E-01  8.50000000E-01  8.50000000E-01
  8.50000000E-01  8.50000000E-01  8.50000000E-01  8.50000000E-01  8.50000000E-01
  8.50000000E-01  8.50000000E-01  8.50000000E-01  8.50000000E-01  8.50000000E-01
  8.50000000E-01  8.50000000E-01  8.50000000E-01  8.50000000E-01  8.50000000E-01
  8.50000000E-01  8.50000000E-01  8.50000000E-01  8.50000000E-01  8.50000000E-01
  8.50000000E-01  8.50000000E-01  8.50000000E-01  8.50000000E-01  8.50000000E-01
  8.50000000E-01  8.50000000E-01  8.50000000E-01  8.50000000E-01  8.50000000E-01
  8.50000000E-01  8.50000000E-01  8.50000000E-01  8.50000000E-01  8.50000000E-01
  8.50000000E-01  8.50000000E-01  8.50000000E-01  8.50000000E-01  8.50000000E-01
  8.50000000E-01  8.50000000E-01  8.50000000E-01  8.50000000E-01  8.50000000E-01
  8.50000000E-01  8.50000000E-01  8.50000000E-01  8.50000000E-01  8.50000000E-01
  8.50000000E-01  8.50000000E-01  8.50000000E-01  8.50000000E-01  8.50000000E-01
  8.50000000E-01  8.50000000E-01  8.50000000E-01  8.50000000E-01  8.50000000E-01
  8.50000000E-01  8.50000000E-01  8.50000000E-01  8.50000000E-01  8.50000000E-01
  8.50000000E-01  8.50000000E-01  8.50000000E-01  8.50000000E-01  8.50000000E-01
  8.50000000E-01  8.50000000E-01  8.50000000E-01  8.50000000E-01  8.50000000E-01
  8.50000000E-01  8.50000000E-01  8.50000000E-01  8.50000000E-01  8.50000000E-01
  8.50000000E-01  8.50000000E-01  8.50000000E-01  8.50000000E-01  8.50000000E-01
  8.50000000E-01  8.50000000E-01  8.50000000E-01  8.50000000E-01  8.50000000E-01
  8.50000000E-01  8.50000000E-01  8.50000000E-01  8.50000000E-01  8.50000000E-01
  8.50000000E-01  8.50000000E-01  8.50000000E-01  8.50000000E-01  8.50000000E-01
  8.50000000E-01  8.50000000E-01  8.50000000E-01  8.50000000E-01  8.50000000E-01
  8.50000000E-01  8.50000000E-01  8.50000000E-01  8.50000000E-01  8.50000000E-01
  8.50000000E-01  8.50000000E-01  8.50000000E-01  8.50000000E-01  8.50000000E-01
  8.50000000E-01  8.50000000E-01  8.50000000E-01  8.50000000E-01  8.50000000E-01
  8.50000000E-01  8.50000000E-01  8.50000000E-01  8.50000000E-01  8.50000000E-01
  8.50000000E-01  8.50000000E-01  8.50000000E-01  8.50000000E-01  8.50000000E-01
  8.50000000E-01  8.50000000E-01  8.50000000E-01  8.50000000E-01  8.50000000E-01
  8.50000000E-01  8.50000000E-01  8.50000000E-01  8.50000000E-01  8.50000000E-01
  8.50000000E-01  8.50000000E-01  8.50000000E-01  8.50000000E-01  8.50000000E-01
  8.50000000E-01  8.50000000E-01  8.50000000E-01  8.50000000E-01  8.50000000E-01
  8.50000000E-01  8.50000000E-01  8.50000000E-01  8.50000000E-01  8.50000000E-01
  8.50000000E-01  8.50000000E-01  8.50000000E-01  8.50000000E-01  8.50000000E-01
  8.50000000E-01  8.50000000E-01  8.50000000E-01  8.50000000E-01  8.50000000E-01
  8.50000000E-01  8.50000000E-01  8.50000000E-01  8.50000000E-01  8.50000000E-01
  8.50000000E-01  8.50000000E-01  8.50000000E-01  8.50000000E-01  8.50000000E-01
  8.50000000E-01  8.50000000E-01  8.50000000E-01  8.50000000E-01  8.50000000E-01
  8.50000000E-01  8.50000000E-01  8.50000000E-01  8.50000000E-01  8.50000000E-01
  8.50000000E-01  8.50000000E-01  8.50000000E-01  8.50000000E-01  8.50000000E-01
  8.50000000E-01  8.50000000E-01  8.50000000E-01  8.50000000E-01  8.50000000E-01
  8.50000000E-01  8.50000000E-01  8.50000000E-01  8.50000000E-01  8.50000000E-01
  8.50000000E-01  8.50000000E-01  8.50000000E-01  8.50000000E-01  8.50000000E-01
  8.50000000E-01  8.50000000E-01  8.50000000E-01  8.50000000E-01  8.50000000E-01
  8.50000000E-01  8.50000000E-01  8.50000000E-01  8.50000000E-01  8.50000000E-01
  8.50000000E-01  8.50000000E-01  8.50000000E-01  8.50000000E-01  8.50000000E-01
  8.50000000E-01  8.50000000E-01  8.50000000E-01  8.50000000E-01  8.50000000E-01
  8.50000000E-01  8.50000000E-01  8.50000000E-01  8.50000000E-01  8.50000000E-01
  8.50000000E-01  8.50000000E-01  8.50000000E-01  8.50000000E-01  8.50000000E-01
  8.50000000E-01  8.50000000E-01  8.50000000E-01  8.50000000E-01  8.50000000E-01
  8.50000000E-01  8.50000000E-01  8.50000000E-01  8.50000000E-01  8.50000000E-01
  8.50000000E-01  8.50000000E-01  8.50000000E-01  8.50000000E-01  8.50000000E-01
  8.50000000E-01  8.50000000E-01  8.50000000E-01  8.50000000E-01  8.50000000E-01
  8.50000000E-01  8.50000000E-01  8.50000000E-01  8.50000000E-01  8.50000000E-01
  8.50000000E-01  8.50000000E-01  8.50000000E-01  8.50000000E-01  8.50000000E-01
  8.50000000E-01  8.50000000E-01  8.50000000E-01  8.50000000E-01  8.50000000E-01
  8.50000000E-01  8.50000000E-01  8.50000000E-01  8.50000000E-01  8.50000000E-01
  8.50000000E-01  8.50000000E-01  8.50000000E-01  8.50000000E-01  8.50000000E-01
  8.50000000E-01  8.50000000E-01  8.50000000E-01  8.50000000E-01  8.50000000E-01
  8.50000000E-01  8.50000000E-01  8.50000000E-01  8.50000000E-01  8.50000000E-01
  8.50000000E-01  8.50000000E-01  8.50000000E-01  8.50000000E-01  8.50000000E-01
  8.50000000E-01  8.50000000E-01  8.50000000E-01  8.50000000E-01  8.50000000E-01
  8.50000000E-01  8.50000000E-01  8.50000000E-01  8.50000000E-01  8.50000000E-01
  8.50000000E-01  8.50000000E-01  8.50000000E-01  8.50000000E-01  8.50000000E-01
  8.50000000E-01  8.50000000E-01  8.50000000E-01  8.50000000E-01  8.50000000E-01
  8.50000000E-01  8.50000000E-01  8.50000000E-01  8.50000000E-01  8.50000000E-01
  8.50000000E-01  8.50000000E-01  8.50000000E-01  8.50000000E-01  8.50000000E-01
  8.50000000E-01  8.50000000E-01  8.50000000E-01  8.50000000E-01  8.50000000E-01
  8.50000000E-01  8.50000000E-01  8.50000000E-01  8.50000000E-01  8.50000000E-01
  8.50000000E-01  8.50000000E-01  8.50000000E-01  8.50000000E-01  8.50000000E-01
  8.50000000E-01  8.50000000E-01  8.50000000E-01  8.50000000E-01  8.50000000E-01
  8.50000000E-01  8.50000000E-01  8.50000000E-01  8.50000000E-01  8.50000000E-01
  8.50000000E-01  8.50000000E-01  8.50000000E-01  8.50000000E-01  8.50000000E-01
  8.50000000E-01  8.50000000E-01  8.50000000E-01  8.50000000E-01  8.50000000E-01
  8.50000000E-01  8.50000000E-01  8.50000000E-01  8.50000000E-01  8.50000000E-01
  8.50000000E-01  8.50000000E-01  8.50000000E-01  8.50000000E-01  8.50000000E-01
  8.50000000E-01  8.50000000E-01  8.50000000E-01  8.50000000E-01  8.50000000E-01
  8.50000000E-01  8.50000000E-01  8.50000000E-01  8.50000000E-01  8.50000000E-01
  8.50000000E-01  8.50000000E-01  8.50000000E-01  8.50000000E-01  8.50000000E-01
  8.50000000E-01  8.50000000E-01  8.50000000E-01  8.50000000E-01  8.50000000E-01
  8.50000000E-01  8.50000000E-01  8.50000000E-01  8.50000000E-01  8.50000000E-01
  8.50000000E-01  8.50000000E-01  8.50000000E-01  8.50000000E-01  8.50000000E-01
  8.50000000E-01  8.50000000E-01  8.50000000E-01  8.50000000E-01  8.50000000E-01
  8.50000000E-01  8.50000000E-01  8.50000000E-01  8.50000000E-01  8.50000000E-01
  8.50000000E-01  8.50000000E-01  8.50000000E-01  8.50000000E-01  8.50000000E-01
  8.50000000E-01  8.50000000E-01  8.50000000E-01  8.50000000E-01  8.50000000E-01
  8.50000000E-01  8.50000000E-01  8.50000000E-01  8.50000000E-01  8.50000000E-01
  8.50000000E-01  8.50000000E-01  8.50000000E-01  8.50000000E-01  8.50000000E-01
  8.50000000E-01  8.50000000E-01  8.50000000E-01  8.50000000E-01  8.50000000E-01
  8.50000000E-01  8.50000000E-01  8.50000000E-01  8.50000000E-01  8.50000000E-01
  8.50000000E-01  8.50000000E-01  8.50000000E-01  8.50000000E-01  8.50000000E-01
  8.50000000E-01  8.50000000E-01  8.50000000E-01  8.50000000E-01  8.50000000E-01
  8.50000000E-01  8.50000000E-01  8.50000000E-01  8.50000000E-01  8.50000000E-01
  8.50000000E-01  8.50000000E-01  8.50000000E-01  8.50000000E-01  8.50000000E-01
  8.50000000E-01  8.50000000E-01  8.50000000E-01  8.50000000E-01  8.50000000E-01
  8.50000000E-01  8.50000000E-01  8.50000000E-01  8.50000000E-01  8.50000000E-01
  8.50000000E-01  8.50000000E-01  8.50000000E-01  8.50000000E-01  8.50000000E-01
  8.50000000E-01  8.50000000E-01  8.50000000E-01  8.50000000E-01  8.50000000E-01
  8.50000000E-01  8.50000000E-01  8.50000000E-01  8.50000000E-01  8.50000000E-01
  8.50000000E-01  8.50000000E-01  8.50000000E-01  8.50000000E-01  8.50000000E-01
  8.50000000E-01  8.50000000E-01  8.50000000E-01  8.50000000E-01  8.50000000E-01
  8.50000000E-01  8.50000000E-01  8.50000000E-01  8.50000000E-01  8.50000000E-01
  8.50000000E-01  8.50000000E-01  8.50000000E-01  8.50000000E-01  8.50000000E-01
  8.50000000E-01  8.50000000E-01  8.50000000E-01  8.50000000E-01  8.50000000E-01
  8.50000000E-01  8.50000000E-01  8.50000000E-01  8.50000000E-01  8.50000000E-01
  8.50000000E-01  8.50000000E-01  8.50000000E-01  8.50000000E-01  8.50000000E-01
  8.50000000E-01  8.50000000E-01  8.50000000E-01  8.50000000E-01  8.50000000E-01
  8.50000000E-01  8.50000000E-01  8.50000000E-01  8.50000000E-01  8.50000000E-01
  8.50000000E-01  8.50000000E-01  8.50000000E-01  8.50000000E-01  8.50000000E-01
  8.50000000E-01  8.50000000E-01  8.50000000E-01  8.50000000E-01  8.50000000E-01
  8.50000000E-01  8.50000000E-01  8.50000000E-01  8.50000000E-01  8.50000000E-01
  8.50000000E-01  8.50000000E-01  8.50000000E-01  8.50000000E-01  8.50000000E-01
  8.50000000E-01  8.50000000E-01  8.50000000E-01  8.50000000E-01  8.50000000E-01
  8.50000000E-01  8.50000000E-01  8.50000000E-01  8.50000000E-01  8.50000000E-01
  8.50000000E-01  8.50000000E-01  8.50000000E-01  8.50000000E-01  8.50000000E-01
  8.50000000E-01  8.50000000E-01  8.50000000E-01  8.50000000E-01  8.50000000E-01
  8.50000000E-01  8.50000000E-01  8.50000000E-01  8.50000000E-01  8.50000000E-01
  8.50000000E-01  8.50000000E-01  8.50000000E-01  8.50000000E-01  8.50000000E-01
  8.50000000E-01  8.50000000E-01  8.50000000E-01  8.50000000E-01  8.50000000E-01
  8.50000000E-01  8.50000000E-01  8.50000000E-01  8.50000000E-01  8.50000000E-01
  8.50000000E-01  8.50000000E-01  8.50000000E-01  8.50000000E-01  8.50000000E-01
  8.50000000E-01  8.50000000E-01  8.50000000E-01  8.50000000E-01  8.50000000E-01
  8.50000000E-01  8.50000000E-01  8.50000000E-01  8.50000000E-01  8.50000000E-01
  8.50000000E-01  8.50000000E-01  8.50000000E-01  8.50000000E-01  8.50000000E-01
  8.50000000E-01  8.50000000E-01  8.50000000E-01  8.50000000E-01  8.50000000E-01
  8.50000000E-01  8.50000000E-01  8.50000000E-01  8.50000000E-01  8.50000000E-01
  8.50000000E-01  8.50000000E-01  8.50000000E-01  8.50000000E-01  8.50000000E-01
  8.50000000E-01  8.50000000E-01  8.50000000E-01  8.50000000E-01  8.50000000E-01
  8.50000000E-01  8.50000000E-01  8.50000000E-01  8.50000000E-01  8.50000000E-01
  8.50000000E-01  8.50000000E-01  8.50000000E-01  8.50000000E-01  8.50000000E-01
  8.50000000E-01  8.50000000E-01  8.50000000E-01  8.50000000E-01  8.50000000E-01
  8.50000000E-01  8.50000000E-01  8.50000000E-01  8.50000000E-01  8.50000000E-01
  8.50000000E-01  8.50000000E-01  8.50000000E-01  8.50000000E-01  8.50000000E-01
  8.50000000E-01  8.50000000E-01  8.50000000E-01  8.50000000E-01  8.50000000E-01
  8.50000000E-01  8.50000000E-01  8.50000000E-01  8.50000000E-01  8.50000000E-01
  8.50000000E-01  8.50000000E-01  8.50000000E-01  8.50000000E-01  8.50000000E-01
  8.50000000E-01  8.50000000E-01  8.50000000E-01  8.50000000E-01  8.50000000E-01
  8.50000000E-01  8.50000000E-01  8.50000000E-01  8.50000000E-01  8.50000000E-01
  8.50000000E-01  8.50000000E-01  8.50000000E-01  8.50000000E-01  8.50000000E-01
  8.50000000E-01  8.50000000E-01  8.50000000E-01  8.50000000E-01  8.50000000E-01
  8.50000000E-01  8.50000000E-01  8.50000000E-01  8.50000000E-01  8.50000000E-01
  8.50000000E-01  8.50000000E-01  8.50000000E-01  8.50000000E-01  8.50000000E-01
  8.50000000E-01  8.50000000E-01  8.50000000E-01  8.50000000E-01  8.50000000E-01
  8.50000000E-01  8.50000000E-01  8.50000000E-01  8.50000000E-01  8.50000000E-01
  8.50000000E-01  8.50000000E-01  8.50000000E-01  8.50000000E-01  8.50000000E-01
  8.50000000E-01  8.50000000E-01  8.50000000E-01  8.50000000E-01  8.50000000E-01
  8.50000000E-01  8.50000000E-01  8.50000000E-01  8.50000000E-01  8.50000000E-01
  8.50000000E-01  8.50000000E-01  8.50000000E-01  8.50000000E-01  8.50000000E-01
  8.50000000E-01  8.50000000E-01  8.50000000E-01  8.50000000E-01  8.50000000E-01
  8.50000000E-01  8.50000000E-01  8.50000000E-01  8.50000000E-01  8.50000000E-01
  8.50000000E-01  8.50000000E-01  8.50000000E-01  8.50000000E-01  8.50000000E-01
  8.50000000E-01  8.50000000E-01  8.50000000E-01  8.50000000E-01  8.50000000E-01
  8.50000000E-01  8.50000000E-01  8.50000000E-01  8.50000000E-01  8.50000000E-01
  8.50000000E-01  8.50000000E-01  8.50000000E-01  8.50000000E-01  8.50000000E-01
  8.50000000E-01  8.50000000E-01  8.50000000E-01  8.50000000E-01  8.50000000E-01
  8.50000000E-01  8.50000000E-01  8.50000000E-01  8.50000000E-01  8.50000000E-01
  8.50000000E-01  8.50000000E-01  8.50000000E-01  8.50000000E-01  8.50000000E-01
  8.50000000E-01  8.50000000E-01  8.50000000E-01  8.50000000E-01  8.50000000E-01
  8.50000000E-01  8.50000000E-01  8.50000000E-01  8.50000000E-01  8.50000000E-01
  8.50000000E-01  8.50000000E-01  8.50000000E-01  8.50000000E-01  8.50000000E-01
  8.50000000E-01  8.50000000E-01  8.50000000E-01  8.50000000E-01  8.50000000E-01
  8.50000000E-01  8.50000000E-01  8.50000000E-01  8.50000000E-01  8.50000000E-01
  8.50000000E-01  8.50000000E-01  8.50000000E-01  8.50000000E-01  8.50000000E-01
  8.50000000E-01  8.50000000E-01  8.50000000E-01  8.50000000E-01  8.50000000E-01
  8.50000000E-01  8.50000000E-01  8.50000000E-01  8.50000000E-01  8.50000000E-01
  8.50000000E-01  8.50000000E-01  8.50000000E-01  8.50000000E-01  8.50000000E-01
  8.50000000E-01  8.50000000E-01  8.50000000E-01  8.50000000E-01  8.50000000E-01
  8.50000000E-01  8.50000000E-01  8.50000000E-01  8.50000000E-01  8.50000000E-01
  8.50000000E-01  8.50000000E-01  8.50000000E-01  8.50000000E-01  8.50000000E-01
  8.50000000E-01  8.50000000E-01  8.50000000E-01  8.50000000E-01  8.50000000E-01
  8.50000000E-01  8.50000000E-01  8.50000000E-01  8.50000000E-01  8.50000000E-01
  8.50000000E-01  8.50000000E-01  8.50000000E-01  8.50000000E-01  8.50000000E-01
  8.50000000E-01  8.50000000E-01  8.50000000E-01  8.50000000E-01  8.50000000E-01
  8.50000000E-01  8.50000000E-01  8.50000000E-01  8.50000000E-01  8.50000000E-01
  8.50000000E-01  8.50000000E-01  8.50000000E-01  8.50000000E-01  8.50000000E-01
  8.50000000E-01  8.50000000E-01  8.50000000E-01  8.50000000E-01  8.50000000E-01
  8.50000000E-01  8.50000000E-01  8.50000000E-01  8.50000000E-01  8.50000000E-01
  8.50000000E-01  8.50000000E-01  8.50000000E-01  8.50000000E-01  8.50000000E-01
  8.50000000E-01  8.50000000E-01  8.50000000E-01  8.50000000E-01  8.50000000E-01
  8.50000000E-01  8.50000000E-01  8.50000000E-01  8.50000000E-01  8.50000000E-01
  8.50000000E-01  8.50000000E-01  8.50000000E-01  8.50000000E-01  8.50000000E-01
  8.50000000E-01  8.50000000E-01  8.50000000E-01  8.50000000E-01  8.50000000E-01
  8.50000000E-01  8.50000000E-01  8.50000000E-01  8.50000000E-01  8.50000000E-01
  8.50000000E-01  8.50000000E-01  8.50000000E-01  8.50000000E-01  8.50000000E-01
  8.50000000E-01  8.50000000E-01  8.50000000E-01  8.50000000E-01  8.50000000E-01
  8.50000000E-01  8.50000000E-01  8.50000000E-01  8.50000000E-01  8.50000000E-01
  8.50000000E-01  8.50000000E-01  8.50000000E-01  8.50000000E-01  8.50000000E-01
  8.50000000E-01  8.50000000E-01  8.50000000E-01  8.50000000E-01  8.50000000E-01
  8.50000000E-01  8.50000000E-01  8.50000000E-01  8.50000000E-01  8.50000000E-01
  8.50000000E-01  8.50000000E-01  8.50000000E-01  8.50000000E-01  8.50000000E-01
  8.50000000E-01  8.50000000E-01  8.50000000E-01  8.50000000E-01  8.50000000E-01
  8.50000000E-01  8.50000000E-01  8.50000000E-01  8.50000000E-01  8.50000000E-01
  8.50000000E-01  8.50000000E-01  8.50000000E-01  8.50000000E-01  8.50000000E-01
  8.50000000E-01  8.50000000E-01  8.50000000E-01  8.50000000E-01  8.50000000E-01
  8.50000000E-01  8.50000000E-01  8.50000000E-01  8.50000000E-01  8.50000000E-01
  8.50000000E-01  8.50000000E-01  8.50000000E-01  8.50000000E-01  8.50000000E-01
  8.50000000E-01  8.50000000E-01  8.50000000E-01  8.50000000E-01  8.50000000E-01
  8.50000000E-01  8.50000000E-01  8.50000000E-01  8.50000000E-01  8.50000000E-01
  8.50000000E-01  8.50000000E-01  8.50000000E-01  8.50000000E-01  8.50000000E-01
  8.50000000E-01  8.50000000E-01  8.50000000E-01  8.50000000E-01  8.50000000E-01
  8.50000000E-01  8.50000000E-01  8.50000000E-01  8.50000000E-01  8.50000000E-01
  8.50000000E-01  8.50000000E-01  8.50000000E-01  8.50000000E-01  8.50000000E-01
  8.50000000E-01  8.50000000E-01  8.50000000E-01  8.50000000E-01  8.50000000E-01
  8.50000000E-01  8.50000000E-01  8.50000000E-01  8.50000000E-01  8.50000000E-01
  8.50000000E-01  8.50000000E-01  8.50000000E-01  8.50000000E-01  8.50000000E-01
  8.50000000E-01  8.50000000E-01  8.50000000E-01  8.50000000E-01  8.50000000E-01
  8.50000000E-01  8.50000000E-01  8.50000000E-01  8.50000000E-01  8.50000000E-01
  8.50000000E-01  8.50000000E-01  8.50000000E-01  8.50000000E-01  8.50000000E-01
  8.50000000E-01  8.50000000E-01  8.50000000E-01  8.50000000E-01  8.50000000E-01
  8.50000000E-01  8.50000000E-01  8.50000000E-01  8.50000000E-01  8.50000000E-01
  8.50000000E-01  8.50000000E-01  8.50000000E-01  8.50000000E-01  8.50000000E-01
  8.50000000E-01  8.50000000E-01  8.50000000E-01  8.50000000E-01  8.50000000E-01
  8.50000000E-01  8.50000000E-01  8.50000000E-01  8.50000000E-01  8.50000000E-01
  8.50000000E-01  8.50000000E-01  8.50000000E-01  8.50000000E-01  8.50000000E-01
  8.50000000E-01  8.50000000E-01  8.50000000E-01  8.50000000E-01  8.50000000E-01
  8.50000000E-01  8.50000000E-01  8.50000000E-01  8.50000000E-01  8.50000000E-01
  8.50000000E-01  8.50000000E-01  8.50000000E-01  8.50000000E-01  8.50000000E-01
  8.50000000E-01  8.50000000E-01  8.50000000E-01  8.50000000E-01  8.50000000E-01
  8.50000000E-01  8.50000000E-01  8.50000000E-01  8.50000000E-01  8.50000000E-01
  8.50000000E-01  8.50000000E-01  8.50000000E-01  8.50000000E-01  8.50000000E-01
  8.50000000E-01  8.50000000E-01  8.50000000E-01  8.50000000E-01  8.50000000E-01
  8.50000000E-01  8.50000000E-01  8.50000000E-01  8.50000000E-01  8.50000000E-01
  8.50000000E-01  8.50000000E-01  8.50000000E-01  8.50000000E-01  8.50000000E-01
  8.50000000E-01  8.50000000E-01  8.50000000E-01  8.50000000E-01  8.50000000E-01
  8.50000000E-01  8.50000000E-01  8.50000000E-01  8.50000000E-01  8.50000000E-01
  8.50000000E-01  8.50000000E-01  8.50000000E-01  8.50000000E-01  8.50000000E-01
  8.50000000E-01  8.50000000E-01  8.50000000E-01  8.50000000E-01  8.50000000E-01
  8.50000000E-01  8.50000000E-01  8.50000000E-01  8.50000000E-01  8.50000000E-01
  8.50000000E-01  8.50000000E-01  8.50000000E-01  8.50000000E-01  8.50000000E-01
  8.50000000E-01  8.50000000E-01  8.50000000E-01  8.50000000E-01  8.50000000E-01
  8.50000000E-01  8.50000000E-01  8.50000000E-01  8.50000000E-01  8.50000000E-01
  8.50000000E-01  8.50000000E-01  8.50000000E-01  8.50000000E-01  8.50000000E-01
  8.50000000E-01  8.50000000E-01  8.50000000E-01  8.50000000E-01  8.50000000E-01
  8.50000000E-01  8.50000000E-01  8.50000000E-01  8.50000000E-01  8.50000000E-01
  8.50000000E-01  8.50000000E-01  8.50000000E-01  8.50000000E-01  8.50000000E-01
  8.50000000E-01  8.50000000E-01  8.50000000E-01  8.50000000E-01  8.50000000E-01
  8.50000000E-01  8.50000000E-01  8.50000000E-01  8.50000000E-01  8.50000000E-01
  8.50000000E-01  8.50000000E-01  8.50000000E-01  8.50000000E-01  8.50000000E-01
  8.50000000E-01  8.50000000E-01  8.50000000E-01  8.50000000E-01  8.50000000E-01
  8.50000000E-01  8.50000000E-01  8.50000000E-01  8.50000000E-01  8.50000000E-01
  8.50000000E-01  8.50000000E-01  8.50000000E-01  8.50000000E-01  8.50000000E-01
  8.50000000E-01  8.50000000E-01  8.50000000E-01  8.50000000E-01  8.50000000E-01
  8.50000000E-01  8.50000000E-01  8.50000000E-01  8.50000000E-01  8.50000000E-01
  8.50000000E-01  8.50000000E-01  8.50000000E-01  8.50000000E-01  8.50000000E-01
  8.50000000E-01  8.50000000E-01  8.50000000E-01  8.50000000E-01  8.50000000E-01
  8.50000000E-01  8.50000000E-01  8.50000000E-01  8.50000000E-01  8.50000000E-01
  8.50000000E-01  8.50000000E-01  8.50000000E-01  8.50000000E-01  8.50000000E-01
  8.50000000E-01  8.50000000E-01  8.50000000E-01  8.50000000E-01  8.50000000E-01
  8.50000000E-01  8.50000000E-01  8.50000000E-01  8.50000000E-01  8.50000000E-01
  8.50000000E-01  8.50000000E-01  8.50000000E-01  8.50000000E-01  8.50000000E-01
  8.50000000E-01  8.50000000E-01  8.50000000E-01  8.50000000E-01  8.50000000E-01
  8.50000000E-01  8.50000000E-01  8.50000000E-01  8.50000000E-01  8.50000000E-01
  8.50000000E-01  8.50000000E-01  8.50000000E-01  8.50000000E-01  8.50000000E-01
  8.50000000E-01  8.50000000E-01  8.50000000E-01  8.50000000E-01  8.50000000E-01
  8.50000000E-01  8.50000000E-01  8.50000000E-01  8.50000000E-01  8.50000000E-01
  8.50000000E-01  8.50000000E-01  8.50000000E-01  8.50000000E-01  8.50000000E-01
  8.50000000E-01  8.50000000E-01  8.50000000E-01  8.50000000E-01  8.50000000E-01
  8.50000000E-01  8.50000000E-01  8.50000000E-01  8.50000000E-01  8.50000000E-01
  8.50000000E-01  8.50000000E-01  8.50000000E-01  8.50000000E-01  8.50000000E-01
  8.50000000E-01  8.50000000E-01  8.50000000E-01  8.50000000E-01  8.50000000E-01
  8.50000000E-01  8.50000000E-01  8.50000000E-01  8.50000000E-01  8.50000000E-01
  8.50000000E-01  8.50000000E-01  8.50000000E-01  8.50000000E-01  8.50000000E-01
  8.50000000E-01  8.50000000E-01  8.50000000E-01  8.50000000E-01  8.50000000E-01
  8.50000000E-01  8.50000000E-01  8.50000000E-01  8.50000000E-01  8.50000000E-01
  8.50000000E-01  8.50000000E-01  8.50000000E-01  8.50000000E-01  8.50000000E-01
  8.50000000E-01  8.50000000E-01  8.50000000E-01  8.50000000E-01  8.50000000E-01
  8.50000000E-01  8.50000000E-01  8.50000000E-01  8.50000000E-01  8.50000000E-01
  8.50000000E-01  8.50000000E-01  8.50000000E-01  8.50000000E-01  8.50000000E-01
  8.50000000E-01  8.50000000E-01  8.50000000E-01  8.50000000E-01  8.50000000E-01
  8.50000000E-01  8.50000000E-01  8.50000000E-01  8.50000000E-01  8.50000000E-01
  8.50000000E-01  8.50000000E-01  8.50000000E-01  8.50000000E-01  8.50000000E-01
  8.50000000E-01  8.50000000E-01  8.50000000E-01  8.50000000E-01  8.50000000E-01
  8.50000000E-01  8.50000000E-01  8.50000000E-01  8.50000000E-01  8.50000000E-01
  8.50000000E-01  8.50000000E-01  8.50000000E-01  8.50000000E-01  8.50000000E-01
  8.50000000E-01  8.50000000E-01  8.50000000E-01  8.50000000E-01  8.50000000E-01
  8.50000000E-01  8.50000000E-01  8.50000000E-01  8.50000000E-01  8.50000000E-01
  8.50000000E-01  8.50000000E-01  8.50000000E-01  8.50000000E-01  8.50000000E-01
  8.50000000E-01  8.50000000E-01  8.50000000E-01  8.50000000E-01  8.50000000E-01
  8.50000000E-01  8.50000000E-01  8.50000000E-01  8.50000000E-01  8.50000000E-01
  8.50000000E-01  8.50000000E-01  8.50000000E-01  8.50000000E-01  8.50000000E-01
  8.50000000E-01  8.50000000E-01  8.50000000E-01  8.50000000E-01  8.50000000E-01
  8.50000000E-01  8.50000000E-01  8.50000000E-01  8.50000000E-01  8.50000000E-01
  8.50000000E-01  8.50000000E-01  8.50000000E-01  8.50000000E-01  8.50000000E-01
  8.50000000E-01  8.50000000E-01  8.50000000E-01  8.50000000E-01  8.50000000E-01
  8.50000000E-01  8.50000000E-01  8.50000000E-01  8.50000000E-01  8.50000000E-01
  8.50000000E-01  8.50000000E-01  8.50000000E-01  8.50000000E-01  8.50000000E-01
  8.50000000E-01  8.50000000E-01  8.50000000E-01  8.50000000E-01  8.50000000E-01
  8.50000000E-01  8.50000000E-01  8.50000000E-01  8.50000000E-01  8.50000000E-01
  8.50000000E-01  8.50000000E-01  8.50000000E-01  8.50000000E-01  8.50000000E-01
  8.50000000E-01  8.50000000E-01  8.50000000E-01  8.50000000E-01  8.50000000E-01
  8.50000000E-01  8.50000000E-01  8.50000000E-01  8.50000000E-01  8.50000000E-01
  8.50000000E-01  8.50000000E-01  8.50000000E-01  8.50000000E-01  8.50000000E-01
  8.50000000E-01  8.50000000E-01  8.50000000E-01  8.50000000E-01  8.50000000E-01
  8.50000000E-01  8.50000000E-01  8.50000000E-01  8.50000000E-01  8.50000000E-01
  8.50000000E-01  8.50000000E-01  8.50000000E-01  8.50000000E-01  8.50000000E-01
  8.50000000E-01  8.50000000E-01  8.50000000E-01  8.50000000E-01  8.50000000E-01
  8.50000000E-01  8.50000000E-01  8.50000000E-01  8.50000000E-01  8.50000000E-01
  8.50000000E-01  8.50000000E-01  8.50000000E-01  8.50000000E-01  8.50000000E-01
  8.50000000E-01  8.50000000E-01  8.50000000E-01  8.50000000E-01  8.50000000E-01
  8.50000000E-01  8.50000000E-01  8.50000000E-01  8.50000000E-01  8.50000000E-01
  8.50000000E-01  8.50000000E-01  8.50000000E-01  8.50000000E-01  8.50000000E-01
  8.50000000E-01  8.50000000E-01  8.50000000E-01  8.50000000E-01  8.50000000E-01
  8.50000000E-01  8.50000000E-01  8.50000000E-01  8.50000000E-01  8.50000000E-01
  8.50000000E-01  8.50000000E-01  8.50000000E-01  8.50000000E-01  8.50000000E-01
  8.50000000E-01  8.50000000E-01  8.50000000E-01  8.50000000E-01  8.50000000E-01
  8.50000000E-01  8.50000000E-01  8.50000000E-01  8.50000000E-01  8.50000000E-01
  8.50000000E-01  8.50000000E-01  8.50000000E-01  8.50000000E-01  8.50000000E-01
  8.50000000E-01  8.50000000E-01  8.50000000E-01  8.50000000E-01  8.50000000E-01
  8.50000000E-01  8.50000000E-01  8.50000000E-01  8.50000000E-01  8.50000000E-01
  8.50000000E-01  8.50000000E-01  8.50000000E-01  8.50000000E-01  8.50000000E-01
  8.50000000E-01  8.50000000E-01  8.50000000E-01  8.50000000E-01  8.50000000E-01
  8.50000000E-01  8.50000000E-01  8.50000000E-01  8.50000000E-01  8.50000000E-01
  8.50000000E-01  8.50000000E-01  8.50000000E-01  8.50000000E-01  8.50000000E-01
  8.50000000E-01  8.50000000E-01  8.50000000E-01  8.50000000E-01  8.50000000E-01
  8.50000000E-01  8.50000000E-01  8.50000000E-01  8.50000000E-01  8.50000000E-01
  8.50000000E-01  8.50000000E-01  8.50000000E-01  8.50000000E-01  8.50000000E-01
  8.50000000E-01  8.50000000E-01  8.50000000E-01  8.50000000E-01  8.50000000E-01
  8.50000000E-01  8.50000000E-01  8.50000000E-01  8.50000000E-01  8.50000000E-01
  8.50000000E-01  8.50000000E-01  8.50000000E-01  8.50000000E-01  8.50000000E-01
  8.50000000E-01  8.50000000E-01  8.50000000E-01  8.50000000E-01  8.50000000E-01
  8.50000000E-01  8.50000000E-01  8.50000000E-01  8.50000000E-01  8.50000000E-01
  8.50000000E-01  8.50000000E-01  8.50000000E-01  8.50000000E-01  8.50000000E-01
  8.50000000E-01  8.50000000E-01  8.50000000E-01  8.50000000E-01  8.50000000E-01
  8.50000000E-01  8.50000000E-01  8.50000000E-01  8.50000000E-01  8.50000000E-01
  8.50000000E-01  8.50000000E-01  8.50000000E-01  8.50000000E-01  8.50000000E-01
  8.50000000E-01  8.50000000E-01  8.50000000E-01  8.50000000E-01  8.50000000E-01
  8.50000000E-01  8.50000000E-01  8.50000000E-01  8.50000000E-01  8.50000000E-01
  8.50000000E-01  8.50000000E-01  8.50000000E-01  8.50000000E-01  8.50000000E-01
  8.50000000E-01  8.50000000E-01  8.50000000E-01  8.50000000E-01  8.50000000E-01
  8.50000000E-01  8.50000000E-01  8.50000000E-01  8.50000000E-01  8.50000000E-01
  8.50000000E-01  8.50000000E-01  8.50000000E-01  8.50000000E-01  8.50000000E-01
  8.50000000E-01  8.50000000E-01  8.50000000E-01  8.50000000E-01  8.50000000E-01
  8.50000000E-01  8.50000000E-01  8.50000000E-01  8.50000000E-01  8.50000000E-01
  8.50000000E-01  8.50000000E-01  8.50000000E-01  8.50000000E-01  8.50000000E-01
  8.50000000E-01  8.50000000E-01  8.50000000E-01  8.50000000E-01  8.50000000E-01
  8.50000000E-01  8.50000000E-01  8.50000000E-01  8.50000000E-01  8.50000000E-01
  8.50000000E-01  8.50000000E-01  8.50000000E-01  8.50000000E-01  8.50000000E-01
  8.50000000E-01  8.50000000E-01  8.50000000E-01  8.50000000E-01  8.50000000E-01
  8.50000000E-01  8.50000000E-01  8.50000000E-01  8.50000000E-01  8.50000000E-01
  8.50000000E-01  8.50000000E-01  8.50000000E-01  8.50000000E-01  8.50000000E-01
  8.50000000E-01  8.50000000E-01  8.50000000E-01  8.50000000E-01  8.50000000E-01
  8.50000000E-01  8.50000000E-01  8.50000000E-01  8.50000000E-01  8.50000000E-01
  8.50000000E-01  8.50000000E-01  8.50000000E-01  8.50000000E-01  8.50000000E-01
  8.50000000E-01  8.50000000E-01  8.50000000E-01  8.50000000E-01  8.50000000E-01
  8.50000000E-01  8.50000000E-01  8.50000000E-01  8.50000000E-01  8.50000000E-01
  8.50000000E-01  8.50000000E-01  8.50000000E-01  8.50000000E-01  8.50000000E-01
  8.50000000E-01  8.50000000E-01  8.50000000E-01  8.50000000E-01  8.50000000E-01
  8.50000000E-01  8.50000000E-01  8.50000000E-01  8.50000000E-01  8.50000000E-01
  8.50000000E-01  8.50000000E-01  8.50000000E-01  8.50000000E-01  8.50000000E-01
  8.50000000E-01  8.50000000E-01  8.50000000E-01  8.50000000E-01  8.50000000E-01
  8.50000000E-01  8.50000000E-01  8.50000000E-01  8.50000000E-01  8.50000000E-01
  8.50000000E-01  8.50000000E-01  8.50000000E-01  8.50000000E-01  8.50000000E-01
  8.50000000E-01  8.50000000E-01  8.50000000E-01  8.50000000E-01  8.50000000E-01
  8.50000000E-01  8.50000000E-01  8.50000000E-01  8.50000000E-01  8.50000000E-01
  8.50000000E-01  8.50000000E-01  8.50000000E-01  8.50000000E-01  8.50000000E-01
  8.50000000E-01  8.50000000E-01  8.50000000E-01  8.50000000E-01  8.50000000E-01
  8.50000000E-01  8.50000000E-01  8.50000000E-01  8.50000000E-01  8.50000000E-01
  8.50000000E-01  8.50000000E-01  8.50000000E-01  8.50000000E-01  8.50000000E-01
  8.50000000E-01  8.50000000E-01  8.50000000E-01  8.50000000E-01  8.50000000E-01
  8.50000000E-01  8.50000000E-01  8.50000000E-01  8.50000000E-01  8.50000000E-01
  8.50000000E-01  8.50000000E-01  8.50000000E-01  8.50000000E-01  8.50000000E-01
  8.50000000E-01  8.50000000E-01  8.50000000E-01  8.50000000E-01  8.50000000E-01
  8.50000000E-01  8.50000000E-01  8.50000000E-01  8.50000000E-01  8.50000000E-01
  8.50000000E-01  8.50000000E-01  8.50000000E-01  8.50000000E-01  8.50000000E-01
  8.50000000E-01  8.50000000E-01  8.50000000E-01  8.50000000E-01  8.50000000E-01
  8.50000000E-01  8.50000000E-01  8.50000000E-01  8.50000000E-01  8.50000000E-01
  8.50000000E-01  8.50000000E-01  8.50000000E-01  8.50000000E-01  8.50000000E-01
  8.50000000E-01  8.50000000E-01  8.50000000E-01  8.50000000E-01  8.50000000E-01
  8.50000000E-01  8.50000000E-01  8.50000000E-01  8.50000000E-01  8.50000000E-01
  8.50000000E-01  8.50000000E-01  8.50000000E-01  8.50000000E-01  8.50000000E-01
  8.50000000E-01  8.50000000E-01  8.50000000E-01  8.50000000E-01  8.50000000E-01
  8.50000000E-01  8.50000000E-01  8.50000000E-01  8.50000000E-01  8.50000000E-01
  8.50000000E-01  8.50000000E-01  8.50000000E-01  8.50000000E-01  8.50000000E-01
  8.50000000E-01  8.50000000E-01  8.50000000E-01  8.50000000E-01  8.50000000E-01
  8.50000000E-01  8.50000000E-01  8.50000000E-01  8.50000000E-01  8.50000000E-01
  8.50000000E-01  8.50000000E-01  8.50000000E-01  8.50000000E-01  8.50000000E-01
  8.50000000E-01  8.50000000E-01  8.50000000E-01  8.50000000E-01  8.50000000E-01
  8.50000000E-01  8.50000000E-01  8.50000000E-01  8.50000000E-01  8.50000000E-01
  8.50000000E-01  8.50000000E-01  8.50000000E-01  8.50000000E-01  8.50000000E-01
  8.50000000E-01  8.50000000E-01  8.50000000E-01  8.50000000E-01  8.50000000E-01
  8.50000000E-01  8.50000000E-01  8.50000000E-01  8.50000000E-01  8.50000000E-01
  8.50000000E-01  8.50000000E-01  8.50000000E-01  8.50000000E-01  8.50000000E-01
  8.50000000E-01  8.50000000E-01  8.50000000E-01  8.50000000E-01  8.50000000E-01
  8.50000000E-01  8.50000000E-01  8.50000000E-01  8.50000000E-01  8.50000000E-01
  8.50000000E-01  8.50000000E-01  8.50000000E-01  8.50000000E-01  8.50000000E-01
  8.50000000E-01  8.50000000E-01  8.50000000E-01  8.50000000E-01  8.50000000E-01
  8.50000000E-01  8.50000000E-01  8.50000000E-01  8.50000000E-01  8.50000000E-01
  8.50000000E-01  8.50000000E-01  8.50000000E-01  8.50000000E-01  8.50000000E-01
  8.50000000E-01  8.50000000E-01  8.50000000E-01  8.50000000E-01  8.50000000E-01
  8.50000000E-01  8.50000000E-01  8.50000000E-01  8.50000000E-01  8.50000000E-01
  8.50000000E-01  8.50000000E-01  8.50000000E-01  8.50000000E-01  8.50000000E-01
  8.50000000E-01  8.50000000E-01  8.50000000E-01  8.50000000E-01  8.50000000E-01
  8.50000000E-01  8.50000000E-01  8.50000000E-01  8.50000000E-01  8.50000000E-01
  8.50000000E-01  8.50000000E-01  8.50000000E-01  8.50000000E-01  8.50000000E-01
  8.50000000E-01  8.50000000E-01  8.50000000E-01  8.50000000E-01  8.50000000E-01
  8.50000000E-01  8.50000000E-01  8.50000000E-01  8.50000000E-01  8.50000000E-01
  8.50000000E-01  8.50000000E-01  8.50000000E-01  8.50000000E-01  8.50000000E-01
  8.50000000E-01  8.50000000E-01  8.50000000E-01  8.50000000E-01  8.50000000E-01
  8.50000000E-01  8.50000000E-01  8.50000000E-01  8.50000000E-01  8.50000000E-01
  8.50000000E-01  8.50000000E-01  8.50000000E-01  8.50000000E-01  8.50000000E-01
  8.50000000E-01  8.50000000E-01  8.50000000E-01  8.50000000E-01  8.50000000E-01
  8.50000000E-01  8.50000000E-01  8.50000000E-01  8.50000000E-01  8.50000000E-01
  8.50000000E-01  8.50000000E-01  8.50000000E-01  8.50000000E-01  8.50000000E-01
  8.50000000E-01  8.50000000E-01  8.50000000E-01  8.50000000E-01  8.50000000E-01
  8.50000000E-01  8.50000000E-01  8.50000000E-01  8.50000000E-01  8.50000000E-01
  8.50000000E-01  8.50000000E-01  8.50000000E-01  8.50000000E-01  8.50000000E-01
  8.50000000E-01  8.50000000E-01  8.50000000E-01  8.50000000E-01  8.50000000E-01
  8.50000000E-01  8.50000000E-01  8.50000000E-01  8.50000000E-01  8.50000000E-01
  8.50000000E-01  8.50000000E-01  8.50000000E-01  8.50000000E-01  8.50000000E-01
  8.50000000E-01  8.50000000E-01  8.50000000E-01  8.50000000E-01  8.50000000E-01
  8.50000000E-01  8.50000000E-01  8.50000000E-01  8.50000000E-01  8.50000000E-01
  8.50000000E-01  8.50000000E-01  8.50000000E-01  8.50000000E-01  8.50000000E-01
  8.50000000E-01  8.50000000E-01  8.50000000E-01  8.50000000E-01  8.50000000E-01
  8.50000000E-01  8.50000000E-01  8.50000000E-01  8.50000000E-01  8.50000000E-01
  8.50000000E-01  8.50000000E-01  8.50000000E-01  8.50000000E-01  8.50000000E-01
  8.50000000E-01  8.50000000E-01  8.50000000E-01  8.50000000E-01  8.50000000E-01
  8.50000000E-01  8.50000000E-01  8.50000000E-01  8.50000000E-01  8.50000000E-01
  8.50000000E-01  8.50000000E-01  8.50000000E-01  8.50000000E-01  8.50000000E-01
  8.50000000E-01  8.50000000E-01  8.50000000E-01  8.50000000E-01  8.50000000E-01
  8.50000000E-01  8.50000000E-01  8.50000000E-01  8.50000000E-01  8.50000000E-01
  8.50000000E-01  8.50000000E-01  8.50000000E-01  8.50000000E-01  8.50000000E-01
  8.50000000E-01  8.50000000E-01  8.50000000E-01  8.50000000E-01  8.50000000E-01
  8.50000000E-01  8.50000000E-01  8.50000000E-01  8.50000000E-01  8.50000000E-01
  8.50000000E-01  8.50000000E-01  8.50000000E-01  8.50000000E-01  8.50000000E-01
  8.50000000E-01  8.50000000E-01  8.50000000E-01  8.50000000E-01  8.50000000E-01
  8.50000000E-01  8.50000000E-01  8.50000000E-01  8.50000000E-01  8.50000000E-01
  8.50000000E-01  8.50000000E-01  8.50000000E-01  8.50000000E-01  8.50000000E-01
  8.50000000E-01  8.50000000E-01  8.50000000E-01  8.50000000E-01  8.50000000E-01
  8.50000000E-01  8.50000000E-01  8.50000000E-01  8.50000000E-01  8.50000000E-01
  8.50000000E-01  8.50000000E-01  8.50000000E-01  8.50000000E-01  8.50000000E-01
  8.50000000E-01  8.50000000E-01  8.50000000E-01  8.50000000E-01  8.50000000E-01
  8.50000000E-01  8.50000000E-01  8.50000000E-01  8.50000000E-01  8.50000000E-01
  8.50000000E-01  8.50000000E-01  8.50000000E-01  8.50000000E-01  8.50000000E-01
  8.50000000E-01  8.50000000E-01  8.50000000E-01  8.50000000E-01  8.50000000E-01
  8.50000000E-01  8.50000000E-01  8.50000000E-01  8.50000000E-01  8.50000000E-01
  8.50000000E-01  8.50000000E-01  8.50000000E-01  8.50000000E-01  8.50000000E-01
  8.50000000E-01  8.50000000E-01  8.50000000E-01  8.50000000E-01  8.50000000E-01
  8.50000000E-01  8.50000000E-01  8.50000000E-01  8.50000000E-01  8.50000000E-01
  8.50000000E-01  8.50000000E-01  8.50000000E-01  8.50000000E-01  8.50000000E-01
  8.50000000E-01  8.50000000E-01  8.50000000E-01  8.50000000E-01  8.50000000E-01
  8.50000000E-01  8.50000000E-01  8.50000000E-01  8.50000000E-01  8.50000000E-01
  8.50000000E-01  8.50000000E-01  8.50000000E-01  8.50000000E-01  8.50000000E-01
  8.50000000E-01  8.50000000E-01  8.50000000E-01  8.50000000E-01  8.50000000E-01
  8.50000000E-01  8.50000000E-01  8.50000000E-01  8.50000000E-01  8.50000000E-01
  8.50000000E-01  8.50000000E-01  8.50000000E-01  8.50000000E-01  8.50000000E-01
  8.50000000E-01  8.50000000E-01  8.50000000E-01  8.50000000E-01  8.50000000E-01
  8.50000000E-01  8.50000000E-01  8.50000000E-01  8.50000000E-01  8.50000000E-01
  8.50000000E-01  8.50000000E-01  8.50000000E-01  8.50000000E-01  8.50000000E-01
  8.50000000E-01  8.50000000E-01  8.50000000E-01  8.50000000E-01  8.50000000E-01
  8.50000000E-01  8.50000000E-01  8.50000000E-01  8.50000000E-01  8.50000000E-01
  8.50000000E-01  8.50000000E-01  8.50000000E-01  8.50000000E-01  8.50000000E-01
  8.50000000E-01  8.50000000E-01  8.50000000E-01  8.50000000E-01  8.50000000E-01
  8.50000000E-01  8.50000000E-01  8.50000000E-01  8.50000000E-01  8.50000000E-01
  8.50000000E-01  8.50000000E-01  8.50000000E-01  8.50000000E-01  8.50000000E-01
  8.50000000E-01  8.50000000E-01  8.50000000E-01  8.50000000E-01  8.50000000E-01
  8.50000000E-01  8.50000000E-01  8.50000000E-01  8.50000000E-01  8.50000000E-01
  8.50000000E-01  8.50000000E-01  8.50000000E-01  8.50000000E-01  8.50000000E-01
  8.50000000E-01  8.50000000E-01  8.50000000E-01  8.50000000E-01  8.50000000E-01
  8.50000000E-01  8.50000000E-01  8.50000000E-01  8.50000000E-01  8.50000000E-01
  8.50000000E-01  8.50000000E-01  8.50000000E-01  8.50000000E-01  8.50000000E-01
  8.50000000E-01  8.50000000E-01  8.50000000E-01  8.50000000E-01  8.50000000E-01
  8.50000000E-01  8.50000000E-01  8.50000000E-01  8.50000000E-01  8.50000000E-01
  8.50000000E-01  8.50000000E-01  8.50000000E-01  8.50000000E-01  8.50000000E-01
  8.50000000E-01  8.50000000E-01  8.50000000E-01  8.50000000E-01  8.50000000E-01
  8.50000000E-01  8.50000000E-01  8.50000000E-01  8.50000000E-01  8.50000000E-01
  8.50000000E-01  8.50000000E-01  8.50000000E-01  8.50000000E-01  8.50000000E-01
  8.50000000E-01  8.50000000E-01  8.50000000E-01  8.50000000E-01  8.50000000E-01
  8.50000000E-01  8.50000000E-01  8.50000000E-01  8.50000000E-01  8.50000000E-01
  8.50000000E-01  8.50000000E-01  8.50000000E-01  8.50000000E-01  8.50000000E-01
  8.50000000E-01  8.50000000E-01  8.50000000E-01  8.50000000E-01  8.50000000E-01
  8.50000000E-01  8.50000000E-01  8.50000000E-01  8.50000000E-01  8.50000000E-01
  8.50000000E-01  8.50000000E-01  8.50000000E-01  8.50000000E-01  8.50000000E-01
  8.50000000E-01  8.50000000E-01  8.50000000E-01  8.50000000E-01  8.50000000E-01
  8.50000000E-01  8.50000000E-01  8.50000000E-01  8.50000000E-01  8.50000000E-01
  8.50000000E-01  8.50000000E-01  8.50000000E-01  8.50000000E-01  8.50000000E-01
  8.50000000E-01  8.50000000E-01  8.50000000E-01  8.50000000E-01  8.50000000E-01
  8.50000000E-01  8.50000000E-01  8.50000000E-01  8.50000000E-01  8.50000000E-01
  8.50000000E-01  8.50000000E-01  8.50000000E-01  8.50000000E-01  8.50000000E-01
  8.50000000E-01  8.50000000E-01  8.50000000E-01  8.50000000E-01  8.50000000E-01
  8.50000000E-01  8.50000000E-01  8.50000000E-01  8.50000000E-01  8.50000000E-01
  8.50000000E-01  8.50000000E-01  8.50000000E-01  8.50000000E-01  8.50000000E-01
  8.50000000E-01  8.50000000E-01  8.50000000E-01  8.50000000E-01  8.50000000E-01
  8.50000000E-01  8.50000000E-01  8.50000000E-01  8.50000000E-01  8.50000000E-01
  8.50000000E-01  8.50000000E-01  8.50000000E-01  8.50000000E-01  8.50000000E-01
  8.50000000E-01  8.50000000E-01  8.50000000E-01  8.50000000E-01  8.50000000E-01
  8.50000000E-01  8.50000000E-01  8.50000000E-01  8.50000000E-01  8.50000000E-01
  8.50000000E-01  8.50000000E-01  8.50000000E-01  8.50000000E-01  8.50000000E-01
  8.50000000E-01  8.50000000E-01  8.50000000E-01  8.50000000E-01  8.50000000E-01
  8.50000000E-01  8.50000000E-01  8.50000000E-01  8.50000000E-01  8.50000000E-01
  8.50000000E-01  8.50000000E-01  8.50000000E-01  8.50000000E-01  8.50000000E-01
  8.50000000E-01  8.50000000E-01  8.50000000E-01  8.50000000E-01  8.50000000E-01
  8.50000000E-01  8.50000000E-01  8.50000000E-01  8.50000000E-01  8.50000000E-01
  8.50000000E-01  8.50000000E-01  8.50000000E-01  8.50000000E-01  8.50000000E-01
  8.50000000E-01  8.50000000E-01  8.50000000E-01  8.50000000E-01  8.50000000E-01
  8.50000000E-01  8.50000000E-01  8.50000000E-01  8.50000000E-01  8.50000000E-01
  8.50000000E-01  8.50000000E-01  8.50000000E-01  8.50000000E-01  8.50000000E-01
  8.50000000E-01  8.50000000E-01  8.50000000E-01  8.50000000E-01  8.50000000E-01
  8.50000000E-01  8.50000000E-01  8.50000000E-01  8.50000000E-01  8.50000000E-01
  8.50000000E-01  8.50000000E-01  8.50000000E-01  8.50000000E-01  8.50000000E-01
  8.50000000E-01  8.50000000E-01  8.50000000E-01  8.50000000E-01  8.50000000E-01
  8.50000000E-01  8.50000000E-01  8.50000000E-01  8.50000000E-01  8.50000000E-01
  8.50000000E-01  8.50000000E-01  8.50000000E-01  8.50000000E-01  8.50000000E-01
  8.50000000E-01  8.50000000E-01  8.50000000E-01  8.50000000E-01  8.50000000E-01
  8.50000000E-01  8.50000000E-01  8.50000000E-01  8.50000000E-01  8.50000000E-01
  8.50000000E-01  8.50000000E-01  8.50000000E-01  8.50000000E-01  8.50000000E-01
  8.50000000E-01  8.50000000E-01  8.50000000E-01  8.50000000E-01  8.50000000E-01
  8.50000000E-01  8.50000000E-01  8.50000000E-01  8.50000000E-01  8.50000000E-01
  8.50000000E-01  8.50000000E-01  8.50000000E-01  8.50000000E-01  8.50000000E-01
  8.50000000E-01  8.50000000E-01  8.50000000E-01  8.50000000E-01  8.50000000E-01
  8.50000000E-01  8.50000000E-01  8.50000000E-01  8.50000000E-01  8.50000000E-01
  8.50000000E-01  8.50000000E-01  8.50000000E-01  8.50000000E-01  8.50000000E-01
  8.50000000E-01  8.50000000E-01  8.50000000E-01  8.50000000E-01  8.50000000E-01
  8.50000000E-01  8.50000000E-01  8.50000000E-01  8.50000000E-01  8.50000000E-01
  8.50000000E-01  8.50000000E-01  8.50000000E-01  8.50000000E-01  8.50000000E-01
  8.50000000E-01  8.50000000E-01  8.50000000E-01  8.50000000E-01  8.50000000E-01
  8.50000000E-01  8.50000000E-01  8.50000000E-01  8.50000000E-01  8.50000000E-01
  8.50000000E-01  8.50000000E-01  8.50000000E-01  8.50000000E-01  8.50000000E-01
  8.50000000E-01  8.50000000E-01  8.50000000E-01  8.50000000E-01  8.50000000E-01
  8.50000000E-01  8.50000000E-01  8.50000000E-01  8.50000000E-01  8.50000000E-01
  8.50000000E-01  8.50000000E-01  8.50000000E-01  8.50000000E-01  8.50000000E-01
  8.50000000E-01  8.50000000E-01  8.50000000E-01  8.50000000E-01  8.50000000E-01
  8.50000000E-01  8.50000000E-01  8.50000000E-01  8.50000000E-01  8.50000000E-01
  8.50000000E-01  8.50000000E-01  8.50000000E-01  8.50000000E-01  8.50000000E-01
  8.50000000E-01  8.50000000E-01  8.50000000E-01  8.50000000E-01  8.50000000E-01
  8.50000000E-01  8.50000000E-01  8.50000000E-01  8.50000000E-01  8.50000000E-01
  8.50000000E-01  8.50000000E-01  8.50000000E-01  8.50000000E-01  8.50000000E-01
  8.50000000E-01  8.50000000E-01  8.50000000E-01  8.50000000E-01  8.50000000E-01
  8.50000000E-01  8.50000000E-01  8.50000000E-01  8.50000000E-01  8.50000000E-01
  8.50000000E-01  8.50000000E-01  8.50000000E-01  8.50000000E-01  8.50000000E-01
  8.50000000E-01  8.50000000E-01  8.50000000E-01  8.50000000E-01  8.50000000E-01
  8.50000000E-01  8.50000000E-01  8.50000000E-01  8.50000000E-01  8.50000000E-01
  8.50000000E-01  8.50000000E-01  8.50000000E-01  8.50000000E-01  8.50000000E-01
  8.50000000E-01  8.50000000E-01  8.50000000E-01  8.50000000E-01  8.50000000E-01
  8.50000000E-01  8.50000000E-01  8.50000000E-01  8.50000000E-01  8.50000000E-01
  8.50000000E-01  8.50000000E-01  8.50000000E-01  8.50000000E-01  8.50000000E-01
  8.50000000E-01  8.50000000E-01  8.50000000E-01  8.50000000E-01  8.50000000E-01
  8.50000000E-01  8.50000000E-01  8.50000000E-01  8.50000000E-01  8.50000000E-01
  8.50000000E-01  8.50000000E-01  8.50000000E-01  8.50000000E-01  8.50000000E-01
  8.50000000E-01  8.50000000E-01  8.50000000E-01  8.50000000E-01  8.50000000E-01
  8.50000000E-01  8.50000000E-01  8.50000000E-01  8.50000000E-01  8.50000000E-01
  8.50000000E-01  8.50000000E-01  8.50000000E-01  8.50000000E-01  8.50000000E-01
  8.50000000E-01  8.50000000E-01  8.50000000E-01  8.50000000E-01  8.50000000E-01
  8.50000000E-01  8.50000000E-01  8.50000000E-01  8.50000000E-01  8.50000000E-01
  8.50000000E-01  8.50000000E-01  8.50000000E-01  8.50000000E-01  8.50000000E-01
  8.50000000E-01  8.50000000E-01  8.50000000E-01  8.50000000E-01  8.50000000E-01
  8.50000000E-01  8.50000000E-01  8.50000000E-01  8.50000000E-01  8.50000000E-01
  8.50000000E-01  8.50000000E-01  8.50000000E-01  8.50000000E-01  8.50000000E-01
  8.50000000E-01  8.50000000E-01  8.50000000E-01  8.50000000E-01  8.50000000E-01
  8.50000000E-01  8.50000000E-01  8.50000000E-01  8.50000000E-01  8.50000000E-01
  8.50000000E-01  8.50000000E-01  8.50000000E-01  8.50000000E-01  8.50000000E-01
  8.50000000E-01  8.50000000E-01  8.50000000E-01  8.50000000E-01  8.50000000E-01
  8.50000000E-01  8.50000000E-01  8.50000000E-01  8.50000000E-01  8.50000000E-01
  8.50000000E-01  8.50000000E-01  8.50000000E-01  8.50000000E-01  8.50000000E-01
  8.50000000E-01  8.50000000E-01  8.50000000E-01  8.50000000E-01  8.50000000E-01
  8.50000000E-01  8.50000000E-01  8.50000000E-01  8.50000000E-01  8.50000000E-01
  8.50000000E-01  8.50000000E-01  8.50000000E-01  8.50000000E-01  8.50000000E-01
  8.50000000E-01  8.50000000E-01  8.50000000E-01  8.50000000E-01  8.50000000E-01
  8.50000000E-01  8.50000000E-01  8.50000000E-01  8.50000000E-01  8.50000000E-01
  8.50000000E-01  8.50000000E-01  8.50000000E-01  8.50000000E-01  8.50000000E-01
  8.50000000E-01  8.50000000E-01  8.50000000E-01  8.50000000E-01  8.50000000E-01
  8.50000000E-01  8.50000000E-01  8.50000000E-01  8.50000000E-01  8.50000000E-01
  8.50000000E-01  8.50000000E-01  8.50000000E-01  8.50000000E-01  8.50000000E-01
  8.50000000E-01  8.50000000E-01  8.50000000E-01  8.50000000E-01  8.50000000E-01
  8.50000000E-01  8.50000000E-01  8.50000000E-01  8.50000000E-01  8.50000000E-01
  8.50000000E-01  8.50000000E-01  8.50000000E-01  8.50000000E-01  8.50000000E-01
  8.50000000E-01  8.50000000E-01  8.50000000E-01  8.50000000E-01  8.50000000E-01
  8.50000000E-01  8.50000000E-01  8.50000000E-01  8.50000000E-01  8.50000000E-01
  8.50000000E-01  8.50000000E-01  8.50000000E-01  8.50000000E-01  8.50000000E-01
  8.50000000E-01  8.50000000E-01  8.50000000E-01  8.50000000E-01  8.50000000E-01
  8.50000000E-01  8.50000000E-01  8.50000000E-01  8.50000000E-01  8.50000000E-01
  8.50000000E-01  8.50000000E-01  8.50000000E-01  8.50000000E-01  8.50000000E-01
  8.50000000E-01  8.50000000E-01  8.50000000E-01  8.50000000E-01  8.50000000E-01
  8.50000000E-01  8.50000000E-01  8.50000000E-01  8.50000000E-01  8.50000000E-01
  8.50000000E-01  8.50000000E-01  8.50000000E-01  8.50000000E-01  8.50000000E-01
  8.50000000E-01  8.50000000E-01  8.50000000E-01  8.50000000E-01  8.50000000E-01
  8.50000000E-01  8.50000000E-01  8.50000000E-01  8.50000000E-01  8.50000000E-01
  8.50000000E-01  8.50000000E-01  8.50000000E-01  8.50000000E-01  8.50000000E-01
  8.50000000E-01  8.50000000E-01  8.50000000E-01  8.50000000E-01  8.50000000E-01
  8.50000000E-01  8.50000000E-01  8.50000000E-01  8.50000000E-01  8.50000000E-01
  8.50000000E-01  8.50000000E-01  8.50000000E-01  8.50000000E-01  8.50000000E-01
  8.50000000E-01  8.50000000E-01  8.50000000E-01  8.50000000E-01  8.50000000E-01
  8.50000000E-01  8.50000000E-01  8.50000000E-01  8.50000000E-01  8.50000000E-01
  8.50000000E-01  8.50000000E-01  8.50000000E-01  8.50000000E-01  8.50000000E-01
  8.50000000E-01  8.50000000E-01  8.50000000E-01  8.50000000E-01  8.50000000E-01
  8.50000000E-01  8.50000000E-01  8.50000000E-01  8.50000000E-01  8.50000000E-01
  8.50000000E-01  8.50000000E-01  8.50000000E-01  8.50000000E-01  8.50000000E-01
  8.50000000E-01  8.50000000E-01  8.50000000E-01  8.50000000E-01  8.50000000E-01
  8.50000000E-01  8.50000000E-01  8.50000000E-01  8.50000000E-01  8.50000000E-01
  8.50000000E-01  8.50000000E-01  8.50000000E-01  8.50000000E-01  8.50000000E-01
  8.50000000E-01  8.50000000E-01  8.50000000E-01  8.50000000E-01  8.50000000E-01
  8.50000000E-01  8.50000000E-01  8.50000000E-01  8.50000000E-01  8.50000000E-01
  8.50000000E-01  8.50000000E-01  8.50000000E-01  8.50000000E-01  8.50000000E-01
  8.50000000E-01  8.50000000E-01  8.50000000E-01  8.50000000E-01  8.50000000E-01
  8.50000000E-01  8.50000000E-01  8.50000000E-01  8.50000000E-01  8.50000000E-01
  8.50000000E-01  8.50000000E-01  8.50000000E-01  8.50000000E-01  8.50000000E-01
  8.50000000E-01  8.50000000E-01  8.50000000E-01  8.50000000E-01  8.50000000E-01
  8.50000000E-01  8.50000000E-01  8.50000000E-01  8.50000000E-01  8.50000000E-01
  8.50000000E-01  8.50000000E-01  8.50000000E-01  8.50000000E-01  8.50000000E-01
  8.50000000E-01  8.50000000E-01  8.50000000E-01  8.50000000E-01  8.50000000E-01
  8.50000000E-01  8.50000000E-01  8.50000000E-01  8.50000000E-01  8.50000000E-01
  8.50000000E-01  8.50000000E-01  8.50000000E-01  8.50000000E-01  8.50000000E-01
  8.50000000E-01  8.50000000E-01  8.50000000E-01  8.50000000E-01  8.50000000E-01
  8.50000000E-01  8.50000000E-01  8.50000000E-01  8.50000000E-01  8.50000000E-01
  8.50000000E-01  8.50000000E-01  8.50000000E-01  8.50000000E-01  8.50000000E-01
  8.50000000E-01  8.50000000E-01  8.50000000E-01  8.50000000E-01  8.50000000E-01
  8.50000000E-01  8.50000000E-01  8.50000000E-01  8.50000000E-01  8.50000000E-01
  8.50000000E-01  8.50000000E-01  8.50000000E-01  8.50000000E-01  8.50000000E-01
  8.50000000E-01  8.50000000E-01  8.50000000E-01  8.50000000E-01  8.50000000E-01
  8.50000000E-01  8.50000000E-01  8.50000000E-01  8.50000000E-01  8.50000000E-01
  8.50000000E-01  8.50000000E-01  8.50000000E-01  8.50000000E-01  8.50000000E-01
  8.50000000E-01  8.50000000E-01  8.50000000E-01  8.50000000E-01  8.50000000E-01
  8.50000000E-01  8.50000000E-01  8.50000000E-01  8.50000000E-01  8.50000000E-01
  8.50000000E-01  8.50000000E-01  8.50000000E-01  8.50000000E-01  8.50000000E-01
  8.50000000E-01  8.50000000E-01  8.50000000E-01  8.50000000E-01  8.50000000E-01
  8.50000000E-01  8.50000000E-01  8.50000000E-01  8.50000000E-01  8.50000000E-01
  8.50000000E-01  8.50000000E-01  8.50000000E-01  8.50000000E-01  8.50000000E-01
  8.50000000E-01  8.50000000E-01  8.50000000E-01  8.50000000E-01  8.50000000E-01
  8.50000000E-01  8.50000000E-01  8.50000000E-01  8.50000000E-01  8.50000000E-01
  8.50000000E-01  8.50000000E-01  8.50000000E-01  8.50000000E-01  8.50000000E-01
  8.50000000E-01  8.50000000E-01  8.50000000E-01  8.50000000E-01  8.50000000E-01
  8.50000000E-01  8.50000000E-01  8.50000000E-01  8.50000000E-01  8.50000000E-01
  8.50000000E-01  8.50000000E-01  8.50000000E-01  8.50000000E-01  8.50000000E-01
  8.50000000E-01  8.50000000E-01  8.50000000E-01  8.50000000E-01  8.50000000E-01
  8.50000000E-01  8.50000000E-01  8.50000000E-01  8.50000000E-01  8.50000000E-01
  8.50000000E-01  8.50000000E-01  8.50000000E-01  8.50000000E-01  8.50000000E-01
  8.50000000E-01  8.50000000E-01  8.50000000E-01  8.50000000E-01  8.50000000E-01
  8.50000000E-01  8.50000000E-01  8.50000000E-01  8.50000000E-01  8.50000000E-01
  8.50000000E-01  8.50000000E-01  8.50000000E-01  8.50000000E-01  8.50000000E-01
  8.50000000E-01  8.50000000E-01  8.50000000E-01  8.50000000E-01  8.50000000E-01
  8.50000000E-01  8.50000000E-01  8.50000000E-01  8.50000000E-01  8.50000000E-01
  8.50000000E-01  8.50000000E-01  8.50000000E-01  8.50000000E-01  8.50000000E-01
  8.50000000E-01  8.50000000E-01  8.50000000E-01  8.50000000E-01  8.50000000E-01
  8.50000000E-01  8.50000000E-01  8.50000000E-01  8.50000000E-01  8.50000000E-01
  8.50000000E-01  8.50000000E-01  8.50000000E-01  8.50000000E-01  8.50000000E-01
  8.50000000E-01  8.50000000E-01  8.50000000E-01  8.50000000E-01  8.50000000E-01
  8.50000000E-01  8.50000000E-01  8.50000000E-01  8.50000000E-01  8.50000000E-01
  8.50000000E-01  8.50000000E-01  8.50000000E-01  8.50000000E-01  8.50000000E-01
  8.50000000E-01  8.50000000E-01  8.50000000E-01  8.50000000E-01  8.50000000E-01
  8.50000000E-01  8.50000000E-01  8.50000000E-01  8.50000000E-01  8.50000000E-01
  8.50000000E-01  8.50000000E-01  8.50000000E-01  8.50000000E-01  8.50000000E-01
  8.50000000E-01  8.50000000E-01  8.50000000E-01  8.50000000E-01  8.50000000E-01
  8.50000000E-01  8.50000000E-01  8.50000000E-01  8.50000000E-01  8.50000000E-01
  8.50000000E-01  8.50000000E-01  8.50000000E-01  8.50000000E-01  8.50000000E-01
  8.50000000E-01  8.50000000E-01  8.50000000E-01  8.50000000E-01  8.50000000E-01
  8.50000000E-01  8.50000000E-01  8.50000000E-01  8.50000000E-01  8.50000000E-01
  8.50000000E-01  8.50000000E-01  8.50000000E-01  8.50000000E-01  8.50000000E-01
  8.50000000E-01  8.50000000E-01  8.50000000E-01  8.50000000E-01  8.50000000E-01
  8.50000000E-01  8.50000000E-01  8.50000000E-01  8.50000000E-01  8.50000000E-01
  8.50000000E-01  8.50000000E-01  8.50000000E-01  8.50000000E-01  8.50000000E-01
  8.50000000E-01  8.50000000E-01  8.50000000E-01  8.50000000E-01  8.50000000E-01
  8.50000000E-01  8.50000000E-01  8.50000000E-01  8.50000000E-01  8.50000000E-01
  8.50000000E-01  8.50000000E-01  8.50000000E-01  8.50000000E-01  8.50000000E-01
  8.50000000E-01  8.50000000E-01  8.50000000E-01  8.50000000E-01  8.50000000E-01
  8.50000000E-01  8.50000000E-01  8.50000000E-01  8.50000000E-01  8.50000000E-01
  8.50000000E-01  8.50000000E-01  8.50000000E-01  8.50000000E-01  8.50000000E-01
  8.50000000E-01  8.50000000E-01  8.50000000E-01  8.50000000E-01  8.50000000E-01
  8.50000000E-01  8.50000000E-01  8.50000000E-01  8.50000000E-01  8.50000000E-01
  8.50000000E-01  8.50000000E-01  8.50000000E-01  8.50000000E-01  8.50000000E-01
  8.50000000E-01  8.50000000E-01  8.50000000E-01  8.50000000E-01  8.50000000E-01
  8.50000000E-01  8.50000000E-01  8.50000000E-01  8.50000000E-01  8.50000000E-01
  8.50000000E-01  8.50000000E-01  8.50000000E-01  8.50000000E-01  8.50000000E-01
  8.50000000E-01  8.50000000E-01  8.50000000E-01  8.50000000E-01  8.50000000E-01
  8.50000000E-01  8.50000000E-01  8.50000000E-01  8.50000000E-01  8.50000000E-01
  8.50000000E-01  8.50000000E-01  8.50000000E-01  8.50000000E-01  8.50000000E-01
  8.50000000E-01  8.50000000E-01  8.50000000E-01  8.50000000E-01  8.50000000E-01
  8.50000000E-01  8.50000000E-01  8.50000000E-01  8.50000000E-01  8.50000000E-01
  8.50000000E-01  8.50000000E-01  8.50000000E-01  8.50000000E-01  8.50000000E-01
  8.50000000E-01  8.50000000E-01  8.50000000E-01  8.50000000E-01  8.50000000E-01
  8.50000000E-01  8.50000000E-01  8.50000000E-01  8.50000000E-01  8.50000000E-01
  8.50000000E-01  8.50000000E-01  8.50000000E-01  8.50000000E-01  8.50000000E-01
  8.50000000E-01  8.50000000E-01  8.50000000E-01  8.50000000E-01  8.50000000E-01
  8.50000000E-01  8.50000000E-01  8.50000000E-01  8.50000000E-01  8.50000000E-01
  8.50000000E-01  8.50000000E-01  8.50000000E-01  8.50000000E-01  8.50000000E-01
  8.50000000E-01  8.50000000E-01  8.50000000E-01  8.50000000E-01  8.50000000E-01
  8.50000000E-01  8.50000000E-01  8.50000000E-01  8.50000000E-01  8.50000000E-01
  8.50000000E-01  8.50000000E-01  8.50000000E-01  8.50000000E-01  8.50000000E-01
  8.50000000E-01  8.50000000E-01  8.50000000E-01  8.50000000E-01  8.50000000E-01
  8.50000000E-01  8.50000000E-01  8.50000000E-01  8.50000000E-01  8.50000000E-01
  8.50000000E-01  8.50000000E-01  8.50000000E-01  8.50000000E-01  8.50000000E-01
  8.50000000E-01  8.50000000E-01  8.50000000E-01  8.50000000E-01  8.50000000E-01
  8.50000000E-01  8.50000000E-01  8.50000000E-01  8.50000000E-01  8.50000000E-01
  8.50000000E-01  8.50000000E-01  8.50000000E-01  8.50000000E-01  8.50000000E-01
  8.50000000E-01  8.50000000E-01  8.50000000E-01  8.50000000E-01  8.50000000E-01
  8.50000000E-01  8.50000000E-01  8.50000000E-01  8.50000000E-01  8.50000000E-01
  8.50000000E-01  8.50000000E-01  8.50000000E-01  8.50000000E-01  8.50000000E-01
  8.50000000E-01  8.50000000E-01  8.50000000E-01  8.50000000E-01  8.50000000E-01
  8.50000000E-01  8.50000000E-01  8.50000000E-01  8.50000000E-01  8.50000000E-01
  8.50000000E-01  8.50000000E-01  8.50000000E-01  8.50000000E-01  8.50000000E-01
  8.50000000E-01  8.50000000E-01  8.50000000E-01  8.50000000E-01  8.50000000E-01
  8.50000000E-01  8.50000000E-01  8.50000000E-01  8.50000000E-01  8.50000000E-01
  8.50000000E-01  8.50000000E-01  8.50000000E-01  8.50000000E-01  8.50000000E-01
  8.50000000E-01  8.50000000E-01  8.50000000E-01  8.50000000E-01  8.50000000E-01
  8.50000000E-01  8.50000000E-01  8.50000000E-01  8.50000000E-01  8.50000000E-01
  8.50000000E-01  8.50000000E-01  8.50000000E-01  8.50000000E-01  8.50000000E-01
  8.50000000E-01  8.50000000E-01  8.50000000E-01  8.50000000E-01  8.50000000E-01
  8.50000000E-01  8.50000000E-01  8.50000000E-01  8.50000000E-01  8.50000000E-01
  8.50000000E-01  8.50000000E-01  8.50000000E-01  8.50000000E-01  8.50000000E-01
  8.50000000E-01  8.50000000E-01  8.50000000E-01  8.50000000E-01  8.50000000E-01
  8.50000000E-01  8.50000000E-01  8.50000000E-01  8.50000000E-01  8.50000000E-01
  8.50000000E-01  8.50000000E-01  8.50000000E-01  8.50000000E-01  8.50000000E-01
  8.50000000E-01  8.50000000E-01  8.50000000E-01  8.50000000E-01  8.50000000E-01
  8.50000000E-01  8.50000000E-01  8.50000000E-01  8.50000000E-01  8.50000000E-01
  8.50000000E-01  8.50000000E-01  8.50000000E-01  8.50000000E-01  8.50000000E-01
  8.50000000E-01  8.50000000E-01  8.50000000E-01  8.50000000E-01  8.50000000E-01
  8.50000000E-01  8.50000000E-01  8.50000000E-01  8.50000000E-01  8.50000000E-01
  8.50000000E-01  8.50000000E-01  8.50000000E-01  8.50000000E-01  8.50000000E-01
  8.50000000E-01  8.50000000E-01  8.50000000E-01  8.50000000E-01  8.50000000E-01
  8.50000000E-01  8.50000000E-01  8.50000000E-01  8.50000000E-01  8.50000000E-01
  8.50000000E-01  8.50000000E-01  8.50000000E-01  8.50000000E-01  8.50000000E-01
  8.50000000E-01  8.50000000E-01  8.50000000E-01  8.50000000E-01  8.50000000E-01
  8.50000000E-01  8.50000000E-01  8.50000000E-01  8.50000000E-01  8.50000000E-01
  8.50000000E-01  8.50000000E-01  8.50000000E-01  8.50000000E-01  8.50000000E-01
  8.50000000E-01  8.50000000E-01  8.50000000E-01  8.50000000E-01  8.50000000E-01
  8.50000000E-01  8.50000000E-01  8.50000000E-01  8.50000000E-01  8.50000000E-01
  8.50000000E-01  8.50000000E-01  8.50000000E-01  8.50000000E-01  8.50000000E-01
  8.50000000E-01  8.50000000E-01  8.50000000E-01  8.50000000E-01  8.50000000E-01
  8.50000000E-01  8.50000000E-01  8.50000000E-01  8.50000000E-01  8.50000000E-01
  8.50000000E-01  8.50000000E-01  8.50000000E-01  8.50000000E-01  8.50000000E-01
  8.50000000E-01  8.50000000E-01  8.50000000E-01  8.50000000E-01  8.50000000E-01
  8.50000000E-01  8.50000000E-01  8.50000000E-01  8.50000000E-01  8.50000000E-01
  8.50000000E-01  8.50000000E-01  8.50000000E-01  8.50000000E-01  8.50000000E-01
  8.50000000E-01  8.50000000E-01  8.50000000E-01  8.50000000E-01  8.50000000E-01
  8.50000000E-01  8.50000000E-01  8.50000000E-01  8.50000000E-01  8.50000000E-01
  8.50000000E-01  8.50000000E-01  8.50000000E-01  8.50000000E-01  8.50000000E-01
  8.50000000E-01  8.50000000E-01  8.50000000E-01  8.50000000E-01  8.50000000E-01
  8.50000000E-01  8.50000000E-01  8.50000000E-01  8.50000000E-01  8.50000000E-01
  8.50000000E-01  8.50000000E-01  8.50000000E-01  8.50000000E-01  8.50000000E-01
  8.50000000E-01  8.50000000E-01  8.50000000E-01  8.50000000E-01  8.50000000E-01
  8.50000000E-01  8.50000000E-01  8.50000000E-01  8.50000000E-01  8.50000000E-01
  8.50000000E-01  8.50000000E-01  8.50000000E-01  8.50000000E-01  8.50000000E-01
  8.50000000E-01  8.50000000E-01  8.50000000E-01  8.50000000E-01  8.50000000E-01
  8.50000000E-01  8.50000000E-01  8.50000000E-01  8.50000000E-01  8.50000000E-01
  8.50000000E-01  8.50000000E-01  8.50000000E-01  8.50000000E-01  8.50000000E-01
  8.50000000E-01  8.50000000E-01  8.50000000E-01  8.50000000E-01  8.50000000E-01
  8.50000000E-01  8.50000000E-01  8.50000000E-01  8.50000000E-01  8.50000000E-01
  8.50000000E-01  8.50000000E-01  8.50000000E-01  8.50000000E-01  8.50000000E-01
  8.50000000E-01  8.50000000E-01  8.50000000E-01  8.50000000E-01  8.50000000E-01
  8.50000000E-01  8.50000000E-01  8.50000000E-01  8.50000000E-01  8.50000000E-01
  8.50000000E-01  8.50000000E-01  8.50000000E-01  8.50000000E-01  8.50000000E-01
  8.50000000E-01  8.50000000E-01  8.50000000E-01  8.50000000E-01  8.50000000E-01
  8.50000000E-01  8.50000000E-01  8.50000000E-01  8.50000000E-01  8.50000000E-01
  8.50000000E-01  8.50000000E-01  8.50000000E-01  8.50000000E-01  8.50000000E-01
  8.50000000E-01  8.50000000E-01  8.50000000E-01  8.50000000E-01  8.50000000E-01
  8.50000000E-01  8.50000000E-01  8.50000000E-01  8.50000000E-01  8.50000000E-01
  8.50000000E-01  8.50000000E-01  8.50000000E-01  8.50000000E-01  8.50000000E-01
  8.50000000E-01  8.50000000E-01  8.50000000E-01  8.50000000E-01  8.50000000E-01
  8.50000000E-01  8.50000000E-01  8.50000000E-01  8.50000000E-01  8.50000000E-01
  8.50000000E-01  8.50000000E-01  8.50000000E-01  8.50000000E-01  8.50000000E-01
  8.50000000E-01  8.50000000E-01  8.50000000E-01  8.50000000E-01  8.50000000E-01
  8.50000000E-01  8.50000000E-01  8.50000000E-01  8.50000000E-01  8.50000000E-01
  8.50000000E-01  8.50000000E-01  8.50000000E-01  8.50000000E-01  8.50000000E-01
  8.50000000E-01  8.50000000E-01  8.50000000E-01  8.50000000E-01  8.50000000E-01
  8.50000000E-01  8.50000000E-01  8.50000000E-01  8.50000000E-01  8.50000000E-01
  8.50000000E-01  8.50000000E-01  8.50000000E-01  8.50000000E-01  8.50000000E-01
  8.50000000E-01  8.50000000E-01  8.50000000E-01  8.50000000E-01  8.50000000E-01
  8.50000000E-01  8.50000000E-01  8.50000000E-01  8.50000000E-01  8.50000000E-01
  8.50000000E-01  8.50000000E-01  8.50000000E-01  8.50000000E-01  8.50000000E-01
  8.50000000E-01  8.50000000E-01  8.50000000E-01  8.50000000E-01  8.50000000E-01
  8.50000000E-01  8.50000000E-01  8.50000000E-01  8.50000000E-01  8.50000000E-01
  8.50000000E-01  8.50000000E-01  8.50000000E-01  8.50000000E-01  8.50000000E-01
  8.50000000E-01  8.50000000E-01  8.50000000E-01  8.50000000E-01  8.50000000E-01
  8.50000000E-01  8.50000000E-01  8.50000000E-01  8.50000000E-01  8.50000000E-01
  8.50000000E-01  8.50000000E-01  8.50000000E-01  8.50000000E-01  8.50000000E-01
  8.50000000E-01  8.50000000E-01  8.50000000E-01  8.50000000E-01  8.50000000E-01
  8.50000000E-01  8.50000000E-01  8.50000000E-01  8.50000000E-01  8.50000000E-01
  8.50000000E-01  8.50000000E-01  8.50000000E-01  8.50000000E-01  8.50000000E-01
  8.50000000E-01  8.50000000E-01  8.50000000E-01  8.50000000E-01  8.50000000E-01
  8.50000000E-01  8.50000000E-01  8.50000000E-01  8.50000000E-01  8.50000000E-01
  8.50000000E-01  8.50000000E-01  8.50000000E-01  8.50000000E-01  8.50000000E-01
  8.50000000E-01  8.50000000E-01  8.50000000E-01  8.50000000E-01  8.50000000E-01
  8.50000000E-01  8.50000000E-01  8.50000000E-01  8.50000000E-01  8.50000000E-01
  8.50000000E-01  8.50000000E-01  8.50000000E-01  8.50000000E-01  8.50000000E-01
  8.50000000E-01  8.50000000E-01  8.50000000E-01  8.50000000E-01  8.50000000E-01
  8.50000000E-01  8.50000000E-01  8.50000000E-01  8.50000000E-01  8.50000000E-01
  8.50000000E-01  8.50000000E-01  8.50000000E-01  8.50000000E-01  8.50000000E-01
  8.50000000E-01  8.50000000E-01  8.50000000E-01  8.50000000E-01  8.50000000E-01
  8.50000000E-01  8.50000000E-01  8.50000000E-01  8.50000000E-01  8.50000000E-01
  8.50000000E-01  8.50000000E-01  8.50000000E-01  8.50000000E-01  8.50000000E-01
  8.50000000E-01  8.50000000E-01  8.50000000E-01  8.50000000E-01  8.50000000E-01
  8.50000000E-01  8.50000000E-01  8.50000000E-01  8.50000000E-01  8.50000000E-01
  8.50000000E-01  8.50000000E-01  8.50000000E-01  8.50000000E-01  8.50000000E-01
  8.50000000E-01  8.50000000E-01  8.50000000E-01  8.50000000E-01  8.50000000E-01
  8.50000000E-01  8.50000000E-01  8.50000000E-01  8.50000000E-01  8.50000000E-01
  8.50000000E-01  8.50000000E-01  8.50000000E-01  8.50000000E-01  8.50000000E-01
  8.50000000E-01  8.50000000E-01  8.50000000E-01  8.50000000E-01  8.50000000E-01
  8.50000000E-01  8.50000000E-01  8.50000000E-01  8.50000000E-01  8.50000000E-01
  8.50000000E-01  8.50000000E-01  8.50000000E-01  8.50000000E-01  8.50000000E-01
  8.50000000E-01  8.50000000E-01  8.50000000E-01  8.50000000E-01  8.50000000E-01
  8.50000000E-01  8.50000000E-01  8.50000000E-01  8.50000000E-01  8.50000000E-01
  8.50000000E-01  8.50000000E-01  8.50000000E-01  8.50000000E-01  8.50000000E-01
  8.50000000E-01  8.50000000E-01  8.50000000E-01  8.50000000E-01  8.50000000E-01
  8.50000000E-01  8.50000000E-01  8.50000000E-01  8.50000000E-01  8.50000000E-01
  8.50000000E-01  8.50000000E-01  8.50000000E-01  8.50000000E-01  8.50000000E-01
  8.50000000E-01  8.50000000E-01  8.50000000E-01  8.50000000E-01  8.50000000E-01
  8.50000000E-01  8.50000000E-01  8.50000000E-01  8.50000000E-01  8.50000000E-01
  8.50000000E-01  8.50000000E-01  8.50000000E-01  8.50000000E-01  8.50000000E-01
  8.50000000E-01  8.50000000E-01  8.50000000E-01  8.50000000E-01  8.50000000E-01
  8.50000000E-01  8.50000000E-01  8.50000000E-01  8.50000000E-01  8.50000000E-01
  8.50000000E-01  8.50000000E-01  8.50000000E-01  8.50000000E-01  8.50000000E-01
  8.50000000E-01  8.50000000E-01  8.50000000E-01  8.50000000E-01  8.50000000E-01
  8.50000000E-01  8.50000000E-01  8.50000000E-01  8.50000000E-01  8.50000000E-01
  8.50000000E-01  8.50000000E-01  8.50000000E-01  8.50000000E-01  8.50000000E-01
  8.50000000E-01  8.50000000E-01  8.50000000E-01  8.50000000E-01  8.50000000E-01
  8.50000000E-01  8.50000000E-01  8.50000000E-01  8.50000000E-01  8.50000000E-01
  8.50000000E-01  8.50000000E-01  8.50000000E-01  8.50000000E-01  8.50000000E-01
  8.50000000E-01  8.50000000E-01  8.50000000E-01  8.50000000E-01  8.50000000E-01
  8.50000000E-01  8.50000000E-01  8.50000000E-01  8.50000000E-01  8.50000000E-01
  8.50000000E-01  8.50000000E-01  8.50000000E-01  8.50000000E-01  8.50000000E-01
  8.50000000E-01  8.50000000E-01  8.50000000E-01  8.50000000E-01  8.50000000E-01
  8.50000000E-01  8.50000000E-01  8.50000000E-01  8.50000000E-01  8.50000000E-01
  8.50000000E-01  8.50000000E-01  8.50000000E-01  8.50000000E-01  8.50000000E-01
  8.50000000E-01  8.50000000E-01  8.50000000E-01  8.50000000E-01  8.50000000E-01
  8.50000000E-01  8.50000000E-01  8.50000000E-01  8.50000000E-01  8.50000000E-01
  8.50000000E-01  8.50000000E-01  8.50000000E-01  8.50000000E-01  8.50000000E-01
  8.50000000E-01  8.50000000E-01  8.50000000E-01  8.50000000E-01  8.50000000E-01
  8.50000000E-01  8.50000000E-01  8.50000000E-01  8.50000000E-01  8.50000000E-01
  8.50000000E-01  8.50000000E-01  8.50000000E-01  8.50000000E-01  8.50000000E-01
  8.50000000E-01  8.50000000E-01  8.50000000E-01  8.50000000E-01  8.50000000E-01
  8.50000000E-01  8.50000000E-01  8.50000000E-01  8.50000000E-01  8.50000000E-01
  8.50000000E-01  8.50000000E-01  8.50000000E-01  8.50000000E-01  8.50000000E-01
  8.50000000E-01  8.50000000E-01  8.50000000E-01  8.50000000E-01  8.50000000E-01
  8.50000000E-01  8.50000000E-01  8.50000000E-01  8.50000000E-01  8.50000000E-01
  8.50000000E-01  8.50000000E-01  8.50000000E-01  8.50000000E-01  8.50000000E-01
  8.50000000E-01  8.50000000E-01  8.50000000E-01  8.50000000E-01  8.50000000E-01
  8.50000000E-01  8.50000000E-01  8.50000000E-01  8.50000000E-01  8.50000000E-01
  8.50000000E-01  8.50000000E-01  8.50000000E-01  8.50000000E-01  8.50000000E-01
  8.50000000E-01  8.50000000E-01  8.50000000E-01  8.50000000E-01  8.50000000E-01
  8.50000000E-01  8.50000000E-01  8.50000000E-01  8.50000000E-01  8.50000000E-01
  8.50000000E-01  8.50000000E-01  8.50000000E-01  8.50000000E-01  8.50000000E-01
  8.50000000E-01  8.50000000E-01  8.50000000E-01  8.50000000E-01  8.50000000E-01
  8.50000000E-01  8.50000000E-01  8.50000000E-01  8.50000000E-01  8.50000000E-01
  8.50000000E-01  8.50000000E-01  8.50000000E-01  8.50000000E-01  8.50000000E-01
  8.50000000E-01  8.50000000E-01  8.50000000E-01  8.50000000E-01  8.50000000E-01
  8.50000000E-01  8.50000000E-01  8.50000000E-01  8.50000000E-01  8.50000000E-01
  8.50000000E-01  8.50000000E-01  8.50000000E-01  8.50000000E-01  8.50000000E-01
  8.50000000E-01  8.50000000E-01  8.50000000E-01  8.50000000E-01  8.50000000E-01
  8.50000000E-01  8.50000000E-01  8.50000000E-01  8.50000000E-01  8.50000000E-01
  8.50000000E-01  8.50000000E-01  8.50000000E-01  8.50000000E-01  8.50000000E-01
  8.50000000E-01  8.50000000E-01  8.50000000E-01  8.50000000E-01  8.50000000E-01
  8.50000000E-01  8.50000000E-01  8.50000000E-01  8.50000000E-01  8.50000000E-01
  8.50000000E-01  8.50000000E-01  8.50000000E-01  8.50000000E-01  8.50000000E-01
  8.50000000E-01  8.50000000E-01  8.50000000E-01  8.50000000E-01  8.50000000E-01
  8.50000000E-01  8.50000000E-01  8.50000000E-01  8.50000000E-01  8.50000000E-01
  8.50000000E-01  8.50000000E-01  8.50000000E-01  8.50000000E-01  8.50000000E-01
  8.50000000E-01  8.50000000E-01  8.50000000E-01  8.50000000E-01  8.50000000E-01
  8.50000000E-01  8.50000000E-01  8.50000000E-01  8.50000000E-01  8.50000000E-01
  8.50000000E-01  8.50000000E-01  8.50000000E-01  8.50000000E-01  8.50000000E-01
  8.50000000E-01  8.50000000E-01  8.50000000E-01  8.50000000E-01  8.50000000E-01
  8.50000000E-01  8.50000000E-01  8.50000000E-01  8.50000000E-01  8.50000000E-01
  8.50000000E-01  8.50000000E-01  8.50000000E-01  8.50000000E-01  8.50000000E-01
  8.50000000E-01  8.50000000E-01  8.50000000E-01  8.50000000E-01  8.50000000E-01
  8.50000000E-01  8.50000000E-01  8.50000000E-01  8.50000000E-01  8.50000000E-01
  8.50000000E-01  8.50000000E-01  8.50000000E-01  8.50000000E-01  8.50000000E-01
  8.50000000E-01  8.50000000E-01  8.50000000E-01  8.50000000E-01  8.50000000E-01
  8.50000000E-01  8.50000000E-01  8.50000000E-01  8.50000000E-01  8.50000000E-01
  8.50000000E-01  8.50000000E-01  8.50000000E-01  8.50000000E-01  8.50000000E-01
  8.50000000E-01  8.50000000E-01  8.50000000E-01  8.50000000E-01  8.50000000E-01
  8.50000000E-01  8.50000000E-01  8.50000000E-01  8.50000000E-01  8.50000000E-01
  8.50000000E-01  8.50000000E-01  8.50000000E-01  8.50000000E-01  8.50000000E-01
  8.50000000E-01  8.50000000E-01  8.50000000E-01  8.50000000E-01  8.50000000E-01
  8.50000000E-01  8.50000000E-01  8.50000000E-01  8.50000000E-01  8.50000000E-01
  8.50000000E-01  8.50000000E-01  8.50000000E-01  8.50000000E-01  8.50000000E-01
  8.50000000E-01  8.50000000E-01  8.50000000E-01  8.50000000E-01  8.50000000E-01
  8.50000000E-01  8.50000000E-01  8.50000000E-01  8.50000000E-01  8.50000000E-01
  8.50000000E-01  8.50000000E-01  8.50000000E-01  8.50000000E-01  8.50000000E-01
  8.50000000E-01  8.50000000E-01  8.50000000E-01  8.50000000E-01  8.50000000E-01
  8.50000000E-01  8.50000000E-01  8.50000000E-01  8.50000000E-01  8.50000000E-01
  8.50000000E-01  8.50000000E-01  8.50000000E-01  8.50000000E-01  8.50000000E-01
  8.50000000E-01  8.50000000E-01  8.50000000E-01  8.50000000E-01  8.50000000E-01
  8.50000000E-01  8.50000000E-01  8.50000000E-01  8.50000000E-01  8.50000000E-01
  8.50000000E-01  8.50000000E-01  8.50000000E-01  8.50000000E-01  8.50000000E-01
  8.50000000E-01  8.50000000E-01  8.50000000E-01  8.50000000E-01  8.50000000E-01
  8.50000000E-01  8.50000000E-01  8.50000000E-01  8.50000000E-01  8.50000000E-01
  8.50000000E-01  8.50000000E-01  8.50000000E-01  8.50000000E-01  8.50000000E-01
  8.50000000E-01  8.50000000E-01  8.50000000E-01  8.50000000E-01  8.50000000E-01
  8.50000000E-01  8.50000000E-01  8.50000000E-01  8.50000000E-01  8.50000000E-01
  8.50000000E-01  8.50000000E-01  8.50000000E-01  8.50000000E-01  8.50000000E-01
  8.50000000E-01  8.50000000E-01  8.50000000E-01  8.50000000E-01  8.50000000E-01
  8.50000000E-01  8.50000000E-01  8.50000000E-01  8.50000000E-01  8.50000000E-01
  8.50000000E-01  8.50000000E-01  8.50000000E-01  8.50000000E-01  8.50000000E-01
  8.50000000E-01  8.50000000E-01  8.50000000E-01  8.50000000E-01  8.50000000E-01
  8.50000000E-01  8.50000000E-01  8.50000000E-01  8.50000000E-01  8.50000000E-01
  8.50000000E-01  8.50000000E-01  8.50000000E-01  8.50000000E-01  8.50000000E-01
  8.50000000E-01  8.50000000E-01  8.50000000E-01  8.50000000E-01  8.50000000E-01
  8.50000000E-01  8.50000000E-01  8.50000000E-01  8.50000000E-01  8.50000000E-01
  8.50000000E-01  8.50000000E-01  8.50000000E-01  8.50000000E-01  8.50000000E-01
  8.50000000E-01  8.50000000E-01  8.50000000E-01  8.50000000E-01  8.50000000E-01
  8.50000000E-01  8.50000000E-01  8.50000000E-01  8.50000000E-01  8.50000000E-01
  8.50000000E-01  8.50000000E-01  8.50000000E-01  8.50000000E-01  8.50000000E-01
  8.50000000E-01  8.50000000E-01  8.50000000E-01  8.50000000E-01  8.50000000E-01
  8.50000000E-01  8.50000000E-01  8.50000000E-01  8.50000000E-01  8.50000000E-01
  8.50000000E-01  8.50000000E-01  8.50000000E-01  8.50000000E-01  8.50000000E-01
  8.50000000E-01  8.50000000E-01  8.50000000E-01  8.50000000E-01  8.50000000E-01
  8.50000000E-01  8.50000000E-01  8.50000000E-01  8.50000000E-01  8.50000000E-01
  8.50000000E-01  8.50000000E-01  8.50000000E-01  8.50000000E-01  8.50000000E-01
  8.50000000E-01  8.50000000E-01  8.50000000E-01  8.50000000E-01  8.50000000E-01
  8.50000000E-01  8.50000000E-01  8.50000000E-01  8.50000000E-01  8.50000000E-01
  8.50000000E-01  8.50000000E-01  8.50000000E-01  8.50000000E-01  8.50000000E-01
  8.50000000E-01  8.50000000E-01  8.50000000E-01  8.50000000E-01  8.50000000E-01
  8.50000000E-01  8.50000000E-01  8.50000000E-01  8.50000000E-01  8.50000000E-01
  8.50000000E-01  8.50000000E-01  8.50000000E-01  8.50000000E-01  8.50000000E-01
  8.50000000E-01  8.50000000E-01  8.50000000E-01  8.50000000E-01  8.50000000E-01
  8.50000000E-01  8.50000000E-01  8.50000000E-01  8.50000000E-01  8.50000000E-01
  8.50000000E-01  8.50000000E-01  8.50000000E-01  8.50000000E-01  8.50000000E-01
  8.50000000E-01  8.50000000E-01  8.50000000E-01  8.50000000E-01  8.50000000E-01
  8.50000000E-01  8.50000000E-01  8.50000000E-01  8.50000000E-01  8.50000000E-01
  8.50000000E-01  8.50000000E-01  8.50000000E-01  8.50000000E-01  8.50000000E-01
  8.50000000E-01  8.50000000E-01  8.50000000E-01  8.50000000E-01  8.50000000E-01
  8.50000000E-01  8.50000000E-01  8.50000000E-01  8.50000000E-01  8.50000000E-01
  8.50000000E-01  8.50000000E-01  8.50000000E-01  8.50000000E-01  8.50000000E-01
  8.50000000E-01  8.50000000E-01  8.50000000E-01  8.50000000E-01  8.50000000E-01
  8.50000000E-01  8.50000000E-01  8.50000000E-01  8.50000000E-01  8.50000000E-01
  8.50000000E-01  8.50000000E-01  8.50000000E-01  8.50000000E-01  8.50000000E-01
  8.50000000E-01  8.50000000E-01  8.50000000E-01  8.50000000E-01  8.50000000E-01
  8.50000000E-01  8.50000000E-01  8.50000000E-01  8.50000000E-01  8.50000000E-01
  8.50000000E-01  8.50000000E-01  8.50000000E-01  8.50000000E-01  8.50000000E-01
  8.50000000E-01  8.50000000E-01  8.50000000E-01  8.50000000E-01  8.50000000E-01
  8.50000000E-01  8.50000000E-01  8.50000000E-01  8.50000000E-01  8.50000000E-01
  8.50000000E-01  8.50000000E-01  8.50000000E-01  8.50000000E-01  8.50000000E-01
  8.50000000E-01  8.50000000E-01  8.50000000E-01  8.50000000E-01  8.50000000E-01
  8.50000000E-01  8.50000000E-01  8.50000000E-01  8.50000000E-01  8.50000000E-01
  8.50000000E-01  8.50000000E-01  8.50000000E-01  8.50000000E-01  8.50000000E-01
  8.50000000E-01  8.50000000E-01  8.50000000E-01  8.50000000E-01  8.50000000E-01
  8.50000000E-01  8.50000000E-01  8.50000000E-01  8.50000000E-01  8.50000000E-01
  8.50000000E-01  8.50000000E-01  8.50000000E-01  8.50000000E-01  8.50000000E-01
  8.50000000E-01  8.50000000E-01  8.50000000E-01  8.50000000E-01  8.50000000E-01
  8.50000000E-01  8.50000000E-01  8.50000000E-01  8.50000000E-01  8.50000000E-01
  8.50000000E-01  8.50000000E-01  8.50000000E-01  8.50000000E-01  8.50000000E-01
  8.50000000E-01  8.50000000E-01  8.50000000E-01  8.50000000E-01  8.50000000E-01
  8.50000000E-01  8.50000000E-01  8.50000000E-01  8.50000000E-01  8.50000000E-01
  8.50000000E-01  8.50000000E-01  8.50000000E-01  8.50000000E-01  8.50000000E-01
  8.50000000E-01  8.50000000E-01  8.50000000E-01  8.50000000E-01  8.50000000E-01
  8.50000000E-01  8.50000000E-01  8.50000000E-01  8.50000000E-01  8.50000000E-01
  8.50000000E-01  8.50000000E-01  8.50000000E-01  8.50000000E-01  8.50000000E-01
  8.50000000E-01  8.50000000E-01  8.50000000E-01  8.50000000E-01  8.50000000E-01
  8.50000000E-01  8.50000000E-01  8.50000000E-01  8.50000000E-01  8.50000000E-01
  8.50000000E-01  8.50000000E-01  8.50000000E-01  8.50000000E-01  8.50000000E-01
  8.50000000E-01  8.50000000E-01  8.50000000E-01  8.50000000E-01  8.50000000E-01
  8.50000000E-01  8.50000000E-01  8.50000000E-01  8.50000000E-01  8.50000000E-01
  8.50000000E-01  8.50000000E-01  8.50000000E-01  8.50000000E-01  8.50000000E-01
  8.50000000E-01  8.50000000E-01  8.50000000E-01  8.50000000E-01  8.50000000E-01
  8.50000000E-01  8.50000000E-01  8.50000000E-01  8.50000000E-01  8.50000000E-01
  8.50000000E-01  8.50000000E-01  8.50000000E-01  8.50000000E-01  8.50000000E-01
  8.50000000E-01  8.50000000E-01  8.50000000E-01  8.50000000E-01  8.50000000E-01
  8.50000000E-01  8.50000000E-01  8.50000000E-01  8.50000000E-01  8.50000000E-01
  8.50000000E-01  8.50000000E-01  8.50000000E-01  8.50000000E-01  8.50000000E-01
  8.50000000E-01  8.50000000E-01  8.50000000E-01  8.50000000E-01  8.50000000E-01
  8.50000000E-01  8.50000000E-01  8.50000000E-01  8.50000000E-01  8.50000000E-01
  8.50000000E-01  8.50000000E-01  8.50000000E-01  8.50000000E-01  8.50000000E-01
  8.50000000E-01  8.50000000E-01  8.50000000E-01  8.50000000E-01  8.50000000E-01
  8.50000000E-01  8.50000000E-01  8.50000000E-01  8.50000000E-01  8.50000000E-01
  8.50000000E-01  8.50000000E-01  8.50000000E-01  8.50000000E-01  8.50000000E-01
  8.50000000E-01  8.50000000E-01  8.50000000E-01  8.50000000E-01  8.50000000E-01
  8.50000000E-01  8.50000000E-01  8.50000000E-01  8.50000000E-01  8.50000000E-01
  8.50000000E-01  8.50000000E-01  8.50000000E-01  8.50000000E-01  8.50000000E-01
  8.50000000E-01  8.50000000E-01  8.50000000E-01  8.50000000E-01  8.50000000E-01
  8.50000000E-01  8.50000000E-01  8.50000000E-01  8.50000000E-01  8.50000000E-01
  8.50000000E-01  8.50000000E-01  8.50000000E-01  8.50000000E-01  8.50000000E-01
  8.50000000E-01  8.50000000E-01  8.50000000E-01  8.50000000E-01  8.50000000E-01
  8.50000000E-01  8.50000000E-01  8.50000000E-01  8.50000000E-01  8.50000000E-01
  8.50000000E-01  8.50000000E-01  8.50000000E-01  8.50000000E-01  8.50000000E-01
  8.50000000E-01  8.50000000E-01  8.50000000E-01  8.50000000E-01  8.50000000E-01
  8.50000000E-01  8.50000000E-01  8.50000000E-01  8.50000000E-01  8.50000000E-01
  8.50000000E-01  8.50000000E-01  8.50000000E-01  8.50000000E-01  8.50000000E-01
  8.50000000E-01  8.50000000E-01  8.50000000E-01  8.50000000E-01  8.50000000E-01
  8.50000000E-01  8.50000000E-01  8.50000000E-01  8.50000000E-01  8.50000000E-01
  8.50000000E-01  8.50000000E-01  8.50000000E-01  8.50000000E-01  8.50000000E-01
  8.50000000E-01  8.50000000E-01  8.50000000E-01  8.50000000E-01  8.50000000E-01
  8.50000000E-01  8.50000000E-01  8.50000000E-01  8.50000000E-01  8.50000000E-01
  8.50000000E-01  8.50000000E-01  8.50000000E-01  8.50000000E-01  8.50000000E-01
  8.50000000E-01  8.50000000E-01  8.50000000E-01  8.50000000E-01  8.50000000E-01
  8.50000000E-01  8.50000000E-01  8.50000000E-01  8.50000000E-01  8.50000000E-01
  8.50000000E-01  8.50000000E-01  8.50000000E-01  8.50000000E-01  8.50000000E-01
  8.50000000E-01  8.50000000E-01  8.50000000E-01  8.50000000E-01  8.50000000E-01
  8.50000000E-01  8.50000000E-01  8.50000000E-01  8.50000000E-01  8.50000000E-01
  8.50000000E-01  8.50000000E-01  8.50000000E-01  8.50000000E-01  8.50000000E-01
  8.50000000E-01  8.50000000E-01  8.50000000E-01  8.50000000E-01  8.50000000E-01
  8.50000000E-01  8.50000000E-01  8.50000000E-01  8.50000000E-01  8.50000000E-01
  8.50000000E-01  8.50000000E-01  8.50000000E-01  8.50000000E-01  8.50000000E-01
  8.50000000E-01  8.50000000E-01  8.50000000E-01  8.50000000E-01  8.50000000E-01
  8.50000000E-01  8.50000000E-01  8.50000000E-01  8.50000000E-01  8.50000000E-01
  8.50000000E-01  8.50000000E-01  8.50000000E-01  8.50000000E-01  8.50000000E-01
  8.50000000E-01  8.50000000E-01  8.50000000E-01  8.50000000E-01  8.50000000E-01
  8.50000000E-01  8.50000000E-01  8.50000000E-01  8.50000000E-01  8.50000000E-01
  8.50000000E-01  8.50000000E-01  8.50000000E-01  8.50000000E-01  8.50000000E-01
  8.50000000E-01  8.50000000E-01  8.50000000E-01  8.50000000E-01  8.50000000E-01
  8.50000000E-01  8.50000000E-01  8.50000000E-01  8.50000000E-01  8.50000000E-01
  8.50000000E-01  8.50000000E-01  8.50000000E-01  8.50000000E-01  8.50000000E-01
  8.50000000E-01  8.50000000E-01  8.50000000E-01  8.50000000E-01  8.50000000E-01
  8.50000000E-01  8.50000000E-01  8.50000000E-01  8.50000000E-01  8.50000000E-01
  8.50000000E-01  8.50000000E-01  8.50000000E-01  8.50000000E-01  8.50000000E-01
  8.50000000E-01  8.50000000E-01  8.50000000E-01  8.50000000E-01  8.50000000E-01
  8.50000000E-01  8.50000000E-01  8.50000000E-01  8.50000000E-01  8.50000000E-01
  8.50000000E-01  8.50000000E-01  8.50000000E-01  8.50000000E-01  8.50000000E-01
  8.50000000E-01  8.50000000E-01  8.50000000E-01  8.50000000E-01  8.50000000E-01
  8.50000000E-01  8.50000000E-01  8.50000000E-01  8.50000000E-01  8.50000000E-01
  8.50000000E-01  8.50000000E-01  8.50000000E-01  8.50000000E-01  8.50000000E-01
  8.50000000E-01  8.50000000E-01  8.50000000E-01  8.50000000E-01  8.50000000E-01
  8.50000000E-01  8.50000000E-01  8.50000000E-01  8.50000000E-01  8.50000000E-01
  8.50000000E-01  8.50000000E-01  8.50000000E-01  8.50000000E-01  8.50000000E-01
  8.50000000E-01  8.50000000E-01  8.50000000E-01  8.50000000E-01  8.50000000E-01
  8.50000000E-01  8.50000000E-01  8.50000000E-01  8.50000000E-01  8.50000000E-01
  8.50000000E-01  8.50000000E-01  8.50000000E-01  8.50000000E-01  8.50000000E-01
  8.50000000E-01  8.50000000E-01  8.50000000E-01  8.50000000E-01  8.50000000E-01
  8.50000000E-01  8.50000000E-01  8.50000000E-01  8.50000000E-01  8.50000000E-01
  8.50000000E-01  8.50000000E-01  8.50000000E-01  8.50000000E-01  8.50000000E-01
  8.50000000E-01  8.50000000E-01  8.50000000E-01  8.50000000E-01  8.50000000E-01
  8.50000000E-01  8.50000000E-01  8.50000000E-01  8.50000000E-01  8.50000000E-01
  8.50000000E-01  8.50000000E-01  8.50000000E-01  8.50000000E-01  8.50000000E-01
  8.50000000E-01  8.50000000E-01  8.50000000E-01  8.50000000E-01  8.50000000E-01
  8.50000000E-01  8.50000000E-01  8.50000000E-01  8.50000000E-01  8.50000000E-01
  8.50000000E-01  8.50000000E-01  8.50000000E-01  8.50000000E-01  8.50000000E-01
  8.50000000E-01  8.50000000E-01  8.50000000E-01  8.50000000E-01  8.50000000E-01
  8.50000000E-01  8.50000000E-01  8.50000000E-01  8.50000000E-01  8.50000000E-01
  8.50000000E-01  8.50000000E-01  8.50000000E-01  8.50000000E-01  8.50000000E-01
  8.50000000E-01  8.50000000E-01  8.50000000E-01  8.50000000E-01  8.50000000E-01
  8.50000000E-01  8.50000000E-01  8.50000000E-01  8.50000000E-01  8.50000000E-01
  8.50000000E-01  8.50000000E-01  8.50000000E-01  8.50000000E-01  8.50000000E-01
  8.50000000E-01  8.50000000E-01  8.50000000E-01  8.50000000E-01  8.50000000E-01
  8.50000000E-01  8.50000000E-01  8.50000000E-01  8.50000000E-01  8.50000000E-01
  8.50000000E-01  8.50000000E-01  8.50000000E-01  8.50000000E-01  8.50000000E-01
  8.50000000E-01  8.50000000E-01  8.50000000E-01  8.50000000E-01  8.50000000E-01
  8.50000000E-01  8.50000000E-01  8.50000000E-01  8.50000000E-01  8.50000000E-01
  8.50000000E-01  8.50000000E-01  8.50000000E-01  8.50000000E-01  8.50000000E-01
  8.50000000E-01  8.50000000E-01  8.50000000E-01  8.50000000E-01  8.50000000E-01
  8.50000000E-01  8.50000000E-01  8.50000000E-01  8.50000000E-01  8.50000000E-01
  8.50000000E-01  8.50000000E-01  8.50000000E-01  8.50000000E-01  8.50000000E-01
  8.50000000E-01  8.50000000E-01  8.50000000E-01  8.50000000E-01  8.50000000E-01
  8.50000000E-01  8.50000000E-01  8.50000000E-01  8.50000000E-01  8.50000000E-01
  8.50000000E-01  8.50000000E-01  8.50000000E-01  8.50000000E-01  8.50000000E-01
  8.50000000E-01  8.50000000E-01  8.50000000E-01  8.50000000E-01  8.50000000E-01
  8.50000000E-01  8.50000000E-01  8.50000000E-01  8.50000000E-01  8.50000000E-01
  8.50000000E-01  8.50000000E-01  8.50000000E-01  8.50000000E-01  8.50000000E-01
  8.50000000E-01  8.50000000E-01  8.50000000E-01  8.50000000E-01  8.50000000E-01
  8.50000000E-01  8.50000000E-01  8.50000000E-01  8.50000000E-01  8.50000000E-01
  8.50000000E-01  8.50000000E-01  8.50000000E-01  8.50000000E-01  8.50000000E-01
  8.50000000E-01  8.50000000E-01  8.50000000E-01  8.50000000E-01  8.50000000E-01
  8.50000000E-01  8.50000000E-01  8.50000000E-01  8.50000000E-01  8.50000000E-01
  8.50000000E-01  8.50000000E-01  8.50000000E-01  8.50000000E-01  8.50000000E-01
  8.50000000E-01  8.50000000E-01  8.50000000E-01  8.50000000E-01  8.50000000E-01
  8.50000000E-01  8.50000000E-01  8.50000000E-01  8.50000000E-01  8.50000000E-01
  8.50000000E-01  8.50000000E-01  8.50000000E-01  8.50000000E-01  8.50000000E-01
  8.50000000E-01  8.50000000E-01  8.50000000E-01  8.50000000E-01  8.50000000E-01
  8.50000000E-01  8.50000000E-01  8.50000000E-01  8.50000000E-01  8.50000000E-01
  8.50000000E-01  8.50000000E-01  8.50000000E-01  8.50000000E-01  8.50000000E-01
  8.50000000E-01  8.50000000E-01  8.50000000E-01  8.50000000E-01  8.50000000E-01
  8.50000000E-01  8.50000000E-01  8.50000000E-01  8.50000000E-01  8.50000000E-01
  8.50000000E-01  8.50000000E-01  8.50000000E-01  8.50000000E-01  8.50000000E-01
  8.50000000E-01  8.50000000E-01  8.50000000E-01  8.50000000E-01  8.50000000E-01
  8.50000000E-01  8.50000000E-01  8.50000000E-01  8.50000000E-01  8.50000000E-01
  8.50000000E-01  8.50000000E-01  8.50000000E-01  8.50000000E-01  8.50000000E-01
  8.50000000E-01  8.50000000E-01  8.50000000E-01  8.50000000E-01  8.50000000E-01
  8.50000000E-01  8.50000000E-01  8.50000000E-01  8.50000000E-01  8.50000000E-01
  8.50000000E-01  8.50000000E-01  8.50000000E-01  8.50000000E-01  8.50000000E-01
  8.50000000E-01  8.50000000E-01  8.50000000E-01  8.50000000E-01  8.50000000E-01
  8.50000000E-01  8.50000000E-01  8.50000000E-01  8.50000000E-01  8.50000000E-01
  8.50000000E-01  8.50000000E-01  8.50000000E-01  8.50000000E-01  8.50000000E-01
  8.50000000E-01  8.50000000E-01  8.50000000E-01  8.50000000E-01  8.50000000E-01
  8.50000000E-01  8.50000000E-01  8.50000000E-01  8.50000000E-01  8.50000000E-01
  8.50000000E-01  8.50000000E-01  8.50000000E-01  8.50000000E-01  8.50000000E-01
  8.50000000E-01  8.50000000E-01  8.50000000E-01  8.50000000E-01  8.50000000E-01
  8.50000000E-01  8.50000000E-01  8.50000000E-01  8.50000000E-01  8.50000000E-01
  8.50000000E-01  8.50000000E-01  8.50000000E-01  8.50000000E-01  8.50000000E-01
  8.50000000E-01  8.50000000E-01  8.50000000E-01  8.50000000E-01  8.50000000E-01
  8.50000000E-01  8.50000000E-01  8.50000000E-01  8.50000000E-01  8.50000000E-01
  8.50000000E-01  8.50000000E-01  8.50000000E-01  8.50000000E-01  8.50000000E-01
  8.50000000E-01  8.50000000E-01  8.50000000E-01  8.50000000E-01  8.50000000E-01
  8.50000000E-01  8.50000000E-01  8.50000000E-01  8.50000000E-01  8.50000000E-01
  8.50000000E-01  8.50000000E-01  8.50000000E-01  8.50000000E-01  8.50000000E-01
  8.50000000E-01  8.50000000E-01  8.50000000E-01  8.50000000E-01  8.50000000E-01
  8.50000000E-01  8.50000000E-01  8.50000000E-01  8.50000000E-01  8.50000000E-01
  8.50000000E-01  8.50000000E-01  8.50000000E-01  8.50000000E-01  8.50000000E-01
  8.50000000E-01  8.50000000E-01  8.50000000E-01  8.50000000E-01  8.50000000E-01
  8.50000000E-01  8.50000000E-01  8.50000000E-01  8.50000000E-01  8.50000000E-01
  8.50000000E-01  8.50000000E-01  8.50000000E-01  8.50000000E-01  8.50000000E-01
  8.50000000E-01  8.50000000E-01  8.50000000E-01  8.50000000E-01  8.50000000E-01
  8.50000000E-01  8.50000000E-01  8.50000000E-01  8.50000000E-01  8.50000000E-01
  8.50000000E-01  8.50000000E-01  8.50000000E-01  8.50000000E-01  8.50000000E-01
  8.50000000E-01  8.50000000E-01  8.50000000E-01  8.50000000E-01  8.50000000E-01
  8.50000000E-01  8.50000000E-01  8.50000000E-01  8.50000000E-01  8.50000000E-01
  8.50000000E-01  8.50000000E-01  8.50000000E-01  8.50000000E-01  8.50000000E-01
  8.50000000E-01  8.50000000E-01  8.50000000E-01  8.50000000E-01  8.50000000E-01
  8.50000000E-01  8.50000000E-01  8.50000000E-01  8.50000000E-01  8.50000000E-01
  8.50000000E-01  8.50000000E-01  8.50000000E-01  8.50000000E-01  8.50000000E-01
  8.50000000E-01  8.50000000E-01  8.50000000E-01  8.50000000E-01  8.50000000E-01
  8.50000000E-01  8.50000000E-01  8.50000000E-01  8.50000000E-01  8.50000000E-01
  8.50000000E-01  8.50000000E-01  8.50000000E-01  8.50000000E-01  8.50000000E-01
  8.50000000E-01  8.50000000E-01  8.50000000E-01  8.50000000E-01  8.50000000E-01
  8.50000000E-01  8.50000000E-01  8.50000000E-01  8.50000000E-01  8.50000000E-01
  8.50000000E-01  8.50000000E-01  8.50000000E-01  8.50000000E-01  8.50000000E-01
  8.50000000E-01  8.50000000E-01  8.50000000E-01  8.50000000E-01  8.50000000E-01
  8.50000000E-01  8.50000000E-01  8.50000000E-01  8.50000000E-01  8.50000000E-01
  8.50000000E-01  8.50000000E-01  8.50000000E-01  8.50000000E-01  8.50000000E-01
  8.50000000E-01  8.50000000E-01  8.50000000E-01  8.50000000E-01  8.50000000E-01
  8.50000000E-01  8.50000000E-01  8.50000000E-01  8.50000000E-01  8.50000000E-01
  8.50000000E-01  8.50000000E-01  8.50000000E-01  8.50000000E-01  8.50000000E-01
  8.50000000E-01  8.50000000E-01  8.50000000E-01  8.50000000E-01  8.50000000E-01
  8.50000000E-01  8.50000000E-01  8.50000000E-01  8.50000000E-01  8.50000000E-01
  8.50000000E-01  8.50000000E-01  8.50000000E-01  8.50000000E-01  8.50000000E-01
  8.50000000E-01  8.50000000E-01  8.50000000E-01  8.50000000E-01  8.50000000E-01
  8.50000000E-01  8.50000000E-01  8.50000000E-01  8.50000000E-01  8.50000000E-01
  8.50000000E-01  8.50000000E-01  8.50000000E-01  8.50000000E-01  8.50000000E-01
  8.50000000E-01  8.50000000E-01  8.50000000E-01  8.50000000E-01  8.50000000E-01
  8.50000000E-01  8.50000000E-01  8.50000000E-01  8.50000000E-01  8.50000000E-01
  8.50000000E-01  8.50000000E-01  8.50000000E-01  8.50000000E-01  8.50000000E-01
  8.50000000E-01  8.50000000E-01  8.50000000E-01  8.50000000E-01  8.50000000E-01
  8.50000000E-01  8.50000000E-01  8.50000000E-01  8.50000000E-01  8.50000000E-01
  8.50000000E-01  8.50000000E-01  8.50000000E-01  8.50000000E-01  8.50000000E-01
  8.50000000E-01  8.50000000E-01  8.50000000E-01  8.50000000E-01  8.50000000E-01
  8.50000000E-01  8.50000000E-01  8.50000000E-01  8.50000000E-01  8.50000000E-01
  8.50000000E-01  8.50000000E-01  8.50000000E-01  8.50000000E-01  8.50000000E-01
  8.50000000E-01  8.50000000E-01  8.50000000E-01  8.50000000E-01  8.50000000E-01
  8.50000000E-01  8.50000000E-01  8.50000000E-01  8.50000000E-01  8.50000000E-01
  8.50000000E-01  8.50000000E-01  8.50000000E-01  8.50000000E-01  8.50000000E-01
  8.50000000E-01  8.50000000E-01  8.50000000E-01  8.50000000E-01  8.50000000E-01
  8.50000000E-01  8.50000000E-01  8.50000000E-01  8.50000000E-01  8.50000000E-01
  8.50000000E-01  8.50000000E-01  8.50000000E-01  8.50000000E-01  8.50000000E-01
  8.50000000E-01  8.50000000E-01  8.50000000E-01  8.50000000E-01  8.50000000E-01
  8.50000000E-01  8.50000000E-01  8.50000000E-01  8.50000000E-01  8.50000000E-01
  8.50000000E-01  8.50000000E-01  8.50000000E-01  8.50000000E-01  8.50000000E-01
  8.50000000E-01  8.50000000E-01  8.50000000E-01  8.50000000E-01  8.50000000E-01
  8.50000000E-01  8.50000000E-01  8.50000000E-01  8.50000000E-01  8.50000000E-01
  8.50000000E-01  8.50000000E-01  8.50000000E-01  8.50000000E-01  8.50000000E-01
  8.50000000E-01  8.50000000E-01  8.50000000E-01  8.50000000E-01  8.50000000E-01
  8.50000000E-01  8.50000000E-01  8.50000000E-01  8.50000000E-01  8.50000000E-01
  8.50000000E-01  8.50000000E-01  8.50000000E-01  8.50000000E-01  8.50000000E-01
  8.50000000E-01  8.50000000E-01  8.50000000E-01  8.50000000E-01  8.50000000E-01
  8.50000000E-01  8.50000000E-01  8.50000000E-01  8.50000000E-01  8.50000000E-01
  8.50000000E-01  8.50000000E-01  8.50000000E-01  8.50000000E-01  8.50000000E-01
  8.50000000E-01  8.50000000E-01  8.50000000E-01  8.50000000E-01  8.50000000E-01
  8.50000000E-01  8.50000000E-01  8.50000000E-01  8.50000000E-01  8.50000000E-01
  8.50000000E-01  8.50000000E-01  8.50000000E-01  8.50000000E-01  8.50000000E-01
  8.50000000E-01  8.50000000E-01  8.50000000E-01  8.50000000E-01  8.50000000E-01
  8.50000000E-01  8.50000000E-01  8.50000000E-01  8.50000000E-01  8.50000000E-01
  8.50000000E-01  8.50000000E-01  8.50000000E-01  8.50000000E-01  8.50000000E-01
  8.50000000E-01  8.50000000E-01  8.50000000E-01  8.50000000E-01  8.50000000E-01
  8.50000000E-01  8.50000000E-01  8.50000000E-01  8.50000000E-01  8.50000000E-01
  8.50000000E-01  8.50000000E-01  8.50000000E-01  8.50000000E-01  8.50000000E-01
  8.50000000E-01  8.50000000E-01  8.50000000E-01  8.50000000E-01  8.50000000E-01
  8.50000000E-01  8.50000000E-01  8.50000000E-01  8.50000000E-01  8.50000000E-01
  8.50000000E-01  8.50000000E-01  8.50000000E-01  8.50000000E-01  8.50000000E-01
  8.50000000E-01  8.50000000E-01  8.50000000E-01  8.50000000E-01  8.50000000E-01
  8.50000000E-01  8.50000000E-01  8.50000000E-01  8.50000000E-01  8.50000000E-01
  8.50000000E-01  8.50000000E-01  8.50000000E-01  8.50000000E-01  8.50000000E-01
  8.50000000E-01  8.50000000E-01  8.50000000E-01  8.50000000E-01  8.50000000E-01
  8.50000000E-01  8.50000000E-01  8.50000000E-01  8.50000000E-01  8.50000000E-01
  8.50000000E-01  8.50000000E-01  8.50000000E-01  8.50000000E-01  8.50000000E-01
  8.50000000E-01  8.50000000E-01  8.50000000E-01  8.50000000E-01  8.50000000E-01
  8.50000000E-01  8.50000000E-01  8.50000000E-01  8.50000000E-01  8.50000000E-01
  8.50000000E-01  8.50000000E-01  8.50000000E-01  8.50000000E-01  8.50000000E-01
  8.50000000E-01  8.50000000E-01  8.50000000E-01  8.50000000E-01  8.50000000E-01
  8.50000000E-01  8.50000000E-01  8.50000000E-01  8.50000000E-01  8.50000000E-01
  8.50000000E-01  8.50000000E-01  8.50000000E-01  8.50000000E-01  8.50000000E-01
  8.50000000E-01  8.50000000E-01  8.50000000E-01  8.50000000E-01  8.50000000E-01
  8.50000000E-01  8.50000000E-01  8.50000000E-01  8.50000000E-01  8.50000000E-01
  8.50000000E-01  8.50000000E-01  8.50000000E-01  8.50000000E-01  8.50000000E-01
  8.50000000E-01  8.50000000E-01  8.50000000E-01  8.50000000E-01  8.50000000E-01
  8.50000000E-01  8.50000000E-01  8.50000000E-01  8.50000000E-01  8.50000000E-01
  8.50000000E-01  8.50000000E-01  8.50000000E-01  8.50000000E-01  8.50000000E-01
  8.50000000E-01  8.50000000E-01  8.50000000E-01  8.50000000E-01  8.50000000E-01
  8.50000000E-01  8.50000000E-01  8.50000000E-01  8.50000000E-01  8.50000000E-01
  8.50000000E-01  8.50000000E-01  8.50000000E-01  8.50000000E-01  8.50000000E-01
  8.50000000E-01  8.50000000E-01  8.50000000E-01  8.50000000E-01  8.50000000E-01
  8.50000000E-01  8.50000000E-01  8.50000000E-01  8.50000000E-01  8.50000000E-01
  8.50000000E-01  8.50000000E-01  8.50000000E-01  8.50000000E-01  8.50000000E-01
  8.50000000E-01  8.50000000E-01  8.50000000E-01  8.50000000E-01  8.50000000E-01
  8.50000000E-01  8.50000000E-01  8.50000000E-01  8.50000000E-01  8.50000000E-01
  8.50000000E-01  8.50000000E-01  8.50000000E-01  8.50000000E-01  8.50000000E-01
  8.50000000E-01  8.50000000E-01  8.50000000E-01  8.50000000E-01  8.50000000E-01
  8.50000000E-01  8.50000000E-01  8.50000000E-01  8.50000000E-01  8.50000000E-01
  8.50000000E-01  8.50000000E-01  8.50000000E-01  8.50000000E-01  8.50000000E-01
  8.50000000E-01  8.50000000E-01  8.50000000E-01  8.50000000E-01  8.50000000E-01
  8.50000000E-01  8.50000000E-01  8.50000000E-01  8.50000000E-01  8.50000000E-01
  8.50000000E-01  8.50000000E-01  8.50000000E-01  8.50000000E-01  8.50000000E-01
  8.50000000E-01  8.50000000E-01  8.50000000E-01  8.50000000E-01  8.50000000E-01
  8.50000000E-01  8.50000000E-01  8.50000000E-01  8.50000000E-01  8.50000000E-01
  8.50000000E-01  8.50000000E-01  8.50000000E-01  8.50000000E-01  8.50000000E-01
  8.50000000E-01  8.50000000E-01  8.50000000E-01  8.50000000E-01  8.50000000E-01
  8.50000000E-01  8.50000000E-01  8.50000000E-01  8.50000000E-01  8.50000000E-01
  8.50000000E-01  8.50000000E-01  8.50000000E-01  8.50000000E-01  8.50000000E-01
  8.50000000E-01  8.50000000E-01  8.50000000E-01  8.50000000E-01  8.50000000E-01
  8.50000000E-01  8.50000000E-01  8.50000000E-01  8.50000000E-01  8.50000000E-01
  8.50000000E-01  8.50000000E-01  8.50000000E-01  8.50000000E-01  8.50000000E-01
  8.50000000E-01  8.50000000E-01  8.50000000E-01  8.50000000E-01  8.50000000E-01
  8.50000000E-01  8.50000000E-01  8.50000000E-01  8.50000000E-01  8.50000000E-01
  8.50000000E-01  8.50000000E-01  8.50000000E-01  8.50000000E-01  8.50000000E-01
  8.50000000E-01  8.50000000E-01  8.50000000E-01  8.50000000E-01  8.50000000E-01
  8.50000000E-01  8.50000000E-01  8.50000000E-01  8.50000000E-01  8.50000000E-01
  8.50000000E-01  8.50000000E-01  8.50000000E-01  8.50000000E-01  8.50000000E-01
  8.50000000E-01  8.50000000E-01  8.50000000E-01  8.50000000E-01  8.50000000E-01
  8.50000000E-01  8.50000000E-01  8.50000000E-01  8.50000000E-01  8.50000000E-01
  8.50000000E-01  8.50000000E-01  8.50000000E-01  8.50000000E-01  8.50000000E-01
  8.50000000E-01  8.50000000E-01  8.50000000E-01  8.50000000E-01  8.50000000E-01
  8.50000000E-01  8.50000000E-01  8.50000000E-01  8.50000000E-01  8.50000000E-01
  8.50000000E-01  8.50000000E-01  8.50000000E-01  8.50000000E-01  8.50000000E-01
  8.50000000E-01  8.50000000E-01  8.50000000E-01  8.50000000E-01  8.50000000E-01
  8.50000000E-01  8.50000000E-01  8.50000000E-01  8.50000000E-01  8.50000000E-01
  8.50000000E-01  8.50000000E-01  8.50000000E-01  8.50000000E-01  8.50000000E-01
  8.50000000E-01  8.50000000E-01  8.50000000E-01  8.50000000E-01  8.50000000E-01
  8.50000000E-01  8.50000000E-01  8.50000000E-01  8.50000000E-01  8.50000000E-01
  8.50000000E-01  8.50000000E-01  8.50000000E-01  8.50000000E-01  8.50000000E-01
  8.50000000E-01  8.50000000E-01  8.50000000E-01  8.50000000E-01  8.50000000E-01
  8.50000000E-01  8.50000000E-01  8.50000000E-01  8.50000000E-01  8.50000000E-01
  8.50000000E-01  8.50000000E-01  8.50000000E-01  8.50000000E-01  8.50000000E-01
  8.50000000E-01  8.50000000E-01  8.50000000E-01  8.50000000E-01  8.50000000E-01
  8.50000000E-01  8.50000000E-01  8.50000000E-01  8.50000000E-01  8.50000000E-01
  8.50000000E-01  8.50000000E-01  8.50000000E-01  8.50000000E-01  8.50000000E-01
  8.50000000E-01  8.50000000E-01  8.50000000E-01  8.50000000E-01  8.50000000E-01
  8.50000000E-01  8.50000000E-01  8.50000000E-01  8.50000000E-01  8.50000000E-01
  8.50000000E-01  8.50000000E-01  8.50000000E-01  8.50000000E-01  8.50000000E-01
  8.50000000E-01  8.50000000E-01  8.50000000E-01  8.50000000E-01  8.50000000E-01
  8.50000000E-01  8.50000000E-01  8.50000000E-01  8.50000000E-01  8.50000000E-01
  8.50000000E-01  8.50000000E-01  8.50000000E-01  8.50000000E-01  8.50000000E-01
  8.50000000E-01  8.50000000E-01  8.50000000E-01  8.50000000E-01  8.50000000E-01
  8.50000000E-01  8.50000000E-01  8.50000000E-01  8.50000000E-01  8.50000000E-01
  8.50000000E-01  8.50000000E-01  8.50000000E-01  8.50000000E-01  8.50000000E-01
  8.50000000E-01  8.50000000E-01  8.50000000E-01  8.50000000E-01  8.50000000E-01
  8.50000000E-01  8.50000000E-01  8.50000000E-01  8.50000000E-01  8.50000000E-01
  8.50000000E-01  8.50000000E-01  8.50000000E-01  8.50000000E-01  8.50000000E-01
  8.50000000E-01  8.50000000E-01  8.50000000E-01  8.50000000E-01  8.50000000E-01
  8.50000000E-01  8.50000000E-01  8.50000000E-01  8.50000000E-01  8.50000000E-01
  8.50000000E-01  8.50000000E-01  8.50000000E-01  8.50000000E-01  8.50000000E-01
  8.50000000E-01  8.50000000E-01  8.50000000E-01  8.50000000E-01  8.50000000E-01
  8.50000000E-01  8.50000000E-01  8.50000000E-01  8.50000000E-01  8.50000000E-01
  8.50000000E-01  8.50000000E-01  8.50000000E-01  8.50000000E-01  8.50000000E-01
  8.50000000E-01  8.50000000E-01  8.50000000E-01  8.50000000E-01  8.50000000E-01
  8.50000000E-01  8.50000000E-01  8.50000000E-01  8.50000000E-01  8.50000000E-01
  8.50000000E-01  8.50000000E-01  8.50000000E-01  8.50000000E-01  8.50000000E-01
  8.50000000E-01  8.50000000E-01  8.50000000E-01  8.50000000E-01  8.50000000E-01
  8.50000000E-01  8.50000000E-01  8.50000000E-01  8.50000000E-01  8.50000000E-01
  8.50000000E-01  8.50000000E-01  8.50000000E-01  8.50000000E-01  8.50000000E-01
  8.50000000E-01  8.50000000E-01  8.50000000E-01  8.50000000E-01  8.50000000E-01
  8.50000000E-01  8.50000000E-01  8.50000000E-01  8.50000000E-01  8.50000000E-01
  8.50000000E-01  8.50000000E-01  8.50000000E-01  8.50000000E-01  8.50000000E-01
  8.50000000E-01  8.50000000E-01  8.50000000E-01  8.50000000E-01  8.50000000E-01
  8.50000000E-01  8.50000000E-01  8.50000000E-01  8.50000000E-01  8.50000000E-01
  8.50000000E-01  8.50000000E-01  8.50000000E-01  8.50000000E-01  8.50000000E-01
  8.50000000E-01  8.50000000E-01  8.50000000E-01  8.50000000E-01  8.50000000E-01
  8.50000000E-01  8.50000000E-01  8.50000000E-01  8.50000000E-01  8.50000000E-01
  8.50000000E-01  8.50000000E-01  8.50000000E-01  8.50000000E-01  8.50000000E-01
  8.50000000E-01  8.50000000E-01  8.50000000E-01  8.50000000E-01  8.50000000E-01
  8.50000000E-01  8.50000000E-01  8.50000000E-01  8.50000000E-01  8.50000000E-01
  8.50000000E-01  8.50000000E-01  8.50000000E-01  8.50000000E-01  8.50000000E-01
  8.50000000E-01  8.50000000E-01  8.50000000E-01  8.50000000E-01  8.50000000E-01
  8.50000000E-01  8.50000000E-01  8.50000000E-01  8.50000000E-01  8.50000000E-01
  8.50000000E-01  8.50000000E-01  8.50000000E-01  8.50000000E-01  8.50000000E-01
  8.50000000E-01  8.50000000E-01  8.50000000E-01  8.50000000E-01  8.50000000E-01
  8.50000000E-01  8.50000000E-01  8.50000000E-01  8.50000000E-01  8.50000000E-01
  8.50000000E-01  8.50000000E-01  8.50000000E-01  8.50000000E-01  8.50000000E-01
  8.50000000E-01  8.50000000E-01  8.50000000E-01  8.50000000E-01  8.50000000E-01
  8.50000000E-01  8.50000000E-01  8.50000000E-01  8.50000000E-01  8.50000000E-01
  8.50000000E-01  8.50000000E-01  8.50000000E-01  8.50000000E-01  8.50000000E-01
  8.50000000E-01  8.50000000E-01  8.50000000E-01  8.50000000E-01  8.50000000E-01
  8.50000000E-01  8.50000000E-01  8.50000000E-01  8.50000000E-01  8.50000000E-01
  8.50000000E-01  8.50000000E-01  8.50000000E-01  8.50000000E-01  8.50000000E-01
  8.50000000E-01  8.50000000E-01  8.50000000E-01  8.50000000E-01  8.50000000E-01
  8.50000000E-01  8.50000000E-01  8.50000000E-01  8.50000000E-01  8.50000000E-01
  8.50000000E-01  8.50000000E-01  8.50000000E-01  8.50000000E-01  8.50000000E-01
  8.50000000E-01  8.50000000E-01  8.50000000E-01  8.50000000E-01  8.50000000E-01
  8.50000000E-01  8.50000000E-01  8.50000000E-01  8.50000000E-01  8.50000000E-01
  8.50000000E-01  8.50000000E-01  8.50000000E-01  8.50000000E-01  8.50000000E-01
  8.50000000E-01  8.50000000E-01  8.50000000E-01  8.50000000E-01  8.50000000E-01
  8.50000000E-01  8.50000000E-01  8.50000000E-01  8.50000000E-01  8.50000000E-01
  8.50000000E-01  8.50000000E-01  8.50000000E-01  8.50000000E-01  8.50000000E-01
  8.50000000E-01  8.50000000E-01  8.50000000E-01  8.50000000E-01  8.50000000E-01
  8.50000000E-01  8.50000000E-01  8.50000000E-01  8.50000000E-01  8.50000000E-01
  8.50000000E-01  8.50000000E-01  8.50000000E-01  8.50000000E-01  8.50000000E-01
  8.50000000E-01  8.50000000E-01  8.50000000E-01  8.50000000E-01  8.50000000E-01
  8.50000000E-01  8.50000000E-01  8.50000000E-01  8.50000000E-01  8.50000000E-01
  8.50000000E-01  8.50000000E-01  8.50000000E-01  8.50000000E-01  8.50000000E-01
  8.50000000E-01  8.50000000E-01  8.50000000E-01  8.50000000E-01  8.50000000E-01
  8.50000000E-01  8.50000000E-01  8.50000000E-01  8.50000000E-01  8.50000000E-01
  8.50000000E-01  8.50000000E-01  8.50000000E-01  8.50000000E-01  8.50000000E-01
  8.50000000E-01  8.50000000E-01  8.50000000E-01  8.50000000E-01  8.50000000E-01
  8.50000000E-01  8.50000000E-01  8.50000000E-01  8.50000000E-01  8.50000000E-01
  8.50000000E-01  8.50000000E-01  8.50000000E-01  8.50000000E-01  8.50000000E-01
  8.50000000E-01  8.50000000E-01  8.50000000E-01  8.50000000E-01  8.50000000E-01
  8.50000000E-01  8.50000000E-01  8.50000000E-01  8.50000000E-01  8.50000000E-01
  8.50000000E-01  8.50000000E-01  8.50000000E-01  8.50000000E-01  8.50000000E-01
  8.50000000E-01  8.50000000E-01  8.50000000E-01  8.50000000E-01  8.50000000E-01
  8.50000000E-01  8.50000000E-01  8.50000000E-01  8.50000000E-01  8.50000000E-01
  8.50000000E-01  8.50000000E-01  8.50000000E-01  8.50000000E-01  8.50000000E-01
  8.50000000E-01  8.50000000E-01  8.50000000E-01  8.50000000E-01  8.50000000E-01
  8.50000000E-01  8.50000000E-01  8.50000000E-01  8.50000000E-01  8.50000000E-01
  8.50000000E-01  8.50000000E-01  8.50000000E-01  8.50000000E-01  8.50000000E-01
  8.50000000E-01  8.50000000E-01  8.50000000E-01  8.50000000E-01  8.50000000E-01
  8.50000000E-01  8.50000000E-01  8.50000000E-01  8.50000000E-01  8.50000000E-01
  8.50000000E-01  8.50000000E-01  8.50000000E-01  8.50000000E-01  8.50000000E-01
  8.50000000E-01  8.50000000E-01  8.50000000E-01  8.50000000E-01  8.50000000E-01
  8.50000000E-01  8.50000000E-01  8.50000000E-01  8.50000000E-01  8.50000000E-01
  8.50000000E-01  8.50000000E-01  8.50000000E-01  8.50000000E-01  8.50000000E-01
  8.50000000E-01  8.50000000E-01  8.50000000E-01  8.50000000E-01  8.50000000E-01
  8.50000000E-01  8.50000000E-01  8.50000000E-01  8.50000000E-01  8.50000000E-01
  8.50000000E-01  8.50000000E-01  8.50000000E-01  8.50000000E-01  8.50000000E-01
  8.50000000E-01  8.50000000E-01  8.50000000E-01  8.50000000E-01  8.50000000E-01
  8.50000000E-01  8.50000000E-01  8.50000000E-01  8.50000000E-01  8.50000000E-01
  8.50000000E-01  8.50000000E-01  8.50000000E-01  8.50000000E-01  8.50000000E-01
  8.50000000E-01  8.50000000E-01  8.50000000E-01  8.50000000E-01  8.50000000E-01
  8.50000000E-01  8.50000000E-01  8.50000000E-01  8.50000000E-01  8.50000000E-01
  8.50000000E-01  8.50000000E-01  8.50000000E-01  8.50000000E-01  8.50000000E-01
  8.50000000E-01  8.50000000E-01  8.50000000E-01  8.50000000E-01  8.50000000E-01
  8.50000000E-01  8.50000000E-01  8.50000000E-01  8.50000000E-01  8.50000000E-01
  8.50000000E-01  8.50000000E-01  8.50000000E-01  8.50000000E-01  8.50000000E-01
  8.50000000E-01  8.50000000E-01  8.50000000E-01  8.50000000E-01  8.50000000E-01
  8.50000000E-01  8.50000000E-01  8.50000000E-01  8.50000000E-01  8.50000000E-01
  8.50000000E-01  8.50000000E-01  8.50000000E-01  8.50000000E-01  8.50000000E-01
  8.50000000E-01  8.50000000E-01  8.50000000E-01  8.50000000E-01  8.50000000E-01
  8.50000000E-01  8.50000000E-01  8.50000000E-01  8.50000000E-01  8.50000000E-01
  8.50000000E-01  8.50000000E-01  8.50000000E-01  8.50000000E-01  8.50000000E-01
  8.50000000E-01  8.50000000E-01  8.50000000E-01  8.50000000E-01  8.50000000E-01
  8.50000000E-01  8.50000000E-01  8.50000000E-01  8.50000000E-01  8.50000000E-01
  8.50000000E-01  8.50000000E-01  8.50000000E-01  8.50000000E-01  8.50000000E-01
  8.50000000E-01  8.50000000E-01  8.50000000E-01  8.50000000E-01  8.50000000E-01
  8.50000000E-01  8.50000000E-01  8.50000000E-01  8.50000000E-01  8.50000000E-01
  8.50000000E-01  8.50000000E-01  8.50000000E-01  8.50000000E-01  8.50000000E-01
  8.50000000E-01  8.50000000E-01  8.50000000E-01  8.50000000E-01  8.50000000E-01
  8.50000000E-01  8.50000000E-01  8.50000000E-01  8.50000000E-01  8.50000000E-01
  8.50000000E-01  8.50000000E-01  8.50000000E-01  8.50000000E-01  8.50000000E-01
  8.50000000E-01  8.50000000E-01  8.50000000E-01  8.50000000E-01  8.50000000E-01
  8.50000000E-01  8.50000000E-01  8.50000000E-01  8.50000000E-01  8.50000000E-01
  8.50000000E-01  8.50000000E-01  8.50000000E-01  8.50000000E-01  8.50000000E-01
  8.50000000E-01  8.50000000E-01  8.50000000E-01  8.50000000E-01  8.50000000E-01
  8.50000000E-01  8.50000000E-01  8.50000000E-01  8.50000000E-01  8.50000000E-01
  8.50000000E-01  8.50000000E-01  8.50000000E-01  8.50000000E-01  8.50000000E-01
  8.50000000E-01  8.50000000E-01  8.50000000E-01  8.50000000E-01  8.50000000E-01
  8.50000000E-01  8.50000000E-01  8.50000000E-01  8.50000000E-01  8.50000000E-01
  8.50000000E-01  8.50000000E-01  8.50000000E-01  8.50000000E-01  8.50000000E-01
  8.50000000E-01  8.50000000E-01  8.50000000E-01  8.50000000E-01  8.50000000E-01
  8.50000000E-01  8.50000000E-01  8.50000000E-01  8.50000000E-01  8.50000000E-01
  8.50000000E-01  8.50000000E-01  8.50000000E-01  8.50000000E-01  8.50000000E-01
  8.50000000E-01  8.50000000E-01  8.50000000E-01  8.50000000E-01  8.50000000E-01
  8.50000000E-01  8.50000000E-01  8.50000000E-01  8.50000000E-01  8.50000000E-01
  8.50000000E-01  8.50000000E-01  8.50000000E-01  8.50000000E-01  8.50000000E-01
  8.50000000E-01  8.50000000E-01  8.50000000E-01  8.50000000E-01  8.50000000E-01
  8.50000000E-01  8.50000000E-01  8.50000000E-01  8.50000000E-01  8.50000000E-01
  8.50000000E-01  8.50000000E-01  8.50000000E-01  8.50000000E-01  8.50000000E-01
  8.50000000E-01  8.50000000E-01  8.50000000E-01  8.50000000E-01  8.50000000E-01
  8.50000000E-01  8.50000000E-01  8.50000000E-01  8.50000000E-01  8.50000000E-01
  8.50000000E-01  8.50000000E-01  8.50000000E-01  8.50000000E-01  8.50000000E-01
  8.50000000E-01  8.50000000E-01  8.50000000E-01  8.50000000E-01  8.50000000E-01
  8.50000000E-01  8.50000000E-01  8.50000000E-01  8.50000000E-01  8.50000000E-01
  8.50000000E-01  8.50000000E-01  8.50000000E-01  8.50000000E-01  8.50000000E-01
  8.50000000E-01  8.50000000E-01  8.50000000E-01  8.50000000E-01  8.50000000E-01
  8.50000000E-01  8.50000000E-01  8.50000000E-01  8.50000000E-01  8.50000000E-01
  8.50000000E-01  8.50000000E-01  8.50000000E-01  8.50000000E-01  8.50000000E-01
  8.50000000E-01  8.50000000E-01  8.50000000E-01  8.50000000E-01  8.50000000E-01
  8.50000000E-01  8.50000000E-01  8.50000000E-01  8.50000000E-01  8.50000000E-01
  8.50000000E-01  8.50000000E-01  8.50000000E-01  8.50000000E-01  8.50000000E-01
  8.50000000E-01  8.50000000E-01  8.50000000E-01  8.50000000E-01  8.50000000E-01
  8.50000000E-01  8.50000000E-01  8.50000000E-01  8.50000000E-01  8.50000000E-01
  8.50000000E-01  8.50000000E-01  8.50000000E-01  8.50000000E-01  8.50000000E-01
  8.50000000E-01  8.50000000E-01  8.50000000E-01  8.50000000E-01  8.50000000E-01
  8.50000000E-01  8.50000000E-01  8.50000000E-01  8.50000000E-01  8.50000000E-01
  8.50000000E-01  8.50000000E-01  8.50000000E-01  8.50000000E-01  8.50000000E-01
  8.50000000E-01  8.50000000E-01  8.50000000E-01  8.50000000E-01  8.50000000E-01
  8.50000000E-01  8.50000000E-01  8.50000000E-01  8.50000000E-01  8.50000000E-01
  8.50000000E-01  8.50000000E-01  8.50000000E-01  8.50000000E-01  8.50000000E-01
  8.50000000E-01  8.50000000E-01  8.50000000E-01  8.50000000E-01  8.50000000E-01
  8.50000000E-01  8.50000000E-01  8.50000000E-01  8.50000000E-01  8.50000000E-01
  8.50000000E-01  8.50000000E-01  8.50000000E-01  8.50000000E-01  8.50000000E-01
  8.50000000E-01  8.50000000E-01  8.50000000E-01  8.50000000E-01  8.50000000E-01
  8.50000000E-01  8.50000000E-01  8.50000000E-01  8.50000000E-01  8.50000000E-01
  8.50000000E-01  8.50000000E-01  8.50000000E-01  8.50000000E-01  8.50000000E-01
  8.50000000E-01  8.50000000E-01  8.50000000E-01  8.50000000E-01  8.50000000E-01
  8.50000000E-01  8.50000000E-01  8.50000000E-01  8.50000000E-01  8.50000000E-01
  8.50000000E-01  8.50000000E-01  8.50000000E-01  8.50000000E-01  8.50000000E-01
  8.50000000E-01  8.50000000E-01  8.50000000E-01  8.50000000E-01  8.50000000E-01
  8.50000000E-01  8.50000000E-01  8.50000000E-01  8.50000000E-01  8.50000000E-01
  8.50000000E-01  8.50000000E-01  8.50000000E-01  8.50000000E-01  8.50000000E-01
  8.50000000E-01  8.50000000E-01  8.50000000E-01  8.50000000E-01  8.50000000E-01
  8.50000000E-01  8.50000000E-01  8.50000000E-01  8.50000000E-01  8.50000000E-01
  8.50000000E-01  8.50000000E-01  8.50000000E-01  8.50000000E-01  8.50000000E-01
  8.50000000E-01  8.50000000E-01  8.50000000E-01  8.50000000E-01  8.50000000E-01
  8.50000000E-01  8.50000000E-01  8.50000000E-01  8.50000000E-01  8.50000000E-01
  8.50000000E-01  8.50000000E-01  8.50000000E-01  8.50000000E-01  8.50000000E-01
  8.50000000E-01  8.50000000E-01  8.50000000E-01  8.50000000E-01  8.50000000E-01
  8.50000000E-01  8.50000000E-01  8.50000000E-01  8.50000000E-01  8.50000000E-01
  8.50000000E-01  8.50000000E-01  8.50000000E-01  8.50000000E-01  8.50000000E-01
  8.50000000E-01  8.50000000E-01  8.50000000E-01  8.50000000E-01  8.50000000E-01
  8.50000000E-01  8.50000000E-01  8.50000000E-01  8.50000000E-01  8.50000000E-01
  8.50000000E-01  8.50000000E-01  8.50000000E-01  8.50000000E-01  8.50000000E-01
  8.50000000E-01  8.50000000E-01  8.50000000E-01  8.50000000E-01  8.50000000E-01
  8.50000000E-01  8.50000000E-01  8.50000000E-01  8.50000000E-01  8.50000000E-01
  8.50000000E-01  8.50000000E-01  8.50000000E-01  8.50000000E-01  8.50000000E-01
  8.50000000E-01  8.50000000E-01  8.50000000E-01  8.50000000E-01  8.50000000E-01
  8.50000000E-01  8.50000000E-01  8.50000000E-01  8.50000000E-01  8.50000000E-01
  8.50000000E-01  8.50000000E-01  8.50000000E-01  8.50000000E-01  8.50000000E-01
  8.50000000E-01  8.50000000E-01  8.50000000E-01  8.50000000E-01  8.50000000E-01
  8.50000000E-01  8.50000000E-01  8.50000000E-01  8.50000000E-01  8.50000000E-01
  8.50000000E-01  8.50000000E-01  8.50000000E-01  8.50000000E-01  8.50000000E-01
  8.50000000E-01  8.50000000E-01  8.50000000E-01  8.50000000E-01  8.50000000E-01
  8.50000000E-01  8.50000000E-01  8.50000000E-01  8.50000000E-01  8.50000000E-01
  8.50000000E-01  8.50000000E-01  8.50000000E-01  8.50000000E-01  8.50000000E-01
  8.50000000E-01  8.50000000E-01  8.50000000E-01  8.50000000E-01  8.50000000E-01
  8.50000000E-01  8.50000000E-01  8.50000000E-01  8.50000000E-01  8.50000000E-01
  8.50000000E-01  8.50000000E-01  8.50000000E-01  8.50000000E-01  8.50000000E-01
  8.50000000E-01  8.50000000E-01  8.50000000E-01  8.50000000E-01  8.50000000E-01
  8.50000000E-01  8.50000000E-01  8.50000000E-01  8.50000000E-01  8.50000000E-01
  8.50000000E-01  8.50000000E-01  8.50000000E-01  8.50000000E-01  8.50000000E-01
  8.50000000E-01  8.50000000E-01  8.50000000E-01  8.50000000E-01  8.50000000E-01
  8.50000000E-01  8.50000000E-01  8.50000000E-01  8.50000000E-01  8.50000000E-01
  8.50000000E-01  8.50000000E-01  8.50000000E-01  8.50000000E-01  8.50000000E-01
  8.50000000E-01  8.50000000E-01  8.50000000E-01  8.50000000E-01  8.50000000E-01
  8.50000000E-01  8.50000000E-01  8.50000000E-01  8.50000000E-01  8.50000000E-01
  8.50000000E-01  8.50000000E-01  8.50000000E-01  8.50000000E-01  8.50000000E-01
  8.50000000E-01  8.50000000E-01  8.50000000E-01  8.50000000E-01  8.50000000E-01
  8.50000000E-01  8.50000000E-01  8.50000000E-01  8.50000000E-01  8.50000000E-01
  8.50000000E-01  8.50000000E-01  8.50000000E-01  8.50000000E-01  8.50000000E-01
  8.50000000E-01  8.50000000E-01  8.50000000E-01  8.50000000E-01  8.50000000E-01
  8.50000000E-01  8.50000000E-01  8.50000000E-01  8.50000000E-01  8.50000000E-01
  8.50000000E-01  8.50000000E-01  8.50000000E-01  8.50000000E-01  8.50000000E-01
  8.50000000E-01  8.50000000E-01  8.50000000E-01  8.50000000E-01  8.50000000E-01
  8.50000000E-01  8.50000000E-01  8.50000000E-01  8.50000000E-01  8.50000000E-01
  8.50000000E-01  8.50000000E-01  8.50000000E-01  8.50000000E-01  8.50000000E-01
  8.50000000E-01  8.50000000E-01  8.50000000E-01  8.50000000E-01  8.50000000E-01
  8.50000000E-01  8.50000000E-01  8.50000000E-01  8.50000000E-01  8.50000000E-01
  8.50000000E-01  8.50000000E-01  8.50000000E-01  8.50000000E-01  8.50000000E-01
  8.50000000E-01  8.50000000E-01  8.50000000E-01  8.50000000E-01  8.50000000E-01
  8.50000000E-01  8.50000000E-01  8.50000000E-01  8.50000000E-01  8.50000000E-01
  8.50000000E-01  8.50000000E-01  8.50000000E-01  8.50000000E-01  8.50000000E-01
  8.50000000E-01  8.50000000E-01  8.50000000E-01  8.50000000E-01  8.50000000E-01
  8.50000000E-01  8.50000000E-01  8.50000000E-01  8.50000000E-01  8.50000000E-01
  8.50000000E-01  8.50000000E-01  8.50000000E-01  8.50000000E-01  8.50000000E-01
  8.50000000E-01  8.50000000E-01  8.50000000E-01  8.50000000E-01  8.50000000E-01
  8.50000000E-01  8.50000000E-01  8.50000000E-01  8.50000000E-01  8.50000000E-01
  8.50000000E-01  8.50000000E-01  8.50000000E-01  8.50000000E-01  8.50000000E-01
  8.50000000E-01  8.50000000E-01  8.50000000E-01  8.50000000E-01  8.50000000E-01
  8.50000000E-01  8.50000000E-01  8.50000000E-01  8.50000000E-01  8.50000000E-01
  8.50000000E-01  8.50000000E-01  8.50000000E-01  8.50000000E-01  8.50000000E-01
  8.50000000E-01  8.50000000E-01  8.50000000E-01  8.50000000E-01  8.50000000E-01
  8.50000000E-01  8.50000000E-01  8.50000000E-01  8.50000000E-01  8.50000000E-01
  8.50000000E-01  8.50000000E-01  8.50000000E-01  8.50000000E-01  8.50000000E-01
  8.50000000E-01  8.50000000E-01  8.50000000E-01  8.50000000E-01  8.50000000E-01
  8.50000000E-01  8.50000000E-01  8.50000000E-01  8.50000000E-01  8.50000000E-01
  8.50000000E-01  8.50000000E-01  8.50000000E-01  8.50000000E-01  8.50000000E-01
  8.50000000E-01  8.50000000E-01  8.50000000E-01  8.50000000E-01  8.50000000E-01
  8.50000000E-01  8.50000000E-01  8.50000000E-01  8.50000000E-01  8.50000000E-01
  8.50000000E-01  8.50000000E-01  8.50000000E-01  8.50000000E-01  8.50000000E-01
  8.50000000E-01  8.50000000E-01  8.50000000E-01  8.50000000E-01  8.50000000E-01
  8.50000000E-01  8.50000000E-01  8.50000000E-01  8.50000000E-01  8.50000000E-01
  8.50000000E-01  8.50000000E-01  8.50000000E-01  8.50000000E-01  8.50000000E-01
  8.50000000E-01  8.50000000E-01  8.50000000E-01  8.50000000E-01  8.50000000E-01
  8.50000000E-01  8.50000000E-01  8.50000000E-01  8.50000000E-01  8.50000000E-01
  8.50000000E-01  8.50000000E-01  8.50000000E-01  8.50000000E-01  8.50000000E-01
  8.50000000E-01  8.50000000E-01  8.50000000E-01  8.50000000E-01  8.50000000E-01
  8.50000000E-01  8.50000000E-01  8.50000000E-01  8.50000000E-01  8.50000000E-01
  8.50000000E-01  8.50000000E-01  8.50000000E-01  8.50000000E-01  8.50000000E-01
  8.50000000E-01  8.50000000E-01  8.50000000E-01  8.50000000E-01  8.50000000E-01
  8.50000000E-01  8.50000000E-01  8.50000000E-01  8.50000000E-01  8.50000000E-01
  8.50000000E-01  8.50000000E-01  8.50000000E-01  8.50000000E-01  8.50000000E-01
  8.50000000E-01  8.50000000E-01  8.50000000E-01  8.50000000E-01  8.50000000E-01
  8.50000000E-01  8.50000000E-01  8.50000000E-01  8.50000000E-01  8.50000000E-01
  8.50000000E-01  8.50000000E-01  8.50000000E-01  8.50000000E-01  8.50000000E-01
  8.50000000E-01  8.50000000E-01  8.50000000E-01  8.50000000E-01  8.50000000E-01
  8.50000000E-01  8.50000000E-01  8.50000000E-01  8.50000000E-01  8.50000000E-01
  8.50000000E-01  8.50000000E-01  8.50000000E-01  8.50000000E-01  8.50000000E-01
  8.50000000E-01  8.50000000E-01  8.50000000E-01  8.50000000E-01  8.50000000E-01
  8.50000000E-01  8.50000000E-01  8.50000000E-01  8.50000000E-01  8.50000000E-01
  8.50000000E-01  8.50000000E-01  8.50000000E-01  8.50000000E-01  8.50000000E-01
  8.50000000E-01  8.50000000E-01  8.50000000E-01  8.50000000E-01  8.50000000E-01
  8.50000000E-01  8.50000000E-01  8.50000000E-01  8.50000000E-01  8.50000000E-01
  8.50000000E-01  8.50000000E-01  8.50000000E-01  8.50000000E-01  8.50000000E-01
  8.50000000E-01  8.50000000E-01  8.50000000E-01  8.50000000E-01  8.50000000E-01
  8.50000000E-01  8.50000000E-01  8.50000000E-01  8.50000000E-01  8.50000000E-01
  8.50000000E-01  8.50000000E-01  8.50000000E-01  8.50000000E-01  8.50000000E-01
  8.50000000E-01  8.50000000E-01  8.50000000E-01  8.50000000E-01  8.50000000E-01
  8.50000000E-01  8.50000000E-01  8.50000000E-01  8.50000000E-01  8.50000000E-01
  8.50000000E-01  8.50000000E-01  8.50000000E-01  8.50000000E-01  8.50000000E-01
  8.50000000E-01  8.50000000E-01  8.50000000E-01  8.50000000E-01  8.50000000E-01
  8.50000000E-01  8.50000000E-01  8.50000000E-01  8.50000000E-01  8.50000000E-01
  8.50000000E-01  8.50000000E-01  8.50000000E-01  8.50000000E-01  8.50000000E-01
  8.50000000E-01  8.50000000E-01  8.50000000E-01  8.50000000E-01  8.50000000E-01
  8.50000000E-01  8.50000000E-01  8.50000000E-01  8.50000000E-01  8.50000000E-01
  8.50000000E-01  8.50000000E-01  8.50000000E-01  8.50000000E-01  8.50000000E-01
  8.50000000E-01  8.50000000E-01  8.50000000E-01  8.50000000E-01  8.50000000E-01
  8.50000000E-01  8.50000000E-01  8.50000000E-01  8.50000000E-01  8.50000000E-01
  8.50000000E-01  8.50000000E-01  8.50000000E-01  8.50000000E-01  8.50000000E-01
  8.50000000E-01  8.50000000E-01  8.50000000E-01  8.50000000E-01  8.50000000E-01
  8.50000000E-01  8.50000000E-01  8.50000000E-01  8.50000000E-01  8.50000000E-01
  8.50000000E-01  8.50000000E-01  8.50000000E-01  8.50000000E-01  8.50000000E-01
  8.50000000E-01  8.50000000E-01  8.50000000E-01  8.50000000E-01  8.50000000E-01
  8.50000000E-01  8.50000000E-01  8.50000000E-01  8.50000000E-01  8.50000000E-01
  8.50000000E-01  8.50000000E-01  8.50000000E-01  8.50000000E-01  8.50000000E-01
  8.50000000E-01  8.50000000E-01  8.50000000E-01  8.50000000E-01  8.50000000E-01
  8.50000000E-01  8.50000000E-01  8.50000000E-01  8.50000000E-01  8.50000000E-01
  8.50000000E-01  8.50000000E-01  8.50000000E-01  8.50000000E-01  8.50000000E-01
  8.50000000E-01  8.50000000E-01  8.50000000E-01  8.50000000E-01  8.50000000E-01
  8.50000000E-01  8.50000000E-01  8.50000000E-01  8.50000000E-01  8.50000000E-01
  8.50000000E-01  8.50000000E-01  8.50000000E-01  8.50000000E-01  8.50000000E-01
  8.50000000E-01  8.50000000E-01  8.50000000E-01  8.50000000E-01  8.50000000E-01
  8.50000000E-01  8.50000000E-01  8.50000000E-01  8.50000000E-01  8.50000000E-01
  8.50000000E-01  8.50000000E-01  8.50000000E-01  8.50000000E-01  8.50000000E-01
  8.50000000E-01  8.50000000E-01  8.50000000E-01  8.50000000E-01  8.50000000E-01
  8.50000000E-01  8.50000000E-01  8.50000000E-01  8.50000000E-01  8.50000000E-01
  8.50000000E-01  8.50000000E-01  8.50000000E-01  8.50000000E-01  8.50000000E-01
  8.50000000E-01  8.50000000E-01  8.50000000E-01  8.50000000E-01  8.50000000E-01
  8.50000000E-01  8.50000000E-01  8.50000000E-01  8.50000000E-01  8.50000000E-01
  8.50000000E-01  8.50000000E-01  8.50000000E-01  8.50000000E-01  8.50000000E-01
  8.50000000E-01  8.50000000E-01  8.50000000E-01  8.50000000E-01  8.50000000E-01
  8.50000000E-01  8.50000000E-01  8.50000000E-01  8.50000000E-01  8.50000000E-01
  8.50000000E-01  8.50000000E-01  8.50000000E-01  8.50000000E-01  8.50000000E-01
  8.50000000E-01  8.50000000E-01  8.50000000E-01  8.50000000E-01  8.50000000E-01
  8.50000000E-01  8.50000000E-01  8.50000000E-01  8.50000000E-01  8.50000000E-01
  8.50000000E-01  8.50000000E-01  8.50000000E-01  8.50000000E-01  8.50000000E-01
  8.50000000E-01  8.50000000E-01  8.50000000E-01  8.50000000E-01  8.50000000E-01
  8.50000000E-01  8.50000000E-01  8.50000000E-01  8.50000000E-01  8.50000000E-01
  8.50000000E-01  8.50000000E-01  8.50000000E-01  8.50000000E-01  8.50000000E-01
  8.50000000E-01  8.50000000E-01  8.50000000E-01  8.50000000E-01  8.50000000E-01
  8.50000000E-01  8.50000000E-01  8.50000000E-01  8.50000000E-01  8.50000000E-01
  8.50000000E-01  8.50000000E-01  8.50000000E-01  8.50000000E-01  8.50000000E-01
  8.50000000E-01  8.50000000E-01  8.50000000E-01  8.50000000E-01  8.50000000E-01
  8.50000000E-01  8.50000000E-01  8.50000000E-01  8.50000000E-01  8.50000000E-01
  8.50000000E-01  8.50000000E-01  8.50000000E-01  8.50000000E-01  8.50000000E-01
  8.50000000E-01  8.50000000E-01  8.50000000E-01  8.50000000E-01  8.50000000E-01
  8.50000000E-01  8.50000000E-01  8.50000000E-01  8.50000000E-01  8.50000000E-01
  8.50000000E-01  8.50000000E-01  8.50000000E-01  8.50000000E-01  8.50000000E-01
  8.50000000E-01  8.50000000E-01  8.50000000E-01  8.50000000E-01  8.50000000E-01
  8.50000000E-01  8.50000000E-01  8.50000000E-01  8.50000000E-01  8.50000000E-01
  8.50000000E-01  8.50000000E-01  8.50000000E-01  8.50000000E-01  8.50000000E-01
  8.50000000E-01  8.50000000E-01  8.50000000E-01  8.50000000E-01  8.50000000E-01
  8.50000000E-01  8.50000000E-01  8.50000000E-01  8.50000000E-01  8.50000000E-01
  8.50000000E-01  8.50000000E-01  8.50000000E-01  8.50000000E-01  8.50000000E-01
  8.50000000E-01  8.50000000E-01  8.50000000E-01  8.50000000E-01  8.50000000E-01
  8.50000000E-01  8.50000000E-01  8.50000000E-01  8.50000000E-01  8.50000000E-01
  8.50000000E-01  8.50000000E-01  8.50000000E-01  8.50000000E-01  8.50000000E-01
  8.50000000E-01  8.50000000E-01  8.50000000E-01  8.50000000E-01  8.50000000E-01
  8.50000000E-01  8.50000000E-01  8.50000000E-01  8.50000000E-01  8.50000000E-01
  8.50000000E-01  8.50000000E-01  8.50000000E-01  8.50000000E-01  8.50000000E-01
  8.50000000E-01  8.50000000E-01  8.50000000E-01  8.50000000E-01  8.50000000E-01
  8.50000000E-01  8.50000000E-01  8.50000000E-01  8.50000000E-01  8.50000000E-01
  8.50000000E-01  8.50000000E-01  8.50000000E-01  8.50000000E-01  8.50000000E-01
  8.50000000E-01  8.50000000E-01  8.50000000E-01  8.50000000E-01  8.50000000E-01
  8.50000000E-01  8.50000000E-01  8.50000000E-01  8.50000000E-01  8.50000000E-01
  8.50000000E-01  8.50000000E-01  8.50000000E-01  8.50000000E-01  8.50000000E-01
  8.50000000E-01  8.50000000E-01  8.50000000E-01  8.50000000E-01  8.50000000E-01
  8.50000000E-01  8.50000000E-01  8.50000000E-01  8.50000000E-01  8.50000000E-01
  8.50000000E-01  8.50000000E-01  8.50000000E-01  8.50000000E-01  8.50000000E-01
  8.50000000E-01  8.50000000E-01  8.50000000E-01  8.50000000E-01  8.50000000E-01
  8.50000000E-01  8.50000000E-01  8.50000000E-01  8.50000000E-01  8.50000000E-01
  8.50000000E-01  8.50000000E-01  8.50000000E-01  8.50000000E-01  8.50000000E-01
  8.50000000E-01  8.50000000E-01  8.50000000E-01  8.50000000E-01  8.50000000E-01
  8.50000000E-01  8.50000000E-01  8.50000000E-01  8.50000000E-01  8.50000000E-01
  8.50000000E-01  8.50000000E-01  8.50000000E-01  8.50000000E-01  8.50000000E-01
  8.50000000E-01  8.50000000E-01  8.50000000E-01  8.50000000E-01  8.50000000E-01
  8.50000000E-01  8.50000000E-01  8.50000000E-01  8.50000000E-01  8.50000000E-01
  8.50000000E-01  8.50000000E-01  8.50000000E-01  8.50000000E-01  8.50000000E-01
  8.50000000E-01  8.50000000E-01  8.50000000E-01  8.50000000E-01  8.50000000E-01
  8.50000000E-01  8.50000000E-01  8.50000000E-01  8.50000000E-01  8.50000000E-01
  8.50000000E-01  8.50000000E-01  8.50000000E-01  8.50000000E-01  8.50000000E-01
  8.50000000E-01  8.50000000E-01  8.50000000E-01  8.50000000E-01  8.50000000E-01
  8.50000000E-01  8.50000000E-01  8.50000000E-01  8.50000000E-01  8.50000000E-01
  8.50000000E-01  8.50000000E-01  8.50000000E-01  8.50000000E-01  8.50000000E-01
  8.50000000E-01  8.50000000E-01  8.50000000E-01  8.50000000E-01  8.50000000E-01
  8.50000000E-01  8.50000000E-01  8.50000000E-01  8.50000000E-01  8.50000000E-01
  8.50000000E-01  8.50000000E-01  8.50000000E-01  8.50000000E-01  8.50000000E-01
  8.50000000E-01  8.50000000E-01  8.50000000E-01  8.50000000E-01  8.50000000E-01
  8.50000000E-01  8.50000000E-01  8.50000000E-01  8.50000000E-01  8.50000000E-01
  8.50000000E-01  8.50000000E-01  8.50000000E-01  8.50000000E-01  8.50000000E-01
  8.50000000E-01  8.50000000E-01  8.50000000E-01  8.50000000E-01  8.50000000E-01
  8.50000000E-01  8.50000000E-01  8.50000000E-01  8.50000000E-01  8.50000000E-01
  8.50000000E-01  8.50000000E-01  8.50000000E-01  8.50000000E-01  8.50000000E-01
  8.50000000E-01  8.50000000E-01  8.50000000E-01  8.50000000E-01  8.50000000E-01
  8.50000000E-01  8.50000000E-01  8.50000000E-01  8.50000000E-01  8.50000000E-01
  8.50000000E-01  8.50000000E-01  8.50000000E-01  8.50000000E-01  8.50000000E-01
  8.50000000E-01  8.50000000E-01  8.50000000E-01  8.50000000E-01  8.50000000E-01
  8.50000000E-01  8.50000000E-01  8.50000000E-01  8.50000000E-01  8.50000000E-01
  8.50000000E-01  8.50000000E-01  8.50000000E-01  8.50000000E-01  8.50000000E-01
  8.50000000E-01  8.50000000E-01  8.50000000E-01  8.50000000E-01  8.50000000E-01
  8.50000000E-01  8.50000000E-01  8.50000000E-01  8.50000000E-01  8.50000000E-01
  8.50000000E-01  8.50000000E-01  8.50000000E-01  8.50000000E-01  8.50000000E-01
  8.50000000E-01  8.50000000E-01  8.50000000E-01  8.50000000E-01  8.50000000E-01
  8.50000000E-01  8.50000000E-01  8.50000000E-01  8.50000000E-01  8.50000000E-01
  8.50000000E-01  8.50000000E-01  8.50000000E-01  8.50000000E-01  8.50000000E-01
  8.50000000E-01  8.50000000E-01  8.50000000E-01  8.50000000E-01  8.50000000E-01
  8.50000000E-01  8.50000000E-01  8.50000000E-01  8.50000000E-01  8.50000000E-01
  8.50000000E-01  8.50000000E-01  8.50000000E-01  8.50000000E-01  8.50000000E-01
  8.50000000E-01  8.50000000E-01  8.50000000E-01  8.50000000E-01  8.50000000E-01
  8.50000000E-01  8.50000000E-01  8.50000000E-01  8.50000000E-01  8.50000000E-01
  8.50000000E-01  8.50000000E-01  8.50000000E-01  8.50000000E-01  8.50000000E-01
  8.50000000E-01  8.50000000E-01  8.50000000E-01  8.50000000E-01  8.50000000E-01
  8.50000000E-01  8.50000000E-01  8.50000000E-01  8.50000000E-01  8.50000000E-01
  8.50000000E-01  8.50000000E-01  8.50000000E-01  8.50000000E-01  8.50000000E-01
  8.50000000E-01  8.50000000E-01  8.50000000E-01  8.50000000E-01  8.50000000E-01
  8.50000000E-01  8.50000000E-01  8.50000000E-01  8.50000000E-01  8.50000000E-01
  8.50000000E-01  8.50000000E-01  8.50000000E-01  8.50000000E-01  8.50000000E-01
  8.50000000E-01  8.50000000E-01  8.50000000E-01  8.50000000E-01  8.50000000E-01
  8.50000000E-01  8.50000000E-01  8.50000000E-01  8.50000000E-01  8.50000000E-01
  8.50000000E-01  8.50000000E-01  8.50000000E-01  8.50000000E-01  8.50000000E-01
  8.50000000E-01  8.50000000E-01  8.50000000E-01  8.50000000E-01  8.50000000E-01
  8.50000000E-01  8.50000000E-01  8.50000000E-01  8.50000000E-01  8.50000000E-01
  8.50000000E-01  8.50000000E-01  8.50000000E-01  8.50000000E-01  8.50000000E-01
  8.50000000E-01  8.50000000E-01  8.50000000E-01  8.50000000E-01  8.50000000E-01
  8.50000000E-01  8.50000000E-01  8.50000000E-01  8.50000000E-01  8.50000000E-01
  8.50000000E-01  8.50000000E-01  8.50000000E-01  8.50000000E-01  8.50000000E-01
  8.50000000E-01  8.50000000E-01  8.50000000E-01  8.50000000E-01  8.50000000E-01
  8.50000000E-01  8.50000000E-01  8.50000000E-01  8.50000000E-01  8.50000000E-01
  8.50000000E-01  8.50000000E-01  8.50000000E-01  8.50000000E-01  8.50000000E-01
  8.50000000E-01  8.50000000E-01  8.50000000E-01  8.50000000E-01  8.50000000E-01
  8.50000000E-01  8.50000000E-01  8.50000000E-01  8.50000000E-01  8.50000000E-01
  8.50000000E-01  8.50000000E-01  8.50000000E-01  8.50000000E-01  8.50000000E-01
  8.50000000E-01  8.50000000E-01  8.50000000E-01  8.50000000E-01  8.50000000E-01
  8.50000000E-01  8.50000000E-01  8.50000000E-01  8.50000000E-01  8.50000000E-01
  8.50000000E-01  8.50000000E-01  8.50000000E-01  8.50000000E-01  8.50000000E-01
  8.50000000E-01  8.50000000E-01  8.50000000E-01  8.50000000E-01  8.50000000E-01
  8.50000000E-01  8.50000000E-01  8.50000000E-01  8.50000000E-01  8.50000000E-01
  8.50000000E-01  8.50000000E-01  8.50000000E-01  8.50000000E-01  8.50000000E-01
  8.50000000E-01  8.50000000E-01  8.50000000E-01  8.50000000E-01  8.50000000E-01
  8.50000000E-01  8.50000000E-01  8.50000000E-01  8.50000000E-01  8.50000000E-01
  8.50000000E-01  8.50000000E-01  8.50000000E-01  8.50000000E-01  8.50000000E-01
  8.50000000E-01  8.50000000E-01  8.50000000E-01  8.50000000E-01  8.50000000E-01
  8.50000000E-01  8.50000000E-01  8.50000000E-01  8.50000000E-01  8.50000000E-01
  8.50000000E-01  8.50000000E-01  8.50000000E-01  8.50000000E-01  8.50000000E-01
  8.50000000E-01  8.50000000E-01  8.50000000E-01  8.50000000E-01  8.50000000E-01
  8.50000000E-01  8.50000000E-01  8.50000000E-01  8.50000000E-01  8.50000000E-01
  8.50000000E-01  8.50000000E-01  8.50000000E-01  8.50000000E-01  8.50000000E-01
  8.50000000E-01  8.50000000E-01  8.50000000E-01  8.50000000E-01  8.50000000E-01
  8.50000000E-01  8.50000000E-01  8.50000000E-01  8.50000000E-01  8.50000000E-01
  8.50000000E-01  8.50000000E-01  8.50000000E-01  8.50000000E-01  8.50000000E-01
  8.50000000E-01  8.50000000E-01  8.50000000E-01  8.50000000E-01  8.50000000E-01
  8.50000000E-01  8.50000000E-01  8.50000000E-01  8.50000000E-01  8.50000000E-01
  8.50000000E-01  8.50000000E-01  8.50000000E-01  8.50000000E-01  8.50000000E-01
  8.50000000E-01  8.50000000E-01  8.50000000E-01  8.50000000E-01  8.50000000E-01
  8.50000000E-01  8.50000000E-01  8.50000000E-01  8.50000000E-01  8.50000000E-01
  8.50000000E-01  8.50000000E-01  8.50000000E-01  8.50000000E-01  8.50000000E-01
  8.50000000E-01  8.50000000E-01  8.50000000E-01  8.50000000E-01  8.50000000E-01
  8.50000000E-01  8.50000000E-01  8.50000000E-01  8.50000000E-01  8.50000000E-01
  8.50000000E-01  8.50000000E-01  8.50000000E-01  8.50000000E-01  8.50000000E-01
  8.50000000E-01  8.50000000E-01  8.50000000E-01  8.50000000E-01  8.50000000E-01
  8.50000000E-01  8.50000000E-01  8.50000000E-01  8.50000000E-01  8.50000000E-01
  8.50000000E-01  8.50000000E-01  8.50000000E-01  8.50000000E-01  8.50000000E-01
  8.50000000E-01  8.50000000E-01  8.50000000E-01  8.50000000E-01  8.50000000E-01
  8.50000000E-01  8.50000000E-01  8.50000000E-01  8.50000000E-01  8.50000000E-01
  8.50000000E-01  8.50000000E-01  8.50000000E-01  8.50000000E-01  8.50000000E-01
  8.50000000E-01  8.50000000E-01  8.50000000E-01  8.50000000E-01  8.50000000E-01
  8.50000000E-01  8.50000000E-01  8.50000000E-01  8.50000000E-01  8.50000000E-01
  8.50000000E-01  8.50000000E-01  8.50000000E-01  8.50000000E-01  8.50000000E-01
  8.50000000E-01  8.50000000E-01  8.50000000E-01  8.50000000E-01  8.50000000E-01
  8.50000000E-01  8.50000000E-01  8.50000000E-01  8.50000000E-01  8.50000000E-01
  8.50000000E-01  8.50000000E-01  8.50000000E-01  8.50000000E-01  8.50000000E-01
  8.50000000E-01  8.50000000E-01  8.50000000E-01  8.50000000E-01  8.50000000E-01
  8.50000000E-01  8.50000000E-01  8.50000000E-01  8.50000000E-01  8.50000000E-01
  8.50000000E-01  8.50000000E-01  8.50000000E-01  8.50000000E-01  8.50000000E-01
  8.50000000E-01  8.50000000E-01  8.50000000E-01  8.50000000E-01  8.50000000E-01
  8.50000000E-01  8.50000000E-01  8.50000000E-01  8.50000000E-01  8.50000000E-01
  8.50000000E-01  8.50000000E-01  8.50000000E-01  8.50000000E-01  8.50000000E-01
  8.50000000E-01  8.50000000E-01  8.50000000E-01  8.50000000E-01  8.50000000E-01
  8.50000000E-01  8.50000000E-01  8.50000000E-01  8.50000000E-01  8.50000000E-01
  8.50000000E-01  8.50000000E-01  8.50000000E-01  8.50000000E-01  8.50000000E-01
  8.50000000E-01  8.50000000E-01  8.50000000E-01  8.50000000E-01  8.50000000E-01
  8.50000000E-01  8.50000000E-01  8.50000000E-01  8.50000000E-01  8.50000000E-01
  8.50000000E-01  8.50000000E-01  8.50000000E-01  8.50000000E-01  8.50000000E-01
  8.50000000E-01  8.50000000E-01  8.50000000E-01  8.50000000E-01  8.50000000E-01
  8.50000000E-01  8.50000000E-01  8.50000000E-01  8.50000000E-01  8.50000000E-01
  8.50000000E-01  8.50000000E-01  8.50000000E-01  8.50000000E-01  8.50000000E-01
  8.50000000E-01  8.50000000E-01  8.50000000E-01  8.50000000E-01  8.50000000E-01
  8.50000000E-01  8.50000000E-01  8.50000000E-01  8.50000000E-01  8.50000000E-01
  8.50000000E-01  8.50000000E-01  8.50000000E-01  8.50000000E-01  8.50000000E-01
  8.50000000E-01  8.50000000E-01  8.50000000E-01  8.50000000E-01  8.50000000E-01
  8.50000000E-01  8.50000000E-01  8.50000000E-01  8.50000000E-01  8.50000000E-01
  8.50000000E-01  8.50000000E-01  8.50000000E-01  8.50000000E-01  8.50000000E-01
  8.50000000E-01  8.50000000E-01  8.50000000E-01  8.50000000E-01  8.50000000E-01
  8.50000000E-01  8.50000000E-01  8.50000000E-01  8.50000000E-01  8.50000000E-01
  8.50000000E-01  8.50000000E-01  8.50000000E-01  8.50000000E-01  8.50000000E-01
  8.50000000E-01  8.50000000E-01  8.50000000E-01  8.50000000E-01  8.50000000E-01
  8.50000000E-01  8.50000000E-01  8.50000000E-01  8.50000000E-01  8.50000000E-01
  8.50000000E-01  8.50000000E-01  8.50000000E-01  8.50000000E-01  8.50000000E-01
  8.50000000E-01  8.50000000E-01  8.50000000E-01  8.50000000E-01  8.50000000E-01
  8.50000000E-01  8.50000000E-01  8.50000000E-01  8.50000000E-01  8.50000000E-01
  8.50000000E-01  8.50000000E-01  8.50000000E-01  8.50000000E-01  8.50000000E-01
  8.50000000E-01  8.50000000E-01  8.50000000E-01  8.50000000E-01  8.50000000E-01
  8.50000000E-01  8.50000000E-01  8.50000000E-01  8.50000000E-01  8.50000000E-01
  8.50000000E-01  8.50000000E-01  8.50000000E-01  8.50000000E-01  8.50000000E-01
  8.50000000E-01  8.50000000E-01  8.50000000E-01  8.50000000E-01  8.50000000E-01
  8.50000000E-01  8.50000000E-01  8.50000000E-01  8.50000000E-01  8.50000000E-01
  8.50000000E-01  8.50000000E-01  8.50000000E-01  8.50000000E-01  8.50000000E-01
  8.50000000E-01  8.50000000E-01  8.50000000E-01  8.50000000E-01  8.50000000E-01
  8.50000000E-01  8.50000000E-01  8.50000000E-01  8.50000000E-01  8.50000000E-01
  8.50000000E-01  8.50000000E-01  8.50000000E-01  8.50000000E-01  8.50000000E-01
  8.50000000E-01  8.50000000E-01  8.50000000E-01  8.50000000E-01  8.50000000E-01
  8.50000000E-01  8.50000000E-01  8.50000000E-01  8.50000000E-01  8.50000000E-01
  8.50000000E-01  8.50000000E-01  8.50000000E-01  8.50000000E-01  8.50000000E-01
  8.50000000E-01  8.50000000E-01  8.50000000E-01  8.50000000E-01  8.50000000E-01
  8.50000000E-01  8.50000000E-01  8.50000000E-01  8.50000000E-01  8.50000000E-01
  8.50000000E-01  8.50000000E-01  8.50000000E-01  8.50000000E-01  8.50000000E-01
  8.50000000E-01  8.50000000E-01  8.50000000E-01  8.50000000E-01  8.50000000E-01
  8.50000000E-01  8.50000000E-01  8.50000000E-01  8.50000000E-01  8.50000000E-01
  8.50000000E-01  8.50000000E-01  8.50000000E-01  8.50000000E-01  8.50000000E-01
  8.50000000E-01  8.50000000E-01  8.50000000E-01  8.50000000E-01  8.50000000E-01
  8.50000000E-01  8.50000000E-01  8.50000000E-01  8.50000000E-01  8.50000000E-01
  8.50000000E-01  8.50000000E-01  8.50000000E-01  8.50000000E-01  8.50000000E-01
  8.50000000E-01  8.50000000E-01  8.50000000E-01  8.50000000E-01  8.50000000E-01
  8.50000000E-01  8.50000000E-01  8.50000000E-01  8.50000000E-01  8.50000000E-01
  8.50000000E-01  8.50000000E-01  8.50000000E-01  8.50000000E-01  8.50000000E-01
  8.50000000E-01  8.50000000E-01  8.50000000E-01  8.50000000E-01  8.50000000E-01
  8.50000000E-01  8.50000000E-01  8.50000000E-01  8.50000000E-01  8.50000000E-01
  8.50000000E-01  8.50000000E-01  8.50000000E-01  8.50000000E-01  8.50000000E-01
  8.50000000E-01  8.50000000E-01  8.50000000E-01  8.50000000E-01  8.50000000E-01
  8.50000000E-01  8.50000000E-01  8.50000000E-01  8.50000000E-01  8.50000000E-01
  8.50000000E-01  8.50000000E-01  8.50000000E-01  8.50000000E-01  8.50000000E-01
  8.50000000E-01  8.50000000E-01  8.50000000E-01  8.50000000E-01  8.50000000E-01
  8.50000000E-01  8.50000000E-01  8.50000000E-01  8.50000000E-01  8.50000000E-01
  8.50000000E-01  8.50000000E-01  8.50000000E-01  8.50000000E-01  8.50000000E-01
  8.50000000E-01  8.50000000E-01  8.50000000E-01  8.50000000E-01  8.50000000E-01
  8.50000000E-01  8.50000000E-01  8.50000000E-01  8.50000000E-01  8.50000000E-01
  8.50000000E-01  8.50000000E-01  8.50000000E-01  8.50000000E-01  8.50000000E-01
  8.50000000E-01  8.50000000E-01  8.50000000E-01  8.50000000E-01  8.50000000E-01
  8.50000000E-01  8.50000000E-01  8.50000000E-01  8.50000000E-01  8.50000000E-01
  8.50000000E-01  8.50000000E-01  8.50000000E-01  8.50000000E-01  8.50000000E-01
  8.50000000E-01  8.50000000E-01  8.50000000E-01  8.50000000E-01  8.50000000E-01
  8.50000000E-01  8.50000000E-01  8.50000000E-01  8.50000000E-01  8.50000000E-01
  8.50000000E-01  8.50000000E-01  8.50000000E-01  8.50000000E-01  8.50000000E-01
  8.50000000E-01  8.50000000E-01  8.50000000E-01  8.50000000E-01  8.50000000E-01
  8.50000000E-01  8.50000000E-01  8.50000000E-01  8.50000000E-01  8.50000000E-01
  8.50000000E-01  8.50000000E-01  8.50000000E-01  8.50000000E-01  8.50000000E-01
  8.50000000E-01  8.50000000E-01  8.50000000E-01  8.50000000E-01  8.50000000E-01
  8.50000000E-01  8.50000000E-01  8.50000000E-01  8.50000000E-01  8.50000000E-01
  8.50000000E-01  8.50000000E-01  8.50000000E-01  8.50000000E-01  8.50000000E-01
  8.50000000E-01  8.50000000E-01  8.50000000E-01  8.50000000E-01  8.50000000E-01
  8.50000000E-01  8.50000000E-01  8.50000000E-01  8.50000000E-01  8.50000000E-01
  8.50000000E-01  8.50000000E-01  8.50000000E-01  8.50000000E-01  8.50000000E-01
  8.50000000E-01  8.50000000E-01  8.50000000E-01  8.50000000E-01  8.50000000E-01
  8.50000000E-01  8.50000000E-01  8.50000000E-01  8.50000000E-01  8.50000000E-01
  8.50000000E-01  8.50000000E-01  8.50000000E-01  8.50000000E-01  8.50000000E-01
  8.50000000E-01  8.50000000E-01  8.50000000E-01  8.50000000E-01  8.50000000E-01
  8.50000000E-01  8.50000000E-01  8.50000000E-01  8.50000000E-01  8.50000000E-01
  8.50000000E-01  8.50000000E-01  8.50000000E-01  8.50000000E-01  8.50000000E-01
  8.50000000E-01  8.50000000E-01  8.50000000E-01  8.50000000E-01  8.50000000E-01
  8.50000000E-01  8.50000000E-01  8.50000000E-01  8.50000000E-01  8.50000000E-01
  8.50000000E-01  8.50000000E-01  8.50000000E-01  8.50000000E-01  8.50000000E-01
  8.50000000E-01  8.50000000E-01  8.50000000E-01  8.50000000E-01  8.50000000E-01
  8.50000000E-01  8.50000000E-01  8.50000000E-01  8.50000000E-01  8.50000000E-01
  8.50000000E-01  8.50000000E-01  8.50000000E-01  8.50000000E-01  8.50000000E-01
  8.50000000E-01  8.50000000E-01  8.50000000E-01  8.50000000E-01  8.50000000E-01
  8.50000000E-01  8.50000000E-01  8.50000000E-01  8.50000000E-01  8.50000000E-01
  8.50000000E-01  8.50000000E-01  8.50000000E-01  8.50000000E-01  8.50000000E-01
  8.50000000E-01  8.50000000E-01  8.50000000E-01  8.50000000E-01  8.50000000E-01
  8.50000000E-01  8.50000000E-01  8.50000000E-01  8.50000000E-01  8.50000000E-01
  8.50000000E-01  8.50000000E-01  8.50000000E-01  8.50000000E-01  8.50000000E-01
  8.50000000E-01  8.50000000E-01  8.50000000E-01  8.50000000E-01  8.50000000E-01
  8.50000000E-01  8.50000000E-01  8.50000000E-01  8.50000000E-01  8.50000000E-01
  8.50000000E-01  8.50000000E-01  8.50000000E-01  8.50000000E-01  8.50000000E-01
  8.50000000E-01  8.50000000E-01  8.50000000E-01  8.50000000E-01  8.50000000E-01
  8.50000000E-01  8.50000000E-01  8.50000000E-01  8.50000000E-01  8.50000000E-01
  8.50000000E-01  8.50000000E-01  8.50000000E-01  8.50000000E-01  8.50000000E-01
  8.50000000E-01  8.50000000E-01  8.50000000E-01  8.50000000E-01  8.50000000E-01
  8.50000000E-01  8.50000000E-01  8.50000000E-01  8.50000000E-01  8.50000000E-01
  8.50000000E-01  8.50000000E-01  8.50000000E-01  8.50000000E-01  8.50000000E-01
  8.50000000E-01  8.50000000E-01  8.50000000E-01  8.50000000E-01  8.50000000E-01
  8.50000000E-01  8.50000000E-01  8.50000000E-01  8.50000000E-01  8.50000000E-01
  8.50000000E-01  8.50000000E-01  8.50000000E-01  8.50000000E-01  8.50000000E-01
  8.50000000E-01  8.50000000E-01  8.50000000E-01  8.50000000E-01  8.50000000E-01
  8.50000000E-01  8.50000000E-01  8.50000000E-01  8.50000000E-01  8.50000000E-01
  8.50000000E-01  8.50000000E-01  8.50000000E-01  8.50000000E-01  8.50000000E-01
  8.50000000E-01  8.50000000E-01  8.50000000E-01  8.50000000E-01  8.50000000E-01
  8.50000000E-01  8.50000000E-01  8.50000000E-01  8.50000000E-01  8.50000000E-01
  8.50000000E-01  8.50000000E-01  8.50000000E-01  8.50000000E-01  8.50000000E-01
  8.50000000E-01  8.50000000E-01  8.50000000E-01  8.50000000E-01  8.50000000E-01
  8.50000000E-01  8.50000000E-01  8.50000000E-01  8.50000000E-01  8.50000000E-01
  8.50000000E-01  8.50000000E-01  8.50000000E-01  8.50000000E-01  8.50000000E-01
  8.50000000E-01  8.50000000E-01  8.50000000E-01  8.50000000E-01  8.50000000E-01
  8.50000000E-01  8.50000000E-01  8.50000000E-01  8.50000000E-01  8.50000000E-01
  8.50000000E-01  8.50000000E-01  8.50000000E-01  8.50000000E-01  8.50000000E-01
  8.50000000E-01  8.50000000E-01  8.50000000E-01  8.50000000E-01  8.50000000E-01
  8.50000000E-01  8.50000000E-01  8.50000000E-01  8.50000000E-01  8.50000000E-01
  8.50000000E-01  8.50000000E-01  8.50000000E-01  8.50000000E-01  8.50000000E-01
  8.50000000E-01  8.50000000E-01  8.50000000E-01  8.50000000E-01  8.50000000E-01
  8.50000000E-01  8.50000000E-01  8.50000000E-01  8.50000000E-01  8.50000000E-01
  8.50000000E-01  8.50000000E-01  8.50000000E-01  8.50000000E-01  8.50000000E-01
  8.50000000E-01  8.50000000E-01  8.50000000E-01  8.50000000E-01  8.50000000E-01
  8.50000000E-01  8.50000000E-01  8.50000000E-01  8.50000000E-01  8.50000000E-01
  8.50000000E-01  8.50000000E-01  8.50000000E-01  8.50000000E-01  8.50000000E-01
  8.50000000E-01  8.50000000E-01  8.50000000E-01  8.50000000E-01  8.50000000E-01
  8.50000000E-01  8.50000000E-01  8.50000000E-01  8.50000000E-01  8.50000000E-01
  8.50000000E-01  8.50000000E-01  8.50000000E-01  8.50000000E-01  8.50000000E-01
  8.50000000E-01  8.50000000E-01  8.50000000E-01  8.50000000E-01  8.50000000E-01
  8.50000000E-01  8.50000000E-01  8.50000000E-01  8.50000000E-01  8.50000000E-01
  8.50000000E-01  8.50000000E-01  8.50000000E-01  8.50000000E-01  8.50000000E-01
  8.50000000E-01  8.50000000E-01  8.50000000E-01  8.50000000E-01  8.50000000E-01
  8.50000000E-01  8.50000000E-01  8.50000000E-01  8.50000000E-01  8.50000000E-01
  8.50000000E-01  8.50000000E-01  8.50000000E-01  8.50000000E-01  8.50000000E-01
  8.50000000E-01  8.50000000E-01  8.50000000E-01  8.50000000E-01  8.50000000E-01
  8.50000000E-01  8.50000000E-01  8.50000000E-01  8.50000000E-01  8.50000000E-01
  8.50000000E-01  8.50000000E-01  8.50000000E-01  8.50000000E-01  8.50000000E-01
  8.50000000E-01  8.50000000E-01  8.50000000E-01  8.50000000E-01  8.50000000E-01
  8.50000000E-01  8.50000000E-01  8.50000000E-01  8.50000000E-01  8.50000000E-01
  8.50000000E-01  8.50000000E-01  8.50000000E-01  8.50000000E-01  8.50000000E-01
  8.50000000E-01  8.50000000E-01  8.50000000E-01  8.50000000E-01  8.50000000E-01
  8.50000000E-01  8.50000000E-01  8.50000000E-01  8.50000000E-01  8.50000000E-01
  8.50000000E-01  8.50000000E-01  8.50000000E-01  8.50000000E-01  8.50000000E-01
  8.50000000E-01  8.50000000E-01  8.50000000E-01  8.50000000E-01  8.50000000E-01
  8.50000000E-01  8.50000000E-01  8.50000000E-01  8.50000000E-01  8.50000000E-01
  8.50000000E-01  8.50000000E-01  8.50000000E-01  8.50000000E-01  8.50000000E-01
  8.50000000E-01  8.50000000E-01  8.50000000E-01  8.50000000E-01  8.50000000E-01
  8.50000000E-01  8.50000000E-01  8.50000000E-01  8.50000000E-01  8.50000000E-01
  8.50000000E-01  8.50000000E-01  8.50000000E-01  8.50000000E-01  8.50000000E-01
  8.50000000E-01  8.50000000E-01  8.50000000E-01  8.50000000E-01  8.50000000E-01
  8.50000000E-01  8.50000000E-01  8.50000000E-01  8.50000000E-01  8.50000000E-01
  8.50000000E-01  8.50000000E-01  8.50000000E-01  8.50000000E-01  8.50000000E-01
  8.50000000E-01  8.50000000E-01  8.50000000E-01  8.50000000E-01  8.50000000E-01
  8.50000000E-01  8.50000000E-01  8.50000000E-01  8.50000000E-01  8.50000000E-01
  8.50000000E-01  8.50000000E-01  8.50000000E-01  8.50000000E-01  8.50000000E-01
  8.50000000E-01  8.50000000E-01  8.50000000E-01  8.50000000E-01  8.50000000E-01
  8.50000000E-01  8.50000000E-01  8.50000000E-01  8.50000000E-01  8.50000000E-01
  8.50000000E-01  8.50000000E-01  8.50000000E-01  8.50000000E-01  8.50000000E-01
  8.50000000E-01  8.50000000E-01  8.50000000E-01  8.50000000E-01  8.50000000E-01
  8.50000000E-01  8.50000000E-01  8.50000000E-01  8.50000000E-01  8.50000000E-01
  8.50000000E-01  8.50000000E-01  8.50000000E-01  8.50000000E-01  8.50000000E-01
  8.50000000E-01  8.50000000E-01  8.50000000E-01  8.50000000E-01  8.50000000E-01
  8.50000000E-01  8.50000000E-01  8.50000000E-01  8.50000000E-01  8.50000000E-01
  8.50000000E-01  8.50000000E-01  8.50000000E-01  8.50000000E-01  8.50000000E-01
  8.50000000E-01  8.50000000E-01  8.50000000E-01  8.50000000E-01  8.50000000E-01
  8.50000000E-01  8.50000000E-01  8.50000000E-01  8.50000000E-01  8.50000000E-01
  8.50000000E-01  8.50000000E-01  8.50000000E-01  8.50000000E-01  8.50000000E-01
  8.50000000E-01  8.50000000E-01  8.50000000E-01  8.50000000E-01  8.50000000E-01
  8.50000000E-01  8.50000000E-01  8.50000000E-01  8.50000000E-01  8.50000000E-01
  8.50000000E-01  8.50000000E-01  8.50000000E-01  8.50000000E-01  8.50000000E-01
  8.50000000E-01  8.50000000E-01  8.50000000E-01  8.50000000E-01  8.50000000E-01
  8.50000000E-01  8.50000000E-01  8.50000000E-01  8.50000000E-01  8.50000000E-01
  8.50000000E-01  8.50000000E-01  8.50000000E-01  8.50000000E-01  8.50000000E-01
  8.50000000E-01  8.50000000E-01  8.50000000E-01  8.50000000E-01  8.50000000E-01
  8.50000000E-01  8.50000000E-01  8.50000000E-01  8.50000000E-01  8.50000000E-01
  8.50000000E-01  8.50000000E-01  8.50000000E-01  8.50000000E-01  8.50000000E-01
  8.50000000E-01  8.50000000E-01  8.50000000E-01  8.50000000E-01  8.50000000E-01
  8.50000000E-01  8.50000000E-01  8.50000000E-01  8.50000000E-01  8.50000000E-01
  8.50000000E-01  8.50000000E-01  8.50000000E-01  8.50000000E-01  8.50000000E-01
  8.50000000E-01  8.50000000E-01  8.50000000E-01  8.50000000E-01  8.50000000E-01
  8.50000000E-01  8.50000000E-01  8.50000000E-01  8.50000000E-01  8.50000000E-01
  8.50000000E-01  8.50000000E-01  8.50000000E-01  8.50000000E-01  8.50000000E-01
  8.50000000E-01  8.50000000E-01  8.50000000E-01  8.50000000E-01  8.50000000E-01
  8.50000000E-01  8.50000000E-01  8.50000000E-01  8.50000000E-01  8.50000000E-01
  8.50000000E-01  8.50000000E-01  8.50000000E-01  8.50000000E-01  8.50000000E-01
  8.50000000E-01  8.50000000E-01  8.50000000E-01  8.50000000E-01  8.50000000E-01
  8.50000000E-01  8.50000000E-01  8.50000000E-01  8.50000000E-01  8.50000000E-01
  8.50000000E-01  8.50000000E-01  8.50000000E-01  8.50000000E-01  8.50000000E-01
  8.50000000E-01  8.50000000E-01  8.50000000E-01  8.50000000E-01  8.50000000E-01
  8.50000000E-01  8.50000000E-01  8.50000000E-01  8.50000000E-01  8.50000000E-01
  8.50000000E-01  8.50000000E-01  8.50000000E-01  8.50000000E-01  8.50000000E-01
  8.50000000E-01  8.50000000E-01  8.50000000E-01  8.50000000E-01  8.50000000E-01
  8.50000000E-01  8.50000000E-01  8.50000000E-01  8.50000000E-01  8.50000000E-01
  8.50000000E-01  8.50000000E-01  8.50000000E-01  8.50000000E-01  8.50000000E-01
  8.50000000E-01  8.50000000E-01  8.50000000E-01  8.50000000E-01  8.50000000E-01
  8.50000000E-01  8.50000000E-01  8.50000000E-01  8.50000000E-01  8.50000000E-01
  8.50000000E-01  8.50000000E-01  8.50000000E-01  8.50000000E-01  8.50000000E-01
  8.50000000E-01  8.50000000E-01  8.50000000E-01  8.50000000E-01  8.50000000E-01
  8.50000000E-01  8.50000000E-01  8.50000000E-01  8.50000000E-01  8.50000000E-01
  8.50000000E-01  8.50000000E-01  8.50000000E-01  8.50000000E-01  8.50000000E-01
  8.50000000E-01  8.50000000E-01  8.50000000E-01  8.50000000E-01  8.50000000E-01
  8.50000000E-01  8.50000000E-01  8.50000000E-01  8.50000000E-01  8.50000000E-01
  8.50000000E-01  8.50000000E-01  8.50000000E-01  8.50000000E-01  8.50000000E-01
  8.50000000E-01  8.50000000E-01  8.50000000E-01  8.50000000E-01  8.50000000E-01
  8.50000000E-01  8.50000000E-01  8.50000000E-01  8.50000000E-01  8.50000000E-01
  8.50000000E-01  8.50000000E-01  8.50000000E-01  8.50000000E-01  8.50000000E-01
  8.50000000E-01  8.50000000E-01  8.50000000E-01  8.50000000E-01  8.50000000E-01
  8.50000000E-01  8.50000000E-01  8.50000000E-01  8.50000000E-01  8.50000000E-01
  8.50000000E-01  8.50000000E-01  8.50000000E-01  8.50000000E-01  8.50000000E-01
  8.50000000E-01  8.50000000E-01  8.50000000E-01  8.50000000E-01  8.50000000E-01
  8.50000000E-01  8.50000000E-01  8.50000000E-01  8.50000000E-01  8.50000000E-01
  8.50000000E-01  8.50000000E-01  8.50000000E-01  8.50000000E-01  8.50000000E-01
  8.50000000E-01  8.50000000E-01  8.50000000E-01  8.50000000E-01  8.50000000E-01
  8.50000000E-01  8.50000000E-01  8.50000000E-01  8.50000000E-01  8.50000000E-01
  8.50000000E-01  8.50000000E-01  8.50000000E-01  8.50000000E-01  8.50000000E-01
  8.50000000E-01  8.50000000E-01  8.50000000E-01  8.50000000E-01  8.50000000E-01
  8.50000000E-01  8.50000000E-01  8.50000000E-01  8.50000000E-01  8.50000000E-01
  8.50000000E-01  8.50000000E-01  8.50000000E-01  8.50000000E-01  8.50000000E-01
  8.50000000E-01  8.50000000E-01  8.50000000E-01  8.50000000E-01  8.50000000E-01
  8.50000000E-01  8.50000000E-01  8.50000000E-01  8.50000000E-01  8.50000000E-01
  8.50000000E-01  8.50000000E-01  8.50000000E-01  8.50000000E-01  8.50000000E-01
  8.50000000E-01  8.50000000E-01  8.50000000E-01  8.50000000E-01  8.50000000E-01
  8.50000000E-01  8.50000000E-01  8.50000000E-01  8.50000000E-01  8.50000000E-01
  8.50000000E-01  8.50000000E-01  8.50000000E-01  8.50000000E-01  8.50000000E-01
  8.50000000E-01  8.50000000E-01  8.50000000E-01  8.50000000E-01  8.50000000E-01
  8.50000000E-01  8.50000000E-01  8.50000000E-01  8.50000000E-01  8.50000000E-01
  8.50000000E-01  8.50000000E-01  8.50000000E-01  8.50000000E-01  8.50000000E-01
  8.50000000E-01  8.50000000E-01  8.50000000E-01  8.50000000E-01  8.50000000E-01
  8.50000000E-01  8.50000000E-01  8.50000000E-01  8.50000000E-01  8.50000000E-01
  8.50000000E-01  8.50000000E-01  8.50000000E-01  8.50000000E-01  8.50000000E-01
  8.50000000E-01  8.50000000E-01  8.50000000E-01  8.50000000E-01  8.50000000E-01
  8.50000000E-01  8.50000000E-01  8.50000000E-01  8.50000000E-01  8.50000000E-01
  8.50000000E-01  8.50000000E-01  8.50000000E-01  8.50000000E-01  8.50000000E-01
  8.50000000E-01  8.50000000E-01  8.50000000E-01  8.50000000E-01  8.50000000E-01
  8.50000000E-01  8.50000000E-01  8.50000000E-01  8.50000000E-01  8.50000000E-01
  8.50000000E-01  8.50000000E-01  8.50000000E-01  8.50000000E-01  8.50000000E-01
  8.50000000E-01  8.50000000E-01  8.50000000E-01  8.50000000E-01  8.50000000E-01
  8.50000000E-01  8.50000000E-01  8.50000000E-01  8.50000000E-01  8.50000000E-01
  8.50000000E-01  8.50000000E-01  8.50000000E-01  8.50000000E-01  8.50000000E-01
  8.50000000E-01  8.50000000E-01  8.50000000E-01  8.50000000E-01  8.50000000E-01
  8.50000000E-01  8.50000000E-01  8.50000000E-01  8.50000000E-01  8.50000000E-01
  8.50000000E-01  8.50000000E-01  8.50000000E-01  8.50000000E-01  8.50000000E-01
  8.50000000E-01  8.50000000E-01  8.50000000E-01  8.50000000E-01  8.50000000E-01
  8.50000000E-01  8.50000000E-01  8.50000000E-01  8.50000000E-01  8.50000000E-01
  8.50000000E-01  8.50000000E-01  8.50000000E-01  8.50000000E-01  8.50000000E-01
  8.50000000E-01  8.50000000E-01  8.50000000E-01  8.50000000E-01  8.50000000E-01
  8.50000000E-01  8.50000000E-01  8.50000000E-01  8.50000000E-01  8.50000000E-01
  8.50000000E-01  8.50000000E-01  8.50000000E-01  8.50000000E-01  8.50000000E-01
  8.50000000E-01  8.50000000E-01  8.50000000E-01  8.50000000E-01  8.50000000E-01
  8.50000000E-01  8.50000000E-01  8.50000000E-01  8.50000000E-01  8.50000000E-01
  8.50000000E-01  8.50000000E-01  8.50000000E-01  8.50000000E-01  8.50000000E-01
  8.50000000E-01  8.50000000E-01  8.50000000E-01  8.50000000E-01  8.50000000E-01
  8.50000000E-01  8.50000000E-01  8.50000000E-01  8.50000000E-01  8.50000000E-01
  8.50000000E-01  8.50000000E-01  8.50000000E-01  8.50000000E-01  8.50000000E-01
  8.50000000E-01  8.50000000E-01  8.50000000E-01  8.50000000E-01  8.50000000E-01
  8.50000000E-01  8.50000000E-01  8.50000000E-01  8.50000000E-01  8.50000000E-01
  8.50000000E-01  8.50000000E-01  8.50000000E-01  8.50000000E-01  8.50000000E-01
  8.50000000E-01  8.50000000E-01  8.50000000E-01  8.50000000E-01  8.50000000E-01
  8.50000000E-01  8.50000000E-01  8.50000000E-01  8.50000000E-01  8.50000000E-01
  8.50000000E-01  8.50000000E-01  8.50000000E-01  8.50000000E-01  8.50000000E-01
  8.50000000E-01  8.50000000E-01  8.50000000E-01  8.50000000E-01  8.50000000E-01
  8.50000000E-01  8.50000000E-01  8.50000000E-01  8.50000000E-01  8.50000000E-01
  8.50000000E-01  8.50000000E-01  8.50000000E-01  8.50000000E-01  8.50000000E-01
  8.50000000E-01  8.50000000E-01  8.50000000E-01  8.50000000E-01  8.50000000E-01
  8.50000000E-01  8.50000000E-01  8.50000000E-01  8.50000000E-01  8.50000000E-01
  8.50000000E-01  8.50000000E-01  8.50000000E-01  8.50000000E-01  8.50000000E-01
  8.50000000E-01  8.50000000E-01  8.50000000E-01  8.50000000E-01  8.50000000E-01
  8.50000000E-01  8.50000000E-01  8.50000000E-01  8.50000000E-01  8.50000000E-01
  8.50000000E-01  8.50000000E-01  8.50000000E-01  8.50000000E-01  8.50000000E-01
  8.50000000E-01  8.50000000E-01  8.50000000E-01  8.50000000E-01  8.50000000E-01
  8.50000000E-01  8.50000000E-01  8.50000000E-01  8.50000000E-01  8.50000000E-01
  8.50000000E-01  8.50000000E-01  8.50000000E-01  8.50000000E-01  8.50000000E-01
  8.50000000E-01  8.50000000E-01  8.50000000E-01  8.50000000E-01  8.50000000E-01
  8.50000000E-01  8.50000000E-01  8.50000000E-01  8.50000000E-01  8.50000000E-01
  8.50000000E-01  8.50000000E-01  8.50000000E-01  8.50000000E-01  8.50000000E-01
  8.50000000E-01  8.50000000E-01  8.50000000E-01  8.50000000E-01  8.50000000E-01
  8.50000000E-01  8.50000000E-01  8.50000000E-01  8.50000000E-01  8.50000000E-01
  8.50000000E-01  8.50000000E-01  8.50000000E-01  8.50000000E-01  8.50000000E-01
  8.50000000E-01  8.50000000E-01  8.50000000E-01  8.50000000E-01  8.50000000E-01
  8.50000000E-01  8.50000000E-01  8.50000000E-01  8.50000000E-01  8.50000000E-01
  8.50000000E-01  8.50000000E-01  8.50000000E-01  8.50000000E-01  8.50000000E-01
  8.50000000E-01  8.50000000E-01  8.50000000E-01  8.50000000E-01  8.50000000E-01
  8.50000000E-01  8.50000000E-01  8.50000000E-01  8.50000000E-01  8.50000000E-01
  8.50000000E-01  8.50000000E-01  8.50000000E-01  8.50000000E-01  8.50000000E-01
  8.50000000E-01  8.50000000E-01  8.50000000E-01  8.50000000E-01  8.50000000E-01
  8.50000000E-01  8.50000000E-01  8.50000000E-01  8.50000000E-01  8.50000000E-01
  8.50000000E-01  8.50000000E-01  8.50000000E-01  8.50000000E-01  8.50000000E-01
  8.50000000E-01  8.50000000E-01  8.50000000E-01  8.50000000E-01  8.50000000E-01
  8.50000000E-01  8.50000000E-01  8.50000000E-01  8.50000000E-01  8.50000000E-01
  8.50000000E-01  8.50000000E-01  8.50000000E-01  8.50000000E-01  8.50000000E-01
  8.50000000E-01  8.50000000E-01  8.50000000E-01  8.50000000E-01  8.50000000E-01
  8.50000000E-01  8.50000000E-01  8.50000000E-01  8.50000000E-01  8.50000000E-01
  8.50000000E-01  8.50000000E-01  8.50000000E-01  8.50000000E-01  8.50000000E-01
  8.50000000E-01  8.50000000E-01  8.50000000E-01  8.50000000E-01  8.50000000E-01
  8.50000000E-01  8.50000000E-01  8.50000000E-01  8.50000000E-01  8.50000000E-01
  8.50000000E-01  8.50000000E-01  8.50000000E-01  8.50000000E-01  8.50000000E-01
  8.50000000E-01  8.50000000E-01  8.50000000E-01  8.50000000E-01  8.50000000E-01
  8.50000000E-01  8.50000000E-01  8.50000000E-01  8.50000000E-01  8.50000000E-01
  8.50000000E-01  8.50000000E-01  8.50000000E-01  8.50000000E-01  8.50000000E-01
  8.50000000E-01  8.50000000E-01  8.50000000E-01  8.50000000E-01  8.50000000E-01
  8.50000000E-01  8.50000000E-01  8.50000000E-01  8.50000000E-01  8.50000000E-01
  8.50000000E-01  8.50000000E-01  8.50000000E-01  8.50000000E-01  8.50000000E-01
  8.50000000E-01  8.50000000E-01  8.50000000E-01  8.50000000E-01  8.50000000E-01
  8.50000000E-01  8.50000000E-01  8.50000000E-01  8.50000000E-01  8.50000000E-01
  8.50000000E-01  8.50000000E-01  8.50000000E-01  8.50000000E-01  8.50000000E-01
  8.50000000E-01  8.50000000E-01  8.50000000E-01  8.50000000E-01  8.50000000E-01
  8.50000000E-01  8.50000000E-01  8.50000000E-01  8.50000000E-01  8.50000000E-01
  8.50000000E-01  8.50000000E-01  8.50000000E-01  8.50000000E-01  8.50000000E-01
  8.50000000E-01  8.50000000E-01  8.50000000E-01  8.50000000E-01  8.50000000E-01
  8.50000000E-01  8.50000000E-01  8.50000000E-01  8.50000000E-01  8.50000000E-01
  8.50000000E-01  8.50000000E-01  8.50000000E-01  8.50000000E-01  8.50000000E-01
  8.50000000E-01  8.50000000E-01  8.50000000E-01  8.50000000E-01  8.50000000E-01
  8.50000000E-01  8.50000000E-01  8.50000000E-01  8.50000000E-01  8.50000000E-01
  8.50000000E-01  8.50000000E-01  8.50000000E-01  8.50000000E-01  8.50000000E-01
  8.50000000E-01  8.50000000E-01  8.50000000E-01  8.50000000E-01  8.50000000E-01
  8.50000000E-01  8.50000000E-01  8.50000000E-01  8.50000000E-01  8.50000000E-01
  8.50000000E-01  8.50000000E-01  8.50000000E-01  8.50000000E-01  8.50000000E-01
  8.50000000E-01  8.50000000E-01  8.50000000E-01  8.50000000E-01  8.50000000E-01
  8.50000000E-01  8.50000000E-01  8.50000000E-01  8.50000000E-01  8.50000000E-01
  8.50000000E-01  8.50000000E-01  8.50000000E-01  8.50000000E-01  8.50000000E-01
  8.50000000E-01  8.50000000E-01  8.50000000E-01  8.50000000E-01  8.50000000E-01
  8.50000000E-01  8.50000000E-01  8.50000000E-01  8.50000000E-01  8.50000000E-01
  8.50000000E-01  8.50000000E-01  8.50000000E-01  8.50000000E-01  8.50000000E-01
  8.50000000E-01  8.50000000E-01  8.50000000E-01  8.50000000E-01  8.50000000E-01
  8.50000000E-01  8.50000000E-01  8.50000000E-01  8.50000000E-01  8.50000000E-01
  8.50000000E-01  8.50000000E-01  8.50000000E-01  8.50000000E-01  8.50000000E-01
  8.50000000E-01  8.50000000E-01  8.50000000E-01  8.50000000E-01  8.50000000E-01
  8.50000000E-01  8.50000000E-01  8.50000000E-01  8.50000000E-01  8.50000000E-01
  8.50000000E-01  8.50000000E-01  8.50000000E-01  8.50000000E-01  8.50000000E-01
  8.50000000E-01  8.50000000E-01  8.50000000E-01  8.50000000E-01  8.50000000E-01
  8.50000000E-01  8.50000000E-01  8.50000000E-01  8.50000000E-01  8.50000000E-01
  8.50000000E-01  8.50000000E-01  8.50000000E-01  8.50000000E-01  8.50000000E-01
  8.50000000E-01  8.50000000E-01  8.50000000E-01  8.50000000E-01  8.50000000E-01
  8.50000000E-01  8.50000000E-01  8.50000000E-01  8.50000000E-01  8.50000000E-01
  8.50000000E-01  8.50000000E-01  8.50000000E-01  8.50000000E-01  8.50000000E-01
  8.50000000E-01  8.50000000E-01  8.50000000E-01  8.50000000E-01  8.50000000E-01
  8.50000000E-01  8.50000000E-01  8.50000000E-01  8.50000000E-01  8.50000000E-01
  8.50000000E-01  8.50000000E-01  8.50000000E-01  8.50000000E-01  8.50000000E-01
  8.50000000E-01  8.50000000E-01  8.50000000E-01  8.50000000E-01  8.50000000E-01
  8.50000000E-01  8.50000000E-01  8.50000000E-01  8.50000000E-01  8.50000000E-01
  8.50000000E-01  8.50000000E-01  8.50000000E-01  8.50000000E-01  8.50000000E-01
  8.50000000E-01  8.50000000E-01  8.50000000E-01  8.50000000E-01  8.50000000E-01
  8.50000000E-01  8.50000000E-01  8.50000000E-01  8.50000000E-01  8.50000000E-01
  8.50000000E-01  8.50000000E-01  8.50000000E-01  8.50000000E-01  8.50000000E-01
  8.50000000E-01  8.50000000E-01  8.50000000E-01  8.50000000E-01  8.50000000E-01
  8.50000000E-01  8.50000000E-01  8.50000000E-01  8.50000000E-01  8.50000000E-01
  8.50000000E-01  8.50000000E-01  8.50000000E-01  8.50000000E-01  8.50000000E-01
  8.50000000E-01  8.50000000E-01  8.50000000E-01  8.50000000E-01  8.50000000E-01
  8.50000000E-01  8.50000000E-01  8.50000000E-01  8.50000000E-01  8.50000000E-01
  8.50000000E-01  8.50000000E-01  8.50000000E-01  8.50000000E-01  8.50000000E-01
  8.50000000E-01  8.50000000E-01  8.50000000E-01  8.50000000E-01  8.50000000E-01
  8.50000000E-01  8.50000000E-01  8.50000000E-01  8.50000000E-01  8.50000000E-01
  8.50000000E-01  8.50000000E-01  8.50000000E-01  8.50000000E-01  8.50000000E-01
  8.50000000E-01  8.50000000E-01  8.50000000E-01  8.50000000E-01  8.50000000E-01
  8.50000000E-01  8.50000000E-01  8.50000000E-01  8.50000000E-01  8.50000000E-01
  8.50000000E-01  8.50000000E-01  8.50000000E-01  8.50000000E-01  8.50000000E-01
  8.50000000E-01  8.50000000E-01  8.50000000E-01  8.50000000E-01  8.50000000E-01
  8.50000000E-01  8.50000000E-01  8.50000000E-01  8.50000000E-01  8.50000000E-01
  8.50000000E-01  8.50000000E-01  8.50000000E-01  8.50000000E-01  8.50000000E-01
  8.50000000E-01  8.50000000E-01  8.50000000E-01  8.50000000E-01  8.50000000E-01
  8.50000000E-01  8.50000000E-01  8.50000000E-01  8.50000000E-01  8.50000000E-01
  8.50000000E-01  8.50000000E-01  8.50000000E-01  8.50000000E-01  8.50000000E-01
  8.50000000E-01  8.50000000E-01  8.50000000E-01  8.50000000E-01  8.50000000E-01
  8.50000000E-01  8.50000000E-01  8.50000000E-01  8.50000000E-01  8.50000000E-01
  8.50000000E-01  8.50000000E-01  8.50000000E-01  8.50000000E-01  8.50000000E-01
  8.50000000E-01  8.50000000E-01  8.50000000E-01  8.50000000E-01  8.50000000E-01
  8.50000000E-01  8.50000000E-01  8.50000000E-01  8.50000000E-01  8.50000000E-01
  8.50000000E-01  8.50000000E-01  8.50000000E-01  8.50000000E-01  8.50000000E-01
  8.50000000E-01  8.50000000E-01  8.50000000E-01  8.50000000E-01  8.50000000E-01
  8.50000000E-01  8.50000000E-01  8.50000000E-01  8.50000000E-01  8.50000000E-01
  8.50000000E-01  8.50000000E-01  8.50000000E-01  8.50000000E-01  8.50000000E-01
  8.50000000E-01  8.50000000E-01  8.50000000E-01  8.50000000E-01  8.50000000E-01
  8.50000000E-01  8.50000000E-01  8.50000000E-01  8.50000000E-01  8.50000000E-01
  8.50000000E-01  8.50000000E-01  8.50000000E-01  8.50000000E-01  8.50000000E-01
  8.50000000E-01  8.50000000E-01  8.50000000E-01  8.50000000E-01  8.50000000E-01
  8.50000000E-01  8.50000000E-01  8.50000000E-01  8.50000000E-01  8.50000000E-01
  8.50000000E-01  8.50000000E-01  8.50000000E-01  8.50000000E-01  8.50000000E-01
  8.50000000E-01  8.50000000E-01  8.50000000E-01  8.50000000E-01  8.50000000E-01
  8.50000000E-01  8.50000000E-01  8.50000000E-01  8.50000000E-01  8.50000000E-01
  8.50000000E-01  8.50000000E-01  8.50000000E-01  8.50000000E-01  8.50000000E-01
  8.50000000E-01  8.50000000E-01  8.50000000E-01  8.50000000E-01  8.50000000E-01
  8.50000000E-01  8.50000000E-01  8.50000000E-01  8.50000000E-01  8.50000000E-01
  8.50000000E-01  8.50000000E-01  8.50000000E-01  8.50000000E-01  8.50000000E-01
  8.50000000E-01  8.50000000E-01  8.50000000E-01  8.50000000E-01  8.50000000E-01
  8.50000000E-01  8.50000000E-01  8.50000000E-01  8.50000000E-01  8.50000000E-01
  8.50000000E-01  8.50000000E-01  8.50000000E-01  8.50000000E-01  8.50000000E-01
  8.50000000E-01  8.50000000E-01  8.50000000E-01  8.50000000E-01  8.50000000E-01
  8.50000000E-01  8.50000000E-01  8.50000000E-01  8.50000000E-01  8.50000000E-01
  8.50000000E-01  8.50000000E-01  8.50000000E-01  8.50000000E-01  8.50000000E-01
  8.50000000E-01  8.50000000E-01  8.50000000E-01  8.50000000E-01  8.50000000E-01
  8.50000000E-01  8.50000000E-01  8.50000000E-01  8.50000000E-01  8.50000000E-01
  8.50000000E-01  8.50000000E-01  8.50000000E-01  8.50000000E-01  8.50000000E-01
  8.50000000E-01  8.50000000E-01  8.50000000E-01  8.50000000E-01  8.50000000E-01
  8.50000000E-01  8.50000000E-01  8.50000000E-01  8.50000000E-01  8.50000000E-01
  8.50000000E-01  8.50000000E-01  8.50000000E-01  8.50000000E-01  8.50000000E-01
  8.50000000E-01  8.50000000E-01  8.50000000E-01  8.50000000E-01  8.50000000E-01
  8.50000000E-01  8.50000000E-01  8.50000000E-01  8.50000000E-01  8.50000000E-01
  8.50000000E-01  8.50000000E-01  8.50000000E-01  8.50000000E-01  8.50000000E-01
  8.50000000E-01  8.50000000E-01  8.50000000E-01  8.50000000E-01  8.50000000E-01
  8.50000000E-01  8.50000000E-01  8.50000000E-01  8.50000000E-01  8.50000000E-01
  8.50000000E-01  8.50000000E-01  8.50000000E-01  8.50000000E-01  8.50000000E-01
  8.50000000E-01  8.50000000E-01  8.50000000E-01  8.50000000E-01  8.50000000E-01
  8.50000000E-01  8.50000000E-01  8.50000000E-01  8.50000000E-01  8.50000000E-01
  8.50000000E-01  8.50000000E-01  8.50000000E-01  8.50000000E-01  8.50000000E-01
  8.50000000E-01  8.50000000E-01  8.50000000E-01  8.50000000E-01  8.50000000E-01
  8.50000000E-01  8.50000000E-01  8.50000000E-01  8.50000000E-01  8.50000000E-01
  8.50000000E-01  8.50000000E-01  8.50000000E-01  8.50000000E-01  8.50000000E-01
  8.50000000E-01  8.50000000E-01  8.50000000E-01  8.50000000E-01  8.50000000E-01
  8.50000000E-01  8.50000000E-01  8.50000000E-01  8.50000000E-01  8.50000000E-01
  8.50000000E-01  8.50000000E-01  8.50000000E-01  8.50000000E-01  8.50000000E-01
  8.50000000E-01  8.50000000E-01  8.50000000E-01  8.50000000E-01  8.50000000E-01
  8.50000000E-01  8.50000000E-01  8.50000000E-01  8.50000000E-01  8.50000000E-01
  8.50000000E-01  8.50000000E-01  8.50000000E-01  8.50000000E-01  8.50000000E-01
  8.50000000E-01  8.50000000E-01  8.50000000E-01  8.50000000E-01  8.50000000E-01
  8.50000000E-01  8.50000000E-01  8.50000000E-01  8.50000000E-01  8.50000000E-01
  8.50000000E-01  8.50000000E-01  8.50000000E-01  8.50000000E-01  8.50000000E-01
  8.50000000E-01  8.50000000E-01  8.50000000E-01  8.50000000E-01  8.50000000E-01
  8.50000000E-01  8.50000000E-01  8.50000000E-01  8.50000000E-01  8.50000000E-01
  8.50000000E-01  8.50000000E-01  8.50000000E-01  8.50000000E-01  8.50000000E-01
  8.50000000E-01  8.50000000E-01  8.50000000E-01  8.50000000E-01  8.50000000E-01
  8.50000000E-01  8.50000000E-01  8.50000000E-01  8.50000000E-01  8.50000000E-01
  8.50000000E-01  8.50000000E-01  8.50000000E-01  8.50000000E-01  8.50000000E-01
  8.50000000E-01  8.50000000E-01  8.50000000E-01  8.50000000E-01  8.50000000E-01
  8.50000000E-01  8.50000000E-01  8.50000000E-01  8.50000000E-01  8.50000000E-01
  8.50000000E-01  8.50000000E-01  8.50000000E-01  8.50000000E-01  8.50000000E-01
  8.50000000E-01  8.50000000E-01  8.50000000E-01  8.50000000E-01  8.50000000E-01
  8.50000000E-01  8.50000000E-01  8.50000000E-01  8.50000000E-01  8.50000000E-01
  8.50000000E-01  8.50000000E-01  8.50000000E-01  8.50000000E-01  8.50000000E-01
  8.50000000E-01  8.50000000E-01  8.50000000E-01  8.50000000E-01  8.50000000E-01
  8.50000000E-01  8.50000000E-01  8.50000000E-01  8.50000000E-01  8.50000000E-01
  8.50000000E-01  8.50000000E-01  8.50000000E-01  8.50000000E-01  8.50000000E-01
  8.50000000E-01  8.50000000E-01  8.50000000E-01  8.50000000E-01  8.50000000E-01
  8.50000000E-01  8.50000000E-01  8.50000000E-01  8.50000000E-01  8.50000000E-01
  8.50000000E-01  8.50000000E-01  8.50000000E-01  8.50000000E-01  8.50000000E-01
  8.50000000E-01  8.50000000E-01  8.50000000E-01  8.50000000E-01  8.50000000E-01
  8.50000000E-01  8.50000000E-01  8.50000000E-01  8.50000000E-01  8.50000000E-01
  8.50000000E-01  8.50000000E-01  8.50000000E-01  8.50000000E-01  8.50000000E-01
  8.50000000E-01  8.50000000E-01  8.50000000E-01  8.50000000E-01  8.50000000E-01
  8.50000000E-01  8.50000000E-01  8.50000000E-01  8.50000000E-01  8.50000000E-01
  8.50000000E-01  8.50000000E-01  8.50000000E-01  8.50000000E-01  8.50000000E-01
  8.50000000E-01  8.50000000E-01  8.50000000E-01  8.50000000E-01  8.50000000E-01
  8.50000000E-01  8.50000000E-01  8.50000000E-01  8.50000000E-01  8.50000000E-01
  8.50000000E-01  8.50000000E-01  8.50000000E-01  8.50000000E-01  8.50000000E-01
  8.50000000E-01  8.50000000E-01  8.50000000E-01  8.50000000E-01  8.50000000E-01
  8.50000000E-01  8.50000000E-01  8.50000000E-01  8.50000000E-01  8.50000000E-01
  8.50000000E-01  8.50000000E-01  8.50000000E-01  8.50000000E-01  8.50000000E-01
  8.50000000E-01  8.50000000E-01  8.50000000E-01  8.50000000E-01  8.50000000E-01
  8.50000000E-01  8.50000000E-01  8.50000000E-01  8.50000000E-01  8.50000000E-01
  8.50000000E-01  8.50000000E-01  8.50000000E-01  8.50000000E-01  8.50000000E-01
  8.50000000E-01  8.50000000E-01  8.50000000E-01  8.50000000E-01  8.50000000E-01
  8.50000000E-01  8.50000000E-01  8.50000000E-01  8.50000000E-01  8.50000000E-01
  8.50000000E-01  8.50000000E-01  8.50000000E-01  8.50000000E-01  8.50000000E-01
  8.50000000E-01  8.50000000E-01  8.50000000E-01  8.50000000E-01  8.50000000E-01
  8.50000000E-01  8.50000000E-01  8.50000000E-01  8.50000000E-01  8.50000000E-01
  8.50000000E-01  8.50000000E-01  8.50000000E-01  8.50000000E-01  8.50000000E-01
  8.50000000E-01  8.50000000E-01  8.50000000E-01  8.50000000E-01  8.50000000E-01
  8.50000000E-01  8.50000000E-01  8.50000000E-01  8.50000000E-01  8.50000000E-01
  8.50000000E-01  8.50000000E-01  8.50000000E-01  8.50000000E-01  8.50000000E-01
  8.50000000E-01  8.50000000E-01  8.50000000E-01  8.50000000E-01  8.50000000E-01
  8.50000000E-01  8.50000000E-01  8.50000000E-01  8.50000000E-01  8.50000000E-01
  8.50000000E-01  8.50000000E-01  8.50000000E-01  8.50000000E-01  8.50000000E-01
  8.50000000E-01  8.50000000E-01  8.50000000E-01  8.50000000E-01  8.50000000E-01
  8.50000000E-01  8.50000000E-01  8.50000000E-01  8.50000000E-01  8.50000000E-01
  8.50000000E-01  8.50000000E-01  8.50000000E-01  8.50000000E-01  8.50000000E-01
  8.50000000E-01  8.50000000E-01  8.50000000E-01  8.50000000E-01  8.50000000E-01
  8.50000000E-01  8.50000000E-01  8.50000000E-01  8.50000000E-01  8.50000000E-01
  8.50000000E-01  8.50000000E-01  8.50000000E-01  8.50000000E-01  8.50000000E-01
  8.50000000E-01  8.50000000E-01  8.50000000E-01  8.50000000E-01  8.50000000E-01
  8.50000000E-01  8.50000000E-01  8.50000000E-01  8.50000000E-01  8.50000000E-01
  8.50000000E-01  8.50000000E-01  8.50000000E-01  8.50000000E-01  8.50000000E-01
  8.50000000E-01  8.50000000E-01  8.50000000E-01  8.50000000E-01  8.50000000E-01
  8.50000000E-01  8.50000000E-01  8.50000000E-01  8.50000000E-01  8.50000000E-01
  8.50000000E-01  8.50000000E-01  8.50000000E-01  8.50000000E-01  8.50000000E-01
  8.50000000E-01  8.50000000E-01  8.50000000E-01  8.50000000E-01  8.50000000E-01
  8.50000000E-01  8.50000000E-01  8.50000000E-01  8.50000000E-01  8.50000000E-01
  8.50000000E-01  8.50000000E-01  8.50000000E-01  8.50000000E-01  8.50000000E-01
  8.50000000E-01  8.50000000E-01  8.50000000E-01  8.50000000E-01  8.50000000E-01
  8.50000000E-01  8.50000000E-01  8.50000000E-01  8.50000000E-01  8.50000000E-01
  8.50000000E-01  8.50000000E-01  8.50000000E-01  8.50000000E-01  8.50000000E-01
  8.50000000E-01  8.50000000E-01  8.50000000E-01  8.50000000E-01  8.50000000E-01
  8.50000000E-01  8.50000000E-01  8.50000000E-01  8.50000000E-01  8.50000000E-01
  8.50000000E-01  8.50000000E-01  8.50000000E-01  8.50000000E-01  8.50000000E-01
  8.50000000E-01  8.50000000E-01  8.50000000E-01  8.50000000E-01  8.50000000E-01
  8.50000000E-01  8.50000000E-01  8.50000000E-01  8.50000000E-01  8.50000000E-01
  8.50000000E-01  8.50000000E-01  8.50000000E-01  8.50000000E-01  8.50000000E-01
  8.50000000E-01  8.50000000E-01  8.50000000E-01  8.50000000E-01  8.50000000E-01
  8.50000000E-01  8.50000000E-01  8.50000000E-01  8.50000000E-01  8.50000000E-01
  8.50000000E-01  8.50000000E-01  8.50000000E-01  8.50000000E-01  8.50000000E-01
  8.50000000E-01  8.50000000E-01  8.50000000E-01  8.50000000E-01  8.50000000E-01
  8.50000000E-01  8.50000000E-01  8.50000000E-01  8.50000000E-01  8.50000000E-01
  8.50000000E-01  8.50000000E-01  8.50000000E-01  8.50000000E-01  8.50000000E-01
  8.50000000E-01  8.50000000E-01  8.50000000E-01  8.50000000E-01  8.50000000E-01
  8.50000000E-01  8.50000000E-01  8.50000000E-01  8.50000000E-01  8.50000000E-01
  8.50000000E-01  8.50000000E-01  8.50000000E-01  8.50000000E-01  8.50000000E-01
  8.50000000E-01  8.50000000E-01  8.50000000E-01  8.50000000E-01  8.50000000E-01
  8.50000000E-01  8.50000000E-01  8.50000000E-01  8.50000000E-01  8.50000000E-01
  8.50000000E-01  8.50000000E-01  8.50000000E-01  8.50000000E-01  8.50000000E-01
  8.50000000E-01  8.50000000E-01  8.50000000E-01  8.50000000E-01  8.50000000E-01
  8.50000000E-01  8.50000000E-01  8.50000000E-01  8.50000000E-01  8.50000000E-01
  8.50000000E-01  8.50000000E-01  8.50000000E-01  8.50000000E-01  8.50000000E-01
  8.50000000E-01  8.50000000E-01  8.50000000E-01  8.50000000E-01  8.50000000E-01
  8.50000000E-01  8.50000000E-01  8.50000000E-01  8.50000000E-01  8.50000000E-01
  8.50000000E-01  8.50000000E-01  8.50000000E-01  8.50000000E-01  8.50000000E-01
  8.50000000E-01  8.50000000E-01  8.50000000E-01  8.50000000E-01  8.50000000E-01
  8.50000000E-01  8.50000000E-01  8.50000000E-01  8.50000000E-01  8.50000000E-01
  8.50000000E-01  8.50000000E-01  8.50000000E-01  8.50000000E-01  8.50000000E-01
  8.50000000E-01  8.50000000E-01  8.50000000E-01  8.50000000E-01  8.50000000E-01
  8.50000000E-01  8.50000000E-01  8.50000000E-01  8.50000000E-01  8.50000000E-01
  8.50000000E-01  8.50000000E-01  8.50000000E-01  8.50000000E-01  8.50000000E-01
  8.50000000E-01  8.50000000E-01  8.50000000E-01  8.50000000E-01  8.50000000E-01
  8.50000000E-01  8.50000000E-01  8.50000000E-01  8.50000000E-01  8.50000000E-01
  8.50000000E-01  8.50000000E-01  8.50000000E-01  8.50000000E-01  8.50000000E-01
  8.50000000E-01  8.50000000E-01  8.50000000E-01  8.50000000E-01  8.50000000E-01
  8.50000000E-01  8.50000000E-01  8.50000000E-01  8.50000000E-01  8.50000000E-01
  8.50000000E-01  8.50000000E-01  8.50000000E-01  8.50000000E-01  8.50000000E-01
  8.50000000E-01  8.50000000E-01  8.50000000E-01  8.50000000E-01  8.50000000E-01
  8.50000000E-01  8.50000000E-01  8.50000000E-01  8.50000000E-01  8.50000000E-01
  8.50000000E-01  8.50000000E-01  8.50000000E-01  8.50000000E-01  8.50000000E-01
  8.50000000E-01  8.50000000E-01  8.50000000E-01  8.50000000E-01  8.50000000E-01
  8.50000000E-01  8.50000000E-01  8.50000000E-01  8.50000000E-01  8.50000000E-01
  8.50000000E-01  8.50000000E-01  8.50000000E-01  8.50000000E-01  8.50000000E-01
  8.50000000E-01  8.50000000E-01  8.50000000E-01  8.50000000E-01  8.50000000E-01
  8.50000000E-01  8.50000000E-01  8.50000000E-01  8.50000000E-01  8.50000000E-01
  8.50000000E-01  8.50000000E-01  8.50000000E-01  8.50000000E-01  8.50000000E-01
  8.50000000E-01  8.50000000E-01  8.50000000E-01  8.50000000E-01  8.50000000E-01
  8.50000000E-01  8.50000000E-01  8.50000000E-01  8.50000000E-01  8.50000000E-01
  8.50000000E-01  8.50000000E-01  8.50000000E-01  8.50000000E-01  8.50000000E-01
  8.50000000E-01  8.50000000E-01  8.50000000E-01  8.50000000E-01  8.50000000E-01
  8.50000000E-01  8.50000000E-01  8.50000000E-01  8.50000000E-01  8.50000000E-01
  8.50000000E-01  8.50000000E-01  8.50000000E-01  8.50000000E-01  8.50000000E-01
  8.50000000E-01  8.50000000E-01  8.50000000E-01  8.50000000E-01  8.50000000E-01
  8.50000000E-01  8.50000000E-01  8.50000000E-01  8.50000000E-01  8.50000000E-01
  8.50000000E-01  8.50000000E-01  8.50000000E-01  8.50000000E-01  8.50000000E-01
  8.50000000E-01  8.50000000E-01  8.50000000E-01  8.50000000E-01  8.50000000E-01
  8.50000000E-01  8.50000000E-01  8.50000000E-01  8.50000000E-01  8.50000000E-01
  8.50000000E-01  8.50000000E-01  8.50000000E-01  8.50000000E-01  8.50000000E-01
  8.50000000E-01  8.50000000E-01  8.50000000E-01  8.50000000E-01  8.50000000E-01
  8.50000000E-01  8.50000000E-01  8.50000000E-01  8.50000000E-01  8.50000000E-01
  8.50000000E-01  8.50000000E-01  8.50000000E-01  8.50000000E-01  8.50000000E-01
  8.50000000E-01  8.50000000E-01  8.50000000E-01  8.50000000E-01  8.50000000E-01
  8.50000000E-01  8.50000000E-01  8.50000000E-01  8.50000000E-01  8.50000000E-01
  8.50000000E-01  8.50000000E-01  8.50000000E-01  8.50000000E-01  8.50000000E-01
  8.50000000E-01  8.50000000E-01  8.50000000E-01  8.50000000E-01  8.50000000E-01
  8.50000000E-01  8.50000000E-01  8.50000000E-01  8.50000000E-01  8.50000000E-01
  8.50000000E-01  8.50000000E-01  8.50000000E-01  8.50000000E-01  8.50000000E-01
  8.50000000E-01  8.50000000E-01  8.50000000E-01  8.50000000E-01  8.50000000E-01
  8.50000000E-01  8.50000000E-01  8.50000000E-01  8.50000000E-01  8.50000000E-01
  8.50000000E-01  8.50000000E-01  8.50000000E-01  8.50000000E-01  8.50000000E-01
  8.50000000E-01  8.50000000E-01  8.50000000E-01  8.50000000E-01  8.50000000E-01
  8.50000000E-01  8.50000000E-01  8.50000000E-01  8.50000000E-01  8.50000000E-01
  8.50000000E-01  8.50000000E-01  8.50000000E-01  8.50000000E-01  8.50000000E-01
  8.50000000E-01  8.50000000E-01  8.50000000E-01  8.50000000E-01  8.50000000E-01
  8.50000000E-01  8.50000000E-01  8.50000000E-01  8.50000000E-01  8.50000000E-01
  8.50000000E-01  8.50000000E-01  8.50000000E-01  8.50000000E-01  8.50000000E-01
  8.50000000E-01  8.50000000E-01  8.50000000E-01  8.50000000E-01  8.50000000E-01
  8.50000000E-01  8.50000000E-01  8.50000000E-01  8.50000000E-01  8.50000000E-01
  8.50000000E-01  8.50000000E-01  8.50000000E-01  8.50000000E-01  8.50000000E-01
  8.50000000E-01  8.50000000E-01  8.50000000E-01  8.50000000E-01  8.50000000E-01
  8.50000000E-01  8.50000000E-01  8.50000000E-01  8.50000000E-01  8.50000000E-01
  8.50000000E-01  8.50000000E-01  8.50000000E-01  8.50000000E-01  8.50000000E-01
  8.50000000E-01  8.50000000E-01  8.50000000E-01  8.50000000E-01  8.50000000E-01
  8.50000000E-01  8.50000000E-01  8.50000000E-01  8.50000000E-01  8.50000000E-01
  8.50000000E-01  8.50000000E-01  8.50000000E-01  8.50000000E-01  8.50000000E-01
  8.50000000E-01  8.50000000E-01  8.50000000E-01  8.50000000E-01  8.50000000E-01
  8.50000000E-01  8.50000000E-01  8.50000000E-01  8.50000000E-01  8.50000000E-01
  8.50000000E-01  8.50000000E-01  8.50000000E-01  8.50000000E-01  8.50000000E-01
  8.50000000E-01  8.50000000E-01  8.50000000E-01  8.50000000E-01  8.50000000E-01
  8.50000000E-01  8.50000000E-01  8.50000000E-01  8.50000000E-01  8.50000000E-01
  8.50000000E-01  8.50000000E-01  8.50000000E-01  8.50000000E-01  8.50000000E-01
  8.50000000E-01  8.50000000E-01  8.50000000E-01  8.50000000E-01  8.50000000E-01
  8.50000000E-01  8.50000000E-01  8.50000000E-01  8.50000000E-01  8.50000000E-01
  8.50000000E-01  8.50000000E-01  8.50000000E-01  8.50000000E-01  8.50000000E-01
  8.50000000E-01  8.50000000E-01  8.50000000E-01  8.50000000E-01  8.50000000E-01
  8.50000000E-01  8.50000000E-01  8.50000000E-01  8.50000000E-01  8.50000000E-01
  8.50000000E-01  8.50000000E-01  8.50000000E-01  8.50000000E-01  8.50000000E-01
  8.50000000E-01  8.50000000E-01  8.50000000E-01  8.50000000E-01  8.50000000E-01
  8.50000000E-01  8.50000000E-01  8.50000000E-01  8.50000000E-01  8.50000000E-01
  8.50000000E-01  8.50000000E-01  8.50000000E-01  8.50000000E-01  8.50000000E-01
  8.50000000E-01  8.50000000E-01  8.50000000E-01  8.50000000E-01  8.50000000E-01
  8.50000000E-01  8.50000000E-01  8.50000000E-01  8.50000000E-01  8.50000000E-01
  8.50000000E-01  8.50000000E-01  8.50000000E-01  8.50000000E-01  8.50000000E-01
  8.50000000E-01  8.50000000E-01  8.50000000E-01  8.50000000E-01  8.50000000E-01
  8.50000000E-01  8.50000000E-01  8.50000000E-01  8.50000000E-01  8.50000000E-01
  8.50000000E-01  8.50000000E-01  8.50000000E-01  8.50000000E-01  8.50000000E-01
  8.50000000E-01  8.50000000E-01  8.50000000E-01  8.50000000E-01  8.50000000E-01
  8.50000000E-01  8.50000000E-01  8.50000000E-01  8.50000000E-01  8.50000000E-01
  8.50000000E-01  8.50000000E-01  8.50000000E-01  8.50000000E-01  8.50000000E-01
  8.50000000E-01  8.50000000E-01  8.50000000E-01  8.50000000E-01  8.50000000E-01
  8.50000000E-01  8.50000000E-01  8.50000000E-01  8.50000000E-01  8.50000000E-01
  8.50000000E-01  8.50000000E-01  8.50000000E-01  8.50000000E-01  8.50000000E-01
  8.50000000E-01  8.50000000E-01  8.50000000E-01  8.50000000E-01  8.50000000E-01
  8.50000000E-01  8.50000000E-01  8.50000000E-01  8.50000000E-01  8.50000000E-01
  8.50000000E-01  8.50000000E-01  8.50000000E-01  8.50000000E-01  8.50000000E-01
  8.50000000E-01  8.50000000E-01  8.50000000E-01  8.50000000E-01  8.50000000E-01
  8.50000000E-01  8.50000000E-01  8.50000000E-01  8.50000000E-01  8.50000000E-01
  8.50000000E-01  8.50000000E-01  8.50000000E-01  8.50000000E-01  8.50000000E-01
  8.50000000E-01  8.50000000E-01  8.50000000E-01  8.50000000E-01  8.50000000E-01
  8.50000000E-01  8.50000000E-01  8.50000000E-01  8.50000000E-01  8.50000000E-01
  8.50000000E-01  8.50000000E-01  8.50000000E-01  8.50000000E-01  8.50000000E-01
  8.50000000E-01  8.50000000E-01  8.50000000E-01  8.50000000E-01  8.50000000E-01
  8.50000000E-01  8.50000000E-01  8.50000000E-01  8.50000000E-01  8.50000000E-01
  8.50000000E-01  8.50000000E-01  8.50000000E-01  8.50000000E-01  8.50000000E-01
  8.50000000E-01  8.50000000E-01  8.50000000E-01  8.50000000E-01  8.50000000E-01
  8.50000000E-01  8.50000000E-01  8.50000000E-01  8.50000000E-01  8.50000000E-01
  8.50000000E-01  8.50000000E-01  8.50000000E-01  8.50000000E-01  8.50000000E-01
  8.50000000E-01  8.50000000E-01  8.50000000E-01  8.50000000E-01  8.50000000E-01
  8.50000000E-01  8.50000000E-01  8.50000000E-01  8.50000000E-01  8.50000000E-01
  8.50000000E-01  8.50000000E-01  8.50000000E-01  8.50000000E-01  8.50000000E-01
  8.50000000E-01  8.50000000E-01  8.50000000E-01  8.50000000E-01  8.50000000E-01
  8.50000000E-01  8.50000000E-01  8.50000000E-01  8.50000000E-01  8.50000000E-01
  8.50000000E-01  8.50000000E-01  8.50000000E-01  8.50000000E-01  8.50000000E-01
  8.50000000E-01  8.50000000E-01  8.50000000E-01  8.50000000E-01  8.50000000E-01
  8.50000000E-01  8.50000000E-01  8.50000000E-01  8.50000000E-01  8.50000000E-01
  8.50000000E-01  8.50000000E-01  8.50000000E-01  8.50000000E-01  8.50000000E-01
  8.50000000E-01  8.50000000E-01  8.50000000E-01  8.50000000E-01  8.50000000E-01
  8.50000000E-01  8.50000000E-01  8.50000000E-01  8.50000000E-01  8.50000000E-01
  8.50000000E-01  8.50000000E-01  8.50000000E-01  8.50000000E-01  8.50000000E-01
  8.50000000E-01  8.50000000E-01  8.50000000E-01  8.50000000E-01  8.50000000E-01
  8.50000000E-01  8.50000000E-01  8.50000000E-01  8.50000000E-01  8.50000000E-01
  8.50000000E-01  8.50000000E-01  8.50000000E-01  8.50000000E-01  8.50000000E-01
  8.50000000E-01  8.50000000E-01  8.50000000E-01  8.50000000E-01  8.50000000E-01
  8.50000000E-01  8.50000000E-01  8.50000000E-01  8.50000000E-01  8.50000000E-01
  8.50000000E-01  8.50000000E-01  8.50000000E-01  8.50000000E-01  8.50000000E-01
  8.50000000E-01  8.50000000E-01  8.50000000E-01  8.50000000E-01  8.50000000E-01
  8.50000000E-01  8.50000000E-01  8.50000000E-01  8.50000000E-01  8.50000000E-01
  8.50000000E-01  8.50000000E-01  8.50000000E-01  8.50000000E-01  8.50000000E-01
  8.50000000E-01  8.50000000E-01  8.50000000E-01  8.50000000E-01  8.50000000E-01
  8.50000000E-01  8.50000000E-01  8.50000000E-01  8.50000000E-01  8.50000000E-01
  8.50000000E-01  8.50000000E-01  8.50000000E-01  8.50000000E-01  8.50000000E-01
  8.50000000E-01  8.50000000E-01  8.50000000E-01  8.50000000E-01  8.50000000E-01
  8.50000000E-01  8.50000000E-01  8.50000000E-01  8.50000000E-01  8.50000000E-01
  8.50000000E-01  8.50000000E-01  8.50000000E-01  8.50000000E-01  8.50000000E-01
  8.50000000E-01  8.50000000E-01  8.50000000E-01  8.50000000E-01  8.50000000E-01
  8.50000000E-01  8.50000000E-01  8.50000000E-01  8.50000000E-01  8.50000000E-01
  8.50000000E-01  8.50000000E-01  8.50000000E-01  8.50000000E-01  8.50000000E-01
  8.50000000E-01  8.50000000E-01  8.50000000E-01  8.50000000E-01  8.50000000E-01
  8.50000000E-01  8.50000000E-01  8.50000000E-01  8.50000000E-01  8.50000000E-01
  8.50000000E-01  8.50000000E-01  8.50000000E-01  8.50000000E-01  8.50000000E-01
  8.50000000E-01  8.50000000E-01  8.50000000E-01  8.50000000E-01  8.50000000E-01
  8.50000000E-01  8.50000000E-01  8.50000000E-01  8.50000000E-01  8.50000000E-01
  8.50000000E-01  8.50000000E-01  8.50000000E-01  8.50000000E-01  8.50000000E-01
  8.50000000E-01  8.50000000E-01  8.50000000E-01  8.50000000E-01  8.50000000E-01
  8.50000000E-01  8.50000000E-01  8.50000000E-01  8.50000000E-01  8.50000000E-01
  8.50000000E-01  8.50000000E-01  8.50000000E-01  8.50000000E-01  8.50000000E-01
  8.50000000E-01  8.50000000E-01  8.50000000E-01  8.50000000E-01  8.50000000E-01
  8.50000000E-01  8.50000000E-01  8.50000000E-01  8.50000000E-01  8.50000000E-01
  8.50000000E-01  8.50000000E-01  8.50000000E-01  8.50000000E-01  8.50000000E-01
  8.50000000E-01  8.50000000E-01  8.50000000E-01  8.50000000E-01  8.50000000E-01
  8.50000000E-01  8.50000000E-01  8.50000000E-01  8.50000000E-01  8.50000000E-01
  8.50000000E-01  8.50000000E-01  8.50000000E-01  8.50000000E-01  8.50000000E-01
  8.50000000E-01  8.50000000E-01  8.50000000E-01  8.50000000E-01  8.50000000E-01
  8.50000000E-01  8.50000000E-01  8.50000000E-01  8.50000000E-01  8.50000000E-01
  8.50000000E-01  8.50000000E-01  8.50000000E-01  8.50000000E-01  8.50000000E-01
  8.50000000E-01  8.50000000E-01  8.50000000E-01  8.50000000E-01  8.50000000E-01
  8.50000000E-01  8.50000000E-01  8.50000000E-01  8.50000000E-01  8.50000000E-01
  8.50000000E-01  8.50000000E-01  8.50000000E-01  8.50000000E-01  8.50000000E-01
  8.50000000E-01  8.50000000E-01  8.50000000E-01  8.50000000E-01  8.50000000E-01
  8.50000000E-01  8.50000000E-01  8.50000000E-01  8.50000000E-01  8.50000000E-01
  8.50000000E-01  8.50000000E-01  8.50000000E-01  8.50000000E-01  8.50000000E-01
  8.50000000E-01  8.50000000E-01  8.50000000E-01  8.50000000E-01  8.50000000E-01
  8.50000000E-01  8.50000000E-01  8.50000000E-01  8.50000000E-01  8.50000000E-01
  8.50000000E-01  8.50000000E-01  8.50000000E-01  8.50000000E-01  8.50000000E-01
  8.50000000E-01  8.50000000E-01  8.50000000E-01  8.50000000E-01  8.50000000E-01
  8.50000000E-01  8.50000000E-01  8.50000000E-01  8.50000000E-01  8.50000000E-01
  8.50000000E-01  8.50000000E-01  8.50000000E-01  8.50000000E-01  8.50000000E-01
  8.50000000E-01  8.50000000E-01  8.50000000E-01  8.50000000E-01  8.50000000E-01
  8.50000000E-01  8.50000000E-01  8.50000000E-01  8.50000000E-01  8.50000000E-01
  8.50000000E-01  8.50000000E-01  8.50000000E-01  8.50000000E-01  8.50000000E-01
  8.50000000E-01  8.50000000E-01  8.50000000E-01  8.50000000E-01  8.50000000E-01
  8.50000000E-01  8.50000000E-01  8.50000000E-01  8.50000000E-01  8.50000000E-01
  8.50000000E-01  8.50000000E-01  8.50000000E-01  8.50000000E-01  8.50000000E-01
  8.50000000E-01  8.50000000E-01  8.50000000E-01  8.50000000E-01  8.50000000E-01
  8.50000000E-01  8.50000000E-01  8.50000000E-01  8.50000000E-01  8.50000000E-01
  8.50000000E-01  8.50000000E-01  8.50000000E-01  8.50000000E-01  8.50000000E-01
  8.50000000E-01  8.50000000E-01  8.50000000E-01  8.50000000E-01  8.50000000E-01
  8.50000000E-01  8.50000000E-01  8.50000000E-01  8.50000000E-01  8.50000000E-01
  8.50000000E-01  8.50000000E-01  8.50000000E-01  8.50000000E-01  8.50000000E-01
  8.50000000E-01  8.50000000E-01  8.50000000E-01  8.50000000E-01  8.50000000E-01
  8.50000000E-01  8.50000000E-01  8.50000000E-01  8.50000000E-01  8.50000000E-01
  8.50000000E-01  8.50000000E-01  8.50000000E-01  8.50000000E-01  8.50000000E-01
  8.50000000E-01  8.50000000E-01  8.50000000E-01  8.50000000E-01  8.50000000E-01
  8.50000000E-01  8.50000000E-01  8.50000000E-01  8.50000000E-01  8.50000000E-01
  8.50000000E-01  8.50000000E-01  8.50000000E-01  8.50000000E-01  8.50000000E-01
  8.50000000E-01  8.50000000E-01  8.50000000E-01  8.50000000E-01  8.50000000E-01
  8.50000000E-01  8.50000000E-01  8.50000000E-01  8.50000000E-01  8.50000000E-01
  8.50000000E-01  8.50000000E-01  8.50000000E-01  8.50000000E-01  8.50000000E-01
  8.50000000E-01  8.50000000E-01  8.50000000E-01  8.50000000E-01  8.50000000E-01
  8.50000000E-01  8.50000000E-01  8.50000000E-01  8.50000000E-01  8.50000000E-01
  8.50000000E-01  8.50000000E-01  8.50000000E-01  8.50000000E-01  8.50000000E-01
  8.50000000E-01  8.50000000E-01  8.50000000E-01  8.50000000E-01  8.50000000E-01
  8.50000000E-01  8.50000000E-01  8.50000000E-01  8.50000000E-01  8.50000000E-01
  8.50000000E-01  8.50000000E-01  8.50000000E-01  8.50000000E-01  8.50000000E-01
  8.50000000E-01  8.50000000E-01  8.50000000E-01  8.50000000E-01  8.50000000E-01
  8.50000000E-01  8.50000000E-01  8.50000000E-01  8.50000000E-01  8.50000000E-01
  8.50000000E-01  8.50000000E-01  8.50000000E-01  8.50000000E-01  8.50000000E-01
  8.50000000E-01  8.50000000E-01  8.50000000E-01  8.50000000E-01  8.50000000E-01
  8.50000000E-01  8.50000000E-01  8.50000000E-01  8.50000000E-01  8.50000000E-01
  8.50000000E-01  8.50000000E-01  8.50000000E-01  8.50000000E-01  8.50000000E-01
  8.50000000E-01  8.50000000E-01  8.50000000E-01  8.50000000E-01  8.50000000E-01
  8.50000000E-01  8.50000000E-01  8.50000000E-01  8.50000000E-01  8.50000000E-01
  8.50000000E-01  8.50000000E-01  8.50000000E-01  8.50000000E-01  8.50000000E-01
  8.50000000E-01  8.50000000E-01  8.50000000E-01  8.50000000E-01  8.50000000E-01
  8.50000000E-01  8.50000000E-01  8.50000000E-01  8.50000000E-01  8.50000000E-01
  8.50000000E-01  8.50000000E-01  8.50000000E-01  8.50000000E-01  8.50000000E-01
  8.50000000E-01  8.50000000E-01  8.50000000E-01  8.50000000E-01  8.50000000E-01
  8.50000000E-01  8.50000000E-01  8.50000000E-01  8.50000000E-01  8.50000000E-01
  8.50000000E-01  8.50000000E-01  8.50000000E-01  8.50000000E-01  8.50000000E-01
  8.50000000E-01  8.50000000E-01  8.50000000E-01  8.50000000E-01  8.50000000E-01
  8.50000000E-01  8.50000000E-01  8.50000000E-01  8.50000000E-01  8.50000000E-01
  8.50000000E-01  8.50000000E-01  8.50000000E-01  8.50000000E-01  8.50000000E-01
  8.50000000E-01  8.50000000E-01  8.50000000E-01  8.50000000E-01  8.50000000E-01
  8.50000000E-01  8.50000000E-01  8.50000000E-01  8.50000000E-01  8.50000000E-01
  8.50000000E-01  8.50000000E-01  8.50000000E-01  8.50000000E-01  8.50000000E-01
  8.50000000E-01  8.50000000E-01  8.50000000E-01  8.50000000E-01  8.50000000E-01
  8.50000000E-01  8.50000000E-01  8.50000000E-01  8.50000000E-01  8.50000000E-01
  8.50000000E-01  8.50000000E-01  8.50000000E-01  8.50000000E-01  8.50000000E-01
  8.50000000E-01  8.50000000E-01  8.50000000E-01  8.50000000E-01  8.50000000E-01
  8.50000000E-01  8.50000000E-01  8.50000000E-01  8.50000000E-01  8.50000000E-01
  8.50000000E-01  8.50000000E-01  8.50000000E-01  8.50000000E-01  8.50000000E-01
  8.50000000E-01  8.50000000E-01  8.50000000E-01  8.50000000E-01  8.50000000E-01
  8.50000000E-01  8.50000000E-01  8.50000000E-01  8.50000000E-01  8.50000000E-01
  8.50000000E-01  8.50000000E-01  8.50000000E-01  8.50000000E-01  8.50000000E-01
  8.50000000E-01  8.50000000E-01  8.50000000E-01  8.50000000E-01  8.50000000E-01
  8.50000000E-01  8.50000000E-01  8.50000000E-01  8.50000000E-01  8.50000000E-01
  8.50000000E-01  8.50000000E-01  8.50000000E-01  8.50000000E-01  8.50000000E-01
  8.50000000E-01  8.50000000E-01  8.50000000E-01  8.50000000E-01  8.50000000E-01
  8.50000000E-01  8.50000000E-01  8.50000000E-01  8.50000000E-01  8.50000000E-01
  8.50000000E-01  8.50000000E-01  8.50000000E-01  8.50000000E-01  8.50000000E-01
  8.50000000E-01  8.50000000E-01  8.50000000E-01  8.50000000E-01  8.50000000E-01
  8.50000000E-01  8.50000000E-01  8.50000000E-01  8.50000000E-01  8.50000000E-01
  8.50000000E-01  8.50000000E-01  8.50000000E-01  8.50000000E-01  8.50000000E-01
  8.50000000E-01  8.50000000E-01  8.50000000E-01  8.50000000E-01  8.50000000E-01
  8.50000000E-01  8.50000000E-01  8.50000000E-01  8.50000000E-01  8.50000000E-01
  8.50000000E-01  8.50000000E-01  8.50000000E-01  8.50000000E-01  8.50000000E-01
  8.50000000E-01  8.50000000E-01  8.50000000E-01  8.50000000E-01  8.50000000E-01
  8.50000000E-01  8.50000000E-01  8.50000000E-01  8.50000000E-01  8.50000000E-01
  8.50000000E-01  8.50000000E-01  8.50000000E-01  8.50000000E-01  8.50000000E-01
  8.50000000E-01  8.50000000E-01  8.50000000E-01  8.50000000E-01  8.50000000E-01
  8.50000000E-01  8.50000000E-01  8.50000000E-01  8.50000000E-01  8.50000000E-01
  8.50000000E-01  8.50000000E-01  8.50000000E-01  8.50000000E-01  8.50000000E-01
  8.50000000E-01  8.50000000E-01  8.50000000E-01  8.50000000E-01  8.50000000E-01
  8.50000000E-01  8.50000000E-01  8.50000000E-01  8.50000000E-01  8.50000000E-01
  8.50000000E-01  8.50000000E-01  8.50000000E-01  8.50000000E-01  8.50000000E-01
  8.50000000E-01  8.50000000E-01  8.50000000E-01  8.50000000E-01  8.50000000E-01
  8.50000000E-01  8.50000000E-01  8.50000000E-01  8.50000000E-01  8.50000000E-01
  8.50000000E-01  8.50000000E-01  8.50000000E-01  8.50000000E-01  8.50000000E-01
  8.50000000E-01  8.50000000E-01  8.50000000E-01  8.50000000E-01  8.50000000E-01
  8.50000000E-01  8.50000000E-01  8.50000000E-01  8.50000000E-01  8.50000000E-01
  8.50000000E-01  8.50000000E-01  8.50000000E-01  8.50000000E-01  8.50000000E-01
  8.50000000E-01  8.50000000E-01  8.50000000E-01  8.50000000E-01  8.50000000E-01
  8.50000000E-01  8.50000000E-01  8.50000000E-01  8.50000000E-01  8.50000000E-01
  8.50000000E-01  8.50000000E-01  8.50000000E-01  8.50000000E-01  8.50000000E-01
  8.50000000E-01  8.50000000E-01  8.50000000E-01  8.50000000E-01  8.50000000E-01
  8.50000000E-01  8.50000000E-01  8.50000000E-01  8.50000000E-01  8.50000000E-01
  8.50000000E-01  8.50000000E-01  8.50000000E-01  8.50000000E-01  8.50000000E-01
  8.50000000E-01  8.50000000E-01  8.50000000E-01  8.50000000E-01  8.50000000E-01
  8.50000000E-01  8.50000000E-01  8.50000000E-01  8.50000000E-01  8.50000000E-01
  8.50000000E-01  8.50000000E-01  8.50000000E-01  8.50000000E-01  8.50000000E-01
  8.50000000E-01  8.50000000E-01  8.50000000E-01  8.50000000E-01  8.50000000E-01
  8.50000000E-01  8.50000000E-01  8.50000000E-01  8.50000000E-01  8.50000000E-01
  8.50000000E-01  8.50000000E-01  8.50000000E-01  8.50000000E-01  8.50000000E-01
  8.50000000E-01  8.50000000E-01  8.50000000E-01  8.50000000E-01  8.50000000E-01
  8.50000000E-01  8.50000000E-01  8.50000000E-01  8.50000000E-01  8.50000000E-01
  8.50000000E-01  8.50000000E-01  8.50000000E-01  8.50000000E-01  8.50000000E-01
  8.50000000E-01  8.50000000E-01  8.50000000E-01  8.50000000E-01  8.50000000E-01
  8.50000000E-01  8.50000000E-01  8.50000000E-01  8.50000000E-01  8.50000000E-01
  8.50000000E-01  8.50000000E-01  8.50000000E-01  8.50000000E-01  8.50000000E-01
  8.50000000E-01  8.50000000E-01  8.50000000E-01  8.50000000E-01  8.50000000E-01
  8.50000000E-01  8.50000000E-01  8.50000000E-01  8.50000000E-01  8.50000000E-01
  8.50000000E-01  8.50000000E-01  8.50000000E-01  8.50000000E-01  8.50000000E-01
  8.50000000E-01  8.50000000E-01  8.50000000E-01  8.50000000E-01  8.50000000E-01
  8.50000000E-01  8.50000000E-01  8.50000000E-01  8.50000000E-01  8.50000000E-01
  8.50000000E-01  8.50000000E-01  8.50000000E-01  8.50000000E-01  8.50000000E-01
  8.50000000E-01  8.50000000E-01  8.50000000E-01  8.50000000E-01  8.50000000E-01
  8.50000000E-01  8.50000000E-01  8.50000000E-01  8.50000000E-01  8.50000000E-01
  8.50000000E-01  8.50000000E-01  8.50000000E-01  8.50000000E-01  8.50000000E-01
  8.50000000E-01  8.50000000E-01  8.50000000E-01  8.50000000E-01  8.50000000E-01
  8.50000000E-01  8.50000000E-01  8.50000000E-01  8.50000000E-01  8.50000000E-01
  8.50000000E-01  8.50000000E-01  8.50000000E-01  8.50000000E-01  8.50000000E-01
  8.50000000E-01  8.50000000E-01  8.50000000E-01  8.50000000E-01  8.50000000E-01
  8.50000000E-01  8.50000000E-01  8.50000000E-01  8.50000000E-01  8.50000000E-01
  8.50000000E-01  8.50000000E-01  8.50000000E-01  8.50000000E-01  8.50000000E-01
  8.50000000E-01  8.50000000E-01  8.50000000E-01  8.50000000E-01  8.50000000E-01
  8.50000000E-01  8.50000000E-01  8.50000000E-01  8.50000000E-01  8.50000000E-01
  8.50000000E-01  8.50000000E-01  8.50000000E-01  8.50000000E-01  8.50000000E-01
  8.50000000E-01  8.50000000E-01  8.50000000E-01  8.50000000E-01  8.50000000E-01
  8.50000000E-01  8.50000000E-01  8.50000000E-01  8.50000000E-01  8.50000000E-01
  8.50000000E-01  8.50000000E-01  8.50000000E-01  8.50000000E-01  8.50000000E-01
  8.50000000E-01  8.50000000E-01  8.50000000E-01  8.50000000E-01  8.50000000E-01
  8.50000000E-01  8.50000000E-01  8.50000000E-01  8.50000000E-01  8.50000000E-01
  8.50000000E-01  8.50000000E-01  8.50000000E-01  8.50000000E-01  8.50000000E-01
  8.50000000E-01  8.50000000E-01  8.50000000E-01  8.50000000E-01  8.50000000E-01
  8.50000000E-01  8.50000000E-01  8.50000000E-01  8.50000000E-01  8.50000000E-01
  8.50000000E-01  8.50000000E-01  8.50000000E-01  8.50000000E-01  8.50000000E-01
  8.50000000E-01  8.50000000E-01  8.50000000E-01  8.50000000E-01  8.50000000E-01
  8.50000000E-01  8.50000000E-01  8.50000000E-01  8.50000000E-01  8.50000000E-01
  8.50000000E-01  8.50000000E-01  8.50000000E-01  8.50000000E-01  8.50000000E-01
  8.50000000E-01  8.50000000E-01  8.50000000E-01  8.50000000E-01  8.50000000E-01
  8.50000000E-01  8.50000000E-01  8.50000000E-01  8.50000000E-01  8.50000000E-01
  8.50000000E-01  8.50000000E-01  8.50000000E-01  8.50000000E-01  8.50000000E-01
  8.50000000E-01  8.50000000E-01  8.50000000E-01  8.50000000E-01  8.50000000E-01
  8.50000000E-01  8.50000000E-01  8.50000000E-01  8.50000000E-01  8.50000000E-01
  8.50000000E-01  8.50000000E-01  8.50000000E-01  8.50000000E-01  8.50000000E-01
  8.50000000E-01  8.50000000E-01  8.50000000E-01  8.50000000E-01  8.50000000E-01
  8.50000000E-01  8.50000000E-01  8.50000000E-01  8.50000000E-01  8.50000000E-01
  8.50000000E-01  8.50000000E-01  8.50000000E-01  8.50000000E-01  8.50000000E-01
  8.50000000E-01  8.50000000E-01  8.50000000E-01  8.50000000E-01  8.50000000E-01
  8.50000000E-01  8.50000000E-01  8.50000000E-01  8.50000000E-01  8.50000000E-01
  8.50000000E-01  8.50000000E-01  8.50000000E-01  8.50000000E-01  8.50000000E-01
  8.50000000E-01  8.50000000E-01  8.50000000E-01  8.50000000E-01  8.50000000E-01
  8.50000000E-01  8.50000000E-01  8.50000000E-01  8.50000000E-01  8.50000000E-01
  8.50000000E-01  8.50000000E-01  8.50000000E-01  8.50000000E-01  8.50000000E-01
  8.50000000E-01  8.50000000E-01  8.50000000E-01  8.50000000E-01  8.50000000E-01
  8.50000000E-01  8.50000000E-01  8.50000000E-01  8.50000000E-01  8.50000000E-01
  8.50000000E-01  8.50000000E-01  8.50000000E-01  8.50000000E-01  8.50000000E-01
  8.50000000E-01  8.50000000E-01  8.50000000E-01  8.50000000E-01  8.50000000E-01
  8.50000000E-01  8.50000000E-01  8.50000000E-01  8.50000000E-01  8.50000000E-01
  8.50000000E-01  8.50000000E-01  8.50000000E-01  8.50000000E-01  8.50000000E-01
  8.50000000E-01  8.50000000E-01  8.50000000E-01  8.50000000E-01  8.50000000E-01
  8.50000000E-01  8.50000000E-01  8.50000000E-01  8.50000000E-01  8.50000000E-01
  8.50000000E-01  8.50000000E-01  8.50000000E-01  8.50000000E-01  8.50000000E-01
  8.50000000E-01  8.50000000E-01  8.50000000E-01  8.50000000E-01  8.50000000E-01
  8.50000000E-01  8.50000000E-01  8.50000000E-01  8.50000000E-01  8.50000000E-01
  8.50000000E-01  8.50000000E-01  8.50000000E-01  8.50000000E-01  8.50000000E-01
  8.50000000E-01  8.50000000E-01  8.50000000E-01  8.50000000E-01  8.50000000E-01
  8.50000000E-01  8.50000000E-01  8.50000000E-01  8.50000000E-01  8.50000000E-01
  8.50000000E-01  8.50000000E-01  8.50000000E-01  8.50000000E-01  8.50000000E-01
  8.50000000E-01  8.50000000E-01  8.50000000E-01  8.50000000E-01  8.50000000E-01
  8.50000000E-01  8.50000000E-01  8.50000000E-01  8.50000000E-01  8.50000000E-01
  8.50000000E-01  8.50000000E-01  8.50000000E-01  8.50000000E-01  8.50000000E-01
  8.50000000E-01  8.50000000E-01  8.50000000E-01  8.50000000E-01  8.50000000E-01
  8.50000000E-01  8.50000000E-01  8.50000000E-01  8.50000000E-01  8.50000000E-01
  8.50000000E-01  8.50000000E-01  8.50000000E-01  8.50000000E-01  8.50000000E-01
  8.50000000E-01  8.50000000E-01  8.50000000E-01  8.50000000E-01  8.50000000E-01
  8.50000000E-01  8.50000000E-01  8.50000000E-01  8.50000000E-01  8.50000000E-01
  8.50000000E-01  8.50000000E-01  8.50000000E-01  8.50000000E-01  8.50000000E-01
  8.50000000E-01  8.50000000E-01  8.50000000E-01  8.50000000E-01  8.50000000E-01
  8.50000000E-01  8.50000000E-01  8.50000000E-01  8.50000000E-01  8.50000000E-01
  8.50000000E-01  8.50000000E-01  8.50000000E-01  8.50000000E-01  8.50000000E-01
  8.50000000E-01  8.50000000E-01  8.50000000E-01  8.50000000E-01  8.50000000E-01
  8.50000000E-01  8.50000000E-01  8.50000000E-01  8.50000000E-01  8.50000000E-01
  8.50000000E-01  8.50000000E-01  8.50000000E-01  8.50000000E-01  8.50000000E-01
  8.50000000E-01  8.50000000E-01  8.50000000E-01  8.50000000E-01  8.50000000E-01
  8.50000000E-01  8.50000000E-01  8.50000000E-01  8.50000000E-01  8.50000000E-01
  8.50000000E-01  8.50000000E-01  8.50000000E-01  8.50000000E-01  8.50000000E-01
  8.50000000E-01  8.50000000E-01  8.50000000E-01  8.50000000E-01  8.50000000E-01
  8.50000000E-01  8.50000000E-01  8.50000000E-01  8.50000000E-01  8.50000000E-01
  8.50000000E-01  8.50000000E-01  8.50000000E-01  8.50000000E-01  8.50000000E-01
  8.50000000E-01  8.50000000E-01  8.50000000E-01  8.50000000E-01  8.50000000E-01
  8.50000000E-01  8.50000000E-01  8.50000000E-01  8.50000000E-01  8.50000000E-01
  8.50000000E-01  8.50000000E-01  8.50000000E-01  8.50000000E-01  8.50000000E-01
  8.50000000E-01  8.50000000E-01  8.50000000E-01  8.50000000E-01  8.50000000E-01
  8.50000000E-01  8.50000000E-01  8.50000000E-01  8.50000000E-01  8.50000000E-01
  8.50000000E-01  8.50000000E-01  8.50000000E-01  8.50000000E-01  8.50000000E-01
  8.50000000E-01  8.50000000E-01  8.50000000E-01  8.50000000E-01  8.50000000E-01
  8.50000000E-01  8.50000000E-01  8.50000000E-01  8.50000000E-01  8.50000000E-01
  8.50000000E-01  8.50000000E-01  8.50000000E-01  8.50000000E-01  8.50000000E-01
  8.50000000E-01  8.50000000E-01  8.50000000E-01  8.50000000E-01  8.50000000E-01
  8.50000000E-01  8.50000000E-01  8.50000000E-01  8.50000000E-01  8.50000000E-01
  8.50000000E-01  8.50000000E-01  8.50000000E-01  8.50000000E-01  8.50000000E-01
  8.50000000E-01  8.50000000E-01  8.50000000E-01  8.50000000E-01  8.50000000E-01
  8.50000000E-01  8.50000000E-01  8.50000000E-01  8.50000000E-01  8.50000000E-01
  8.50000000E-01  8.50000000E-01  8.50000000E-01  8.50000000E-01  8.50000000E-01
  8.50000000E-01  8.50000000E-01  8.50000000E-01  8.50000000E-01  8.50000000E-01
  8.50000000E-01  8.50000000E-01  8.50000000E-01  8.50000000E-01  8.50000000E-01
  8.50000000E-01  8.50000000E-01  8.50000000E-01  8.50000000E-01  8.50000000E-01
  8.50000000E-01  8.50000000E-01  8.50000000E-01  8.50000000E-01  8.50000000E-01
  8.50000000E-01  8.50000000E-01  8.50000000E-01  8.50000000E-01  8.50000000E-01
  8.50000000E-01  8.50000000E-01  8.50000000E-01  8.50000000E-01  8.50000000E-01
  8.50000000E-01  8.50000000E-01  8.50000000E-01  8.50000000E-01  8.50000000E-01
  8.50000000E-01  8.50000000E-01  8.50000000E-01  8.50000000E-01  8.50000000E-01
  8.50000000E-01  8.50000000E-01  8.50000000E-01  8.50000000E-01  8.50000000E-01
  8.50000000E-01  8.50000000E-01  8.50000000E-01  8.50000000E-01  8.50000000E-01
  8.50000000E-01  8.50000000E-01  8.50000000E-01  8.50000000E-01  8.50000000E-01
  8.50000000E-01  8.50000000E-01  8.50000000E-01  8.50000000E-01  8.50000000E-01
  8.50000000E-01  8.50000000E-01  8.50000000E-01  8.50000000E-01  8.50000000E-01
  8.50000000E-01  8.50000000E-01  8.50000000E-01  8.50000000E-01  8.50000000E-01
  8.50000000E-01  8.50000000E-01  8.50000000E-01  8.50000000E-01  8.50000000E-01
  8.50000000E-01  8.50000000E-01  8.50000000E-01  8.50000000E-01  8.50000000E-01
  8.50000000E-01  8.50000000E-01  8.50000000E-01  8.50000000E-01  8.50000000E-01
  8.50000000E-01  8.50000000E-01  8.50000000E-01  8.50000000E-01  8.50000000E-01
  8.50000000E-01  8.50000000E-01  8.50000000E-01  8.50000000E-01  8.50000000E-01
  8.50000000E-01  8.50000000E-01  8.50000000E-01  8.50000000E-01  8.50000000E-01
  8.50000000E-01  8.50000000E-01  8.50000000E-01  8.50000000E-01  8.50000000E-01
  8.50000000E-01  8.50000000E-01  8.50000000E-01  8.50000000E-01  8.50000000E-01
  8.50000000E-01  8.50000000E-01  8.50000000E-01  8.50000000E-01  8.50000000E-01
  8.50000000E-01  8.50000000E-01  8.50000000E-01  8.50000000E-01  8.50000000E-01
  8.50000000E-01  8.50000000E-01  8.50000000E-01  8.50000000E-01  8.50000000E-01
  8.50000000E-01  8.50000000E-01  8.50000000E-01  8.50000000E-01  8.50000000E-01
  8.50000000E-01  8.50000000E-01  8.50000000E-01  8.50000000E-01  8.50000000E-01
  8.50000000E-01  8.50000000E-01  8.50000000E-01  8.50000000E-01  8.50000000E-01
  8.50000000E-01  8.50000000E-01  8.50000000E-01  8.50000000E-01  8.50000000E-01
  8.50000000E-01  8.50000000E-01  8.50000000E-01  8.50000000E-01  8.50000000E-01
  8.50000000E-01  8.50000000E-01  8.50000000E-01  8.50000000E-01  8.50000000E-01
  8.50000000E-01  8.50000000E-01  8.50000000E-01  8.50000000E-01  8.50000000E-01
  8.50000000E-01  8.50000000E-01  8.50000000E-01  8.50000000E-01  8.50000000E-01
  8.50000000E-01  8.50000000E-01  8.50000000E-01  8.50000000E-01  8.50000000E-01
  8.50000000E-01  8.50000000E-01  8.50000000E-01  8.50000000E-01  8.50000000E-01
  8.50000000E-01  8.50000000E-01  8.50000000E-01  8.50000000E-01  8.50000000E-01
  8.50000000E-01  8.50000000E-01  8.50000000E-01  8.50000000E-01  8.50000000E-01
  8.50000000E-01  8.50000000E-01  8.50000000E-01  8.50000000E-01  8.50000000E-01
  8.50000000E-01  8.50000000E-01  8.50000000E-01  8.50000000E-01  8.50000000E-01
  8.50000000E-01  8.50000000E-01  8.50000000E-01  8.50000000E-01  8.50000000E-01
  8.50000000E-01  8.50000000E-01  8.50000000E-01  8.50000000E-01  8.50000000E-01
  8.50000000E-01  8.50000000E-01  8.50000000E-01  8.50000000E-01  8.50000000E-01
  8.50000000E-01  8.50000000E-01  8.50000000E-01  8.50000000E-01  8.50000000E-01
  8.50000000E-01  8.50000000E-01  8.50000000E-01  8.50000000E-01  8.50000000E-01
  8.50000000E-01  8.50000000E-01  8.50000000E-01  8.50000000E-01  8.50000000E-01
  8.50000000E-01  8.50000000E-01  8.50000000E-01  8.50000000E-01  8.50000000E-01
  8.50000000E-01  8.50000000E-01  8.50000000E-01  8.50000000E-01  8.50000000E-01
  8.50000000E-01  8.50000000E-01  8.50000000E-01  8.50000000E-01  8.50000000E-01
  8.50000000E-01  8.50000000E-01  8.50000000E-01  8.50000000E-01  8.50000000E-01
  8.50000000E-01  8.50000000E-01  8.50000000E-01  8.50000000E-01  8.50000000E-01
  8.50000000E-01  8.50000000E-01  8.50000000E-01  8.50000000E-01  8.50000000E-01
  8.50000000E-01  8.50000000E-01  8.50000000E-01  8.50000000E-01  8.50000000E-01
  8.50000000E-01  8.50000000E-01  8.50000000E-01  8.50000000E-01  8.50000000E-01
  8.50000000E-01  8.50000000E-01  8.50000000E-01  8.50000000E-01  8.50000000E-01
  8.50000000E-01  8.50000000E-01  8.50000000E-01  8.50000000E-01  8.50000000E-01
  8.50000000E-01  8.50000000E-01  8.50000000E-01  8.50000000E-01  8.50000000E-01
  8.50000000E-01  8.50000000E-01  8.50000000E-01  8.50000000E-01  8.50000000E-01
  8.50000000E-01  8.50000000E-01  8.50000000E-01  8.50000000E-01  8.50000000E-01
  8.50000000E-01  8.50000000E-01  8.50000000E-01  8.50000000E-01  8.50000000E-01
  8.50000000E-01  8.50000000E-01  8.50000000E-01  8.50000000E-01  8.50000000E-01
  8.50000000E-01  8.50000000E-01  8.50000000E-01  8.50000000E-01  8.50000000E-01
  8.50000000E-01  8.50000000E-01  8.50000000E-01  8.50000000E-01  8.50000000E-01
  8.50000000E-01  8.50000000E-01  8.50000000E-01  8.50000000E-01  8.50000000E-01
  8.50000000E-01  8.50000000E-01  8.50000000E-01  8.50000000E-01  8.50000000E-01
  8.50000000E-01  8.50000000E-01  8.50000000E-01  8.50000000E-01  8.50000000E-01
  8.50000000E-01  8.50000000E-01  8.50000000E-01  8.50000000E-01  8.50000000E-01
  8.50000000E-01  8.50000000E-01  8.50000000E-01  8.50000000E-01  8.50000000E-01
  8.50000000E-01  8.50000000E-01  8.50000000E-01  8.50000000E-01  8.50000000E-01
  8.50000000E-01  8.50000000E-01  8.50000000E-01  8.50000000E-01  8.50000000E-01
  8.50000000E-01  8.50000000E-01  8.50000000E-01  8.50000000E-01  8.50000000E-01
  8.50000000E-01  8.50000000E-01  8.50000000E-01  8.50000000E-01  8.50000000E-01
  8.50000000E-01  8.50000000E-01  8.50000000E-01  8.50000000E-01  8.50000000E-01
  8.50000000E-01  8.50000000E-01  8.50000000E-01  8.50000000E-01  8.50000000E-01
  8.50000000E-01  8.50000000E-01  8.50000000E-01  8.50000000E-01  8.50000000E-01
  8.50000000E-01  8.50000000E-01  8.50000000E-01  8.50000000E-01  8.50000000E-01
  8.50000000E-01  8.50000000E-01  8.50000000E-01  8.50000000E-01  8.50000000E-01
  8.50000000E-01  8.50000000E-01  8.50000000E-01  8.50000000E-01  8.50000000E-01
  8.50000000E-01  8.50000000E-01  8.50000000E-01  8.50000000E-01  8.50000000E-01
  8.50000000E-01  8.50000000E-01  8.50000000E-01  8.50000000E-01  8.50000000E-01
  8.50000000E-01  8.50000000E-01  8.50000000E-01  8.50000000E-01  8.50000000E-01
  8.50000000E-01  8.50000000E-01  8.50000000E-01  8.50000000E-01  8.50000000E-01
  8.50000000E-01  8.50000000E-01  8.50000000E-01  8.50000000E-01  8.50000000E-01
  8.50000000E-01  8.50000000E-01  8.50000000E-01  8.50000000E-01  8.50000000E-01
  8.50000000E-01  8.50000000E-01  8.50000000E-01  8.50000000E-01  8.50000000E-01
  8.50000000E-01  8.50000000E-01  8.50000000E-01  8.50000000E-01  8.50000000E-01
  8.50000000E-01  8.50000000E-01  8.50000000E-01  8.50000000E-01  8.50000000E-01
  8.50000000E-01  8.50000000E-01  8.50000000E-01  8.50000000E-01  8.50000000E-01
  8.50000000E-01  8.50000000E-01  8.50000000E-01  8.50000000E-01  8.50000000E-01
  8.50000000E-01  8.50000000E-01  8.50000000E-01  8.50000000E-01  8.50000000E-01
  8.50000000E-01  8.50000000E-01  8.50000000E-01  8.50000000E-01  8.50000000E-01
  8.50000000E-01  8.50000000E-01  8.50000000E-01  8.50000000E-01  8.50000000E-01
  8.50000000E-01  8.50000000E-01  8.50000000E-01  8.50000000E-01  8.50000000E-01
  8.50000000E-01  8.50000000E-01  8.50000000E-01  8.50000000E-01  8.50000000E-01
  8.50000000E-01  8.50000000E-01  8.50000000E-01  8.50000000E-01  8.50000000E-01
  8.50000000E-01  8.50000000E-01  8.50000000E-01  8.50000000E-01  8.50000000E-01
  8.50000000E-01  8.50000000E-01  8.50000000E-01  8.50000000E-01  8.50000000E-01
  8.50000000E-01  8.50000000E-01  8.50000000E-01  8.50000000E-01  8.50000000E-01
  8.50000000E-01  8.50000000E-01  8.50000000E-01  8.50000000E-01  8.50000000E-01
  8.50000000E-01  8.50000000E-01  8.50000000E-01  8.50000000E-01  8.50000000E-01
  8.50000000E-01  8.50000000E-01  8.50000000E-01  8.50000000E-01  8.50000000E-01
  8.50000000E-01  8.50000000E-01  8.50000000E-01  8.50000000E-01  8.50000000E-01
  8.50000000E-01  8.50000000E-01  8.50000000E-01  8.50000000E-01  8.50000000E-01
  8.50000000E-01  8.50000000E-01  8.50000000E-01  8.50000000E-01  8.50000000E-01
  8.50000000E-01  8.50000000E-01  8.50000000E-01  8.50000000E-01  8.50000000E-01
  8.50000000E-01  8.50000000E-01  8.50000000E-01  8.50000000E-01  8.50000000E-01
  8.50000000E-01  8.50000000E-01  8.50000000E-01  8.50000000E-01  8.50000000E-01
  8.50000000E-01  8.50000000E-01  8.50000000E-01  8.50000000E-01  8.50000000E-01
  8.50000000E-01  8.50000000E-01  8.50000000E-01  8.50000000E-01  8.50000000E-01
  8.50000000E-01  8.50000000E-01  8.50000000E-01  8.50000000E-01  8.50000000E-01
  8.50000000E-01  8.50000000E-01  8.50000000E-01  8.50000000E-01  8.50000000E-01
  8.50000000E-01  8.50000000E-01  8.50000000E-01  8.50000000E-01  8.50000000E-01
  8.50000000E-01  8.50000000E-01  8.50000000E-01  8.50000000E-01  8.50000000E-01
  8.50000000E-01  8.50000000E-01  8.50000000E-01  8.50000000E-01  8.50000000E-01
  8.50000000E-01  8.50000000E-01  8.50000000E-01  8.50000000E-01  8.50000000E-01
  8.50000000E-01  8.50000000E-01  8.50000000E-01  8.50000000E-01  8.50000000E-01
  8.50000000E-01  8.50000000E-01  8.50000000E-01  8.50000000E-01  8.50000000E-01
  8.50000000E-01  8.50000000E-01  8.50000000E-01  8.50000000E-01  8.50000000E-01
  8.50000000E-01  8.50000000E-01  8.50000000E-01  8.50000000E-01  8.50000000E-01
  8.50000000E-01  8.50000000E-01  8.50000000E-01  8.50000000E-01  8.50000000E-01
  8.50000000E-01  8.50000000E-01  8.50000000E-01  8.50000000E-01  8.50000000E-01
  8.50000000E-01  8.50000000E-01  8.50000000E-01  8.50000000E-01  8.50000000E-01
  8.50000000E-01  8.50000000E-01  8.50000000E-01  8.50000000E-01  8.50000000E-01
  8.50000000E-01  8.50000000E-01  8.50000000E-01  8.50000000E-01  8.50000000E-01
  8.50000000E-01  8.50000000E-01  8.50000000E-01  8.50000000E-01  8.50000000E-01
  8.50000000E-01  8.50000000E-01  8.50000000E-01  8.50000000E-01  8.50000000E-01
  8.50000000E-01  8.50000000E-01  8.50000000E-01  8.50000000E-01  8.50000000E-01
  8.50000000E-01  8.50000000E-01  8.50000000E-01  8.50000000E-01  8.50000000E-01
  8.50000000E-01  8.50000000E-01  8.50000000E-01  8.50000000E-01  8.50000000E-01
  8.50000000E-01  8.50000000E-01  8.50000000E-01  8.50000000E-01  8.50000000E-01
  8.50000000E-01  8.50000000E-01  8.50000000E-01  8.50000000E-01  8.50000000E-01
  8.50000000E-01  8.50000000E-01  8.50000000E-01  8.50000000E-01  8.50000000E-01
  8.50000000E-01  8.50000000E-01  8.50000000E-01  8.50000000E-01  8.50000000E-01
  8.50000000E-01  8.50000000E-01  8.50000000E-01  8.50000000E-01  8.50000000E-01
  8.50000000E-01  8.50000000E-01  8.50000000E-01  8.50000000E-01  8.50000000E-01
  8.50000000E-01  8.50000000E-01  8.50000000E-01  8.50000000E-01  8.50000000E-01
  8.50000000E-01  8.50000000E-01  8.50000000E-01  8.50000000E-01  8.50000000E-01
  8.50000000E-01  8.50000000E-01  8.50000000E-01  8.50000000E-01  8.50000000E-01
  8.50000000E-01  8.50000000E-01  8.50000000E-01  8.50000000E-01  8.50000000E-01
  8.50000000E-01  8.50000000E-01  8.50000000E-01  8.50000000E-01  8.50000000E-01
  8.50000000E-01  8.50000000E-01  8.50000000E-01  8.50000000E-01  8.50000000E-01
  8.50000000E-01  8.50000000E-01  8.50000000E-01  8.50000000E-01  8.50000000E-01
  8.50000000E-01  8.50000000E-01  8.50000000E-01  8.50000000E-01  8.50000000E-01
  8.50000000E-01  8.50000000E-01  8.50000000E-01  8.50000000E-01  8.50000000E-01
  8.50000000E-01  8.50000000E-01  8.50000000E-01  8.50000000E-01  8.50000000E-01
  8.50000000E-01  8.50000000E-01  8.50000000E-01  8.50000000E-01  8.50000000E-01
  8.50000000E-01  8.50000000E-01  8.50000000E-01  8.50000000E-01  8.50000000E-01
  8.50000000E-01  8.50000000E-01  8.50000000E-01  8.50000000E-01  8.50000000E-01
  8.50000000E-01  8.50000000E-01  8.50000000E-01  8.50000000E-01  8.50000000E-01
  8.50000000E-01  8.50000000E-01  8.50000000E-01  8.50000000E-01  8.50000000E-01
  8.50000000E-01  8.50000000E-01  8.50000000E-01  8.50000000E-01  8.50000000E-01
  8.50000000E-01  8.50000000E-01  8.50000000E-01  8.50000000E-01  8.50000000E-01
  8.50000000E-01  8.50000000E-01  8.50000000E-01  8.50000000E-01  8.50000000E-01
  8.50000000E-01  8.50000000E-01  8.50000000E-01  8.50000000E-01  8.50000000E-01
  8.50000000E-01  8.50000000E-01  8.50000000E-01  8.50000000E-01  8.50000000E-01
  8.50000000E-01  8.50000000E-01  8.50000000E-01  8.50000000E-01  8.50000000E-01
  8.50000000E-01  8.50000000E-01  8.50000000E-01  8.50000000E-01  8.50000000E-01
  8.50000000E-01  8.50000000E-01  8.50000000E-01  8.50000000E-01  8.50000000E-01
  8.50000000E-01  8.50000000E-01  8.50000000E-01  8.50000000E-01  8.50000000E-01
  8.50000000E-01  8.50000000E-01  8.50000000E-01  8.50000000E-01  8.50000000E-01
  8.50000000E-01  8.50000000E-01  8.50000000E-01  8.50000000E-01  8.50000000E-01
  8.50000000E-01  8.50000000E-01  8.50000000E-01  8.50000000E-01  8.50000000E-01
  8.50000000E-01  8.50000000E-01  8.50000000E-01  8.50000000E-01  8.50000000E-01
  8.50000000E-01  8.50000000E-01  8.50000000E-01  8.50000000E-01  8.50000000E-01
  8.50000000E-01  8.50000000E-01  8.50000000E-01  8.50000000E-01  8.50000000E-01
  8.50000000E-01  8.50000000E-01  8.50000000E-01  8.50000000E-01  8.50000000E-01
  8.50000000E-01  8.50000000E-01  8.50000000E-01  8.50000000E-01  8.50000000E-01
  8.50000000E-01  8.50000000E-01  8.50000000E-01  8.50000000E-01  8.50000000E-01
  8.50000000E-01  8.50000000E-01  8.50000000E-01  8.50000000E-01  8.50000000E-01
  8.50000000E-01  8.50000000E-01  8.50000000E-01  8.50000000E-01  8.50000000E-01
  8.50000000E-01  8.50000000E-01  8.50000000E-01  8.50000000E-01  8.50000000E-01
  8.50000000E-01  8.50000000E-01  8.50000000E-01  8.50000000E-01  8.50000000E-01
  8.50000000E-01  8.50000000E-01  8.50000000E-01  8.50000000E-01  8.50000000E-01
  8.50000000E-01  8.50000000E-01  8.50000000E-01  8.50000000E-01  8.50000000E-01
  8.50000000E-01  8.50000000E-01  8.50000000E-01  8.50000000E-01  8.50000000E-01
  8.50000000E-01  8.50000000E-01  8.50000000E-01  8.50000000E-01  8.50000000E-01
  8.50000000E-01  8.50000000E-01  8.50000000E-01  8.50000000E-01  8.50000000E-01
  8.50000000E-01  8.50000000E-01  8.50000000E-01  8.50000000E-01  8.50000000E-01
  8.50000000E-01  8.50000000E-01  8.50000000E-01  8.50000000E-01  8.50000000E-01
  8.50000000E-01  8.50000000E-01  8.50000000E-01  8.50000000E-01  8.50000000E-01
  8.50000000E-01  8.50000000E-01  8.50000000E-01  8.50000000E-01  8.50000000E-01
  8.50000000E-01  8.50000000E-01  8.50000000E-01  8.50000000E-01  8.50000000E-01
  8.50000000E-01  8.50000000E-01  8.50000000E-01  8.50000000E-01  8.50000000E-01
  8.50000000E-01  8.50000000E-01  8.50000000E-01  8.50000000E-01  8.50000000E-01
  8.50000000E-01  8.50000000E-01  8.50000000E-01  8.50000000E-01  8.50000000E-01
  8.50000000E-01  8.50000000E-01  8.50000000E-01  8.50000000E-01  8.50000000E-01
  8.50000000E-01  8.50000000E-01  8.50000000E-01  8.50000000E-01  8.50000000E-01
  8.50000000E-01  8.50000000E-01  8.50000000E-01  8.50000000E-01  8.50000000E-01
  8.50000000E-01  8.50000000E-01  8.50000000E-01  8.50000000E-01  8.50000000E-01
  8.50000000E-01  8.50000000E-01  8.50000000E-01  8.50000000E-01  8.50000000E-01
  8.50000000E-01  8.50000000E-01  8.50000000E-01  8.50000000E-01  8.50000000E-01
  8.50000000E-01  8.50000000E-01  8.50000000E-01  8.50000000E-01  8.50000000E-01
  8.50000000E-01  8.50000000E-01  8.50000000E-01  8.50000000E-01  8.50000000E-01
  8.50000000E-01  8.50000000E-01  8.50000000E-01  8.50000000E-01  8.50000000E-01
  8.50000000E-01  8.50000000E-01  8.50000000E-01  8.50000000E-01  8.50000000E-01
  8.50000000E-01  8.50000000E-01  8.50000000E-01  8.50000000E-01  8.50000000E-01
  8.50000000E-01  8.50000000E-01  8.50000000E-01  8.50000000E-01  8.50000000E-01
  8.50000000E-01  8.50000000E-01  8.50000000E-01  8.50000000E-01  8.50000000E-01
  8.50000000E-01  8.50000000E-01  8.50000000E-01  8.50000000E-01  8.50000000E-01
  8.50000000E-01  8.50000000E-01  8.50000000E-01  8.50000000E-01  8.50000000E-01
  8.50000000E-01  8.50000000E-01  8.50000000E-01  8.50000000E-01  8.50000000E-01
  8.50000000E-01  8.50000000E-01  8.50000000E-01  8.50000000E-01  8.50000000E-01
  8.50000000E-01  8.50000000E-01  8.50000000E-01  8.50000000E-01  8.50000000E-01
  8.50000000E-01  8.50000000E-01  8.50000000E-01  8.50000000E-01  8.50000000E-01
  8.50000000E-01  8.50000000E-01  8.50000000E-01  8.50000000E-01  8.50000000E-01
  8.50000000E-01  8.50000000E-01  8.50000000E-01  8.50000000E-01  8.50000000E-01
  8.50000000E-01  8.50000000E-01  8.50000000E-01  8.50000000E-01  8.50000000E-01
  8.50000000E-01  8.50000000E-01  8.50000000E-01  8.50000000E-01  8.50000000E-01
  8.50000000E-01  8.50000000E-01  8.50000000E-01  8.50000000E-01  8.50000000E-01
  8.50000000E-01  8.50000000E-01  8.50000000E-01  8.50000000E-01  8.50000000E-01
  8.50000000E-01  8.50000000E-01  8.50000000E-01  8.50000000E-01  8.50000000E-01
  8.50000000E-01  8.50000000E-01  8.50000000E-01  8.50000000E-01  8.50000000E-01
  8.50000000E-01  8.50000000E-01  8.50000000E-01  8.50000000E-01  8.50000000E-01
  8.50000000E-01  8.50000000E-01  8.50000000E-01  8.50000000E-01  8.50000000E-01
  8.50000000E-01  8.50000000E-01  8.50000000E-01  8.50000000E-01  8.50000000E-01
  8.50000000E-01  8.50000000E-01  8.50000000E-01  8.50000000E-01  8.50000000E-01
  8.50000000E-01  8.50000000E-01  8.50000000E-01  8.50000000E-01  8.50000000E-01
  8.50000000E-01  8.50000000E-01  8.50000000E-01  8.50000000E-01  8.50000000E-01
  8.50000000E-01  8.50000000E-01  8.50000000E-01  8.50000000E-01  8.50000000E-01
  8.50000000E-01  8.50000000E-01  8.50000000E-01  8.50000000E-01  8.50000000E-01
  8.50000000E-01  8.50000000E-01  8.50000000E-01  8.50000000E-01  8.50000000E-01
  8.50000000E-01  8.50000000E-01  8.50000000E-01  8.50000000E-01  8.50000000E-01
  8.50000000E-01  8.50000000E-01  8.50000000E-01  8.50000000E-01  8.50000000E-01
  8.50000000E-01  8.50000000E-01  8.50000000E-01  8.50000000E-01  8.50000000E-01
  8.50000000E-01  8.50000000E-01  8.50000000E-01  8.50000000E-01  8.50000000E-01
  8.50000000E-01  8.50000000E-01  8.50000000E-01  8.50000000E-01  8.50000000E-01
  8.50000000E-01  8.50000000E-01  8.50000000E-01  8.50000000E-01  8.50000000E-01
  8.50000000E-01  8.50000000E-01  8.50000000E-01  8.50000000E-01  8.50000000E-01
  8.50000000E-01  8.50000000E-01  8.50000000E-01  8.50000000E-01  8.50000000E-01
  8.50000000E-01  8.50000000E-01  8.50000000E-01  8.50000000E-01  8.50000000E-01
  8.50000000E-01  8.50000000E-01  8.50000000E-01  8.50000000E-01  8.50000000E-01
  8.50000000E-01  8.50000000E-01  8.50000000E-01  8.50000000E-01  8.50000000E-01
  8.50000000E-01  8.50000000E-01  8.50000000E-01  8.50000000E-01  8.50000000E-01
  8.50000000E-01  8.50000000E-01  8.50000000E-01  8.50000000E-01  8.50000000E-01
  8.50000000E-01  8.50000000E-01  8.50000000E-01  8.50000000E-01  8.50000000E-01
  8.50000000E-01  8.50000000E-01  8.50000000E-01  8.50000000E-01  8.50000000E-01
  8.50000000E-01  8.50000000E-01  8.50000000E-01  8.50000000E-01  8.50000000E-01
  8.50000000E-01  8.50000000E-01  8.50000000E-01  8.50000000E-01  8.50000000E-01
  8.50000000E-01  8.50000000E-01  8.50000000E-01  8.50000000E-01  8.50000000E-01
  8.50000000E-01  8.50000000E-01  8.50000000E-01  8.50000000E-01  8.50000000E-01
  8.50000000E-01  8.50000000E-01  8.50000000E-01  8.50000000E-01  8.50000000E-01
  8.50000000E-01  8.50000000E-01  8.50000000E-01  8.50000000E-01  8.50000000E-01
  8.50000000E-01  8.50000000E-01  8.50000000E-01  8.50000000E-01  8.50000000E-01
  8.50000000E-01  8.50000000E-01  8.50000000E-01  8.50000000E-01  8.50000000E-01
  8.50000000E-01  8.50000000E-01  8.50000000E-01  8.50000000E-01  8.50000000E-01
  8.50000000E-01  8.50000000E-01  8.50000000E-01  8.50000000E-01  8.50000000E-01
  8.50000000E-01  8.50000000E-01  8.50000000E-01  8.50000000E-01  8.50000000E-01
  8.50000000E-01  8.50000000E-01  8.50000000E-01  8.50000000E-01  8.50000000E-01
  8.50000000E-01  8.50000000E-01  8.50000000E-01  8.50000000E-01  8.50000000E-01
  8.50000000E-01  8.50000000E-01  8.50000000E-01  8.50000000E-01  8.50000000E-01
  8.50000000E-01  8.50000000E-01  8.50000000E-01  8.50000000E-01  8.50000000E-01
  8.50000000E-01  8.50000000E-01  8.50000000E-01  8.50000000E-01  8.50000000E-01
  8.50000000E-01  8.50000000E-01  8.50000000E-01  8.50000000E-01  8.50000000E-01
  8.50000000E-01  8.50000000E-01  8.50000000E-01  8.50000000E-01  8.50000000E-01
  8.50000000E-01  8.50000000E-01  8.50000000E-01  8.50000000E-01  8.50000000E-01
  8.50000000E-01  8.50000000E-01  8.50000000E-01  8.50000000E-01  8.50000000E-01
  8.50000000E-01  8.50000000E-01  8.50000000E-01  8.50000000E-01  8.50000000E-01
  8.50000000E-01  8.50000000E-01  8.50000000E-01  8.50000000E-01  8.50000000E-01
  8.50000000E-01  8.50000000E-01  8.50000000E-01  8.50000000E-01  8.50000000E-01
  8.50000000E-01  8.50000000E-01  8.50000000E-01  8.50000000E-01  8.50000000E-01
  8.50000000E-01  8.50000000E-01  8.50000000E-01  8.50000000E-01  8.50000000E-01
  8.50000000E-01  8.50000000E-01  8.50000000E-01  8.50000000E-01  8.50000000E-01
  8.50000000E-01  8.50000000E-01  8.50000000E-01  8.50000000E-01  8.50000000E-01
  8.50000000E-01  8.50000000E-01  8.50000000E-01  8.50000000E-01  8.50000000E-01
  8.50000000E-01  8.50000000E-01  8.50000000E-01  8.50000000E-01  8.50000000E-01
  8.50000000E-01  8.50000000E-01  8.50000000E-01  8.50000000E-01  8.50000000E-01
  8.50000000E-01  8.50000000E-01  8.50000000E-01  8.50000000E-01  8.50000000E-01
  8.50000000E-01  8.50000000E-01  8.50000000E-01  8.50000000E-01  8.50000000E-01
  8.50000000E-01  8.50000000E-01  8.50000000E-01  8.50000000E-01  8.50000000E-01
  8.50000000E-01  8.50000000E-01  8.50000000E-01  8.50000000E-01  8.50000000E-01
  8.50000000E-01  8.50000000E-01  8.50000000E-01  8.50000000E-01  8.50000000E-01
  8.50000000E-01  8.50000000E-01  8.50000000E-01  8.50000000E-01  8.50000000E-01
  8.50000000E-01  8.50000000E-01  8.50000000E-01  8.50000000E-01  8.50000000E-01
  8.50000000E-01  8.50000000E-01  8.50000000E-01  8.50000000E-01  8.50000000E-01
  8.50000000E-01  8.50000000E-01  8.50000000E-01  8.50000000E-01  8.50000000E-01
  8.50000000E-01  8.50000000E-01  8.50000000E-01  8.50000000E-01  8.50000000E-01
  8.50000000E-01  8.50000000E-01  8.50000000E-01  8.50000000E-01  8.50000000E-01
  8.50000000E-01  8.50000000E-01  8.50000000E-01  8.50000000E-01  8.50000000E-01
  8.50000000E-01  8.50000000E-01  8.50000000E-01  8.50000000E-01  8.50000000E-01
  8.50000000E-01  8.50000000E-01  8.50000000E-01  8.50000000E-01  8.50000000E-01
  8.50000000E-01  8.50000000E-01  8.50000000E-01  8.50000000E-01  8.50000000E-01
  8.50000000E-01  8.50000000E-01  8.50000000E-01  8.50000000E-01  8.50000000E-01
  8.50000000E-01  8.50000000E-01  8.50000000E-01  8.50000000E-01  8.50000000E-01
  8.50000000E-01  8.50000000E-01  8.50000000E-01  8.50000000E-01  8.50000000E-01
  8.50000000E-01  8.50000000E-01  8.50000000E-01  8.50000000E-01  8.50000000E-01
  8.50000000E-01  8.50000000E-01  8.50000000E-01  8.50000000E-01  8.50000000E-01
  8.50000000E-01  8.50000000E-01  8.50000000E-01  8.50000000E-01  8.50000000E-01
  8.50000000E-01  8.50000000E-01  8.50000000E-01  8.50000000E-01  8.50000000E-01
  8.50000000E-01  8.50000000E-01  8.50000000E-01  8.50000000E-01  8.50000000E-01
  8.50000000E-01  8.50000000E-01  8.50000000E-01  8.50000000E-01  8.50000000E-01
  8.50000000E-01  8.50000000E-01  8.50000000E-01  8.50000000E-01  8.50000000E-01
  8.50000000E-01  8.50000000E-01  8.50000000E-01  8.50000000E-01  8.50000000E-01
  8.50000000E-01  8.50000000E-01  8.50000000E-01  8.50000000E-01  8.50000000E-01
  8.50000000E-01  8.50000000E-01  8.50000000E-01  8.50000000E-01  8.50000000E-01
  8.50000000E-01  8.50000000E-01  8.50000000E-01  8.50000000E-01  8.50000000E-01
  8.50000000E-01  8.50000000E-01  8.50000000E-01  8.50000000E-01  8.50000000E-01
  8.50000000E-01  8.50000000E-01  8.50000000E-01  8.50000000E-01  8.50000000E-01
  8.50000000E-01  8.50000000E-01  8.50000000E-01  8.50000000E-01  8.50000000E-01
  8.50000000E-01  8.50000000E-01  8.50000000E-01  8.50000000E-01  8.50000000E-01
  8.50000000E-01  8.50000000E-01  8.50000000E-01  8.50000000E-01  8.50000000E-01
  8.50000000E-01  8.50000000E-01  8.50000000E-01  8.50000000E-01  8.50000000E-01
  8.50000000E-01  8.50000000E-01  8.50000000E-01  8.50000000E-01  8.50000000E-01
  8.50000000E-01  8.50000000E-01  8.50000000E-01  8.50000000E-01  8.50000000E-01
  8.50000000E-01  8.50000000E-01  8.50000000E-01  8.50000000E-01  8.50000000E-01
  8.50000000E-01  8.50000000E-01  8.50000000E-01  8.50000000E-01  8.50000000E-01
  8.50000000E-01  8.50000000E-01  8.50000000E-01  8.50000000E-01  8.50000000E-01
  8.50000000E-01  8.50000000E-01  8.50000000E-01  8.50000000E-01  8.50000000E-01
  8.50000000E-01  8.50000000E-01  8.50000000E-01  8.50000000E-01  8.50000000E-01
  8.50000000E-01  8.50000000E-01  8.50000000E-01  8.50000000E-01  8.50000000E-01
  8.50000000E-01  8.50000000E-01  8.50000000E-01  8.50000000E-01  8.50000000E-01
  8.50000000E-01  8.50000000E-01  8.50000000E-01  8.50000000E-01  8.50000000E-01
  8.50000000E-01  8.50000000E-01  8.50000000E-01  8.50000000E-01  8.50000000E-01
  8.50000000E-01  8.50000000E-01  8.50000000E-01  8.50000000E-01  8.50000000E-01
  8.50000000E-01  8.50000000E-01  8.50000000E-01  8.50000000E-01  8.50000000E-01
  8.50000000E-01  8.50000000E-01  8.50000000E-01  8.50000000E-01  8.50000000E-01
  8.50000000E-01  8.50000000E-01  8.50000000E-01  8.50000000E-01  8.50000000E-01
  8.50000000E-01  8.50000000E-01  8.50000000E-01  8.50000000E-01  8.50000000E-01
  8.50000000E-01  8.50000000E-01  8.50000000E-01  8.50000000E-01  8.50000000E-01
  8.50000000E-01  8.50000000E-01  8.50000000E-01  8.50000000E-01  8.50000000E-01
  8.50000000E-01  8.50000000E-01  8.50000000E-01  8.50000000E-01  8.50000000E-01
  8.50000000E-01  8.50000000E-01  8.50000000E-01  8.50000000E-01  8.50000000E-01
  8.50000000E-01  8.50000000E-01  8.50000000E-01  8.50000000E-01  8.50000000E-01
  8.50000000E-01  8.50000000E-01  8.50000000E-01  8.50000000E-01  8.50000000E-01
  8.50000000E-01  8.50000000E-01  8.50000000E-01  8.50000000E-01  8.50000000E-01
  8.50000000E-01  8.50000000E-01  8.50000000E-01  8.50000000E-01  8.50000000E-01
  8.50000000E-01  8.50000000E-01  8.50000000E-01  8.50000000E-01  8.50000000E-01
  8.50000000E-01  8.50000000E-01  8.50000000E-01  8.50000000E-01  8.50000000E-01
  8.50000000E-01  8.50000000E-01  8.50000000E-01  8.50000000E-01  8.50000000E-01
  8.50000000E-01  8.50000000E-01  8.50000000E-01  8.50000000E-01  8.50000000E-01
  8.50000000E-01  8.50000000E-01  8.50000000E-01  8.50000000E-01  8.50000000E-01
  8.50000000E-01  8.50000000E-01  8.50000000E-01  8.50000000E-01  8.50000000E-01
  8.50000000E-01  8.50000000E-01  8.50000000E-01  8.50000000E-01  8.50000000E-01
  8.50000000E-01  8.50000000E-01  8.50000000E-01  8.50000000E-01  8.50000000E-01
  8.50000000E-01  8.50000000E-01  8.50000000E-01  8.50000000E-01  8.50000000E-01
  8.50000000E-01  8.50000000E-01  8.50000000E-01  8.50000000E-01  8.50000000E-01
  8.50000000E-01  8.50000000E-01  8.50000000E-01  8.50000000E-01  8.50000000E-01
  8.50000000E-01  8.50000000E-01  8.50000000E-01  8.50000000E-01  8.50000000E-01
  8.50000000E-01  8.50000000E-01  8.50000000E-01  8.50000000E-01  8.50000000E-01
  8.50000000E-01  8.50000000E-01  8.50000000E-01  8.50000000E-01  8.50000000E-01
  8.50000000E-01  8.50000000E-01  8.50000000E-01  8.50000000E-01  8.50000000E-01
  8.50000000E-01  8.50000000E-01  8.50000000E-01  8.50000000E-01  8.50000000E-01
  8.50000000E-01  8.50000000E-01  8.50000000E-01  8.50000000E-01  8.50000000E-01
  8.50000000E-01  8.50000000E-01  8.50000000E-01  8.50000000E-01  8.50000000E-01
  8.50000000E-01  8.50000000E-01  8.50000000E-01  8.50000000E-01  8.50000000E-01
  8.50000000E-01  8.50000000E-01  8.50000000E-01  8.50000000E-01  8.50000000E-01
  8.50000000E-01  8.50000000E-01  8.50000000E-01  8.50000000E-01  8.50000000E-01
  8.50000000E-01  8.50000000E-01  8.50000000E-01  8.50000000E-01  8.50000000E-01
  8.50000000E-01  8.50000000E-01  8.50000000E-01  8.50000000E-01  8.50000000E-01
  8.50000000E-01  8.50000000E-01  8.50000000E-01  8.50000000E-01  8.50000000E-01
  8.50000000E-01  8.50000000E-01  8.50000000E-01  8.50000000E-01  8.50000000E-01
  8.50000000E-01  8.50000000E-01  8.50000000E-01  8.50000000E-01  8.50000000E-01
  8.50000000E-01  8.50000000E-01  8.50000000E-01  8.50000000E-01  8.50000000E-01
  8.50000000E-01  8.50000000E-01  8.50000000E-01  8.50000000E-01  8.50000000E-01
  8.50000000E-01  8.50000000E-01  8.50000000E-01  8.50000000E-01  8.50000000E-01
  8.50000000E-01  8.50000000E-01  8.50000000E-01  8.50000000E-01  8.50000000E-01
  8.50000000E-01  8.50000000E-01  8.50000000E-01  8.50000000E-01  8.50000000E-01
  8.50000000E-01  8.50000000E-01  8.50000000E-01  8.50000000E-01  8.50000000E-01
  8.50000000E-01  8.50000000E-01  8.50000000E-01  8.50000000E-01  8.50000000E-01
  8.50000000E-01  8.50000000E-01  8.50000000E-01  8.50000000E-01  8.50000000E-01
  8.50000000E-01  8.50000000E-01  8.50000000E-01  8.50000000E-01  8.50000000E-01
  8.50000000E-01  8.50000000E-01  8.50000000E-01  8.50000000E-01  8.50000000E-01
  8.50000000E-01  8.50000000E-01  8.50000000E-01  8.50000000E-01  8.50000000E-01
  8.50000000E-01  8.50000000E-01  8.50000000E-01  8.50000000E-01  8.50000000E-01
  8.50000000E-01  8.50000000E-01  8.50000000E-01  8.50000000E-01  8.50000000E-01
  8.50000000E-01  8.50000000E-01  8.50000000E-01  8.50000000E-01  8.50000000E-01
  8.50000000E-01  8.50000000E-01  8.50000000E-01  8.50000000E-01  8.50000000E-01
  8.50000000E-01  8.50000000E-01  8.50000000E-01  8.50000000E-01  8.50000000E-01
  8.50000000E-01  8.50000000E-01  8.50000000E-01  8.50000000E-01  8.50000000E-01
  8.50000000E-01  8.50000000E-01  8.50000000E-01  8.50000000E-01  8.50000000E-01
  8.50000000E-01  8.50000000E-01  8.50000000E-01  8.50000000E-01  8.50000000E-01
  8.50000000E-01  8.50000000E-01  8.50000000E-01  8.50000000E-01  8.50000000E-01
  8.50000000E-01  8.50000000E-01  8.50000000E-01  8.50000000E-01  8.50000000E-01
  8.50000000E-01  8.50000000E-01  8.50000000E-01  8.50000000E-01  8.50000000E-01
  8.50000000E-01  8.50000000E-01  8.50000000E-01  8.50000000E-01  8.50000000E-01
  8.50000000E-01  8.50000000E-01  8.50000000E-01  8.50000000E-01  8.50000000E-01
  8.50000000E-01  8.50000000E-01  8.50000000E-01  8.50000000E-01  8.50000000E-01
  8.50000000E-01  8.50000000E-01  8.50000000E-01  8.50000000E-01  8.50000000E-01
  8.50000000E-01  8.50000000E-01  8.50000000E-01  8.50000000E-01  8.50000000E-01
  8.50000000E-01  8.50000000E-01  8.50000000E-01  8.50000000E-01  8.50000000E-01
  8.50000000E-01  8.50000000E-01  8.50000000E-01  8.50000000E-01  8.50000000E-01
  8.50000000E-01  8.50000000E-01  8.50000000E-01  8.50000000E-01  8.50000000E-01
  8.50000000E-01  8.50000000E-01  8.50000000E-01  8.50000000E-01  8.50000000E-01
  8.50000000E-01  8.50000000E-01  8.50000000E-01  8.50000000E-01  8.50000000E-01
  8.50000000E-01  8.50000000E-01  8.50000000E-01  8.50000000E-01  8.50000000E-01
  8.50000000E-01  8.50000000E-01  8.50000000E-01  8.50000000E-01  8.50000000E-01
  8.50000000E-01  8.50000000E-01  8.50000000E-01  8.50000000E-01  8.50000000E-01
  8.50000000E-01  8.50000000E-01  8.50000000E-01  8.50000000E-01  8.50000000E-01
  8.50000000E-01  8.50000000E-01  8.50000000E-01  8.50000000E-01  8.50000000E-01
  8.50000000E-01  8.50000000E-01  8.50000000E-01  8.50000000E-01  8.50000000E-01
  8.50000000E-01  8.50000000E-01  8.50000000E-01  8.50000000E-01  8.50000000E-01
  8.50000000E-01  8.50000000E-01  8.50000000E-01  8.50000000E-01  8.50000000E-01
  8.50000000E-01  8.50000000E-01  8.50000000E-01  8.50000000E-01  8.50000000E-01
  8.50000000E-01  8.50000000E-01  8.50000000E-01  8.50000000E-01  8.50000000E-01
  8.50000000E-01  8.50000000E-01  8.50000000E-01  8.50000000E-01  8.50000000E-01
  8.50000000E-01  8.50000000E-01  8.50000000E-01  8.50000000E-01  8.50000000E-01
  8.50000000E-01  8.50000000E-01  8.50000000E-01  8.50000000E-01  8.50000000E-01
  8.50000000E-01  8.50000000E-01  8.50000000E-01  8.50000000E-01  8.50000000E-01
  8.50000000E-01  8.50000000E-01  8.50000000E-01  8.50000000E-01  8.50000000E-01
  8.50000000E-01  8.50000000E-01  8.50000000E-01  8.50000000E-01  8.50000000E-01
  8.50000000E-01  8.50000000E-01  8.50000000E-01  8.50000000E-01  8.50000000E-01
  8.50000000E-01  8.50000000E-01  8.50000000E-01  8.50000000E-01  8.50000000E-01
  8.50000000E-01  8.50000000E-01  8.50000000E-01  8.50000000E-01  8.50000000E-01
  8.50000000E-01  8.50000000E-01  8.50000000E-01  8.50000000E-01  8.50000000E-01
  8.50000000E-01  8.50000000E-01  8.50000000E-01  8.50000000E-01  8.50000000E-01
  8.50000000E-01  8.50000000E-01  8.50000000E-01  8.50000000E-01  8.50000000E-01
  8.50000000E-01  8.50000000E-01  8.50000000E-01  8.50000000E-01  8.50000000E-01
  8.50000000E-01  8.50000000E-01  8.50000000E-01  8.50000000E-01  8.50000000E-01
  8.50000000E-01  8.50000000E-01  8.50000000E-01  8.50000000E-01  8.50000000E-01
  8.50000000E-01  8.50000000E-01  8.50000000E-01  8.50000000E-01  8.50000000E-01
  8.50000000E-01  8.50000000E-01  8.50000000E-01  8.50000000E-01  8.50000000E-01
  8.50000000E-01  8.50000000E-01  8.50000000E-01  8.50000000E-01  8.50000000E-01
  8.50000000E-01  8.50000000E-01  8.50000000E-01  8.50000000E-01  8.50000000E-01
  8.50000000E-01  8.50000000E-01  8.50000000E-01  8.50000000E-01  8.50000000E-01
  8.50000000E-01  8.50000000E-01  8.50000000E-01  8.50000000E-01  8.50000000E-01
  8.50000000E-01  8.50000000E-01  8.50000000E-01  8.50000000E-01  8.50000000E-01
  8.50000000E-01  8.50000000E-01  8.50000000E-01  8.50000000E-01  8.50000000E-01
  8.50000000E-01  8.50000000E-01  8.50000000E-01  8.50000000E-01  8.50000000E-01
  8.50000000E-01  8.50000000E-01  8.50000000E-01  8.50000000E-01  8.50000000E-01
  8.50000000E-01  8.50000000E-01  8.50000000E-01  8.50000000E-01  8.50000000E-01
  8.50000000E-01  8.50000000E-01  8.50000000E-01  8.50000000E-01  8.50000000E-01
  8.50000000E-01  8.50000000E-01  8.50000000E-01  8.50000000E-01  8.50000000E-01
  8.50000000E-01  8.50000000E-01  8.50000000E-01  8.50000000E-01  8.50000000E-01
  8.50000000E-01  8.50000000E-01  8.50000000E-01  8.50000000E-01  8.50000000E-01
  8.50000000E-01  8.50000000E-01  8.50000000E-01  8.50000000E-01  8.50000000E-01
  8.50000000E-01  8.50000000E-01  8.50000000E-01  8.50000000E-01  8.50000000E-01
  8.50000000E-01  8.50000000E-01  8.50000000E-01  8.50000000E-01  8.50000000E-01
  8.50000000E-01  8.50000000E-01  8.50000000E-01  8.50000000E-01  8.50000000E-01
  8.50000000E-01  8.50000000E-01  8.50000000E-01  8.50000000E-01  8.50000000E-01
  8.50000000E-01  8.50000000E-01  8.50000000E-01  8.50000000E-01  8.50000000E-01
  8.50000000E-01  8.50000000E-01  8.50000000E-01  8.50000000E-01  8.50000000E-01
  8.50000000E-01  8.50000000E-01  8.50000000E-01  8.50000000E-01  8.50000000E-01
  8.50000000E-01  8.50000000E-01  8.50000000E-01  8.50000000E-01  8.50000000E-01
  8.50000000E-01  8.50000000E-01  8.50000000E-01  8.50000000E-01  8.50000000E-01
  8.50000000E-01  8.50000000E-01  8.50000000E-01  8.50000000E-01  8.50000000E-01
  8.50000000E-01  8.50000000E-01  8.50000000E-01  8.50000000E-01  8.50000000E-01
  8.50000000E-01  8.50000000E-01  8.50000000E-01  8.50000000E-01  8.50000000E-01
  8.50000000E-01  8.50000000E-01  8.50000000E-01  8.50000000E-01  8.50000000E-01
  8.50000000E-01  8.50000000E-01  8.50000000E-01  8.50000000E-01  8.50000000E-01
  8.50000000E-01  8.50000000E-01  8.50000000E-01  8.50000000E-01  8.50000000E-01
  8.50000000E-01  8.50000000E-01  8.50000000E-01  8.50000000E-01  8.50000000E-01
  8.50000000E-01  8.50000000E-01  8.50000000E-01  8.50000000E-01  8.50000000E-01
  8.50000000E-01  8.50000000E-01  8.50000000E-01  8.50000000E-01  8.50000000E-01
  8.50000000E-01  8.50000000E-01  8.50000000E-01  8.50000000E-01  8.50000000E-01
  8.50000000E-01  8.50000000E-01  8.50000000E-01  8.50000000E-01  8.50000000E-01
  8.50000000E-01  8.50000000E-01  8.50000000E-01  8.50000000E-01  8.50000000E-01
  8.50000000E-01  8.50000000E-01  8.50000000E-01  8.50000000E-01  8.50000000E-01
  8.50000000E-01  8.50000000E-01  8.50000000E-01  8.50000000E-01  8.50000000E-01
  8.50000000E-01  8.50000000E-01  8.50000000E-01  8.50000000E-01  8.50000000E-01
  8.50000000E-01  8.50000000E-01  8.50000000E-01  8.50000000E-01  8.50000000E-01
  8.50000000E-01  8.50000000E-01  8.50000000E-01  8.50000000E-01  8.50000000E-01
  8.50000000E-01  8.50000000E-01  8.50000000E-01  8.50000000E-01  8.50000000E-01
  8.50000000E-01  8.50000000E-01  8.50000000E-01  8.50000000E-01  8.50000000E-01
  8.50000000E-01  8.50000000E-01  8.50000000E-01  8.50000000E-01  8.50000000E-01
  8.50000000E-01  8.50000000E-01  8.50000000E-01  8.50000000E-01  8.50000000E-01
  8.50000000E-01  8.50000000E-01  8.50000000E-01  8.50000000E-01  8.50000000E-01
  8.50000000E-01  8.50000000E-01  8.50000000E-01  8.50000000E-01  8.50000000E-01
  8.50000000E-01  8.50000000E-01  8.50000000E-01  8.50000000E-01  8.50000000E-01
  8.50000000E-01  8.50000000E-01  8.50000000E-01  8.50000000E-01  8.50000000E-01
  8.50000000E-01  8.50000000E-01  8.50000000E-01  8.50000000E-01  8.50000000E-01
  8.50000000E-01  8.50000000E-01  8.50000000E-01  8.50000000E-01  8.50000000E-01
  8.50000000E-01  8.50000000E-01  8.50000000E-01  8.50000000E-01  8.50000000E-01
  8.50000000E-01  8.50000000E-01  8.50000000E-01  8.50000000E-01  8.50000000E-01
  8.50000000E-01  8.50000000E-01  8.50000000E-01  8.50000000E-01  8.50000000E-01
  8.50000000E-01  8.50000000E-01  8.50000000E-01  8.50000000E-01  8.50000000E-01
  8.50000000E-01  8.50000000E-01  8.50000000E-01  8.50000000E-01  8.50000000E-01
  8.50000000E-01  8.50000000E-01  8.50000000E-01  8.50000000E-01  8.50000000E-01
  8.50000000E-01  8.50000000E-01  8.50000000E-01  8.50000000E-01  8.50000000E-01
  8.50000000E-01  8.50000000E-01  8.50000000E-01  8.50000000E-01  8.50000000E-01
  8.50000000E-01  8.50000000E-01  8.50000000E-01  8.50000000E-01  8.50000000E-01
  8.50000000E-01  8.50000000E-01  8.50000000E-01  8.50000000E-01  8.50000000E-01
  8.50000000E-01  8.50000000E-01  8.50000000E-01  8.50000000E-01  8.50000000E-01
  8.50000000E-01  8.50000000E-01  8.50000000E-01  8.50000000E-01  8.50000000E-01
  8.50000000E-01  8.50000000E-01  8.50000000E-01  8.50000000E-01  8.50000000E-01
  8.50000000E-01  8.50000000E-01  8.50000000E-01  8.50000000E-01  8.50000000E-01
  8.50000000E-01  8.50000000E-01  8.50000000E-01  8.50000000E-01  8.50000000E-01
  8.50000000E-01  8.50000000E-01  8.50000000E-01  8.50000000E-01  8.50000000E-01
  8.50000000E-01  8.50000000E-01  8.50000000E-01  8.50000000E-01  8.50000000E-01
  8.50000000E-01  8.50000000E-01  8.50000000E-01  8.50000000E-01  8.50000000E-01
  8.50000000E-01  8.50000000E-01  8.50000000E-01  8.50000000E-01  8.50000000E-01
  8.50000000E-01  8.50000000E-01  8.50000000E-01  8.50000000E-01  8.50000000E-01
  8.50000000E-01  8.50000000E-01  8.50000000E-01  8.50000000E-01  8.50000000E-01
  8.50000000E-01  8.50000000E-01  8.50000000E-01  8.50000000E-01  8.50000000E-01
  8.50000000E-01  8.50000000E-01  8.50000000E-01  8.50000000E-01  8.50000000E-01
  8.50000000E-01  8.50000000E-01  8.50000000E-01  8.50000000E-01  8.50000000E-01
  8.50000000E-01  8.50000000E-01  8.50000000E-01  8.50000000E-01  8.50000000E-01
  8.50000000E-01  8.50000000E-01  8.50000000E-01  8.50000000E-01  8.50000000E-01
  8.50000000E-01  8.50000000E-01  8.50000000E-01  8.50000000E-01  8.50000000E-01
  8.50000000E-01  8.50000000E-01  8.50000000E-01  8.50000000E-01  8.50000000E-01
  8.50000000E-01  8.50000000E-01  8.50000000E-01  8.50000000E-01  8.50000000E-01
  8.50000000E-01  8.50000000E-01  8.50000000E-01  8.50000000E-01  8.50000000E-01
  8.50000000E-01  8.50000000E-01  8.50000000E-01  8.50000000E-01  8.50000000E-01
  8.50000000E-01  8.50000000E-01  8.50000000E-01  8.50000000E-01  8.50000000E-01
  8.50000000E-01  8.50000000E-01  8.50000000E-01  8.50000000E-01  8.50000000E-01
  8.50000000E-01  8.50000000E-01  8.50000000E-01  8.50000000E-01  8.50000000E-01
  8.50000000E-01  8.50000000E-01  8.50000000E-01  8.50000000E-01  8.50000000E-01
  8.50000000E-01  8.50000000E-01  8.50000000E-01  8.50000000E-01  8.50000000E-01
  8.50000000E-01  8.50000000E-01  8.50000000E-01  8.50000000E-01  8.50000000E-01
  8.50000000E-01  8.50000000E-01  8.50000000E-01  8.50000000E-01  8.50000000E-01
  8.50000000E-01  8.50000000E-01  8.50000000E-01  8.50000000E-01  8.50000000E-01
  8.50000000E-01  8.50000000E-01  8.50000000E-01  8.50000000E-01  8.50000000E-01
  8.50000000E-01  8.50000000E-01  8.50000000E-01  8.50000000E-01  8.50000000E-01
  8.50000000E-01  8.50000000E-01  8.50000000E-01  8.50000000E-01  8.50000000E-01
  8.50000000E-01  8.50000000E-01  8.50000000E-01  8.50000000E-01  8.50000000E-01
  8.50000000E-01  8.50000000E-01  8.50000000E-01  8.50000000E-01  8.50000000E-01
  8.50000000E-01  8.50000000E-01  8.50000000E-01  8.50000000E-01  8.50000000E-01
  8.50000000E-01  8.50000000E-01  8.50000000E-01  8.50000000E-01  8.50000000E-01
  8.50000000E-01  8.50000000E-01  8.50000000E-01  8.50000000E-01  8.50000000E-01
  8.50000000E-01  8.50000000E-01  8.50000000E-01  8.50000000E-01  8.50000000E-01
  8.50000000E-01  8.50000000E-01  8.50000000E-01  8.50000000E-01  8.50000000E-01
  8.50000000E-01  8.50000000E-01  8.50000000E-01  8.50000000E-01  8.50000000E-01
  8.50000000E-01  8.50000000E-01  8.50000000E-01  8.50000000E-01  8.50000000E-01
  8.50000000E-01  8.50000000E-01  8.50000000E-01  8.50000000E-01  8.50000000E-01
  8.50000000E-01  8.50000000E-01  8.50000000E-01  8.50000000E-01  8.50000000E-01
  8.50000000E-01  8.50000000E-01  8.50000000E-01  8.50000000E-01  8.50000000E-01
  8.50000000E-01  8.50000000E-01  8.50000000E-01  8.50000000E-01  8.50000000E-01
  8.50000000E-01  8.50000000E-01  8.50000000E-01  8.50000000E-01  8.50000000E-01
  8.50000000E-01  8.50000000E-01  8.50000000E-01  8.50000000E-01  8.50000000E-01
  8.50000000E-01  8.50000000E-01  8.50000000E-01  8.50000000E-01  8.50000000E-01
  8.50000000E-01  8.50000000E-01  8.50000000E-01  8.50000000E-01  8.50000000E-01
  8.50000000E-01  8.50000000E-01  8.50000000E-01  8.50000000E-01  8.50000000E-01
  8.50000000E-01  8.50000000E-01  8.50000000E-01  8.50000000E-01  8.50000000E-01
  8.50000000E-01  8.50000000E-01  8.50000000E-01  8.50000000E-01  8.50000000E-01
  8.50000000E-01  8.50000000E-01  8.50000000E-01  8.50000000E-01  8.50000000E-01
  8.50000000E-01  8.50000000E-01  8.50000000E-01  8.50000000E-01  8.50000000E-01
  8.50000000E-01  8.50000000E-01  8.50000000E-01  8.50000000E-01  8.50000000E-01
  8.50000000E-01  8.50000000E-01  8.50000000E-01  8.50000000E-01  8.50000000E-01
  8.50000000E-01  8.50000000E-01  8.50000000E-01  8.50000000E-01  8.50000000E-01
  8.50000000E-01  8.50000000E-01  8.50000000E-01  8.50000000E-01  8.50000000E-01
  8.50000000E-01  8.50000000E-01  8.50000000E-01  8.50000000E-01  8.50000000E-01
  8.50000000E-01  8.50000000E-01  8.50000000E-01  8.50000000E-01  8.50000000E-01
  8.50000000E-01  8.50000000E-01  8.50000000E-01  8.50000000E-01  8.50000000E-01
  8.50000000E-01  8.50000000E-01  8.50000000E-01  8.50000000E-01  8.50000000E-01
  8.50000000E-01  8.50000000E-01  8.50000000E-01  8.50000000E-01  8.50000000E-01
  8.50000000E-01  8.50000000E-01  8.50000000E-01  8.50000000E-01  8.50000000E-01
  8.50000000E-01  8.50000000E-01  8.50000000E-01  8.50000000E-01  8.50000000E-01
  8.50000000E-01  8.50000000E-01  8.50000000E-01  8.50000000E-01  8.50000000E-01
  8.50000000E-01  8.50000000E-01  8.50000000E-01  8.50000000E-01  8.50000000E-01
  8.50000000E-01  8.50000000E-01  8.50000000E-01  8.50000000E-01  8.50000000E-01
  8.50000000E-01  8.50000000E-01  8.50000000E-01  8.50000000E-01  8.50000000E-01
  8.50000000E-01  8.50000000E-01  8.50000000E-01  8.50000000E-01  8.50000000E-01
  8.50000000E-01  8.50000000E-01  8.50000000E-01  8.50000000E-01  8.50000000E-01
  8.50000000E-01  8.50000000E-01  8.50000000E-01  8.50000000E-01  8.50000000E-01
  8.50000000E-01  8.50000000E-01  8.50000000E-01  8.50000000E-01  8.50000000E-01
  8.50000000E-01  8.50000000E-01  8.50000000E-01  8.50000000E-01  8.50000000E-01
  8.50000000E-01  8.50000000E-01  8.50000000E-01  8.50000000E-01  8.50000000E-01
  8.50000000E-01  8.50000000E-01  8.50000000E-01  8.50000000E-01  8.50000000E-01
  8.50000000E-01  8.50000000E-01  8.50000000E-01  8.50000000E-01  8.50000000E-01
  8.50000000E-01  8.50000000E-01  8.50000000E-01  8.50000000E-01  8.50000000E-01
  8.50000000E-01  8.50000000E-01  8.50000000E-01  8.50000000E-01  8.50000000E-01
  8.50000000E-01  8.50000000E-01  8.50000000E-01  8.50000000E-01  8.50000000E-01
  8.50000000E-01  8.50000000E-01  8.50000000E-01  8.50000000E-01  8.50000000E-01
  8.50000000E-01  8.50000000E-01  8.50000000E-01  8.50000000E-01  8.50000000E-01
  8.50000000E-01  8.50000000E-01  8.50000000E-01  8.50000000E-01  8.50000000E-01
  8.50000000E-01  8.50000000E-01  8.50000000E-01  8.50000000E-01  8.50000000E-01
  8.50000000E-01  8.50000000E-01  8.50000000E-01  8.50000000E-01  8.50000000E-01
  8.50000000E-01  8.50000000E-01  8.50000000E-01  8.50000000E-01  8.50000000E-01
  8.50000000E-01  8.50000000E-01  8.50000000E-01  8.50000000E-01  8.50000000E-01
  8.50000000E-01  8.50000000E-01  8.50000000E-01  8.50000000E-01  8.50000000E-01
  8.50000000E-01  8.50000000E-01  8.50000000E-01  8.50000000E-01  8.50000000E-01
  8.50000000E-01  8.50000000E-01  8.50000000E-01  8.50000000E-01  8.50000000E-01
  8.50000000E-01  8.50000000E-01  8.50000000E-01  8.50000000E-01  8.50000000E-01
  8.50000000E-01  8.50000000E-01  8.50000000E-01  8.50000000E-01  8.50000000E-01
  8.50000000E-01  8.50000000E-01  8.50000000E-01  8.50000000E-01  8.50000000E-01
  8.50000000E-01  8.50000000E-01  8.50000000E-01  8.50000000E-01  8.50000000E-01
  8.50000000E-01  8.50000000E-01  8.50000000E-01  8.50000000E-01  8.50000000E-01
  8.50000000E-01  8.50000000E-01  8.50000000E-01  8.50000000E-01  8.50000000E-01
  8.50000000E-01  8.50000000E-01  8.50000000E-01  8.50000000E-01  8.50000000E-01
  8.50000000E-01  8.50000000E-01  8.50000000E-01  8.50000000E-01  8.50000000E-01
  8.50000000E-01  8.50000000E-01  8.50000000E-01  8.50000000E-01  8.50000000E-01
  8.50000000E-01  8.50000000E-01  8.50000000E-01  8.50000000E-01  8.50000000E-01
  8.50000000E-01  8.50000000E-01  8.50000000E-01  8.50000000E-01  8.50000000E-01
  8.50000000E-01  8.50000000E-01  8.50000000E-01  8.50000000E-01  8.50000000E-01
  8.50000000E-01  8.50000000E-01  8.50000000E-01  8.50000000E-01  8.50000000E-01
  8.50000000E-01  8.50000000E-01  8.50000000E-01  8.50000000E-01  8.50000000E-01
  8.50000000E-01  8.50000000E-01  8.50000000E-01  8.50000000E-01  8.50000000E-01
  8.50000000E-01  8.50000000E-01  8.50000000E-01  8.50000000E-01  8.50000000E-01
  8.50000000E-01  8.50000000E-01  8.50000000E-01  8.50000000E-01  8.50000000E-01
  8.50000000E-01  8.50000000E-01  8.50000000E-01  8.50000000E-01  8.50000000E-01
  8.50000000E-01  8.50000000E-01  8.50000000E-01  8.50000000E-01  8.50000000E-01
  8.50000000E-01  8.50000000E-01  8.50000000E-01  8.50000000E-01  8.50000000E-01
  8.50000000E-01  8.50000000E-01  8.50000000E-01  8.50000000E-01  8.50000000E-01
  8.50000000E-01  8.50000000E-01  8.50000000E-01  8.50000000E-01  8.50000000E-01
  8.50000000E-01  8.50000000E-01  8.50000000E-01  8.50000000E-01  8.50000000E-01
  8.50000000E-01  8.50000000E-01  8.50000000E-01  8.50000000E-01  8.50000000E-01
  8.50000000E-01  8.50000000E-01  8.50000000E-01  8.50000000E-01  8.50000000E-01
  8.50000000E-01  8.50000000E-01  8.50000000E-01  8.50000000E-01  8.50000000E-01
  8.50000000E-01  8.50000000E-01  8.50000000E-01  8.50000000E-01  8.50000000E-01
  8.50000000E-01  8.50000000E-01  8.50000000E-01  8.50000000E-01  8.50000000E-01
  8.50000000E-01  8.50000000E-01  8.50000000E-01  8.50000000E-01  8.50000000E-01
  8.50000000E-01  8.50000000E-01  8.50000000E-01  8.50000000E-01  8.50000000E-01
  8.50000000E-01  8.50000000E-01  8.50000000E-01  8.50000000E-01  8.50000000E-01
  8.50000000E-01  8.50000000E-01  8.50000000E-01  8.50000000E-01  8.50000000E-01
  8.50000000E-01  8.50000000E-01  8.50000000E-01  8.50000000E-01  8.50000000E-01
  8.50000000E-01  8.50000000E-01  8.50000000E-01  8.50000000E-01  8.50000000E-01
  8.50000000E-01  8.50000000E-01  8.50000000E-01  8.50000000E-01  8.50000000E-01
  8.50000000E-01  8.50000000E-01  8.50000000E-01  8.50000000E-01  8.50000000E-01
  8.50000000E-01  8.50000000E-01  8.50000000E-01  8.50000000E-01  8.50000000E-01
  8.50000000E-01  8.50000000E-01  8.50000000E-01  8.50000000E-01  8.50000000E-01
  8.50000000E-01  8.50000000E-01  8.50000000E-01  8.50000000E-01  8.50000000E-01
  8.50000000E-01  8.50000000E-01  8.50000000E-01  8.50000000E-01  8.50000000E-01
  8.50000000E-01  8.50000000E-01  8.50000000E-01  8.50000000E-01  8.50000000E-01
  8.50000000E-01  8.50000000E-01  8.50000000E-01  8.50000000E-01  8.50000000E-01
  8.50000000E-01  8.50000000E-01  8.50000000E-01  8.50000000E-01  8.50000000E-01
  8.50000000E-01  8.50000000E-01  8.50000000E-01  8.50000000E-01  8.50000000E-01
  8.50000000E-01  8.50000000E-01  8.50000000E-01  8.50000000E-01  8.50000000E-01
  8.50000000E-01  8.50000000E-01  8.50000000E-01  8.50000000E-01  8.50000000E-01
  8.50000000E-01  8.50000000E-01  8.50000000E-01  8.50000000E-01  8.50000000E-01
  8.50000000E-01  8.50000000E-01  8.50000000E-01  8.50000000E-01  8.50000000E-01
  8.50000000E-01  8.50000000E-01  8.50000000E-01  8.50000000E-01  8.50000000E-01
  8.50000000E-01  8.50000000E-01  8.50000000E-01  8.50000000E-01  8.50000000E-01
  8.50000000E-01  8.50000000E-01  8.50000000E-01  8.50000000E-01  8.50000000E-01
  8.50000000E-01  8.50000000E-01  8.50000000E-01  8.50000000E-01  8.50000000E-01
  8.50000000E-01  8.50000000E-01  8.50000000E-01  8.50000000E-01  8.50000000E-01
  8.50000000E-01  8.50000000E-01  8.50000000E-01  8.50000000E-01  8.50000000E-01
  8.50000000E-01  8.50000000E-01  8.50000000E-01  8.50000000E-01  8.50000000E-01
  8.50000000E-01  8.50000000E-01  8.50000000E-01  8.50000000E-01  8.50000000E-01
  8.50000000E-01  8.50000000E-01  8.50000000E-01  8.50000000E-01  8.50000000E-01
  8.50000000E-01  8.50000000E-01  8.50000000E-01  8.50000000E-01  8.50000000E-01
  8.50000000E-01  8.50000000E-01  8.50000000E-01  8.50000000E-01  8.50000000E-01
  8.50000000E-01  8.50000000E-01  8.50000000E-01  8.50000000E-01  8.50000000E-01
  8.50000000E-01  8.50000000E-01  8.50000000E-01  8.50000000E-01  8.50000000E-01
  8.50000000E-01  8.50000000E-01  8.50000000E-01  8.50000000E-01  8.50000000E-01
  8.50000000E-01  8.50000000E-01  8.50000000E-01  8.50000000E-01  8.50000000E-01
  8.50000000E-01  8.50000000E-01  8.50000000E-01  8.50000000E-01  8.50000000E-01
  8.50000000E-01  8.50000000E-01  8.50000000E-01  8.50000000E-01  8.50000000E-01
  8.50000000E-01  8.50000000E-01  8.50000000E-01  8.50000000E-01  8.50000000E-01
  8.50000000E-01  8.50000000E-01  8.50000000E-01  8.50000000E-01  8.50000000E-01
  8.50000000E-01  8.50000000E-01  8.50000000E-01  8.50000000E-01  8.50000000E-01
  8.50000000E-01  8.50000000E-01  8.50000000E-01  8.50000000E-01  8.50000000E-01
  8.50000000E-01  8.50000000E-01  8.50000000E-01  8.50000000E-01  8.50000000E-01
  8.50000000E-01  8.50000000E-01  8.50000000E-01  8.50000000E-01  8.50000000E-01
  8.50000000E-01  8.50000000E-01  8.50000000E-01  8.50000000E-01  8.50000000E-01
  8.50000000E-01  8.50000000E-01  8.50000000E-01  8.50000000E-01  8.50000000E-01
  8.50000000E-01  8.50000000E-01  8.50000000E-01  8.50000000E-01  8.50000000E-01
  8.50000000E-01  8.50000000E-01  8.50000000E-01  8.50000000E-01  8.50000000E-01
  8.50000000E-01  8.50000000E-01  8.50000000E-01  8.50000000E-01  8.50000000E-01
  8.50000000E-01  8.50000000E-01  8.50000000E-01  8.50000000E-01  8.50000000E-01
  8.50000000E-01  8.50000000E-01  8.50000000E-01  8.50000000E-01  8.50000000E-01
  8.50000000E-01  8.50000000E-01  8.50000000E-01  8.50000000E-01  8.50000000E-01
  8.50000000E-01  8.50000000E-01  8.50000000E-01  8.50000000E-01  8.50000000E-01
  8.50000000E-01  8.50000000E-01  8.50000000E-01  8.50000000E-01  8.50000000E-01
  8.50000000E-01  8.50000000E-01  8.50000000E-01  8.50000000E-01  8.50000000E-01
  8.50000000E-01  8.50000000E-01  8.50000000E-01  8.50000000E-01  8.50000000E-01
  8.50000000E-01  8.50000000E-01  8.50000000E-01  8.50000000E-01  8.50000000E-01
  8.50000000E-01  8.50000000E-01  8.50000000E-01  8.50000000E-01  8.50000000E-01
  8.50000000E-01  8.50000000E-01  8.50000000E-01  8.50000000E-01  8.50000000E-01
  8.50000000E-01  8.50000000E-01  8.50000000E-01  8.50000000E-01  8.50000000E-01
  8.50000000E-01  8.50000000E-01  8.50000000E-01  8.50000000E-01  8.50000000E-01
  8.50000000E-01  8.50000000E-01  8.50000000E-01  8.50000000E-01  8.50000000E-01
  8.50000000E-01  8.50000000E-01  8.50000000E-01  8.50000000E-01  8.50000000E-01
  8.50000000E-01  8.50000000E-01  8.50000000E-01  8.50000000E-01  8.50000000E-01
  8.50000000E-01  8.50000000E-01  8.50000000E-01  8.50000000E-01  8.50000000E-01
  8.50000000E-01  8.50000000E-01  8.50000000E-01  8.50000000E-01  8.50000000E-01
  8.50000000E-01  8.50000000E-01  8.50000000E-01  8.50000000E-01  8.50000000E-01
  8.50000000E-01  8.50000000E-01  8.50000000E-01  8.50000000E-01  8.50000000E-01
  8.50000000E-01  8.50000000E-01  8.50000000E-01  8.50000000E-01  8.50000000E-01
  8.50000000E-01  8.50000000E-01  8.50000000E-01  8.50000000E-01  8.50000000E-01
  8.50000000E-01  8.50000000E-01  8.50000000E-01  8.50000000E-01  8.50000000E-01
  8.50000000E-01  8.50000000E-01  8.50000000E-01  8.50000000E-01  8.50000000E-01
  8.50000000E-01  8.50000000E-01  8.50000000E-01  8.50000000E-01  8.50000000E-01
  8.50000000E-01  8.50000000E-01  8.50000000E-01  8.50000000E-01  8.50000000E-01
  8.50000000E-01  8.50000000E-01  8.50000000E-01  8.50000000E-01  8.50000000E-01
  8.50000000E-01  8.50000000E-01  8.50000000E-01  8.50000000E-01  8.50000000E-01
  8.50000000E-01  8.50000000E-01  8.50000000E-01  8.50000000E-01  8.50000000E-01
  8.50000000E-01  8.50000000E-01  8.50000000E-01  8.50000000E-01  8.50000000E-01
  8.50000000E-01  8.50000000E-01  8.50000000E-01  8.50000000E-01  8.50000000E-01
  8.50000000E-01  8.50000000E-01  8.50000000E-01  8.50000000E-01  8.50000000E-01
  8.50000000E-01  8.50000000E-01  8.50000000E-01  8.50000000E-01  8.50000000E-01
  8.50000000E-01  8.50000000E-01  8.50000000E-01  8.50000000E-01  8.50000000E-01
  8.50000000E-01  8.50000000E-01  8.50000000E-01  8.50000000E-01  8.50000000E-01
  8.50000000E-01  8.50000000E-01  8.50000000E-01  8.50000000E-01  8.50000000E-01
  8.50000000E-01  8.50000000E-01  8.50000000E-01  8.50000000E-01  8.50000000E-01
  8.50000000E-01  8.50000000E-01  8.50000000E-01  8.50000000E-01  8.50000000E-01
  8.50000000E-01  8.50000000E-01  8.50000000E-01  8.50000000E-01  8.50000000E-01
  8.50000000E-01  8.50000000E-01  8.50000000E-01  8.50000000E-01  8.50000000E-01
  8.50000000E-01  8.50000000E-01  8.50000000E-01  8.50000000E-01  8.50000000E-01
  8.50000000E-01  8.50000000E-01  8.50000000E-01  8.50000000E-01  8.50000000E-01
  8.50000000E-01  8.50000000E-01  8.50000000E-01  8.50000000E-01  8.50000000E-01
  8.50000000E-01  8.50000000E-01  8.50000000E-01  8.50000000E-01  8.50000000E-01
  8.50000000E-01  8.50000000E-01  8.50000000E-01  8.50000000E-01  8.50000000E-01
  8.50000000E-01  8.50000000E-01  8.50000000E-01  8.50000000E-01  8.50000000E-01
  8.50000000E-01  8.50000000E-01  8.50000000E-01  8.50000000E-01  8.50000000E-01
  8.50000000E-01  8.50000000E-01  8.50000000E-01  8.50000000E-01  8.50000000E-01
  8.50000000E-01  8.50000000E-01  8.50000000E-01  8.50000000E-01  8.50000000E-01
  8.50000000E-01  8.50000000E-01  8.50000000E-01  8.50000000E-01  8.50000000E-01
  8.50000000E-01  8.50000000E-01  8.50000000E-01  8.50000000E-01  8.50000000E-01
  8.50000000E-01  8.50000000E-01  8.50000000E-01  8.50000000E-01  8.50000000E-01
  8.50000000E-01  8.50000000E-01  8.50000000E-01  8.50000000E-01  8.50000000E-01
  8.50000000E-01  8.50000000E-01  8.50000000E-01  8.50000000E-01  8.50000000E-01
  8.50000000E-01  8.50000000E-01  8.50000000E-01  8.50000000E-01  8.50000000E-01
  8.50000000E-01  8.50000000E-01  8.50000000E-01  8.50000000E-01  8.50000000E-01
  8.50000000E-01  8.50000000E-01  8.50000000E-01  8.50000000E-01  8.50000000E-01
  8.50000000E-01  8.50000000E-01  8.50000000E-01  8.50000000E-01  8.50000000E-01
  8.50000000E-01  8.50000000E-01  8.50000000E-01  8.50000000E-01  8.50000000E-01
  8.50000000E-01  8.50000000E-01  8.50000000E-01  8.50000000E-01  8.50000000E-01
  8.50000000E-01  8.50000000E-01  8.50000000E-01  8.50000000E-01  8.50000000E-01
  8.50000000E-01  8.50000000E-01  8.50000000E-01  8.50000000E-01  8.50000000E-01
  8.50000000E-01  8.50000000E-01  8.50000000E-01  8.50000000E-01  8.50000000E-01
  8.50000000E-01  8.50000000E-01  8.50000000E-01  8.50000000E-01  8.50000000E-01
  8.50000000E-01  8.50000000E-01  8.50000000E-01  8.50000000E-01  8.50000000E-01
  8.50000000E-01  8.50000000E-01  8.50000000E-01  8.50000000E-01  8.50000000E-01
  8.50000000E-01  8.50000000E-01  8.50000000E-01  8.50000000E-01  8.50000000E-01
  8.50000000E-01  8.50000000E-01  8.50000000E-01  8.50000000E-01  8.50000000E-01
  8.50000000E-01  8.50000000E-01  8.50000000E-01  8.50000000E-01  8.50000000E-01
  8.50000000E-01  8.50000000E-01  8.50000000E-01  8.50000000E-01  8.50000000E-01
  8.50000000E-01  8.50000000E-01  8.50000000E-01  8.50000000E-01  8.50000000E-01
  8.50000000E-01  8.50000000E-01  8.50000000E-01  8.50000000E-01  8.50000000E-01
  8.50000000E-01  8.50000000E-01  8.50000000E-01  8.50000000E-01  8.50000000E-01
  8.50000000E-01  8.50000000E-01  8.50000000E-01  8.50000000E-01  8.50000000E-01
  8.50000000E-01  8.50000000E-01  8.50000000E-01  8.50000000E-01  8.50000000E-01
  8.50000000E-01  8.50000000E-01  8.50000000E-01  8.50000000E-01  8.50000000E-01
  8.50000000E-01  8.50000000E-01  8.50000000E-01  8.50000000E-01  8.50000000E-01
  8.50000000E-01  8.50000000E-01  8.50000000E-01  8.50000000E-01  8.50000000E-01
  8.50000000E-01  8.50000000E-01  8.50000000E-01  8.50000000E-01  8.50000000E-01
  8.50000000E-01  8.50000000E-01  8.50000000E-01  8.50000000E-01  8.50000000E-01
  8.50000000E-01  8.50000000E-01  8.50000000E-01  8.50000000E-01  8.50000000E-01
  8.50000000E-01  8.50000000E-01  8.50000000E-01  8.50000000E-01  8.50000000E-01
  8.50000000E-01  8.50000000E-01  8.50000000E-01  8.50000000E-01  8.50000000E-01
  8.50000000E-01  8.50000000E-01  8.50000000E-01  8.50000000E-01  8.50000000E-01
  8.50000000E-01  8.50000000E-01  8.50000000E-01  8.50000000E-01  8.50000000E-01
  8.50000000E-01  8.50000000E-01  8.50000000E-01  8.50000000E-01  8.50000000E-01
  8.50000000E-01  8.50000000E-01  8.50000000E-01  8.50000000E-01  8.50000000E-01
  8.50000000E-01  8.50000000E-01  8.50000000E-01  8.50000000E-01  8.50000000E-01
  8.50000000E-01  8.50000000E-01  8.50000000E-01  8.50000000E-01  8.50000000E-01
  8.50000000E-01  8.50000000E-01  8.50000000E-01  8.50000000E-01  8.50000000E-01
  8.50000000E-01  8.50000000E-01  8.50000000E-01  8.50000000E-01  8.50000000E-01
  8.50000000E-01  8.50000000E-01  8.50000000E-01  8.50000000E-01  8.50000000E-01
  8.50000000E-01  8.50000000E-01  8.50000000E-01  8.50000000E-01  8.50000000E-01
  8.50000000E-01  8.50000000E-01  8.50000000E-01  8.50000000E-01  8.50000000E-01
  8.50000000E-01  8.50000000E-01  8.50000000E-01  8.50000000E-01  8.50000000E-01
  8.50000000E-01  8.50000000E-01  8.50000000E-01  8.50000000E-01  8.50000000E-01
  8.50000000E-01  8.50000000E-01  8.50000000E-01  8.50000000E-01  8.50000000E-01
  8.50000000E-01  8.50000000E-01  8.50000000E-01  8.50000000E-01  8.50000000E-01
  8.50000000E-01  8.50000000E-01  8.50000000E-01  8.50000000E-01  8.50000000E-01
  8.50000000E-01  8.50000000E-01  8.50000000E-01  8.50000000E-01  8.50000000E-01
  8.50000000E-01  8.50000000E-01  8.50000000E-01  8.50000000E-01  8.50000000E-01
  8.50000000E-01  8.50000000E-01  8.50000000E-01  8.50000000E-01  8.50000000E-01
  8.50000000E-01  8.50000000E-01  8.50000000E-01  8.50000000E-01  8.50000000E-01
  8.50000000E-01  8.50000000E-01  8.50000000E-01  8.50000000E-01  8.50000000E-01
  8.50000000E-01  8.50000000E-01  8.50000000E-01  8.50000000E-01  8.50000000E-01
  8.50000000E-01  8.50000000E-01  8.50000000E-01  8.50000000E-01  8.50000000E-01
  8.50000000E-01  8.50000000E-01  8.50000000E-01  8.50000000E-01  8.50000000E-01
  8.50000000E-01  8.50000000E-01  8.50000000E-01  8.50000000E-01  8.50000000E-01
  8.50000000E-01  8.50000000E-01  8.50000000E-01  8.50000000E-01  8.50000000E-01
  8.50000000E-01  8.50000000E-01  8.50000000E-01  8.50000000E-01  8.50000000E-01
  8.50000000E-01  8.50000000E-01  8.50000000E-01  8.50000000E-01  8.50000000E-01
  8.50000000E-01  8.50000000E-01  8.50000000E-01  8.50000000E-01  8.50000000E-01
  8.50000000E-01  8.50000000E-01  8.50000000E-01  8.50000000E-01  8.50000000E-01
  8.50000000E-01  8.50000000E-01  8.50000000E-01  8.50000000E-01  8.50000000E-01
  8.50000000E-01  8.50000000E-01  8.50000000E-01  8.50000000E-01  8.50000000E-01
  8.50000000E-01  8.50000000E-01  8.50000000E-01  8.50000000E-01  8.50000000E-01
  8.50000000E-01  8.50000000E-01  8.50000000E-01  8.50000000E-01  8.50000000E-01
  8.50000000E-01  8.50000000E-01  8.50000000E-01  8.50000000E-01  8.50000000E-01
  8.50000000E-01  8.50000000E-01  8.50000000E-01  8.50000000E-01  8.50000000E-01
  8.50000000E-01  8.50000000E-01  8.50000000E-01  8.50000000E-01  8.50000000E-01
  8.50000000E-01  8.50000000E-01  8.50000000E-01  8.50000000E-01  8.50000000E-01
  8.50000000E-01  8.50000000E-01  8.50000000E-01  8.50000000E-01  8.50000000E-01
  8.50000000E-01  8.50000000E-01  8.50000000E-01  8.50000000E-01  8.50000000E-01
  8.50000000E-01  8.50000000E-01  8.50000000E-01  8.50000000E-01  8.50000000E-01
  8.50000000E-01  8.50000000E-01  8.50000000E-01  8.50000000E-01  8.50000000E-01
  8.50000000E-01  8.50000000E-01  8.50000000E-01  8.50000000E-01  8.50000000E-01
  8.50000000E-01  8.50000000E-01  8.50000000E-01  8.50000000E-01  8.50000000E-01
  8.50000000E-01  8.50000000E-01  8.50000000E-01  8.50000000E-01  8.50000000E-01
  8.50000000E-01  8.50000000E-01  8.50000000E-01  8.50000000E-01  8.50000000E-01
  8.50000000E-01  8.50000000E-01  8.50000000E-01  8.50000000E-01  8.50000000E-01
  8.50000000E-01  8.50000000E-01  8.50000000E-01  8.50000000E-01  8.50000000E-01
  8.50000000E-01  8.50000000E-01  8.50000000E-01  8.50000000E-01  8.50000000E-01
  8.50000000E-01  8.50000000E-01  8.50000000E-01  8.50000000E-01  8.50000000E-01
  8.50000000E-01  8.50000000E-01  8.50000000E-01  8.50000000E-01  8.50000000E-01
  8.50000000E-01  8.50000000E-01  8.50000000E-01  8.50000000E-01  8.50000000E-01
  8.50000000E-01  8.50000000E-01  8.50000000E-01  8.50000000E-01  8.50000000E-01
  8.50000000E-01  8.50000000E-01  8.50000000E-01  8.50000000E-01  8.50000000E-01
  8.50000000E-01  8.50000000E-01  8.50000000E-01  8.50000000E-01  8.50000000E-01
  8.50000000E-01  8.50000000E-01  8.50000000E-01  8.50000000E-01  8.50000000E-01
  8.50000000E-01  8.50000000E-01  8.50000000E-01  8.50000000E-01  8.50000000E-01
  8.50000000E-01  8.50000000E-01  8.50000000E-01  8.50000000E-01  8.50000000E-01
  8.50000000E-01  8.50000000E-01  8.50000000E-01  8.50000000E-01  8.50000000E-01
  8.50000000E-01  8.50000000E-01  8.50000000E-01  8.50000000E-01  8.50000000E-01
  8.50000000E-01  8.50000000E-01  8.50000000E-01  8.50000000E-01  8.50000000E-01
  8.50000000E-01  8.50000000E-01  8.50000000E-01  8.50000000E-01  8.50000000E-01
  8.50000000E-01  8.50000000E-01  8.50000000E-01  8.50000000E-01  8.50000000E-01
  8.50000000E-01  8.50000000E-01  8.50000000E-01  8.50000000E-01  8.50000000E-01
  8.50000000E-01  8.50000000E-01  8.50000000E-01  8.50000000E-01  8.50000000E-01
  8.50000000E-01  8.50000000E-01  8.50000000E-01  8.50000000E-01  8.50000000E-01
  8.50000000E-01  8.50000000E-01  8.50000000E-01  8.50000000E-01  8.50000000E-01
  8.50000000E-01  8.50000000E-01  8.50000000E-01  8.50000000E-01  8.50000000E-01
  8.50000000E-01  8.50000000E-01  8.50000000E-01  8.50000000E-01  8.50000000E-01
  8.50000000E-01  8.50000000E-01  8.50000000E-01  8.50000000E-01  8.50000000E-01
  8.50000000E-01  8.50000000E-01  8.50000000E-01  8.50000000E-01  8.50000000E-01
  8.50000000E-01  8.50000000E-01  8.50000000E-01  8.50000000E-01  8.50000000E-01
  8.50000000E-01  8.50000000E-01  8.50000000E-01  8.50000000E-01  8.50000000E-01
  8.50000000E-01  8.50000000E-01  8.50000000E-01  8.50000000E-01  8.50000000E-01
  8.50000000E-01  8.50000000E-01  8.50000000E-01  8.50000000E-01  8.50000000E-01
  8.50000000E-01  8.50000000E-01  8.50000000E-01  8.50000000E-01  8.50000000E-01
  8.50000000E-01  8.50000000E-01  8.50000000E-01  8.50000000E-01  8.50000000E-01
  8.50000000E-01  8.50000000E-01  8.50000000E-01  8.50000000E-01  8.50000000E-01
  8.50000000E-01  8.50000000E-01  8.50000000E-01  8.50000000E-01  8.50000000E-01
  8.50000000E-01  8.50000000E-01  8.50000000E-01  8.50000000E-01  8.50000000E-01
  8.50000000E-01  8.50000000E-01  8.50000000E-01  8.50000000E-01  8.50000000E-01
  8.50000000E-01  8.50000000E-01  8.50000000E-01  8.50000000E-01  8.50000000E-01
  8.50000000E-01  8.50000000E-01  8.50000000E-01  8.50000000E-01  8.50000000E-01
  8.50000000E-01  8.50000000E-01  8.50000000E-01  8.50000000E-01  8.50000000E-01
  8.50000000E-01  8.50000000E-01  8.50000000E-01  8.50000000E-01  8.50000000E-01
  8.50000000E-01  8.50000000E-01  8.50000000E-01  8.50000000E-01  8.50000000E-01
  8.50000000E-01  8.50000000E-01  8.50000000E-01  8.50000000E-01  8.50000000E-01
  8.50000000E-01  8.50000000E-01  8.50000000E-01  8.50000000E-01  8.50000000E-01
  8.50000000E-01  8.50000000E-01  8.50000000E-01  8.50000000E-01  8.50000000E-01
  8.50000000E-01  8.50000000E-01  8.50000000E-01  8.50000000E-01  8.50000000E-01
  8.50000000E-01  8.50000000E-01  8.50000000E-01  8.50000000E-01  8.50000000E-01
  8.50000000E-01  8.50000000E-01  8.50000000E-01  8.50000000E-01  8.50000000E-01
  8.50000000E-01  8.50000000E-01  8.50000000E-01  8.50000000E-01  8.50000000E-01
  8.50000000E-01  8.50000000E-01  8.50000000E-01  8.50000000E-01  8.50000000E-01
  8.50000000E-01  8.50000000E-01  8.50000000E-01  8.50000000E-01  8.50000000E-01
  8.50000000E-01  8.50000000E-01  8.50000000E-01  8.50000000E-01  8.50000000E-01
  8.50000000E-01  8.50000000E-01  8.50000000E-01  8.50000000E-01  8.50000000E-01
  8.50000000E-01  8.50000000E-01  8.50000000E-01  8.50000000E-01  8.50000000E-01
  8.50000000E-01  8.50000000E-01  8.50000000E-01  8.50000000E-01  8.50000000E-01
  8.50000000E-01  8.50000000E-01  8.50000000E-01  8.50000000E-01  8.50000000E-01
  8.50000000E-01  8.50000000E-01  8.50000000E-01  8.50000000E-01  8.50000000E-01
  8.50000000E-01  8.50000000E-01  8.50000000E-01  8.50000000E-01  8.50000000E-01
  8.50000000E-01  8.50000000E-01  8.50000000E-01  8.50000000E-01  8.50000000E-01
  8.50000000E-01  8.50000000E-01  8.50000000E-01  8.50000000E-01  8.50000000E-01
  8.50000000E-01  8.50000000E-01  8.50000000E-01  8.50000000E-01  8.50000000E-01
  8.50000000E-01  8.50000000E-01  8.50000000E-01  8.50000000E-01  8.50000000E-01
  8.50000000E-01  8.50000000E-01  8.50000000E-01  8.50000000E-01  8.50000000E-01
  8.50000000E-01  8.50000000E-01  8.50000000E-01  8.50000000E-01  8.50000000E-01
  8.50000000E-01  8.50000000E-01  8.50000000E-01  8.50000000E-01  8.50000000E-01
  8.50000000E-01  8.50000000E-01  8.50000000E-01  8.50000000E-01  8.50000000E-01
  8.50000000E-01  8.50000000E-01  8.50000000E-01  8.50000000E-01  8.50000000E-01
  8.50000000E-01  8.50000000E-01  8.50000000E-01  8.50000000E-01  8.50000000E-01
  8.50000000E-01  8.50000000E-01  8.50000000E-01  8.50000000E-01  8.50000000E-01
  8.50000000E-01  8.50000000E-01  8.50000000E-01  8.50000000E-01  8.50000000E-01
  8.50000000E-01  8.50000000E-01  8.50000000E-01  8.50000000E-01  8.50000000E-01
  8.50000000E-01  8.50000000E-01  8.50000000E-01  8.50000000E-01  8.50000000E-01
  8.50000000E-01  8.50000000E-01  8.50000000E-01  8.50000000E-01  8.50000000E-01
  8.50000000E-01  8.50000000E-01  8.50000000E-01  8.50000000E-01  8.50000000E-01
  8.50000000E-01  8.50000000E-01  8.50000000E-01  8.50000000E-01  8.50000000E-01
  8.50000000E-01  8.50000000E-01  8.50000000E-01  8.50000000E-01  8.50000000E-01
  8.50000000E-01  8.50000000E-01  8.50000000E-01  8.50000000E-01  8.50000000E-01
  8.50000000E-01  8.50000000E-01  8.50000000E-01  8.50000000E-01  8.50000000E-01
  8.50000000E-01  8.50000000E-01  8.50000000E-01  8.50000000E-01  8.50000000E-01
  8.50000000E-01  8.50000000E-01  8.50000000E-01  8.50000000E-01  8.50000000E-01
  8.50000000E-01  8.50000000E-01  8.50000000E-01  8.50000000E-01  8.50000000E-01
  8.50000000E-01  8.50000000E-01  8.50000000E-01  8.50000000E-01  8.50000000E-01
  8.50000000E-01  8.50000000E-01  8.50000000E-01  8.50000000E-01  8.50000000E-01
  8.50000000E-01  8.50000000E-01  8.50000000E-01  8.50000000E-01  8.50000000E-01
  8.50000000E-01  8.50000000E-01  8.50000000E-01  8.50000000E-01  8.50000000E-01
  8.50000000E-01  8.50000000E-01  8.50000000E-01  8.50000000E-01  8.50000000E-01
  8.50000000E-01  8.50000000E-01  8.50000000E-01  8.50000000E-01  8.50000000E-01
  8.50000000E-01  8.50000000E-01  8.50000000E-01  8.50000000E-01  8.50000000E-01
  8.50000000E-01  8.50000000E-01  8.50000000E-01  8.50000000E-01  8.50000000E-01
  8.50000000E-01  8.50000000E-01  8.50000000E-01  8.50000000E-01  8.50000000E-01
  8.50000000E-01  8.50000000E-01  8.50000000E-01  8.50000000E-01  8.50000000E-01
  8.50000000E-01  8.50000000E-01  8.50000000E-01  8.50000000E-01  8.50000000E-01
  8.50000000E-01  8.50000000E-01  8.50000000E-01  8.50000000E-01  8.50000000E-01
  8.50000000E-01  8.50000000E-01  8.50000000E-01  8.50000000E-01  8.50000000E-01
  8.50000000E-01  8.50000000E-01  8.50000000E-01  8.50000000E-01  8.50000000E-01
  8.50000000E-01  8.50000000E-01  8.50000000E-01  8.50000000E-01  8.50000000E-01
  8.50000000E-01  8.50000000E-01  8.50000000E-01  8.50000000E-01  8.50000000E-01
  8.50000000E-01  8.50000000E-01  8.50000000E-01  8.50000000E-01  8.50000000E-01
  8.50000000E-01  8.50000000E-01  8.50000000E-01  8.50000000E-01  8.50000000E-01
  8.50000000E-01  8.50000000E-01  8.50000000E-01  8.50000000E-01  8.50000000E-01
  8.50000000E-01  8.50000000E-01  8.50000000E-01  8.50000000E-01  8.50000000E-01
  8.50000000E-01  8.50000000E-01  8.50000000E-01  8.50000000E-01  8.50000000E-01
  8.50000000E-01  8.50000000E-01  8.50000000E-01  8.50000000E-01  8.50000000E-01
  8.50000000E-01  8.50000000E-01  8.50000000E-01  8.50000000E-01  8.50000000E-01
  8.50000000E-01  8.50000000E-01  8.50000000E-01  8.50000000E-01  8.50000000E-01
  8.50000000E-01  8.50000000E-01  8.50000000E-01  8.50000000E-01  8.50000000E-01
  8.50000000E-01  8.50000000E-01  8.50000000E-01  8.50000000E-01  8.50000000E-01
  8.50000000E-01  8.50000000E-01  8.50000000E-01  8.50000000E-01  8.50000000E-01
  8.50000000E-01  8.50000000E-01  8.50000000E-01  8.50000000E-01  8.50000000E-01
  8.50000000E-01  8.50000000E-01  8.50000000E-01  8.50000000E-01  8.50000000E-01
  8.50000000E-01  8.50000000E-01  8.50000000E-01  8.50000000E-01  8.50000000E-01
  8.50000000E-01  8.50000000E-01  8.50000000E-01  8.50000000E-01  8.50000000E-01
  8.50000000E-01  8.50000000E-01  8.50000000E-01  8.50000000E-01  8.50000000E-01
  8.50000000E-01  8.50000000E-01  8.50000000E-01  8.50000000E-01  8.50000000E-01
  8.50000000E-01  8.50000000E-01  8.50000000E-01  8.50000000E-01  8.50000000E-01
  8.50000000E-01  8.50000000E-01  8.50000000E-01  8.50000000E-01  8.50000000E-01
  8.50000000E-01  8.50000000E-01  8.50000000E-01  8.50000000E-01  8.50000000E-01
  8.50000000E-01  8.50000000E-01  8.50000000E-01  8.50000000E-01  8.50000000E-01
  8.50000000E-01  8.50000000E-01  8.50000000E-01  8.50000000E-01  8.50000000E-01
  8.50000000E-01  8.50000000E-01  8.50000000E-01  8.50000000E-01  8.50000000E-01
  8.50000000E-01  8.50000000E-01  8.50000000E-01  8.50000000E-01  8.50000000E-01
  8.50000000E-01  8.50000000E-01  8.50000000E-01  8.50000000E-01  8.50000000E-01
  8.50000000E-01  8.50000000E-01  8.50000000E-01  8.50000000E-01  8.50000000E-01
  8.50000000E-01  8.50000000E-01  8.50000000E-01  8.50000000E-01  8.50000000E-01
  8.50000000E-01  8.50000000E-01  8.50000000E-01  8.50000000E-01  8.50000000E-01
  8.50000000E-01  8.50000000E-01  8.50000000E-01  8.50000000E-01  8.50000000E-01
  8.50000000E-01  8.50000000E-01  8.50000000E-01  8.50000000E-01  8.50000000E-01
  8.50000000E-01  8.50000000E-01  8.50000000E-01  8.50000000E-01  8.50000000E-01
  8.50000000E-01  8.50000000E-01  8.50000000E-01  8.50000000E-01  8.50000000E-01
  8.50000000E-01  8.50000000E-01  8.50000000E-01  8.50000000E-01  8.50000000E-01
  8.50000000E-01  8.50000000E-01  8.50000000E-01  8.50000000E-01  8.50000000E-01
  8.50000000E-01  8.50000000E-01  8.50000000E-01  8.50000000E-01  8.50000000E-01
  8.50000000E-01  8.50000000E-01  8.50000000E-01  8.50000000E-01  8.50000000E-01
  8.50000000E-01  8.50000000E-01  8.50000000E-01  8.50000000E-01  8.50000000E-01
  8.50000000E-01  8.50000000E-01  8.50000000E-01  8.50000000E-01  8.50000000E-01
  8.50000000E-01  8.50000000E-01  8.50000000E-01  8.50000000E-01  8.50000000E-01
  8.50000000E-01  8.50000000E-01  8.50000000E-01  8.50000000E-01  8.50000000E-01
  8.50000000E-01  8.50000000E-01  8.50000000E-01  8.50000000E-01  8.50000000E-01
  8.50000000E-01  8.50000000E-01  8.50000000E-01  8.50000000E-01  8.50000000E-01
  8.50000000E-01  8.50000000E-01  8.50000000E-01  8.50000000E-01  8.50000000E-01
  8.50000000E-01  8.50000000E-01  8.50000000E-01  8.50000000E-01  8.50000000E-01
  8.50000000E-01  8.50000000E-01  8.50000000E-01  8.50000000E-01  8.50000000E-01
  8.50000000E-01  8.50000000E-01  8.50000000E-01  8.50000000E-01  8.50000000E-01
  8.50000000E-01  8.50000000E-01  8.50000000E-01  8.50000000E-01  8.50000000E-01
  8.50000000E-01  8.50000000E-01  8.50000000E-01  8.50000000E-01  8.50000000E-01
  8.50000000E-01  8.50000000E-01  8.50000000E-01  8.50000000E-01  8.50000000E-01
  8.50000000E-01  8.50000000E-01  8.50000000E-01  8.50000000E-01  8.50000000E-01
  8.50000000E-01  8.50000000E-01  8.50000000E-01  8.50000000E-01  8.50000000E-01
  8.50000000E-01  8.50000000E-01  8.50000000E-01  8.50000000E-01  8.50000000E-01
  8.50000000E-01  8.50000000E-01  8.50000000E-01  8.50000000E-01  8.50000000E-01
  8.50000000E-01  8.50000000E-01  8.50000000E-01  8.50000000E-01  8.50000000E-01
  8.50000000E-01  8.50000000E-01  8.50000000E-01  8.50000000E-01  8.50000000E-01
  8.50000000E-01  8.50000000E-01  8.50000000E-01  8.50000000E-01  8.50000000E-01
  8.50000000E-01  8.50000000E-01  8.50000000E-01  8.50000000E-01  8.50000000E-01
  8.50000000E-01  8.50000000E-01  8.50000000E-01  8.50000000E-01  8.50000000E-01
  8.50000000E-01  8.50000000E-01  8.50000000E-01  8.50000000E-01  8.50000000E-01
  8.50000000E-01  8.50000000E-01  8.50000000E-01  8.50000000E-01  8.50000000E-01
  8.50000000E-01  8.50000000E-01  8.50000000E-01  8.50000000E-01  8.50000000E-01
  8.50000000E-01  8.50000000E-01  8.50000000E-01  8.50000000E-01  8.50000000E-01
  8.50000000E-01  8.50000000E-01  8.50000000E-01  8.50000000E-01  8.50000000E-01
  8.50000000E-01  8.50000000E-01  8.50000000E-01  8.50000000E-01  8.50000000E-01
  8.50000000E-01  8.50000000E-01  8.50000000E-01  8.50000000E-01  8.50000000E-01
  8.50000000E-01  8.50000000E-01  8.50000000E-01  8.50000000E-01  8.50000000E-01
  8.50000000E-01  8.50000000E-01  8.50000000E-01  8.50000000E-01  8.50000000E-01
  8.50000000E-01  8.50000000E-01  8.50000000E-01  8.50000000E-01  8.50000000E-01
  8.50000000E-01  8.50000000E-01  8.50000000E-01  8.50000000E-01  8.50000000E-01
  8.50000000E-01  8.50000000E-01  8.50000000E-01  8.50000000E-01  8.50000000E-01
  8.50000000E-01  8.50000000E-01  8.50000000E-01  8.50000000E-01  8.50000000E-01
  8.50000000E-01  8.50000000E-01  8.50000000E-01  8.50000000E-01  8.50000000E-01
  8.50000000E-01  8.50000000E-01  8.50000000E-01  8.50000000E-01  8.50000000E-01
  8.50000000E-01  8.50000000E-01  8.50000000E-01  8.50000000E-01  8.50000000E-01
  8.50000000E-01  8.50000000E-01  8.50000000E-01  8.50000000E-01  8.50000000E-01
  8.50000000E-01  8.50000000E-01  8.50000000E-01  8.50000000E-01  8.50000000E-01
  8.50000000E-01  8.50000000E-01  8.50000000E-01  8.50000000E-01  8.50000000E-01
  8.50000000E-01  8.50000000E-01  8.50000000E-01  8.50000000E-01  8.50000000E-01
  8.50000000E-01  8.50000000E-01  8.50000000E-01  8.50000000E-01  8.50000000E-01
  8.50000000E-01  8.50000000E-01  8.50000000E-01  8.50000000E-01  8.50000000E-01
  8.50000000E-01  8.50000000E-01  8.50000000E-01  8.50000000E-01  8.50000000E-01
  8.50000000E-01  8.50000000E-01  8.50000000E-01  8.50000000E-01  8.50000000E-01
  8.50000000E-01  8.50000000E-01  8.50000000E-01  8.50000000E-01  8.50000000E-01
  8.50000000E-01  8.50000000E-01  8.50000000E-01  8.50000000E-01  8.50000000E-01
  8.50000000E-01  8.50000000E-01  8.50000000E-01  8.50000000E-01  8.50000000E-01
  8.50000000E-01  8.50000000E-01  8.50000000E-01  8.50000000E-01  8.50000000E-01
  8.50000000E-01  8.50000000E-01  8.50000000E-01  8.50000000E-01  8.50000000E-01
  8.50000000E-01  8.50000000E-01  8.50000000E-01  8.50000000E-01  8.50000000E-01
  8.50000000E-01  8.50000000E-01  8.50000000E-01  8.50000000E-01  8.50000000E-01
  8.50000000E-01  8.50000000E-01  8.50000000E-01  8.50000000E-01  8.50000000E-01
  8.50000000E-01  8.50000000E-01  8.50000000E-01  8.50000000E-01  8.50000000E-01
  8.50000000E-01  8.50000000E-01  8.50000000E-01  8.50000000E-01  8.50000000E-01
  8.50000000E-01  8.50000000E-01  8.50000000E-01  8.50000000E-01  8.50000000E-01
  8.50000000E-01  8.50000000E-01  8.50000000E-01  8.50000000E-01  8.50000000E-01
  8.50000000E-01  8.50000000E-01  8.50000000E-01  8.50000000E-01  8.50000000E-01
  8.50000000E-01  8.50000000E-01  8.50000000E-01  8.50000000E-01  8.50000000E-01
  8.50000000E-01  8.50000000E-01  8.50000000E-01  8.50000000E-01  8.50000000E-01
  8.50000000E-01  8.50000000E-01  8.50000000E-01  8.50000000E-01  8.50000000E-01
  8.50000000E-01  8.50000000E-01  8.50000000E-01  8.50000000E-01  8.50000000E-01
  8.50000000E-01  8.50000000E-01  8.50000000E-01  8.50000000E-01  8.50000000E-01
  8.50000000E-01  8.50000000E-01  8.50000000E-01  8.50000000E-01  8.50000000E-01
  8.50000000E-01  8.50000000E-01  8.50000000E-01  8.50000000E-01  8.50000000E-01
  8.50000000E-01  8.50000000E-01  8.50000000E-01  8.50000000E-01  8.50000000E-01
  8.50000000E-01  8.50000000E-01  8.50000000E-01  8.50000000E-01  8.50000000E-01
  8.50000000E-01  8.50000000E-01  8.50000000E-01  8.50000000E-01  8.50000000E-01
  8.50000000E-01  8.50000000E-01  8.50000000E-01  8.50000000E-01  8.50000000E-01
  8.50000000E-01  8.50000000E-01  8.50000000E-01  8.50000000E-01  8.50000000E-01
  8.50000000E-01  8.50000000E-01  8.50000000E-01  8.50000000E-01  8.50000000E-01
  8.50000000E-01  8.50000000E-01  8.50000000E-01  8.50000000E-01  8.50000000E-01
  8.50000000E-01  8.50000000E-01  8.50000000E-01  8.50000000E-01  8.50000000E-01
  8.50000000E-01  8.50000000E-01  8.50000000E-01  8.50000000E-01  8.50000000E-01
  8.50000000E-01  8.50000000E-01  8.50000000E-01  8.50000000E-01  8.50000000E-01
  8.50000000E-01  8.50000000E-01  8.50000000E-01  8.50000000E-01  8.50000000E-01
  8.50000000E-01  8.50000000E-01  8.50000000E-01  8.50000000E-01  8.50000000E-01
  8.50000000E-01  8.50000000E-01  8.50000000E-01  8.50000000E-01  8.50000000E-01
  8.50000000E-01  8.50000000E-01  8.50000000E-01  8.50000000E-01  8.50000000E-01
  8.50000000E-01  8.50000000E-01  8.50000000E-01  8.50000000E-01  8.50000000E-01
  8.50000000E-01  8.50000000E-01  8.50000000E-01  8.50000000E-01  8.50000000E-01
  8.50000000E-01  8.50000000E-01  8.50000000E-01  8.50000000E-01  8.50000000E-01
  8.50000000E-01  8.50000000E-01  8.50000000E-01  8.50000000E-01  8.50000000E-01
  8.50000000E-01  8.50000000E-01  8.50000000E-01  8.50000000E-01  8.50000000E-01
  8.50000000E-01  8.50000000E-01  8.50000000E-01  8.50000000E-01  8.50000000E-01
  8.50000000E-01  8.50000000E-01  8.50000000E-01  8.50000000E-01  8.50000000E-01
  8.50000000E-01  8.50000000E-01  8.50000000E-01  8.50000000E-01  8.50000000E-01
  8.50000000E-01  8.50000000E-01  8.50000000E-01  8.50000000E-01  8.50000000E-01
  8.50000000E-01  8.50000000E-01  8.50000000E-01  8.50000000E-01  8.50000000E-01
  8.50000000E-01  8.50000000E-01  8.50000000E-01  8.50000000E-01  8.50000000E-01
  8.50000000E-01  8.50000000E-01  8.50000000E-01  8.50000000E-01  8.50000000E-01
  8.50000000E-01  8.50000000E-01  8.50000000E-01  8.50000000E-01  8.50000000E-01
  8.50000000E-01  8.50000000E-01  8.50000000E-01  8.50000000E-01  8.50000000E-01
  8.50000000E-01  8.50000000E-01  8.50000000E-01  8.50000000E-01  8.50000000E-01
  8.50000000E-01  8.50000000E-01  8.50000000E-01  8.50000000E-01  8.50000000E-01
  8.50000000E-01  8.50000000E-01  8.50000000E-01  8.50000000E-01  8.50000000E-01
  8.50000000E-01  8.50000000E-01  8.50000000E-01  8.50000000E-01  8.50000000E-01
  8.50000000E-01  8.50000000E-01  8.50000000E-01  8.50000000E-01  8.50000000E-01
  8.50000000E-01  8.50000000E-01  8.50000000E-01  8.50000000E-01  8.50000000E-01
  8.50000000E-01  8.50000000E-01  8.50000000E-01  8.50000000E-01  8.50000000E-01
  8.50000000E-01  8.50000000E-01  8.50000000E-01  8.50000000E-01  8.50000000E-01
  8.50000000E-01  8.50000000E-01  8.50000000E-01  8.50000000E-01  8.50000000E-01
  8.50000000E-01  8.50000000E-01  8.50000000E-01  8.50000000E-01  8.50000000E-01
  8.50000000E-01  8.50000000E-01  8.50000000E-01  8.50000000E-01  8.50000000E-01
  8.50000000E-01  8.50000000E-01  8.50000000E-01  8.50000000E-01  8.50000000E-01
  8.50000000E-01  8.50000000E-01  8.50000000E-01  8.50000000E-01  8.50000000E-01
  8.50000000E-01  8.50000000E-01  8.50000000E-01  8.50000000E-01  8.50000000E-01
  8.50000000E-01  8.50000000E-01  8.50000000E-01  8.50000000E-01  8.50000000E-01
  8.50000000E-01  8.50000000E-01  8.50000000E-01  8.50000000E-01  8.50000000E-01
  8.50000000E-01  8.50000000E-01  8.50000000E-01  8.50000000E-01  8.50000000E-01
  8.50000000E-01  8.50000000E-01  8.50000000E-01  8.50000000E-01  8.50000000E-01
  8.50000000E-01  8.50000000E-01  8.50000000E-01  8.50000000E-01  8.50000000E-01
  8.50000000E-01  8.50000000E-01  8.50000000E-01  8.50000000E-01  8.50000000E-01
  8.50000000E-01  8.50000000E-01  8.50000000E-01  8.50000000E-01  8.50000000E-01
  8.50000000E-01  8.50000000E-01  8.50000000E-01  8.50000000E-01  8.50000000E-01
  8.50000000E-01  8.50000000E-01  8.50000000E-01  8.50000000E-01  8.50000000E-01
  8.50000000E-01  8.50000000E-01  8.50000000E-01  8.50000000E-01  8.50000000E-01
  8.50000000E-01  8.50000000E-01  8.50000000E-01  8.50000000E-01  8.50000000E-01
  8.50000000E-01  8.50000000E-01  8.50000000E-01  8.50000000E-01  8.50000000E-01
  8.50000000E-01  8.50000000E-01  8.50000000E-01  8.50000000E-01  8.50000000E-01
  8.50000000E-01  8.50000000E-01  8.50000000E-01  8.50000000E-01  8.50000000E-01
  8.50000000E-01  8.50000000E-01  8.50000000E-01  8.50000000E-01  8.50000000E-01
  8.50000000E-01  8.50000000E-01  8.50000000E-01  8.50000000E-01  8.50000000E-01
  8.50000000E-01  8.50000000E-01  8.50000000E-01  8.50000000E-01  8.50000000E-01
  8.50000000E-01  8.50000000E-01  8.50000000E-01  8.50000000E-01  8.50000000E-01
  8.50000000E-01  8.50000000E-01  8.50000000E-01  8.50000000E-01  8.50000000E-01
  8.50000000E-01  8.50000000E-01  8.50000000E-01  8.50000000E-01  8.50000000E-01
  8.50000000E-01  8.50000000E-01  8.50000000E-01  8.50000000E-01  8.50000000E-01
  8.50000000E-01  8.50000000E-01  8.50000000E-01  8.50000000E-01  8.50000000E-01
  8.50000000E-01  8.50000000E-01  8.50000000E-01  8.50000000E-01  8.50000000E-01
  8.50000000E-01  8.50000000E-01  8.50000000E-01  8.50000000E-01  8.50000000E-01
  8.50000000E-01  8.50000000E-01  8.50000000E-01  8.50000000E-01  8.50000000E-01
  8.50000000E-01  8.50000000E-01  8.50000000E-01  8.50000000E-01  8.50000000E-01
  8.50000000E-01  8.50000000E-01  8.50000000E-01  8.50000000E-01  8.50000000E-01
  8.50000000E-01  8.50000000E-01  8.50000000E-01  8.50000000E-01  8.50000000E-01
  8.50000000E-01  8.50000000E-01  8.50000000E-01  8.50000000E-01  8.50000000E-01
  8.50000000E-01  8.50000000E-01  8.50000000E-01  8.50000000E-01  8.50000000E-01
  8.50000000E-01  8.50000000E-01  8.50000000E-01  8.50000000E-01  8.50000000E-01
  8.50000000E-01  8.50000000E-01  8.50000000E-01  8.50000000E-01  8.50000000E-01
  8.50000000E-01  8.50000000E-01  8.50000000E-01  8.50000000E-01  8.50000000E-01
  8.50000000E-01  8.50000000E-01  8.50000000E-01  8.50000000E-01  8.50000000E-01
  8.50000000E-01  8.50000000E-01  8.50000000E-01  8.50000000E-01  8.50000000E-01
  8.50000000E-01  8.50000000E-01  8.50000000E-01  8.50000000E-01  8.50000000E-01
  8.50000000E-01  8.50000000E-01  8.50000000E-01  8.50000000E-01  8.50000000E-01
  8.50000000E-01  8.50000000E-01  8.50000000E-01  8.50000000E-01  8.50000000E-01
  8.50000000E-01  8.50000000E-01  8.50000000E-01  8.50000000E-01  8.50000000E-01
  8.50000000E-01  8.50000000E-01  8.50000000E-01  8.50000000E-01  8.50000000E-01
  8.50000000E-01  8.50000000E-01  8.50000000E-01  8.50000000E-01  8.50000000E-01
  8.50000000E-01  8.50000000E-01  8.50000000E-01  8.50000000E-01  8.50000000E-01
  8.50000000E-01  8.50000000E-01  8.50000000E-01  8.50000000E-01  8.50000000E-01
  8.50000000E-01  8.50000000E-01  8.50000000E-01  8.50000000E-01  8.50000000E-01
  8.50000000E-01  8.50000000E-01  8.50000000E-01  8.50000000E-01  8.50000000E-01
  8.50000000E-01  8.50000000E-01  8.50000000E-01  8.50000000E-01  8.50000000E-01
  8.50000000E-01  8.50000000E-01  8.50000000E-01  8.50000000E-01  8.50000000E-01
  8.50000000E-01  8.50000000E-01  8.50000000E-01  8.50000000E-01  8.50000000E-01
  8.50000000E-01  8.50000000E-01  8.50000000E-01  8.50000000E-01  8.50000000E-01
  8.50000000E-01  8.50000000E-01  8.50000000E-01  8.50000000E-01  8.50000000E-01
  8.50000000E-01  8.50000000E-01  8.50000000E-01  8.50000000E-01  8.50000000E-01
  8.50000000E-01  8.50000000E-01  8.50000000E-01  8.50000000E-01  8.50000000E-01
  8.50000000E-01  8.50000000E-01  8.50000000E-01  8.50000000E-01  8.50000000E-01
  8.50000000E-01  8.50000000E-01  8.50000000E-01  8.50000000E-01  8.50000000E-01
  8.50000000E-01  8.50000000E-01  8.50000000E-01  8.50000000E-01  8.50000000E-01
  8.50000000E-01  8.50000000E-01  8.50000000E-01  8.50000000E-01  8.50000000E-01
  8.50000000E-01  8.50000000E-01  8.50000000E-01  8.50000000E-01  8.50000000E-01
  8.50000000E-01  8.50000000E-01  8.50000000E-01  8.50000000E-01  8.50000000E-01
  8.50000000E-01  8.50000000E-01  8.50000000E-01  8.50000000E-01  8.50000000E-01
  8.50000000E-01  8.50000000E-01  8.50000000E-01  8.50000000E-01  8.50000000E-01
  8.50000000E-01  8.50000000E-01  8.50000000E-01  8.50000000E-01  8.50000000E-01
  8.50000000E-01  8.50000000E-01  8.50000000E-01  8.50000000E-01  8.50000000E-01
  8.50000000E-01  8.50000000E-01  8.50000000E-01  8.50000000E-01  8.50000000E-01
  8.50000000E-01  8.50000000E-01  8.50000000E-01  8.50000000E-01  8.50000000E-01
  8.50000000E-01  8.50000000E-01  8.50000000E-01  8.50000000E-01  8.50000000E-01
  8.50000000E-01  8.50000000E-01  8.50000000E-01  8.50000000E-01  8.50000000E-01
  8.50000000E-01  8.50000000E-01  8.50000000E-01  8.50000000E-01  8.50000000E-01
  8.50000000E-01  8.50000000E-01  8.50000000E-01  8.50000000E-01  8.50000000E-01
  8.50000000E-01  8.50000000E-01  8.50000000E-01  8.50000000E-01  8.50000000E-01
  8.50000000E-01  8.50000000E-01  8.50000000E-01  8.50000000E-01  8.50000000E-01
  8.50000000E-01  8.50000000E-01  8.50000000E-01  8.50000000E-01  8.50000000E-01
  8.50000000E-01  8.50000000E-01  8.50000000E-01  8.50000000E-01  8.50000000E-01
  8.50000000E-01  8.50000000E-01  8.50000000E-01  8.50000000E-01  8.50000000E-01
  8.50000000E-01  8.50000000E-01  8.50000000E-01  8.50000000E-01  8.50000000E-01
  8.50000000E-01  8.50000000E-01  8.50000000E-01  8.50000000E-01  8.50000000E-01
  8.50000000E-01  8.50000000E-01  8.50000000E-01  8.50000000E-01  8.50000000E-01
  8.50000000E-01  8.50000000E-01  8.50000000E-01  8.50000000E-01  8.50000000E-01
  8.50000000E-01  8.50000000E-01  8.50000000E-01  8.50000000E-01  8.50000000E-01
  8.50000000E-01  8.50000000E-01  8.50000000E-01  8.50000000E-01  8.50000000E-01
  8.50000000E-01  8.50000000E-01  8.50000000E-01  8.50000000E-01  8.50000000E-01
  8.50000000E-01  8.50000000E-01  8.50000000E-01  8.50000000E-01  8.50000000E-01
  8.50000000E-01  8.50000000E-01  8.50000000E-01  8.50000000E-01  8.50000000E-01
  8.50000000E-01  8.50000000E-01  8.50000000E-01  8.50000000E-01  8.50000000E-01
  8.50000000E-01  8.50000000E-01  8.50000000E-01  8.50000000E-01  8.50000000E-01
  8.50000000E-01  8.50000000E-01  8.50000000E-01  8.50000000E-01  8.50000000E-01
  8.50000000E-01  8.50000000E-01  8.50000000E-01  8.50000000E-01  8.50000000E-01
  8.50000000E-01  8.50000000E-01  8.50000000E-01  8.50000000E-01  8.50000000E-01
  8.50000000E-01  8.50000000E-01  8.50000000E-01  8.50000000E-01  8.50000000E-01
  8.50000000E-01  8.50000000E-01  8.50000000E-01  8.50000000E-01  8.50000000E-01
  8.50000000E-01  8.50000000E-01  8.50000000E-01  8.50000000E-01  8.50000000E-01
  8.50000000E-01  8.50000000E-01  8.50000000E-01  8.50000000E-01  8.50000000E-01
  8.50000000E-01  8.50000000E-01  8.50000000E-01  8.50000000E-01  8.50000000E-01
  8.50000000E-01  8.50000000E-01  8.50000000E-01  8.50000000E-01  8.50000000E-01
  8.50000000E-01  8.50000000E-01  8.50000000E-01  8.50000000E-01  8.50000000E-01
  8.50000000E-01  8.50000000E-01  8.50000000E-01  8.50000000E-01  8.50000000E-01
  8.50000000E-01  8.50000000E-01  8.50000000E-01  8.50000000E-01  8.50000000E-01
  8.50000000E-01  8.50000000E-01  8.50000000E-01  8.50000000E-01  8.50000000E-01
  8.50000000E-01  8.50000000E-01  8.50000000E-01  8.50000000E-01  8.50000000E-01
  8.50000000E-01  8.50000000E-01  8.50000000E-01  8.50000000E-01  8.50000000E-01
  8.50000000E-01  8.50000000E-01  8.50000000E-01  8.50000000E-01  8.50000000E-01
  8.50000000E-01  8.50000000E-01  8.50000000E-01  8.50000000E-01  8.50000000E-01
  8.50000000E-01  8.50000000E-01  8.50000000E-01  8.50000000E-01  8.50000000E-01
  8.50000000E-01  8.50000000E-01  8.50000000E-01  8.50000000E-01  8.50000000E-01
  8.50000000E-01  8.50000000E-01  8.50000000E-01  8.50000000E-01  8.50000000E-01
  8.50000000E-01  8.50000000E-01  8.50000000E-01  8.50000000E-01  8.50000000E-01
  8.50000000E-01  8.50000000E-01  8.50000000E-01  8.50000000E-01  8.50000000E-01
  8.50000000E-01  8.50000000E-01  8.50000000E-01  8.50000000E-01  8.50000000E-01
  8.50000000E-01  8.50000000E-01  8.50000000E-01  8.50000000E-01  8.50000000E-01
  8.50000000E-01  8.50000000E-01  8.50000000E-01  8.50000000E-01  8.50000000E-01
  8.50000000E-01  8.50000000E-01  8.50000000E-01  8.50000000E-01  8.50000000E-01
  8.50000000E-01  8.50000000E-01  8.50000000E-01  8.50000000E-01  8.50000000E-01
  8.50000000E-01  8.50000000E-01  8.50000000E-01  8.50000000E-01  8.50000000E-01
  8.50000000E-01  8.50000000E-01  8.50000000E-01  8.50000000E-01  8.50000000E-01
  8.50000000E-01  8.50000000E-01  8.50000000E-01  8.50000000E-01  8.50000000E-01
  8.50000000E-01  8.50000000E-01  8.50000000E-01  8.50000000E-01  8.50000000E-01
  8.50000000E-01  8.50000000E-01  8.50000000E-01  8.50000000E-01  8.50000000E-01
  8.50000000E-01  8.50000000E-01  8.50000000E-01  8.50000000E-01  8.50000000E-01
  8.50000000E-01  8.50000000E-01  8.50000000E-01  8.50000000E-01  8.50000000E-01
  8.50000000E-01  8.50000000E-01  8.50000000E-01  8.50000000E-01  8.50000000E-01
  8.50000000E-01  8.50000000E-01  8.50000000E-01  8.50000000E-01  8.50000000E-01
  8.50000000E-01  8.50000000E-01  8.50000000E-01  8.50000000E-01  8.50000000E-01
  8.50000000E-01  8.50000000E-01  8.50000000E-01  8.50000000E-01  8.50000000E-01
  8.50000000E-01  8.50000000E-01  8.50000000E-01  8.50000000E-01  8.50000000E-01
  8.50000000E-01  8.50000000E-01  8.50000000E-01  8.50000000E-01  8.50000000E-01
  8.50000000E-01  8.50000000E-01  8.50000000E-01  8.50000000E-01  8.50000000E-01
  8.50000000E-01  8.50000000E-01  8.50000000E-01  8.50000000E-01  8.50000000E-01
  8.50000000E-01  8.50000000E-01  8.50000000E-01  8.50000000E-01  8.50000000E-01
  8.50000000E-01  8.50000000E-01  8.50000000E-01  8.50000000E-01  8.50000000E-01
  8.50000000E-01  8.50000000E-01  8.50000000E-01  8.50000000E-01  8.50000000E-01
  8.50000000E-01  8.50000000E-01  8.50000000E-01  8.50000000E-01  8.50000000E-01
  8.50000000E-01  8.50000000E-01  8.50000000E-01  8.50000000E-01  8.50000000E-01
  8.50000000E-01  8.50000000E-01  8.50000000E-01  8.50000000E-01  8.50000000E-01
  8.50000000E-01  8.50000000E-01  8.50000000E-01  8.50000000E-01  8.50000000E-01
  8.50000000E-01  8.50000000E-01  8.50000000E-01  8.50000000E-01  8.50000000E-01
  8.50000000E-01  8.50000000E-01  8.50000000E-01  8.50000000E-01  8.50000000E-01
  8.50000000E-01  8.50000000E-01  8.50000000E-01  8.50000000E-01  8.50000000E-01
  8.50000000E-01  8.50000000E-01  8.50000000E-01  8.50000000E-01  8.50000000E-01
  8.50000000E-01  8.50000000E-01  8.50000000E-01  8.50000000E-01  8.50000000E-01
  8.50000000E-01  8.50000000E-01  8.50000000E-01  8.50000000E-01  8.50000000E-01
  8.50000000E-01  8.50000000E-01  8.50000000E-01  8.50000000E-01  8.50000000E-01
  8.50000000E-01  8.50000000E-01  8.50000000E-01  8.50000000E-01  8.50000000E-01
  8.50000000E-01  8.50000000E-01  8.50000000E-01  8.50000000E-01  8.50000000E-01
  8.50000000E-01  8.50000000E-01  8.50000000E-01  8.50000000E-01  8.50000000E-01
  8.50000000E-01  8.50000000E-01  8.50000000E-01  8.50000000E-01  8.50000000E-01
  8.50000000E-01  8.50000000E-01  8.50000000E-01  8.50000000E-01  8.50000000E-01
  8.50000000E-01  8.50000000E-01  8.50000000E-01  8.50000000E-01  8.50000000E-01
  8.50000000E-01  8.50000000E-01  8.50000000E-01  8.50000000E-01  8.50000000E-01
  8.50000000E-01  8.50000000E-01  8.50000000E-01  8.50000000E-01  8.50000000E-01
  8.50000000E-01  8.50000000E-01  8.50000000E-01  8.50000000E-01  8.50000000E-01
  8.50000000E-01  8.50000000E-01  8.50000000E-01  8.50000000E-01  8.50000000E-01
  8.50000000E-01  8.50000000E-01  8.50000000E-01  8.50000000E-01  8.50000000E-01
  8.50000000E-01  8.50000000E-01  8.50000000E-01  8.50000000E-01  8.50000000E-01
  8.50000000E-01  8.50000000E-01  8.50000000E-01  8.50000000E-01  8.50000000E-01
  8.50000000E-01  8.50000000E-01  8.50000000E-01  8.50000000E-01  8.50000000E-01
  8.50000000E-01  8.50000000E-01  8.50000000E-01  8.50000000E-01  8.50000000E-01
  8.50000000E-01  8.50000000E-01  8.50000000E-01  8.50000000E-01  8.50000000E-01
  8.50000000E-01  8.50000000E-01  8.50000000E-01  8.50000000E-01  8.50000000E-01
  8.50000000E-01  8.50000000E-01  8.50000000E-01  8.50000000E-01  8.50000000E-01
  8.50000000E-01  8.50000000E-01  8.50000000E-01  8.50000000E-01  8.50000000E-01
  8.50000000E-01  8.50000000E-01  8.50000000E-01  8.50000000E-01  8.50000000E-01
  8.50000000E-01  8.50000000E-01  8.50000000E-01  8.50000000E-01  8.50000000E-01
  8.50000000E-01  8.50000000E-01  8.50000000E-01  8.50000000E-01  8.50000000E-01
  8.50000000E-01  8.50000000E-01  8.50000000E-01  8.50000000E-01  8.50000000E-01
  8.50000000E-01  8.50000000E-01  8.50000000E-01  8.50000000E-01  8.50000000E-01
  8.50000000E-01  8.50000000E-01  8.50000000E-01  8.50000000E-01  8.50000000E-01
  8.50000000E-01  8.50000000E-01  8.50000000E-01  8.50000000E-01  8.50000000E-01
  8.50000000E-01  8.50000000E-01  8.50000000E-01  8.50000000E-01  8.50000000E-01
  8.50000000E-01  8.50000000E-01  8.50000000E-01  8.50000000E-01  8.50000000E-01
  8.50000000E-01  8.50000000E-01  8.50000000E-01  8.50000000E-01  8.50000000E-01
  8.50000000E-01  8.50000000E-01  8.50000000E-01  8.50000000E-01  8.50000000E-01
  8.50000000E-01  8.50000000E-01  8.50000000E-01  8.50000000E-01  8.50000000E-01
  8.50000000E-01  8.50000000E-01  8.50000000E-01  8.50000000E-01  8.50000000E-01
  8.50000000E-01  8.50000000E-01  8.50000000E-01  8.50000000E-01  8.50000000E-01
  8.50000000E-01  8.50000000E-01  8.50000000E-01  8.50000000E-01  8.50000000E-01
  8.50000000E-01  8.50000000E-01  8.50000000E-01  8.50000000E-01  8.50000000E-01
  8.50000000E-01  8.50000000E-01  8.50000000E-01  8.50000000E-01  8.50000000E-01
  8.50000000E-01  8.50000000E-01  8.50000000E-01  8.50000000E-01  8.50000000E-01
  8.50000000E-01  8.50000000E-01  8.50000000E-01  8.50000000E-01  8.50000000E-01
  8.50000000E-01  8.50000000E-01  8.50000000E-01  8.50000000E-01  8.50000000E-01
  8.50000000E-01  8.50000000E-01  8.50000000E-01  8.50000000E-01  8.50000000E-01
  8.50000000E-01  8.50000000E-01  8.50000000E-01  8.50000000E-01  8.50000000E-01
  8.50000000E-01  8.50000000E-01  8.50000000E-01  8.50000000E-01  8.50000000E-01
  8.50000000E-01  8.50000000E-01  8.50000000E-01  8.50000000E-01  8.50000000E-01
  8.50000000E-01  8.50000000E-01  8.50000000E-01  8.50000000E-01  8.50000000E-01
  8.50000000E-01  8.50000000E-01  8.50000000E-01  8.50000000E-01  8.50000000E-01
  8.50000000E-01  8.50000000E-01  8.50000000E-01  8.50000000E-01  8.50000000E-01
  8.50000000E-01  8.50000000E-01  8.50000000E-01  8.50000000E-01  8.50000000E-01
  8.50000000E-01  8.50000000E-01  8.50000000E-01  8.50000000E-01  8.50000000E-01
  8.50000000E-01  8.50000000E-01  8.50000000E-01  8.50000000E-01  8.50000000E-01
  8.50000000E-01  8.50000000E-01  8.50000000E-01  8.50000000E-01  8.50000000E-01
  8.50000000E-01  8.50000000E-01  8.50000000E-01  8.50000000E-01  8.50000000E-01
  8.50000000E-01  8.50000000E-01  8.50000000E-01  8.50000000E-01  8.50000000E-01
  8.50000000E-01  8.50000000E-01  8.50000000E-01  8.50000000E-01  8.50000000E-01
  8.50000000E-01  8.50000000E-01  8.50000000E-01  8.50000000E-01  8.50000000E-01
  8.50000000E-01  8.50000000E-01  8.50000000E-01  8.50000000E-01  8.50000000E-01
  8.50000000E-01  8.50000000E-01  8.50000000E-01  8.50000000E-01  8.50000000E-01
  8.50000000E-01  8.50000000E-01  8.50000000E-01  8.50000000E-01  8.50000000E-01
  8.50000000E-01  8.50000000E-01  8.50000000E-01  8.50000000E-01  8.50000000E-01
  8.50000000E-01  8.50000000E-01  8.50000000E-01  8.50000000E-01  8.50000000E-01
  8.50000000E-01  8.50000000E-01  8.50000000E-01  8.50000000E-01  8.50000000E-01
  8.50000000E-01  8.50000000E-01  8.50000000E-01  8.50000000E-01  8.50000000E-01
  8.50000000E-01  8.50000000E-01  8.50000000E-01  8.50000000E-01  8.50000000E-01
  8.50000000E-01  8.50000000E-01  8.50000000E-01  8.50000000E-01  8.50000000E-01
  8.50000000E-01  8.50000000E-01  8.50000000E-01  8.50000000E-01  8.50000000E-01
  8.50000000E-01  8.50000000E-01  8.50000000E-01  8.50000000E-01  8.50000000E-01
  8.50000000E-01  8.50000000E-01  8.50000000E-01  8.50000000E-01  8.50000000E-01
  8.50000000E-01  8.50000000E-01  8.50000000E-01  8.50000000E-01  8.50000000E-01
  8.50000000E-01  8.50000000E-01  8.50000000E-01  8.50000000E-01  8.50000000E-01
  8.50000000E-01  8.50000000E-01  8.50000000E-01  8.50000000E-01  8.50000000E-01
  8.50000000E-01  8.50000000E-01  8.50000000E-01  8.50000000E-01  8.50000000E-01
  8.50000000E-01  8.50000000E-01  8.50000000E-01  8.50000000E-01  8.50000000E-01
  8.50000000E-01  8.50000000E-01  8.50000000E-01  8.50000000E-01  8.50000000E-01
  8.50000000E-01  8.50000000E-01  8.50000000E-01  8.50000000E-01  8.50000000E-01
  8.50000000E-01  8.50000000E-01  8.50000000E-01  8.50000000E-01  8.50000000E-01
  8.50000000E-01  8.50000000E-01  8.50000000E-01  8.50000000E-01  8.50000000E-01
  8.50000000E-01  8.50000000E-01  8.50000000E-01  8.50000000E-01  8.50000000E-01
  8.50000000E-01  8.50000000E-01  8.50000000E-01  8.50000000E-01  8.50000000E-01
  8.50000000E-01  8.50000000E-01  8.50000000E-01  8.50000000E-01  8.50000000E-01
  8.50000000E-01  8.50000000E-01  8.50000000E-01  8.50000000E-01  8.50000000E-01
  8.50000000E-01  8.50000000E-01  8.50000000E-01  8.50000000E-01  8.50000000E-01
  8.50000000E-01  8.50000000E-01  8.50000000E-01  8.50000000E-01  8.50000000E-01
  8.50000000E-01  8.50000000E-01  8.50000000E-01  8.50000000E-01  8.50000000E-01
  8.50000000E-01  8.50000000E-01  8.50000000E-01  8.50000000E-01  8.50000000E-01
  8.50000000E-01  8.50000000E-01  8.50000000E-01  8.50000000E-01  8.50000000E-01
  8.50000000E-01  8.50000000E-01  8.50000000E-01  8.50000000E-01  8.50000000E-01
  8.50000000E-01  8.50000000E-01  8.50000000E-01  8.50000000E-01  8.50000000E-01
  8.50000000E-01  8.50000000E-01  8.50000000E-01  8.50000000E-01  8.50000000E-01
  8.50000000E-01  8.50000000E-01  8.50000000E-01  8.50000000E-01  8.50000000E-01
  8.50000000E-01  8.50000000E-01  8.50000000E-01  8.50000000E-01  8.50000000E-01
  8.50000000E-01  8.50000000E-01  8.50000000E-01  8.50000000E-01  8.50000000E-01
  8.50000000E-01  8.50000000E-01  8.50000000E-01  8.50000000E-01  8.50000000E-01
  8.50000000E-01  8.50000000E-01  8.50000000E-01  8.50000000E-01  8.50000000E-01
  8.50000000E-01  8.50000000E-01  8.50000000E-01  8.50000000E-01  8.50000000E-01
  8.50000000E-01  8.50000000E-01  8.50000000E-01  8.50000000E-01  8.50000000E-01
  8.50000000E-01  8.50000000E-01  8.50000000E-01  8.50000000E-01  8.50000000E-01
  8.50000000E-01  8.50000000E-01  8.50000000E-01  8.50000000E-01  8.50000000E-01
  8.50000000E-01  8.50000000E-01  8.50000000E-01  8.50000000E-01  8.50000000E-01
  8.50000000E-01  8.50000000E-01  8.50000000E-01  8.50000000E-01  8.50000000E-01
  8.50000000E-01  8.50000000E-01  8.50000000E-01  8.50000000E-01  8.50000000E-01
  8.50000000E-01  8.50000000E-01  8.50000000E-01  8.50000000E-01  8.50000000E-01
  8.50000000E-01  8.50000000E-01  8.50000000E-01  8.50000000E-01  8.50000000E-01
  8.50000000E-01  8.50000000E-01  8.50000000E-01  8.50000000E-01  8.50000000E-01
  8.50000000E-01  8.50000000E-01  8.50000000E-01  8.50000000E-01  8.50000000E-01
  8.50000000E-01  8.50000000E-01  8.50000000E-01  8.50000000E-01  8.50000000E-01
  8.50000000E-01  8.50000000E-01  8.50000000E-01  8.50000000E-01  8.50000000E-01
  8.50000000E-01  8.50000000E-01  8.50000000E-01  8.50000000E-01  8.50000000E-01
  8.50000000E-01  8.50000000E-01  8.50000000E-01  8.50000000E-01  8.50000000E-01
  8.50000000E-01  8.50000000E-01  8.50000000E-01  8.50000000E-01  8.50000000E-01
  8.50000000E-01  8.50000000E-01  8.50000000E-01  8.50000000E-01  8.50000000E-01
  8.50000000E-01  8.50000000E-01  8.50000000E-01  8.50000000E-01  8.50000000E-01
  8.50000000E-01  8.50000000E-01  8.50000000E-01  8.50000000E-01  8.50000000E-01
  8.50000000E-01  8.50000000E-01  8.50000000E-01  8.50000000E-01  8.50000000E-01
  8.50000000E-01  8.50000000E-01  8.50000000E-01  8.50000000E-01  8.50000000E-01
  8.50000000E-01  8.50000000E-01  8.50000000E-01  8.50000000E-01  8.50000000E-01
  8.50000000E-01  8.50000000E-01  8.50000000E-01  8.50000000E-01  8.50000000E-01
  8.50000000E-01  8.50000000E-01  8.50000000E-01  8.50000000E-01  8.50000000E-01
  8.50000000E-01  8.50000000E-01  8.50000000E-01  8.50000000E-01  8.50000000E-01
  8.50000000E-01  8.50000000E-01  8.50000000E-01  8.50000000E-01  8.50000000E-01
  8.50000000E-01  8.50000000E-01  8.50000000E-01  8.50000000E-01  8.50000000E-01
  8.50000000E-01  8.50000000E-01  8.50000000E-01  8.50000000E-01  8.50000000E-01
  8.50000000E-01  8.50000000E-01  8.50000000E-01  8.50000000E-01  8.50000000E-01
  8.50000000E-01  8.50000000E-01  8.50000000E-01  8.50000000E-01  8.50000000E-01
  8.50000000E-01  8.50000000E-01  8.50000000E-01  8.50000000E-01  8.50000000E-01
  8.50000000E-01  8.50000000E-01  8.50000000E-01  8.50000000E-01  8.50000000E-01
  8.50000000E-01  8.50000000E-01  8.50000000E-01  8.50000000E-01  8.50000000E-01
  8.50000000E-01  8.50000000E-01  8.50000000E-01  8.50000000E-01  8.50000000E-01
  8.50000000E-01  8.50000000E-01  8.50000000E-01  8.50000000E-01  8.50000000E-01
  8.50000000E-01  8.50000000E-01  8.50000000E-01  8.50000000E-01  8.50000000E-01
  8.50000000E-01  8.50000000E-01  8.50000000E-01  8.50000000E-01  8.50000000E-01
  8.50000000E-01  8.50000000E-01  8.50000000E-01  8.50000000E-01  8.50000000E-01
  8.50000000E-01  8.50000000E-01  8.50000000E-01  8.50000000E-01  8.50000000E-01
  8.50000000E-01  8.50000000E-01  8.50000000E-01  8.50000000E-01  8.50000000E-01
  8.50000000E-01  8.50000000E-01  8.50000000E-01  8.50000000E-01  8.50000000E-01
  8.50000000E-01  8.50000000E-01  8.50000000E-01  8.50000000E-01  8.50000000E-01
  8.50000000E-01  8.50000000E-01  8.50000000E-01  8.50000000E-01  8.50000000E-01
  8.50000000E-01  8.50000000E-01  8.50000000E-01  8.50000000E-01  8.50000000E-01
  8.50000000E-01  8.50000000E-01  8.50000000E-01  8.50000000E-01  8.50000000E-01
  8.50000000E-01  8.50000000E-01  8.50000000E-01  8.50000000E-01  8.50000000E-01
  8.50000000E-01  8.50000000E-01  8.50000000E-01  8.50000000E-01  8.50000000E-01
  8.50000000E-01  8.50000000E-01  8.50000000E-01  8.50000000E-01  8.50000000E-01
  8.50000000E-01  8.50000000E-01  8.50000000E-01  8.50000000E-01  8.50000000E-01
  8.50000000E-01  8.50000000E-01  8.50000000E-01  8.50000000E-01  8.50000000E-01
  8.50000000E-01  8.50000000E-01  8.50000000E-01  8.50000000E-01  8.50000000E-01
  8.50000000E-01  8.50000000E-01  8.50000000E-01  8.50000000E-01  8.50000000E-01
  8.50000000E-01  8.50000000E-01  8.50000000E-01  8.50000000E-01  8.50000000E-01
  8.50000000E-01  8.50000000E-01  8.50000000E-01  8.50000000E-01  8.50000000E-01
  8.50000000E-01  8.50000000E-01  8.50000000E-01  8.50000000E-01  8.50000000E-01
  8.50000000E-01  8.50000000E-01  8.50000000E-01  8.50000000E-01  8.50000000E-01
  8.50000000E-01  8.50000000E-01  8.50000000E-01  8.50000000E-01  8.50000000E-01
  8.50000000E-01  8.50000000E-01  8.50000000E-01  8.50000000E-01  8.50000000E-01
  8.50000000E-01  8.50000000E-01  8.50000000E-01  8.50000000E-01  8.50000000E-01
  8.50000000E-01  8.50000000E-01  8.50000000E-01  8.50000000E-01  8.50000000E-01
  8.50000000E-01  8.50000000E-01  8.50000000E-01  8.50000000E-01  8.50000000E-01
  8.50000000E-01  8.50000000E-01  8.50000000E-01  8.50000000E-01  8.50000000E-01
  8.50000000E-01  8.50000000E-01  8.50000000E-01  8.50000000E-01  8.50000000E-01
  8.50000000E-01  8.50000000E-01  8.50000000E-01  8.50000000E-01  8.50000000E-01
  8.50000000E-01  8.50000000E-01  8.50000000E-01  8.50000000E-01  8.50000000E-01
  8.50000000E-01  8.50000000E-01  8.50000000E-01  8.50000000E-01  8.50000000E-01
  8.50000000E-01  8.50000000E-01  8.50000000E-01  8.50000000E-01  8.50000000E-01
  8.50000000E-01  8.50000000E-01  8.50000000E-01  8.50000000E-01  8.50000000E-01
  8.50000000E-01  8.50000000E-01  8.50000000E-01  8.50000000E-01  8.50000000E-01
  8.50000000E-01  8.50000000E-01  8.50000000E-01  8.50000000E-01  8.50000000E-01
  8.50000000E-01  8.50000000E-01  8.50000000E-01  8.50000000E-01  8.50000000E-01
  8.50000000E-01  8.50000000E-01  8.50000000E-01  8.50000000E-01  8.50000000E-01
  8.50000000E-01  8.50000000E-01  8.50000000E-01  8.50000000E-01  8.50000000E-01
  8.50000000E-01  8.50000000E-01  8.50000000E-01  8.50000000E-01  8.50000000E-01
  8.50000000E-01  8.50000000E-01  8.50000000E-01  8.50000000E-01  8.50000000E-01
  8.50000000E-01  8.50000000E-01  8.50000000E-01  8.50000000E-01  8.50000000E-01
  8.50000000E-01  8.50000000E-01  8.50000000E-01  8.50000000E-01  8.50000000E-01
  8.50000000E-01  8.50000000E-01  8.50000000E-01  8.50000000E-01  8.50000000E-01
  8.50000000E-01  8.50000000E-01  8.50000000E-01  8.50000000E-01  8.50000000E-01
  8.50000000E-01  8.50000000E-01  8.50000000E-01  8.50000000E-01  8.50000000E-01
  8.50000000E-01  8.50000000E-01  8.50000000E-01  8.50000000E-01  8.50000000E-01
  8.50000000E-01  8.50000000E-01  8.50000000E-01  8.50000000E-01  8.50000000E-01
  8.50000000E-01  8.50000000E-01  8.50000000E-01  8.50000000E-01  8.50000000E-01
  8.50000000E-01  8.50000000E-01  8.50000000E-01  8.50000000E-01  8.50000000E-01
  8.50000000E-01  8.50000000E-01  8.50000000E-01  8.50000000E-01  8.50000000E-01
  8.50000000E-01  8.50000000E-01  8.50000000E-01  8.50000000E-01  8.50000000E-01
  8.50000000E-01  8.50000000E-01  8.50000000E-01  8.50000000E-01  8.50000000E-01
  8.50000000E-01  8.50000000E-01  8.50000000E-01  8.50000000E-01  8.50000000E-01
  8.50000000E-01  8.50000000E-01  8.50000000E-01  8.50000000E-01  8.50000000E-01
  8.50000000E-01  8.50000000E-01  8.50000000E-01  8.50000000E-01  8.50000000E-01
  8.50000000E-01  8.50000000E-01  8.50000000E-01  8.50000000E-01  8.50000000E-01
  8.50000000E-01  8.50000000E-01  8.50000000E-01  8.50000000E-01  8.50000000E-01
  8.50000000E-01  8.50000000E-01  8.50000000E-01  8.50000000E-01  8.50000000E-01
  8.50000000E-01  8.50000000E-01  8.50000000E-01  8.50000000E-01  8.50000000E-01
  8.50000000E-01  8.50000000E-01  8.50000000E-01  8.50000000E-01  8.50000000E-01
  8.50000000E-01  8.50000000E-01  8.50000000E-01  8.50000000E-01  8.50000000E-01
  8.50000000E-01  8.50000000E-01  8.50000000E-01  8.50000000E-01  8.50000000E-01
  8.50000000E-01  8.50000000E-01  8.50000000E-01  8.50000000E-01  8.50000000E-01
  8.50000000E-01  8.50000000E-01  8.50000000E-01  8.50000000E-01  8.50000000E-01
  8.50000000E-01  8.50000000E-01  8.50000000E-01  8.50000000E-01  8.50000000E-01
  8.50000000E-01  8.50000000E-01  8.50000000E-01  8.50000000E-01  8.50000000E-01
  8.50000000E-01  8.50000000E-01  8.50000000E-01  8.50000000E-01  8.50000000E-01
  8.50000000E-01  8.50000000E-01  8.50000000E-01  8.50000000E-01  8.50000000E-01
  8.50000000E-01  8.50000000E-01  8.50000000E-01  8.50000000E-01  8.50000000E-01
  8.50000000E-01  8.50000000E-01  8.50000000E-01  8.50000000E-01  8.50000000E-01
  8.50000000E-01  8.50000000E-01  8.50000000E-01  8.50000000E-01  8.50000000E-01
  8.50000000E-01  8.50000000E-01  8.50000000E-01  8.50000000E-01  8.50000000E-01
  8.50000000E-01  8.50000000E-01  8.50000000E-01  8.50000000E-01  8.50000000E-01
  8.50000000E-01  8.50000000E-01  8.50000000E-01  8.50000000E-01  8.50000000E-01
  8.50000000E-01  8.50000000E-01  8.50000000E-01  8.50000000E-01  8.50000000E-01
  8.50000000E-01  8.50000000E-01  8.50000000E-01  8.50000000E-01  8.50000000E-01
  8.50000000E-01  8.50000000E-01  8.50000000E-01  8.50000000E-01  8.50000000E-01
  8.50000000E-01  8.50000000E-01  8.50000000E-01  8.50000000E-01  8.50000000E-01
  8.50000000E-01  8.50000000E-01  8.50000000E-01  8.50000000E-01  8.50000000E-01
  8.50000000E-01  8.50000000E-01  8.50000000E-01  8.50000000E-01  8.50000000E-01
  8.50000000E-01  8.50000000E-01  8.50000000E-01  8.50000000E-01  8.50000000E-01
  8.50000000E-01  8.50000000E-01  8.50000000E-01  8.50000000E-01  8.50000000E-01
  8.50000000E-01  8.50000000E-01  8.50000000E-01  8.50000000E-01  8.50000000E-01
  8.50000000E-01  8.50000000E-01  8.50000000E-01  8.50000000E-01  8.50000000E-01
  8.50000000E-01  8.50000000E-01  8.50000000E-01  8.50000000E-01  8.50000000E-01
  8.50000000E-01  8.50000000E-01  8.50000000E-01  8.50000000E-01  8.50000000E-01
  8.50000000E-01  8.50000000E-01  8.50000000E-01  8.50000000E-01  8.50000000E-01
  8.50000000E-01  8.50000000E-01  8.50000000E-01  8.50000000E-01  8.50000000E-01
  8.50000000E-01  8.50000000E-01  8.50000000E-01  8.50000000E-01  8.50000000E-01
  8.50000000E-01  8.50000000E-01  8.50000000E-01  8.50000000E-01  8.50000000E-01
  8.50000000E-01  8.50000000E-01  8.50000000E-01  8.50000000E-01  8.50000000E-01
  8.50000000E-01  8.50000000E-01  8.50000000E-01  8.50000000E-01  8.50000000E-01
  8.50000000E-01  8.50000000E-01  8.50000000E-01  8.50000000E-01  8.50000000E-01
  8.50000000E-01  8.50000000E-01  8.50000000E-01  8.50000000E-01  8.50000000E-01
  8.50000000E-01  8.50000000E-01  8.50000000E-01  8.50000000E-01  8.50000000E-01
  8.50000000E-01  8.50000000E-01  8.50000000E-01  8.50000000E-01  8.50000000E-01
  8.50000000E-01  8.50000000E-01  8.50000000E-01  8.50000000E-01  8.50000000E-01
  8.50000000E-01  8.50000000E-01  8.50000000E-01  8.50000000E-01  8.50000000E-01
  8.50000000E-01  8.50000000E-01  8.50000000E-01  8.50000000E-01  8.50000000E-01
  8.50000000E-01  8.50000000E-01  8.50000000E-01  8.50000000E-01  8.50000000E-01
  8.50000000E-01  8.50000000E-01  8.50000000E-01  8.50000000E-01  8.50000000E-01
  8.50000000E-01  8.50000000E-01  8.50000000E-01  8.50000000E-01  8.50000000E-01
  8.50000000E-01  8.50000000E-01  8.50000000E-01  8.50000000E-01  8.50000000E-01
  8.50000000E-01  8.50000000E-01  8.50000000E-01  8.50000000E-01  8.50000000E-01
  8.50000000E-01  8.50000000E-01  8.50000000E-01  8.50000000E-01  8.50000000E-01
  8.50000000E-01  8.50000000E-01  8.50000000E-01  8.50000000E-01  8.50000000E-01
  8.50000000E-01  8.50000000E-01  8.50000000E-01  8.50000000E-01  8.50000000E-01
  8.50000000E-01  8.50000000E-01  8.50000000E-01  8.50000000E-01  8.50000000E-01
  8.50000000E-01  8.50000000E-01  8.50000000E-01  8.50000000E-01  8.50000000E-01
  8.50000000E-01  8.50000000E-01  8.50000000E-01  8.50000000E-01  8.50000000E-01
  8.50000000E-01  8.50000000E-01  8.50000000E-01  8.50000000E-01  8.50000000E-01
  8.50000000E-01  8.50000000E-01  8.50000000E-01  8.50000000E-01  8.50000000E-01
  8.50000000E-01  8.50000000E-01  8.50000000E-01  8.50000000E-01  8.50000000E-01
  8.50000000E-01  8.50000000E-01  8.50000000E-01  8.50000000E-01  8.50000000E-01
  8.50000000E-01  8.50000000E-01  8.50000000E-01  8.50000000E-01  8.50000000E-01
  8.50000000E-01  8.50000000E-01  8.50000000E-01  8.50000000E-01  8.50000000E-01
  8.50000000E-01  8.50000000E-01  8.50000000E-01  8.50000000E-01  8.50000000E-01
  8.50000000E-01  8.50000000E-01  8.50000000E-01  8.50000000E-01  8.50000000E-01
  8.50000000E-01  8.50000000E-01  8.50000000E-01  8.50000000E-01  8.50000000E-01
  8.50000000E-01  8.50000000E-01  8.50000000E-01  8.50000000E-01  8.50000000E-01
  8.50000000E-01  8.50000000E-01  8.50000000E-01  8.50000000E-01  8.50000000E-01
  8.50000000E-01  8.50000000E-01  8.50000000E-01  8.50000000E-01  8.50000000E-01
  8.50000000E-01  8.50000000E-01  8.50000000E-01  8.50000000E-01  8.50000000E-01
  8.50000000E-01  8.50000000E-01  8.50000000E-01  8.50000000E-01  8.50000000E-01
  8.50000000E-01  8.50000000E-01  8.50000000E-01  8.50000000E-01  8.50000000E-01
  8.50000000E-01  8.50000000E-01  8.50000000E-01  8.50000000E-01  8.50000000E-01
  8.50000000E-01  8.50000000E-01  8.50000000E-01  8.50000000E-01  8.50000000E-01
  8.50000000E-01  8.50000000E-01  8.50000000E-01  8.50000000E-01  8.50000000E-01
  8.50000000E-01  8.50000000E-01  8.50000000E-01  8.50000000E-01  8.50000000E-01
  8.50000000E-01  8.50000000E-01  8.50000000E-01  8.50000000E-01  8.50000000E-01
  8.50000000E-01  8.50000000E-01  8.50000000E-01  8.50000000E-01  8.50000000E-01
  8.50000000E-01  8.50000000E-01  8.50000000E-01  8.50000000E-01  8.50000000E-01
  8.50000000E-01  8.50000000E-01  8.50000000E-01  8.50000000E-01  8.50000000E-01
  8.50000000E-01  8.50000000E-01  8.50000000E-01  8.50000000E-01  8.50000000E-01
  8.50000000E-01  8.50000000E-01  8.50000000E-01  8.50000000E-01  8.50000000E-01
  8.50000000E-01  8.50000000E-01  8.50000000E-01  8.50000000E-01  8.50000000E-01
  8.50000000E-01  8.50000000E-01  8.50000000E-01  8.50000000E-01  8.50000000E-01
  8.50000000E-01  8.50000000E-01  8.50000000E-01  8.50000000E-01  8.50000000E-01
  8.50000000E-01  8.50000000E-01  8.50000000E-01  8.50000000E-01  8.50000000E-01
  8.50000000E-01  8.50000000E-01  8.50000000E-01  8.50000000E-01  8.50000000E-01
  8.50000000E-01  8.50000000E-01  8.50000000E-01  8.50000000E-01  8.50000000E-01
  8.50000000E-01  8.50000000E-01  8.50000000E-01  8.50000000E-01  8.50000000E-01
  8.50000000E-01  8.50000000E-01  8.50000000E-01  8.50000000E-01  8.50000000E-01
  8.50000000E-01  8.50000000E-01  8.50000000E-01  8.50000000E-01  8.50000000E-01
  8.50000000E-01  8.50000000E-01  8.50000000E-01  8.50000000E-01  8.50000000E-01
  8.50000000E-01  8.50000000E-01  8.50000000E-01  8.50000000E-01  8.50000000E-01
  8.50000000E-01  8.50000000E-01  8.50000000E-01  8.50000000E-01  8.50000000E-01
  8.50000000E-01  8.50000000E-01  8.50000000E-01  8.50000000E-01  8.50000000E-01
  8.50000000E-01  8.50000000E-01  8.50000000E-01  8.50000000E-01  8.50000000E-01
  8.50000000E-01  8.50000000E-01  8.50000000E-01  8.50000000E-01  8.50000000E-01
  8.50000000E-01  8.50000000E-01  8.50000000E-01  8.50000000E-01  8.50000000E-01
  8.50000000E-01  8.50000000E-01  8.50000000E-01  8.50000000E-01  8.50000000E-01
  8.50000000E-01  8.50000000E-01  8.50000000E-01  8.50000000E-01  8.50000000E-01
  8.50000000E-01  8.50000000E-01  8.50000000E-01  8.50000000E-01  8.50000000E-01
  8.50000000E-01  8.50000000E-01  8.50000000E-01  8.50000000E-01  8.50000000E-01
  8.50000000E-01  8.50000000E-01  8.50000000E-01  8.50000000E-01  8.50000000E-01
  8.50000000E-01  8.50000000E-01  8.50000000E-01  8.50000000E-01  8.50000000E-01
  8.50000000E-01  8.50000000E-01  8.50000000E-01  8.50000000E-01  8.50000000E-01
  8.50000000E-01  8.50000000E-01  8.50000000E-01  8.50000000E-01  8.50000000E-01
  8.50000000E-01  8.50000000E-01  8.50000000E-01  8.50000000E-01  8.50000000E-01
  8.50000000E-01  8.50000000E-01  8.50000000E-01  8.50000000E-01  8.50000000E-01
  8.50000000E-01  8.50000000E-01  8.50000000E-01  8.50000000E-01  8.50000000E-01
  8.50000000E-01  8.50000000E-01  8.50000000E-01  8.50000000E-01  8.50000000E-01
  8.50000000E-01  8.50000000E-01  8.50000000E-01  8.50000000E-01  8.50000000E-01
  8.50000000E-01  8.50000000E-01  8.50000000E-01  8.50000000E-01  8.50000000E-01
  8.50000000E-01  8.50000000E-01  8.50000000E-01  8.50000000E-01  8.50000000E-01
  8.50000000E-01  8.50000000E-01  8.50000000E-01  8.50000000E-01  8.50000000E-01
  8.50000000E-01  8.50000000E-01  8.50000000E-01  8.50000000E-01  8.50000000E-01
  8.50000000E-01  8.50000000E-01  8.50000000E-01  8.50000000E-01  8.50000000E-01
  8.50000000E-01  8.50000000E-01  8.50000000E-01  8.50000000E-01  8.50000000E-01
  8.50000000E-01  8.50000000E-01  8.50000000E-01  8.50000000E-01  8.50000000E-01
  8.50000000E-01  8.50000000E-01  8.50000000E-01  8.50000000E-01  8.50000000E-01
  8.50000000E-01  8.50000000E-01  8.50000000E-01  8.50000000E-01  8.50000000E-01
  8.50000000E-01  8.50000000E-01  8.50000000E-01  8.50000000E-01  8.50000000E-01
  8.50000000E-01  8.50000000E-01  8.50000000E-01  8.50000000E-01  8.50000000E-01
  8.50000000E-01  8.50000000E-01  8.50000000E-01  8.50000000E-01  8.50000000E-01
  8.50000000E-01  8.50000000E-01  8.50000000E-01  8.50000000E-01  8.50000000E-01
  8.50000000E-01  8.50000000E-01  8.50000000E-01  8.50000000E-01  8.50000000E-01
  8.50000000E-01  8.50000000E-01  8.50000000E-01  8.50000000E-01  8.50000000E-01
  8.50000000E-01  8.50000000E-01  8.50000000E-01  8.50000000E-01  8.50000000E-01
  8.50000000E-01  8.50000000E-01  8.50000000E-01  8.50000000E-01  8.50000000E-01
  8.50000000E-01  8.50000000E-01  8.50000000E-01  8.50000000E-01  8.50000000E-01
  8.50000000E-01  8.50000000E-01  8.50000000E-01  8.50000000E-01  8.50000000E-01
  8.50000000E-01  8.50000000E-01  8.50000000E-01  8.50000000E-01  8.50000000E-01
  8.50000000E-01  8.50000000E-01  8.50000000E-01  8.50000000E-01  8.50000000E-01
  8.50000000E-01  8.50000000E-01  8.50000000E-01  8.50000000E-01  8.50000000E-01
  8.50000000E-01  8.50000000E-01  8.50000000E-01  8.50000000E-01  8.50000000E-01
  8.50000000E-01  8.50000000E-01  8.50000000E-01  8.50000000E-01  8.50000000E-01
  8.50000000E-01  8.50000000E-01  8.50000000E-01  8.50000000E-01  8.50000000E-01
  8.50000000E-01  8.50000000E-01  8.50000000E-01  8.50000000E-01  8.50000000E-01
  8.50000000E-01  8.50000000E-01  8.50000000E-01  8.50000000E-01  8.50000000E-01
  8.50000000E-01  8.50000000E-01  8.50000000E-01  8.50000000E-01  8.50000000E-01
  8.50000000E-01  8.50000000E-01  8.50000000E-01  8.50000000E-01  8.50000000E-01
  8.50000000E-01  8.50000000E-01  8.50000000E-01  8.50000000E-01  8.50000000E-01
  8.50000000E-01  8.50000000E-01  8.50000000E-01  8.50000000E-01  8.50000000E-01
  8.50000000E-01  8.50000000E-01  8.50000000E-01  8.50000000E-01  8.50000000E-01
  8.50000000E-01  8.50000000E-01  8.50000000E-01  8.50000000E-01  8.50000000E-01
  8.50000000E-01  8.50000000E-01  8.50000000E-01  8.50000000E-01  8.50000000E-01
  8.50000000E-01  8.50000000E-01  8.50000000E-01  8.50000000E-01  8.50000000E-01
  8.50000000E-01  8.50000000E-01  8.50000000E-01  8.50000000E-01  8.50000000E-01
  8.50000000E-01  8.50000000E-01  8.50000000E-01  8.50000000E-01  8.50000000E-01
  8.50000000E-01  8.50000000E-01  8.50000000E-01  8.50000000E-01  8.50000000E-01
  8.50000000E-01  8.50000000E-01  8.50000000E-01  8.50000000E-01  8.50000000E-01
  8.50000000E-01  8.50000000E-01  8.50000000E-01  8.50000000E-01  8.50000000E-01
  8.50000000E-01  8.50000000E-01  8.50000000E-01  8.50000000E-01  8.50000000E-01
  8.50000000E-01  8.50000000E-01  8.50000000E-01  8.50000000E-01  8.50000000E-01
  8.50000000E-01  8.50000000E-01  8.50000000E-01  8.50000000E-01  8.50000000E-01
  8.50000000E-01  8.50000000E-01  8.50000000E-01  8.50000000E-01  8.50000000E-01
  8.50000000E-01  8.50000000E-01  8.50000000E-01  8.50000000E-01  8.50000000E-01
  8.50000000E-01  8.50000000E-01  8.50000000E-01  8.50000000E-01  8.50000000E-01
  8.50000000E-01  8.50000000E-01  8.50000000E-01  8.50000000E-01  8.50000000E-01
  8.50000000E-01  8.50000000E-01  8.50000000E-01  8.50000000E-01  8.50000000E-01
  8.50000000E-01  8.50000000E-01  8.50000000E-01  8.50000000E-01  8.50000000E-01
  8.50000000E-01  8.50000000E-01  8.50000000E-01  8.50000000E-01  8.50000000E-01
  8.50000000E-01  8.50000000E-01  8.50000000E-01  8.50000000E-01  8.50000000E-01
  8.50000000E-01  8.50000000E-01  8.50000000E-01  8.50000000E-01  8.50000000E-01
  8.50000000E-01  8.50000000E-01  8.50000000E-01  8.50000000E-01  8.50000000E-01
  8.50000000E-01  8.50000000E-01  8.50000000E-01  8.50000000E-01  8.50000000E-01
  8.50000000E-01  8.50000000E-01  8.50000000E-01  8.50000000E-01  8.50000000E-01
  8.50000000E-01  8.50000000E-01  8.50000000E-01  8.50000000E-01  8.50000000E-01
  8.50000000E-01  8.50000000E-01  8.50000000E-01  8.50000000E-01  8.50000000E-01
  8.50000000E-01  8.50000000E-01  8.50000000E-01  8.50000000E-01  8.50000000E-01
  8.50000000E-01  8.50000000E-01  8.50000000E-01  8.50000000E-01  8.50000000E-01
  8.50000000E-01  8.50000000E-01  8.50000000E-01  8.50000000E-01  8.50000000E-01
  8.50000000E-01  8.50000000E-01  8.50000000E-01  8.50000000E-01  8.50000000E-01
  8.50000000E-01  8.50000000E-01  8.50000000E-01  8.50000000E-01  8.50000000E-01
  8.50000000E-01  8.50000000E-01  8.50000000E-01  8.50000000E-01  8.50000000E-01
  8.50000000E-01  8.50000000E-01  8.50000000E-01  8.50000000E-01  8.50000000E-01
  8.50000000E-01  8.50000000E-01  8.50000000E-01  8.50000000E-01  8.50000000E-01
  8.50000000E-01  8.50000000E-01  8.50000000E-01  8.50000000E-01  8.50000000E-01
  8.50000000E-01  8.50000000E-01  8.50000000E-01  8.50000000E-01  8.50000000E-01
  8.50000000E-01  8.50000000E-01  8.50000000E-01  8.50000000E-01  8.50000000E-01
  8.50000000E-01  8.50000000E-01  8.50000000E-01  8.50000000E-01  8.50000000E-01
  8.50000000E-01  8.50000000E-01  8.50000000E-01  8.50000000E-01  8.50000000E-01
  8.50000000E-01  8.50000000E-01  8.50000000E-01  8.50000000E-01  8.50000000E-01
  8.50000000E-01  8.50000000E-01  8.50000000E-01  8.50000000E-01  8.50000000E-01
  8.50000000E-01  8.50000000E-01  8.50000000E-01  8.50000000E-01  8.50000000E-01
  8.50000000E-01  8.50000000E-01  8.50000000E-01  8.50000000E-01  8.50000000E-01
  8.50000000E-01  8.50000000E-01  8.50000000E-01  8.50000000E-01  8.50000000E-01
  8.50000000E-01  8.50000000E-01  8.50000000E-01  8.50000000E-01  8.50000000E-01
  8.50000000E-01  8.50000000E-01  8.50000000E-01  8.50000000E-01  8.50000000E-01
  8.50000000E-01  8.50000000E-01  8.50000000E-01  8.50000000E-01  8.50000000E-01
  8.50000000E-01  8.50000000E-01  8.50000000E-01  8.50000000E-01  8.50000000E-01
  8.50000000E-01  8.50000000E-01  8.50000000E-01  8.50000000E-01  8.50000000E-01
  8.50000000E-01  8.50000000E-01  8.50000000E-01  8.50000000E-01  8.50000000E-01
  8.50000000E-01  8.50000000E-01  8.50000000E-01  8.50000000E-01  8.50000000E-01
  8.50000000E-01  8.50000000E-01  8.50000000E-01  8.50000000E-01  8.50000000E-01
  8.50000000E-01  8.50000000E-01  8.50000000E-01  8.50000000E-01  8.50000000E-01
  8.50000000E-01  8.50000000E-01  8.50000000E-01  8.50000000E-01  8.50000000E-01
  8.50000000E-01  8.50000000E-01  8.50000000E-01  8.50000000E-01  8.50000000E-01
  8.50000000E-01  8.50000000E-01  8.50000000E-01  8.50000000E-01  8.50000000E-01
  8.50000000E-01  8.50000000E-01  8.50000000E-01  8.50000000E-01  8.50000000E-01
  8.50000000E-01  8.50000000E-01  8.50000000E-01  8.50000000E-01  8.50000000E-01
  8.50000000E-01  8.50000000E-01  8.50000000E-01  8.50000000E-01  8.50000000E-01
  8.50000000E-01  8.50000000E-01  8.50000000E-01  8.50000000E-01  8.50000000E-01
  8.50000000E-01  8.50000000E-01  8.50000000E-01  8.50000000E-01  8.50000000E-01
  8.50000000E-01  8.50000000E-01  8.50000000E-01  8.50000000E-01  8.50000000E-01
  8.50000000E-01  8.50000000E-01  8.50000000E-01  8.50000000E-01  8.50000000E-01
  8.50000000E-01  8.50000000E-01  8.50000000E-01  8.50000000E-01  8.50000000E-01
  8.50000000E-01  8.50000000E-01  8.50000000E-01  8.50000000E-01  8.50000000E-01
  8.50000000E-01  8.50000000E-01  8.50000000E-01  8.50000000E-01  8.50000000E-01
  8.50000000E-01  8.50000000E-01  8.50000000E-01  8.50000000E-01  8.50000000E-01
  8.50000000E-01  8.50000000E-01  8.50000000E-01  8.50000000E-01  8.50000000E-01
  8.50000000E-01  8.50000000E-01  8.50000000E-01  8.50000000E-01  8.50000000E-01
  8.50000000E-01  8.50000000E-01  8.50000000E-01  8.50000000E-01  8.50000000E-01
  8.50000000E-01  8.50000000E-01  8.50000000E-01  8.50000000E-01  8.50000000E-01
  8.50000000E-01  8.50000000E-01  8.50000000E-01  8.50000000E-01  8.50000000E-01
  8.50000000E-01  8.50000000E-01  8.50000000E-01  8.50000000E-01  8.50000000E-01
  8.50000000E-01  8.50000000E-01  8.50000000E-01  8.50000000E-01  8.50000000E-01
  8.50000000E-01  8.50000000E-01  8.50000000E-01  8.50000000E-01  8.50000000E-01
  8.50000000E-01  8.50000000E-01  8.50000000E-01  8.50000000E-01  8.50000000E-01
  8.50000000E-01  8.50000000E-01  8.50000000E-01  8.50000000E-01  8.50000000E-01
  8.50000000E-01  8.50000000E-01  8.50000000E-01  8.50000000E-01  8.50000000E-01
  8.50000000E-01  8.50000000E-01  8.50000000E-01  8.50000000E-01  8.50000000E-01
  8.50000000E-01  8.50000000E-01  8.50000000E-01  8.50000000E-01  8.50000000E-01
  8.50000000E-01  8.50000000E-01  8.50000000E-01  8.50000000E-01  8.50000000E-01
  8.50000000E-01  8.50000000E-01  8.50000000E-01  8.50000000E-01  8.50000000E-01
  8.50000000E-01  8.50000000E-01  8.50000000E-01  8.50000000E-01  8.50000000E-01
  8.50000000E-01  8.50000000E-01  8.50000000E-01  8.50000000E-01  8.50000000E-01
  8.50000000E-01  8.50000000E-01  8.50000000E-01  8.50000000E-01  8.50000000E-01
  8.50000000E-01  8.50000000E-01  8.50000000E-01  8.50000000E-01  8.50000000E-01
  8.50000000E-01  8.50000000E-01  8.50000000E-01  8.50000000E-01  8.50000000E-01
  8.50000000E-01  8.50000000E-01  8.50000000E-01  8.50000000E-01  8.50000000E-01
  8.50000000E-01  8.50000000E-01  8.50000000E-01  8.50000000E-01  8.50000000E-01
  8.50000000E-01  8.50000000E-01  8.50000000E-01  8.50000000E-01  8.50000000E-01
  8.50000000E-01  8.50000000E-01  8.50000000E-01  8.50000000E-01  8.50000000E-01
  8.50000000E-01  8.50000000E-01  8.50000000E-01  8.50000000E-01  8.50000000E-01
  8.50000000E-01  8.50000000E-01  8.50000000E-01  8.50000000E-01  8.50000000E-01
  8.50000000E-01  8.50000000E-01  8.50000000E-01  8.50000000E-01  8.50000000E-01
  8.50000000E-01  8.50000000E-01  8.50000000E-01  8.50000000E-01  8.50000000E-01
  8.50000000E-01  8.50000000E-01  8.50000000E-01  8.50000000E-01  8.50000000E-01
  8.50000000E-01  8.50000000E-01  8.50000000E-01  8.50000000E-01  8.50000000E-01
  8.50000000E-01  8.50000000E-01  8.50000000E-01  8.50000000E-01  8.50000000E-01
  8.50000000E-01  8.50000000E-01  8.50000000E-01  8.50000000E-01  8.50000000E-01
  8.50000000E-01  8.50000000E-01  8.50000000E-01  8.50000000E-01  8.50000000E-01
  8.50000000E-01  8.50000000E-01  8.50000000E-01  8.50000000E-01  8.50000000E-01
  8.50000000E-01  8.50000000E-01  8.50000000E-01  8.50000000E-01  8.50000000E-01
  8.50000000E-01  8.50000000E-01  8.50000000E-01  8.50000000E-01  8.50000000E-01
  8.50000000E-01  8.50000000E-01  8.50000000E-01  8.50000000E-01  8.50000000E-01
  8.50000000E-01  8.50000000E-01  8.50000000E-01  8.50000000E-01  8.50000000E-01
  8.50000000E-01  8.50000000E-01  8.50000000E-01  8.50000000E-01  8.50000000E-01
  8.50000000E-01  8.50000000E-01  8.50000000E-01  8.50000000E-01  8.50000000E-01
  8.50000000E-01  8.50000000E-01  8.50000000E-01  8.50000000E-01  8.50000000E-01
  8.50000000E-01  8.50000000E-01  8.50000000E-01  8.50000000E-01  8.50000000E-01
  8.50000000E-01  8.50000000E-01  8.50000000E-01  8.50000000E-01  8.50000000E-01
  8.50000000E-01  8.50000000E-01  8.50000000E-01  8.50000000E-01  8.50000000E-01
  8.50000000E-01  8.50000000E-01  8.50000000E-01  8.50000000E-01  8.50000000E-01
  8.50000000E-01  8.50000000E-01  8.50000000E-01  8.50000000E-01  8.50000000E-01
  8.50000000E-01  8.50000000E-01  8.50000000E-01  8.50000000E-01  8.50000000E-01
  8.50000000E-01  8.50000000E-01  8.50000000E-01  8.50000000E-01  8.50000000E-01
  8.50000000E-01  8.50000000E-01  8.50000000E-01  8.50000000E-01  8.50000000E-01
  8.50000000E-01  8.50000000E-01  8.50000000E-01  8.50000000E-01  8.50000000E-01
  8.50000000E-01  8.50000000E-01  8.50000000E-01  8.50000000E-01  8.50000000E-01
  8.50000000E-01  8.50000000E-01  8.50000000E-01  8.50000000E-01  8.50000000E-01
  8.50000000E-01  8.50000000E-01  8.50000000E-01  8.50000000E-01  8.50000000E-01
  8.50000000E-01  8.50000000E-01  8.50000000E-01  8.50000000E-01  8.50000000E-01
  8.50000000E-01  8.50000000E-01  8.50000000E-01  8.50000000E-01  8.50000000E-01
  8.50000000E-01  8.50000000E-01  8.50000000E-01  8.50000000E-01  8.50000000E-01
  8.50000000E-01  8.50000000E-01  8.50000000E-01  8.50000000E-01  8.50000000E-01
  8.50000000E-01  8.50000000E-01  8.50000000E-01  8.50000000E-01  8.50000000E-01
  8.50000000E-01  8.50000000E-01  8.50000000E-01  8.50000000E-01  8.50000000E-01
  8.50000000E-01  8.50000000E-01  8.50000000E-01  8.50000000E-01  8.50000000E-01
  8.50000000E-01  8.50000000E-01  8.50000000E-01  8.50000000E-01  8.50000000E-01
  8.50000000E-01  8.50000000E-01  8.50000000E-01  8.50000000E-01  8.50000000E-01
  8.50000000E-01  8.50000000E-01  8.50000000E-01  8.50000000E-01  8.50000000E-01
  8.50000000E-01  8.50000000E-01  8.50000000E-01  8.50000000E-01  8.50000000E-01
  8.50000000E-01  8.50000000E-01  8.50000000E-01  8.50000000E-01  8.50000000E-01
  8.50000000E-01  8.50000000E-01  8.50000000E-01  8.50000000E-01  8.50000000E-01
  8.50000000E-01  8.50000000E-01  8.50000000E-01  8.50000000E-01  8.50000000E-01
  8.50000000E-01  8.50000000E-01  8.50000000E-01  8.50000000E-01  8.50000000E-01
  8.50000000E-01  8.50000000E-01  8.50000000E-01  8.50000000E-01  8.50000000E-01
  8.50000000E-01  8.50000000E-01  8.50000000E-01  8.50000000E-01  8.50000000E-01
  8.50000000E-01  8.50000000E-01  8.50000000E-01  8.50000000E-01  8.50000000E-01
  8.50000000E-01  8.50000000E-01  8.50000000E-01  8.50000000E-01  8.50000000E-01
  8.50000000E-01  8.50000000E-01  8.50000000E-01  8.50000000E-01  8.50000000E-01
  8.50000000E-01  8.50000000E-01  8.50000000E-01  8.50000000E-01  8.50000000E-01
  8.50000000E-01  8.50000000E-01  8.50000000E-01  8.50000000E-01  8.50000000E-01
  8.50000000E-01  8.50000000E-01  8.50000000E-01  8.50000000E-01  8.50000000E-01
  8.50000000E-01  8.50000000E-01  8.50000000E-01  8.50000000E-01  8.50000000E-01
  8.50000000E-01  8.50000000E-01  8.50000000E-01  8.50000000E-01  8.50000000E-01
  8.50000000E-01  8.50000000E-01  8.50000000E-01  8.50000000E-01  8.50000000E-01
  8.50000000E-01  8.50000000E-01  8.50000000E-01  8.50000000E-01  8.50000000E-01
  8.50000000E-01  8.50000000E-01  8.50000000E-01  8.50000000E-01  8.50000000E-01
  8.50000000E-01  8.50000000E-01  8.50000000E-01  8.50000000E-01  8.50000000E-01
  8.50000000E-01  8.50000000E-01  8.50000000E-01  8.50000000E-01  8.50000000E-01
  8.50000000E-01  8.50000000E-01  8.50000000E-01  8.50000000E-01  8.50000000E-01
  8.50000000E-01  8.50000000E-01  8.50000000E-01  8.50000000E-01  8.50000000E-01
  8.50000000E-01  8.50000000E-01  8.50000000E-01  8.50000000E-01  8.50000000E-01
  8.50000000E-01  8.50000000E-01  8.50000000E-01  8.50000000E-01  8.50000000E-01
  8.50000000E-01  8.50000000E-01  8.50000000E-01  8.50000000E-01  8.50000000E-01
  8.50000000E-01  8.50000000E-01  8.50000000E-01  8.50000000E-01  8.50000000E-01
  8.50000000E-01  8.50000000E-01  8.50000000E-01  8.50000000E-01  8.50000000E-01
  8.50000000E-01  8.50000000E-01  8.50000000E-01  8.50000000E-01  8.50000000E-01
  8.50000000E-01  8.50000000E-01  8.50000000E-01  8.50000000E-01  8.50000000E-01
  8.50000000E-01  8.50000000E-01  8.50000000E-01  8.50000000E-01  8.50000000E-01
  8.50000000E-01  8.50000000E-01  8.50000000E-01  8.50000000E-01  8.50000000E-01
  8.50000000E-01  8.50000000E-01  8.50000000E-01  8.50000000E-01  8.50000000E-01
  8.50000000E-01  8.50000000E-01  8.50000000E-01  8.50000000E-01  8.50000000E-01
  8.50000000E-01  8.50000000E-01  8.50000000E-01  8.50000000E-01  8.50000000E-01
  8.50000000E-01  8.50000000E-01  8.50000000E-01  8.50000000E-01  8.50000000E-01
  8.50000000E-01  8.50000000E-01  8.50000000E-01  8.50000000E-01  8.50000000E-01
  8.50000000E-01  8.50000000E-01  8.50000000E-01  8.50000000E-01  8.50000000E-01
  8.50000000E-01  8.50000000E-01  8.50000000E-01  8.50000000E-01  8.50000000E-01
  8.50000000E-01  8.50000000E-01  8.50000000E-01  8.50000000E-01  8.50000000E-01
  8.50000000E-01  8.50000000E-01  8.50000000E-01  8.50000000E-01  8.50000000E-01
  8.50000000E-01  8.50000000E-01  8.50000000E-01  8.50000000E-01  8.50000000E-01
  8.50000000E-01  8.50000000E-01  8.50000000E-01  8.50000000E-01  8.50000000E-01
  8.50000000E-01  8.50000000E-01  8.50000000E-01  8.50000000E-01  8.50000000E-01
  8.50000000E-01  8.50000000E-01  8.50000000E-01  8.50000000E-01  8.50000000E-01
  8.50000000E-01  8.50000000E-01  8.50000000E-01  8.50000000E-01  8.50000000E-01
  8.50000000E-01  8.50000000E-01  8.50000000E-01  8.50000000E-01  8.50000000E-01
  8.50000000E-01  8.50000000E-01  8.50000000E-01  8.50000000E-01  8.50000000E-01
  8.50000000E-01  8.50000000E-01  8.50000000E-01  8.50000000E-01  8.50000000E-01
  8.50000000E-01  8.50000000E-01  8.50000000E-01  8.50000000E-01  8.50000000E-01
  8.50000000E-01  8.50000000E-01  8.50000000E-01  8.50000000E-01  8.50000000E-01
  8.50000000E-01  8.50000000E-01  8.50000000E-01  8.50000000E-01  8.50000000E-01
  8.50000000E-01  8.50000000E-01  8.50000000E-01  8.50000000E-01  8.50000000E-01
  8.50000000E-01  8.50000000E-01  8.50000000E-01  8.50000000E-01  8.50000000E-01
  8.50000000E-01  8.50000000E-01  8.50000000E-01  8.50000000E-01  8.50000000E-01
  8.50000000E-01  8.50000000E-01  8.50000000E-01  8.50000000E-01  8.50000000E-01
  8.50000000E-01  8.50000000E-01  8.50000000E-01  8.50000000E-01  8.50000000E-01
  8.50000000E-01  8.50000000E-01  8.50000000E-01  8.50000000E-01  8.50000000E-01
  8.50000000E-01  8.50000000E-01  8.50000000E-01  8.50000000E-01  8.50000000E-01
  8.50000000E-01  8.50000000E-01  8.50000000E-01  8.50000000E-01  8.50000000E-01
  8.50000000E-01  8.50000000E-01  8.50000000E-01  8.50000000E-01  8.50000000E-01
  8.50000000E-01  8.50000000E-01  8.50000000E-01  8.50000000E-01  8.50000000E-01
  8.50000000E-01  8.50000000E-01  8.50000000E-01  8.50000000E-01  8.50000000E-01
  8.50000000E-01  8.50000000E-01  8.50000000E-01  8.50000000E-01  8.50000000E-01
  8.50000000E-01  8.50000000E-01  8.50000000E-01  8.50000000E-01  8.50000000E-01
  8.50000000E-01  8.50000000E-01  8.50000000E-01  8.50000000E-01  8.50000000E-01
  8.50000000E-01  8.50000000E-01  8.50000000E-01  8.50000000E-01  8.50000000E-01
  8.50000000E-01  8.50000000E-01  8.50000000E-01  8.50000000E-01  8.50000000E-01
  8.50000000E-01  8.50000000E-01  8.50000000E-01  8.50000000E-01  8.50000000E-01
  8.50000000E-01  8.50000000E-01  8.50000000E-01  8.50000000E-01  8.50000000E-01
  8.50000000E-01  8.50000000E-01  8.50000000E-01  8.50000000E-01  8.50000000E-01
  8.50000000E-01  8.50000000E-01  8.50000000E-01  8.50000000E-01  8.50000000E-01
  8.50000000E-01  8.50000000E-01  8.50000000E-01  8.50000000E-01  8.50000000E-01
  8.50000000E-01  8.50000000E-01  8.50000000E-01  8.50000000E-01  8.50000000E-01
  8.50000000E-01  8.50000000E-01  8.50000000E-01  8.50000000E-01  8.50000000E-01
  8.50000000E-01  8.50000000E-01  8.50000000E-01  8.50000000E-01  8.50000000E-01
  8.50000000E-01  8.50000000E-01  8.50000000E-01  8.50000000E-01  8.50000000E-01
  8.50000000E-01  8.50000000E-01  8.50000000E-01  8.50000000E-01  8.50000000E-01
  8.50000000E-01  8.50000000E-01  8.50000000E-01  8.50000000E-01  8.50000000E-01
  8.50000000E-01  8.50000000E-01  8.50000000E-01  8.50000000E-01  8.50000000E-01
  8.50000000E-01  8.50000000E-01  8.50000000E-01  8.50000000E-01  8.50000000E-01
  8.50000000E-01  8.50000000E-01  8.50000000E-01  8.50000000E-01  8.50000000E-01
  8.50000000E-01  8.50000000E-01  8.50000000E-01  8.50000000E-01  8.50000000E-01
  8.50000000E-01  8.50000000E-01  8.50000000E-01  8.50000000E-01  8.50000000E-01
  8.50000000E-01  8.50000000E-01  8.50000000E-01  8.50000000E-01  8.50000000E-01
  8.50000000E-01  8.50000000E-01  8.50000000E-01  8.50000000E-01  8.50000000E-01
  8.50000000E-01  8.50000000E-01  8.50000000E-01  8.50000000E-01  8.50000000E-01
  8.50000000E-01  8.50000000E-01  8.50000000E-01  8.50000000E-01  8.50000000E-01
  8.50000000E-01  8.50000000E-01  8.50000000E-01  8.50000000E-01  8.50000000E-01
  8.50000000E-01  8.50000000E-01  8.50000000E-01  8.50000000E-01  8.50000000E-01
  8.50000000E-01  8.50000000E-01  8.50000000E-01  8.50000000E-01  8.50000000E-01
  8.50000000E-01  8.50000000E-01  8.50000000E-01  8.50000000E-01  8.50000000E-01
  8.50000000E-01  8.50000000E-01  8.50000000E-01  8.50000000E-01  8.50000000E-01
  8.50000000E-01  8.50000000E-01  8.50000000E-01  8.50000000E-01  8.50000000E-01
  8.50000000E-01  8.50000000E-01  8.50000000E-01  8.50000000E-01  8.50000000E-01
  8.50000000E-01  8.50000000E-01  8.50000000E-01  8.50000000E-01  8.50000000E-01
  8.50000000E-01  8.50000000E-01  8.50000000E-01  8.50000000E-01  8.50000000E-01
  8.50000000E-01  8.50000000E-01  8.50000000E-01  8.50000000E-01  8.50000000E-01
  8.50000000E-01  8.50000000E-01  8.50000000E-01  8.50000000E-01  8.50000000E-01
  8.50000000E-01  8.50000000E-01  8.50000000E-01  8.50000000E-01  8.50000000E-01
  8.50000000E-01  8.50000000E-01  8.50000000E-01  8.50000000E-01  8.50000000E-01
  8.50000000E-01  8.50000000E-01  8.50000000E-01  8.50000000E-01  8.50000000E-01
  8.50000000E-01  8.50000000E-01  8.50000000E-01  8.50000000E-01  8.50000000E-01
  8.50000000E-01  8.50000000E-01  8.50000000E-01  8.50000000E-01  8.50000000E-01
  8.50000000E-01  8.50000000E-01  8.50000000E-01  8.50000000E-01  8.50000000E-01
  8.50000000E-01  8.50000000E-01  8.50000000E-01  8.50000000E-01  8.50000000E-01
  8.50000000E-01  8.50000000E-01  8.50000000E-01  8.50000000E-01  8.50000000E-01
  8.50000000E-01  8.50000000E-01  8.50000000E-01  8.50000000E-01  8.50000000E-01
  8.50000000E-01  8.50000000E-01  8.50000000E-01  8.50000000E-01  8.50000000E-01
  8.50000000E-01  8.50000000E-01  8.50000000E-01  8.50000000E-01  8.50000000E-01
  8.50000000E-01  8.50000000E-01  8.50000000E-01  8.50000000E-01  8.50000000E-01
  8.50000000E-01  8.50000000E-01  8.50000000E-01  8.50000000E-01  8.50000000E-01
  8.50000000E-01  8.50000000E-01  8.50000000E-01  8.50000000E-01  8.50000000E-01
  8.50000000E-01  8.50000000E-01  8.50000000E-01  8.50000000E-01  8.50000000E-01
  8.50000000E-01  8.50000000E-01  8.50000000E-01  8.50000000E-01  8.50000000E-01
  8.50000000E-01  8.50000000E-01  8.50000000E-01  8.50000000E-01  8.50000000E-01
  8.50000000E-01  8.50000000E-01  8.50000000E-01  8.50000000E-01  8.50000000E-01
  8.50000000E-01  8.50000000E-01  8.50000000E-01  8.50000000E-01  8.50000000E-01
  8.50000000E-01  8.50000000E-01  8.50000000E-01  8.50000000E-01  8.50000000E-01
  8.50000000E-01  8.50000000E-01  8.50000000E-01  8.50000000E-01  8.50000000E-01
  8.50000000E-01  8.50000000E-01  8.50000000E-01  8.50000000E-01  8.50000000E-01
  8.50000000E-01  8.50000000E-01  8.50000000E-01  8.50000000E-01  8.50000000E-01
  8.50000000E-01  8.50000000E-01  8.50000000E-01  8.50000000E-01  8.50000000E-01
  8.50000000E-01  8.50000000E-01  8.50000000E-01  8.50000000E-01  8.50000000E-01
  8.50000000E-01  8.50000000E-01  8.50000000E-01  8.50000000E-01  8.50000000E-01
  8.50000000E-01  8.50000000E-01  8.50000000E-01  8.50000000E-01  8.50000000E-01
  8.50000000E-01  8.50000000E-01  8.50000000E-01  8.50000000E-01  8.50000000E-01
  8.50000000E-01  8.50000000E-01  8.50000000E-01  8.50000000E-01  8.50000000E-01
  8.50000000E-01  8.50000000E-01  8.50000000E-01  8.50000000E-01  8.50000000E-01
  8.50000000E-01  8.50000000E-01  8.50000000E-01  8.50000000E-01  8.50000000E-01
  8.50000000E-01  8.50000000E-01  8.50000000E-01  8.50000000E-01  8.50000000E-01
  8.50000000E-01  8.50000000E-01  8.50000000E-01  8.50000000E-01  8.50000000E-01
  8.50000000E-01  8.50000000E-01  8.50000000E-01  8.50000000E-01  8.50000000E-01
  8.50000000E-01  8.50000000E-01  8.50000000E-01  8.50000000E-01  8.50000000E-01
  8.50000000E-01  8.50000000E-01  8.50000000E-01  8.50000000E-01  8.50000000E-01
  8.50000000E-01  8.50000000E-01  8.50000000E-01  8.50000000E-01  8.50000000E-01
  8.50000000E-01  8.50000000E-01  8.50000000E-01  8.50000000E-01  8.50000000E-01
  8.50000000E-01  8.50000000E-01  8.50000000E-01  8.50000000E-01  8.50000000E-01
  8.50000000E-01  8.50000000E-01  8.50000000E-01  8.50000000E-01  8.50000000E-01
  8.50000000E-01  8.50000000E-01  8.50000000E-01  8.50000000E-01  8.50000000E-01
  8.50000000E-01  8.50000000E-01  8.50000000E-01  8.50000000E-01  8.50000000E-01
  8.50000000E-01  8.50000000E-01  8.50000000E-01  8.50000000E-01  8.50000000E-01
  8.50000000E-01  8.50000000E-01  8.50000000E-01  8.50000000E-01  8.50000000E-01
  8.50000000E-01  8.50000000E-01  8.50000000E-01  8.50000000E-01  8.50000000E-01
  8.50000000E-01  8.50000000E-01  8.50000000E-01  8.50000000E-01  8.50000000E-01
  8.50000000E-01  8.50000000E-01  8.50000000E-01  8.50000000E-01  8.50000000E-01
  8.50000000E-01  8.50000000E-01  8.50000000E-01  8.50000000E-01  8.50000000E-01
  8.50000000E-01  8.50000000E-01  8.50000000E-01  8.50000000E-01  8.50000000E-01
  8.50000000E-01  8.50000000E-01  8.50000000E-01  8.50000000E-01  8.50000000E-01
  8.50000000E-01  8.50000000E-01  8.50000000E-01  8.50000000E-01  8.50000000E-01
  8.50000000E-01  8.50000000E-01  8.50000000E-01  8.50000000E-01  8.50000000E-01
  8.50000000E-01  8.50000000E-01  8.50000000E-01  8.50000000E-01  8.50000000E-01
  8.50000000E-01  8.50000000E-01  8.50000000E-01  8.50000000E-01  8.50000000E-01
  8.50000000E-01  8.50000000E-01  8.50000000E-01  8.50000000E-01  8.50000000E-01
  8.50000000E-01  8.50000000E-01  8.50000000E-01  8.50000000E-01  8.50000000E-01
  8.50000000E-01  8.50000000E-01  8.50000000E-01  8.50000000E-01  8.50000000E-01
  8.50000000E-01  8.50000000E-01  8.50000000E-01  8.50000000E-01  8.50000000E-01
  8.50000000E-01  8.50000000E-01  8.50000000E-01  8.50000000E-01  8.50000000E-01
  8.50000000E-01  8.50000000E-01  8.50000000E-01  8.50000000E-01  8.50000000E-01
  8.50000000E-01  8.50000000E-01  8.50000000E-01  8.50000000E-01  8.50000000E-01
  8.50000000E-01  8.50000000E-01  8.50000000E-01  8.50000000E-01  8.50000000E-01
  8.50000000E-01  8.50000000E-01  8.50000000E-01  8.50000000E-01  8.50000000E-01
  8.50000000E-01  8.50000000E-01  8.50000000E-01  8.50000000E-01  8.50000000E-01
  8.50000000E-01  8.50000000E-01  8.50000000E-01  8.50000000E-01  8.50000000E-01
  8.50000000E-01  8.50000000E-01  8.50000000E-01  8.50000000E-01  8.50000000E-01
  8.50000000E-01  8.50000000E-01  8.50000000E-01  8.50000000E-01  8.50000000E-01
  8.50000000E-01  8.50000000E-01  8.50000000E-01  8.50000000E-01  8.50000000E-01
  8.50000000E-01  8.50000000E-01  8.50000000E-01  8.50000000E-01  8.50000000E-01
  8.50000000E-01  8.50000000E-01  8.50000000E-01  8.50000000E-01  8.50000000E-01
  8.50000000E-01  8.50000000E-01  8.50000000E-01  8.50000000E-01  8.50000000E-01
  8.50000000E-01  8.50000000E-01  8.50000000E-01  8.50000000E-01  8.50000000E-01
  8.50000000E-01  8.50000000E-01  8.50000000E-01  8.50000000E-01  8.50000000E-01
  8.50000000E-01  8.50000000E-01  8.50000000E-01  8.50000000E-01  8.50000000E-01
  8.50000000E-01  8.50000000E-01  8.50000000E-01  8.50000000E-01  8.50000000E-01
  8.50000000E-01  8.50000000E-01  8.50000000E-01  8.50000000E-01  8.50000000E-01
  8.50000000E-01  8.50000000E-01  8.50000000E-01  8.50000000E-01  8.50000000E-01
  8.50000000E-01  8.50000000E-01  8.50000000E-01  8.50000000E-01  8.50000000E-01
  8.50000000E-01  8.50000000E-01  8.50000000E-01  8.50000000E-01  8.50000000E-01
  8.50000000E-01  8.50000000E-01  8.50000000E-01  8.50000000E-01  8.50000000E-01
  8.50000000E-01  8.50000000E-01  8.50000000E-01  8.50000000E-01  8.50000000E-01
  8.50000000E-01  8.50000000E-01  8.50000000E-01  8.50000000E-01  8.50000000E-01
  8.50000000E-01  8.50000000E-01  8.50000000E-01  8.50000000E-01  8.50000000E-01
  8.50000000E-01  8.50000000E-01  8.50000000E-01  8.50000000E-01  8.50000000E-01
  8.50000000E-01  8.50000000E-01  8.50000000E-01  8.50000000E-01  8.50000000E-01
  8.50000000E-01  8.50000000E-01  8.50000000E-01  8.50000000E-01  8.50000000E-01
  8.50000000E-01  8.50000000E-01  8.50000000E-01  8.50000000E-01  8.50000000E-01
  8.50000000E-01  8.50000000E-01  8.50000000E-01  8.50000000E-01  8.50000000E-01
  8.50000000E-01  8.50000000E-01  8.50000000E-01  8.50000000E-01  8.50000000E-01
  8.50000000E-01  8.50000000E-01  8.50000000E-01  8.50000000E-01  8.50000000E-01
  8.50000000E-01  8.50000000E-01  8.50000000E-01  8.50000000E-01  8.50000000E-01
  8.50000000E-01  8.50000000E-01  8.50000000E-01  8.50000000E-01  8.50000000E-01
  8.50000000E-01  8.50000000E-01  8.50000000E-01  8.50000000E-01  8.50000000E-01
  8.50000000E-01  8.50000000E-01  8.50000000E-01  8.50000000E-01  8.50000000E-01
  8.50000000E-01  8.50000000E-01  8.50000000E-01  8.50000000E-01  8.50000000E-01
  8.50000000E-01  8.50000000E-01  8.50000000E-01  8.50000000E-01  8.50000000E-01
  8.50000000E-01  8.50000000E-01  8.50000000E-01  8.50000000E-01  8.50000000E-01
  8.50000000E-01  8.50000000E-01  8.50000000E-01  8.50000000E-01  8.50000000E-01
  8.50000000E-01  8.50000000E-01  8.50000000E-01  8.50000000E-01  8.50000000E-01
  8.50000000E-01  8.50000000E-01  8.50000000E-01  8.50000000E-01  8.50000000E-01
  8.50000000E-01  8.50000000E-01  8.50000000E-01  8.50000000E-01  8.50000000E-01
  8.50000000E-01  8.50000000E-01  8.50000000E-01  8.50000000E-01  8.50000000E-01
  8.50000000E-01  8.50000000E-01  8.50000000E-01  8.50000000E-01  8.50000000E-01
  8.50000000E-01  8.50000000E-01  8.50000000E-01  8.50000000E-01  8.50000000E-01
  8.50000000E-01  8.50000000E-01  8.50000000E-01  8.50000000E-01  8.50000000E-01
  8.50000000E-01  8.50000000E-01  8.50000000E-01  8.50000000E-01  8.50000000E-01
  8.50000000E-01  8.50000000E-01  8.50000000E-01  8.50000000E-01  8.50000000E-01
  8.50000000E-01  8.50000000E-01  8.50000000E-01  8.50000000E-01  8.50000000E-01
  8.50000000E-01  8.50000000E-01  8.50000000E-01  8.50000000E-01  8.50000000E-01
  8.50000000E-01  8.50000000E-01  8.50000000E-01  8.50000000E-01  8.50000000E-01
  8.50000000E-01  8.50000000E-01  8.50000000E-01  8.50000000E-01  8.50000000E-01
  8.50000000E-01  8.50000000E-01  8.50000000E-01  8.50000000E-01  8.50000000E-01
  8.50000000E-01  8.50000000E-01  8.50000000E-01  8.50000000E-01  8.50000000E-01
  8.50000000E-01  8.50000000E-01  8.50000000E-01  8.50000000E-01  8.50000000E-01
  8.50000000E-01  8.50000000E-01  8.50000000E-01  8.50000000E-01  8.50000000E-01
  8.50000000E-01  8.50000000E-01  8.50000000E-01  8.50000000E-01  8.50000000E-01
  8.50000000E-01  8.50000000E-01  8.50000000E-01  8.50000000E-01  8.50000000E-01
  8.50000000E-01  8.50000000E-01  8.50000000E-01  8.50000000E-01  8.50000000E-01
  8.50000000E-01  8.50000000E-01  8.50000000E-01  8.50000000E-01  8.50000000E-01
  8.50000000E-01  8.50000000E-01  8.50000000E-01  8.50000000E-01  8.50000000E-01
  8.50000000E-01  8.50000000E-01  8.50000000E-01  8.50000000E-01  8.50000000E-01
  8.50000000E-01  8.50000000E-01  8.50000000E-01  8.50000000E-01  8.50000000E-01
  8.50000000E-01  8.50000000E-01  8.50000000E-01  8.50000000E-01  8.50000000E-01
  8.50000000E-01  8.50000000E-01  8.50000000E-01  8.50000000E-01  8.50000000E-01
  8.50000000E-01  8.50000000E-01  8.50000000E-01  8.50000000E-01  8.50000000E-01
  8.50000000E-01  8.50000000E-01  8.50000000E-01  8.50000000E-01  8.50000000E-01
  8.50000000E-01  8.50000000E-01  8.50000000E-01  8.50000000E-01  8.50000000E-01
  8.50000000E-01  8.50000000E-01  8.50000000E-01  8.50000000E-01  8.50000000E-01
  8.50000000E-01  8.50000000E-01  8.50000000E-01  8.50000000E-01  8.50000000E-01
  8.50000000E-01  8.50000000E-01  8.50000000E-01  8.50000000E-01  8.50000000E-01
  8.50000000E-01  8.50000000E-01  8.50000000E-01  8.50000000E-01  8.50000000E-01
  8.50000000E-01  8.50000000E-01  8.50000000E-01  8.50000000E-01  8.50000000E-01
  8.50000000E-01  8.50000000E-01  8.50000000E-01  8.50000000E-01  8.50000000E-01
  8.50000000E-01  8.50000000E-01  8.50000000E-01  8.50000000E-01  8.50000000E-01
  8.50000000E-01  8.50000000E-01  8.50000000E-01  8.50000000E-01  8.50000000E-01
  8.50000000E-01  8.50000000E-01  8.50000000E-01  8.50000000E-01  8.50000000E-01
  8.50000000E-01  8.50000000E-01  8.50000000E-01  8.50000000E-01  8.50000000E-01
  8.50000000E-01  8.50000000E-01  8.50000000E-01  8.50000000E-01  8.50000000E-01
  8.50000000E-01  8.50000000E-01  8.50000000E-01  8.50000000E-01  8.50000000E-01
  8.50000000E-01  8.50000000E-01  8.50000000E-01  8.50000000E-01  8.50000000E-01
  8.50000000E-01  8.50000000E-01  8.50000000E-01  8.50000000E-01  8.50000000E-01
  8.50000000E-01  8.50000000E-01  8.50000000E-01  8.50000000E-01  8.50000000E-01
  8.50000000E-01  8.50000000E-01  8.50000000E-01  8.50000000E-01  8.50000000E-01
  8.50000000E-01  8.50000000E-01  8.50000000E-01  8.50000000E-01  8.50000000E-01
  8.50000000E-01  8.50000000E-01  8.50000000E-01  8.50000000E-01  8.50000000E-01
  8.50000000E-01  8.50000000E-01  8.50000000E-01  8.50000000E-01  8.50000000E-01
  8.50000000E-01  8.50000000E-01  8.50000000E-01  8.50000000E-01  8.50000000E-01
  8.50000000E-01  8.50000000E-01  8.50000000E-01  8.50000000E-01  8.50000000E-01
  8.50000000E-01  8.50000000E-01  8.50000000E-01  8.50000000E-01  8.50000000E-01
  8.50000000E-01  8.50000000E-01  8.50000000E-01  8.50000000E-01  8.50000000E-01
  8.50000000E-01  8.50000000E-01  8.50000000E-01  8.50000000E-01  8.50000000E-01
  8.50000000E-01  8.50000000E-01  8.50000000E-01  8.50000000E-01  8.50000000E-01
  8.50000000E-01  8.50000000E-01  8.50000000E-01  8.50000000E-01  8.50000000E-01
  8.50000000E-01  8.50000000E-01  8.50000000E-01  8.50000000E-01  8.50000000E-01
  8.50000000E-01  8.50000000E-01  8.50000000E-01  8.50000000E-01  8.50000000E-01
  8.50000000E-01  8.50000000E-01  8.50000000E-01  8.50000000E-01  8.50000000E-01
  8.50000000E-01  8.50000000E-01  8.50000000E-01  8.50000000E-01  8.50000000E-01
  8.50000000E-01  8.50000000E-01  8.50000000E-01  8.50000000E-01  8.50000000E-01
  8.50000000E-01  8.50000000E-01  8.50000000E-01  8.50000000E-01  8.50000000E-01
  8.50000000E-01  8.50000000E-01  8.50000000E-01  8.50000000E-01  8.50000000E-01
  8.50000000E-01  8.50000000E-01  8.50000000E-01  8.50000000E-01  8.50000000E-01
  8.50000000E-01  8.50000000E-01  8.50000000E-01  8.50000000E-01  8.50000000E-01
  8.50000000E-01  8.50000000E-01  8.50000000E-01  8.50000000E-01  8.50000000E-01
  8.50000000E-01  8.50000000E-01  8.50000000E-01  8.50000000E-01  8.50000000E-01
  8.50000000E-01  8.50000000E-01  8.50000000E-01  8.50000000E-01  8.50000000E-01
  8.50000000E-01  8.50000000E-01  8.50000000E-01  8.50000000E-01  8.50000000E-01
  8.50000000E-01  8.50000000E-01  8.50000000E-01  8.50000000E-01  8.50000000E-01
  8.50000000E-01  8.50000000E-01  8.50000000E-01  8.50000000E-01  8.50000000E-01
  8.50000000E-01  8.50000000E-01  8.50000000E-01  8.50000000E-01  8.50000000E-01
  8.50000000E-01  8.50000000E-01  8.50000000E-01  8.50000000E-01  8.50000000E-01
  8.50000000E-01  8.50000000E-01  8.50000000E-01  8.50000000E-01  8.50000000E-01
  8.50000000E-01  8.50000000E-01  8.50000000E-01  8.50000000E-01  8.50000000E-01
  8.50000000E-01  8.50000000E-01  8.50000000E-01  8.50000000E-01  8.50000000E-01
  8.50000000E-01  8.50000000E-01  8.50000000E-01  8.50000000E-01  8.50000000E-01
  8.50000000E-01  8.50000000E-01  8.50000000E-01  8.50000000E-01  8.50000000E-01
  8.50000000E-01  8.50000000E-01  8.50000000E-01  8.50000000E-01  8.50000000E-01
  8.50000000E-01  8.50000000E-01  8.50000000E-01  8.50000000E-01  8.50000000E-01
  8.50000000E-01  8.50000000E-01  8.50000000E-01  8.50000000E-01  8.50000000E-01
  8.50000000E-01  8.50000000E-01  8.50000000E-01  8.50000000E-01  8.50000000E-01
  8.50000000E-01  8.50000000E-01  8.50000000E-01  8.50000000E-01  8.50000000E-01
  8.50000000E-01  8.50000000E-01  8.50000000E-01  8.50000000E-01  8.50000000E-01
  8.50000000E-01  8.50000000E-01  8.50000000E-01  8.50000000E-01  8.50000000E-01
  8.50000000E-01  8.50000000E-01  8.50000000E-01  8.50000000E-01  8.50000000E-01
  8.50000000E-01  8.50000000E-01  8.50000000E-01  8.50000000E-01  8.50000000E-01
  8.50000000E-01  8.50000000E-01  8.50000000E-01  8.50000000E-01  8.50000000E-01
  8.50000000E-01  8.50000000E-01  8.50000000E-01  8.50000000E-01  8.50000000E-01
  8.50000000E-01  8.50000000E-01  8.50000000E-01  8.50000000E-01  8.50000000E-01
  8.50000000E-01  8.50000000E-01  8.50000000E-01  8.50000000E-01  8.50000000E-01
  8.50000000E-01  8.50000000E-01  8.50000000E-01  8.50000000E-01  8.50000000E-01
  8.50000000E-01  8.50000000E-01  8.50000000E-01  8.50000000E-01  8.50000000E-01
  8.50000000E-01  8.50000000E-01  8.50000000E-01  8.50000000E-01  8.50000000E-01
  8.50000000E-01  8.50000000E-01  8.50000000E-01  8.50000000E-01  8.50000000E-01
  8.50000000E-01  8.50000000E-01  8.50000000E-01  8.50000000E-01  8.50000000E-01
  8.50000000E-01  8.50000000E-01  8.50000000E-01  8.50000000E-01  8.50000000E-01
  8.50000000E-01  8.50000000E-01  8.50000000E-01  8.50000000E-01  8.50000000E-01
  8.50000000E-01  8.50000000E-01  8.50000000E-01  8.50000000E-01  8.50000000E-01
  8.50000000E-01  8.50000000E-01  8.50000000E-01  8.50000000E-01  8.50000000E-01
  8.50000000E-01  8.50000000E-01  8.50000000E-01  8.50000000E-01  8.50000000E-01
  8.50000000E-01  8.50000000E-01  8.50000000E-01  8.50000000E-01  8.50000000E-01
  8.50000000E-01  8.50000000E-01  8.50000000E-01  8.50000000E-01  8.50000000E-01
  8.50000000E-01  8.50000000E-01  8.50000000E-01  8.50000000E-01  8.50000000E-01
  8.50000000E-01  8.50000000E-01  8.50000000E-01  8.50000000E-01  8.50000000E-01
  8.50000000E-01  8.50000000E-01  8.50000000E-01  8.50000000E-01  8.50000000E-01
  8.50000000E-01  8.50000000E-01  8.50000000E-01  8.50000000E-01  8.50000000E-01
  8.50000000E-01  8.50000000E-01  8.50000000E-01  8.50000000E-01  8.50000000E-01
  8.50000000E-01  8.50000000E-01  8.50000000E-01  8.50000000E-01  8.50000000E-01
  8.50000000E-01  8.50000000E-01  8.50000000E-01  8.50000000E-01  8.50000000E-01
  8.50000000E-01  8.50000000E-01  8.50000000E-01  8.50000000E-01  8.50000000E-01
  8.50000000E-01  8.50000000E-01  8.50000000E-01  8.50000000E-01  8.50000000E-01
  8.50000000E-01  8.50000000E-01  8.50000000E-01  8.50000000E-01  8.50000000E-01
  8.50000000E-01  8.50000000E-01  8.50000000E-01  8.50000000E-01  8.50000000E-01
  8.50000000E-01  8.50000000E-01  8.50000000E-01  8.50000000E-01  8.50000000E-01
  8.50000000E-01  8.50000000E-01  8.50000000E-01  8.50000000E-01  8.50000000E-01
  8.50000000E-01  8.50000000E-01  8.50000000E-01  8.50000000E-01  8.50000000E-01
  8.50000000E-01  8.50000000E-01  8.50000000E-01  8.50000000E-01  8.50000000E-01
  8.50000000E-01  8.50000000E-01  8.50000000E-01  8.50000000E-01  8.50000000E-01
  8.50000000E-01  8.50000000E-01  8.50000000E-01  8.50000000E-01  8.50000000E-01
  8.50000000E-01  8.50000000E-01  8.50000000E-01  8.50000000E-01  8.50000000E-01
  8.50000000E-01  8.50000000E-01  8.50000000E-01  8.50000000E-01  8.50000000E-01
  8.50000000E-01  8.50000000E-01  8.50000000E-01  8.50000000E-01  8.50000000E-01
  8.50000000E-01  8.50000000E-01  8.50000000E-01  8.50000000E-01  8.50000000E-01
  8.50000000E-01  8.50000000E-01  8.50000000E-01  8.50000000E-01  8.50000000E-01
  8.50000000E-01  8.50000000E-01  8.50000000E-01  8.50000000E-01  8.50000000E-01
  8.50000000E-01  8.50000000E-01  8.50000000E-01  8.50000000E-01  8.50000000E-01
  8.50000000E-01  8.50000000E-01  8.50000000E-01  8.50000000E-01  8.50000000E-01
  8.50000000E-01  8.50000000E-01  8.50000000E-01  8.50000000E-01  8.50000000E-01
  8.50000000E-01  8.50000000E-01  8.50000000E-01  8.50000000E-01  8.50000000E-01
  8.50000000E-01  8.50000000E-01  8.50000000E-01  8.50000000E-01  8.50000000E-01
  8.50000000E-01  8.50000000E-01  8.50000000E-01  8.50000000E-01  8.50000000E-01
  8.50000000E-01  8.50000000E-01  8.50000000E-01  8.50000000E-01  8.50000000E-01
  8.50000000E-01  8.50000000E-01  8.50000000E-01  8.50000000E-01  8.50000000E-01
  8.50000000E-01  8.50000000E-01  8.50000000E-01  8.50000000E-01  8.50000000E-01
  8.50000000E-01  8.50000000E-01  8.50000000E-01  8.50000000E-01  8.50000000E-01
  8.50000000E-01  8.50000000E-01  8.50000000E-01  8.50000000E-01  8.50000000E-01
  8.50000000E-01  8.50000000E-01  8.50000000E-01  8.50000000E-01  8.50000000E-01
  8.50000000E-01  8.50000000E-01  8.50000000E-01  8.50000000E-01  8.50000000E-01
  8.50000000E-01  8.50000000E-01  8.50000000E-01  8.50000000E-01  8.50000000E-01
  8.50000000E-01  8.50000000E-01  8.50000000E-01  8.50000000E-01  8.50000000E-01
  8.50000000E-01  8.50000000E-01  8.50000000E-01  8.50000000E-01  8.50000000E-01
  8.50000000E-01  8.50000000E-01  8.50000000E-01  8.50000000E-01  8.50000000E-01
  8.50000000E-01  8.50000000E-01  8.50000000E-01  8.50000000E-01  8.50000000E-01
  8.50000000E-01  8.50000000E-01  8.50000000E-01  8.50000000E-01  8.50000000E-01
  8.50000000E-01  8.50000000E-01  8.50000000E-01  8.50000000E-01  8.50000000E-01
  8.50000000E-01  8.50000000E-01  8.50000000E-01  8.50000000E-01  8.50000000E-01
  8.50000000E-01  8.50000000E-01  8.50000000E-01  8.50000000E-01  8.50000000E-01
  8.50000000E-01  8.50000000E-01  8.50000000E-01  8.50000000E-01  8.50000000E-01
  8.50000000E-01  8.50000000E-01  8.50000000E-01  8.50000000E-01  8.50000000E-01
  8.50000000E-01  8.50000000E-01  8.50000000E-01  8.50000000E-01  8.50000000E-01
  8.50000000E-01  8.50000000E-01  8.50000000E-01  8.50000000E-01  8.50000000E-01
  8.50000000E-01  8.50000000E-01  8.50000000E-01  8.50000000E-01  8.50000000E-01
  8.50000000E-01  8.50000000E-01  8.50000000E-01  8.50000000E-01  8.50000000E-01
  8.50000000E-01  8.50000000E-01  8.50000000E-01  8.50000000E-01  8.50000000E-01
  8.50000000E-01  8.50000000E-01  8.50000000E-01  8.50000000E-01  8.50000000E-01
  8.50000000E-01  8.50000000E-01  8.50000000E-01  8.50000000E-01  8.50000000E-01
  8.50000000E-01  8.50000000E-01  8.50000000E-01  8.50000000E-01  8.50000000E-01
  8.50000000E-01  8.50000000E-01  8.50000000E-01  8.50000000E-01  8.50000000E-01
  8.50000000E-01  8.50000000E-01  8.50000000E-01  8.50000000E-01  8.50000000E-01
  8.50000000E-01  8.50000000E-01  8.50000000E-01  8.50000000E-01  8.50000000E-01
  8.50000000E-01  8.50000000E-01  8.50000000E-01  8.50000000E-01  8.50000000E-01
  8.50000000E-01  8.50000000E-01  8.50000000E-01  8.50000000E-01  8.50000000E-01
  8.50000000E-01  8.50000000E-01  8.50000000E-01  8.50000000E-01  8.50000000E-01
  8.50000000E-01  8.50000000E-01  8.50000000E-01  8.50000000E-01  8.50000000E-01
  8.50000000E-01  8.50000000E-01  8.50000000E-01  8.50000000E-01  8.50000000E-01
  8.50000000E-01  8.50000000E-01  8.50000000E-01  8.50000000E-01  8.50000000E-01
  8.50000000E-01  8.50000000E-01  8.50000000E-01  8.50000000E-01  8.50000000E-01
  8.50000000E-01  8.50000000E-01  8.50000000E-01  8.50000000E-01  8.50000000E-01
  8.50000000E-01  8.50000000E-01  8.50000000E-01  8.50000000E-01  8.50000000E-01
  8.50000000E-01  8.50000000E-01  8.50000000E-01  8.50000000E-01  8.50000000E-01
  8.50000000E-01  8.50000000E-01  8.50000000E-01  8.50000000E-01  8.50000000E-01
  8.50000000E-01  8.50000000E-01  8.50000000E-01  8.50000000E-01  8.50000000E-01
  8.50000000E-01  8.50000000E-01  8.50000000E-01  8.50000000E-01  8.50000000E-01
  8.50000000E-01  8.50000000E-01  8.50000000E-01  8.50000000E-01  8.50000000E-01
  8.50000000E-01  8.50000000E-01  8.50000000E-01  8.50000000E-01  8.50000000E-01
  8.50000000E-01  8.50000000E-01  8.50000000E-01  8.50000000E-01  8.50000000E-01
  8.50000000E-01  8.50000000E-01  8.50000000E-01  8.50000000E-01  8.50000000E-01
  8.50000000E-01  8.50000000E-01  8.50000000E-01  8.50000000E-01  8.50000000E-01
  8.50000000E-01  8.50000000E-01  8.50000000E-01  8.50000000E-01  8.50000000E-01
  8.50000000E-01  8.50000000E-01  8.50000000E-01  8.50000000E-01  8.50000000E-01
  8.50000000E-01  8.50000000E-01  8.50000000E-01  8.50000000E-01  8.50000000E-01
  8.50000000E-01  8.50000000E-01  8.50000000E-01  8.50000000E-01  8.50000000E-01
  8.50000000E-01  8.50000000E-01  8.50000000E-01  8.50000000E-01  8.50000000E-01
  8.50000000E-01  8.50000000E-01  8.50000000E-01  8.50000000E-01  8.50000000E-01
  8.50000000E-01  8.50000000E-01  8.50000000E-01  8.50000000E-01  8.50000000E-01
  8.50000000E-01  8.50000000E-01  8.50000000E-01  8.50000000E-01  8.50000000E-01
  8.50000000E-01  8.50000000E-01  8.50000000E-01  8.50000000E-01  8.50000000E-01
  8.50000000E-01  8.50000000E-01  8.50000000E-01  8.50000000E-01  8.50000000E-01
  8.50000000E-01  8.50000000E-01  8.50000000E-01  8.50000000E-01  8.50000000E-01
  8.50000000E-01  8.50000000E-01  8.50000000E-01  8.50000000E-01  8.50000000E-01
  8.50000000E-01  8.50000000E-01  8.50000000E-01  8.50000000E-01  8.50000000E-01
  8.50000000E-01  8.50000000E-01  8.50000000E-01  8.50000000E-01  8.50000000E-01
  8.50000000E-01  8.50000000E-01  8.50000000E-01  8.50000000E-01  8.50000000E-01
  8.50000000E-01  8.50000000E-01  8.50000000E-01  8.50000000E-01  8.50000000E-01
  8.50000000E-01  8.50000000E-01  8.50000000E-01  8.50000000E-01  8.50000000E-01
  8.50000000E-01  8.50000000E-01  8.50000000E-01  8.50000000E-01  8.50000000E-01
  8.50000000E-01  8.50000000E-01  8.50000000E-01  8.50000000E-01  8.50000000E-01
  8.50000000E-01  8.50000000E-01  8.50000000E-01  8.50000000E-01  8.50000000E-01
  8.50000000E-01  8.50000000E-01  8.50000000E-01  8.50000000E-01  8.50000000E-01
  8.50000000E-01  8.50000000E-01  8.50000000E-01  8.50000000E-01  8.50000000E-01
  8.50000000E-01  8.50000000E-01  8.50000000E-01  8.50000000E-01  8.50000000E-01
  8.50000000E-01  8.50000000E-01  8.50000000E-01  8.50000000E-01  8.50000000E-01
  8.50000000E-01  8.50000000E-01  8.50000000E-01  8.50000000E-01  8.50000000E-01
  8.50000000E-01  8.50000000E-01  8.50000000E-01  8.50000000E-01  8.50000000E-01
  8.50000000E-01  8.50000000E-01  8.50000000E-01  8.50000000E-01  8.50000000E-01
  8.50000000E-01  8.50000000E-01  8.50000000E-01  8.50000000E-01  8.50000000E-01
  8.50000000E-01  8.50000000E-01  8.50000000E-01  8.50000000E-01  8.50000000E-01
  8.50000000E-01  8.50000000E-01  8.50000000E-01  8.50000000E-01  8.50000000E-01
  8.50000000E-01  8.50000000E-01  8.50000000E-01  8.50000000E-01  8.50000000E-01
  8.50000000E-01  8.50000000E-01  8.50000000E-01  8.50000000E-01  8.50000000E-01
  8.50000000E-01  8.50000000E-01  8.50000000E-01  8.50000000E-01  8.50000000E-01
  8.50000000E-01  8.50000000E-01  8.50000000E-01  8.50000000E-01  8.50000000E-01
  8.50000000E-01  8.50000000E-01  8.50000000E-01  8.50000000E-01  8.50000000E-01
  8.50000000E-01  8.50000000E-01  8.50000000E-01  8.50000000E-01  8.50000000E-01
  8.50000000E-01  8.50000000E-01  8.50000000E-01  8.50000000E-01  8.50000000E-01
  8.50000000E-01  8.50000000E-01  8.50000000E-01  8.50000000E-01  8.50000000E-01
  8.50000000E-01  8.50000000E-01  8.50000000E-01  8.50000000E-01  8.50000000E-01
  8.50000000E-01  8.50000000E-01  8.50000000E-01  8.50000000E-01  8.50000000E-01
  8.50000000E-01  8.50000000E-01  8.50000000E-01  8.50000000E-01  8.50000000E-01
  8.50000000E-01  8.50000000E-01  8.50000000E-01  8.50000000E-01  8.50000000E-01
  8.50000000E-01  8.50000000E-01  8.50000000E-01  8.50000000E-01  8.50000000E-01
  8.50000000E-01  8.50000000E-01  8.50000000E-01  8.50000000E-01  8.50000000E-01
  8.50000000E-01  8.50000000E-01  8.50000000E-01  8.50000000E-01  8.50000000E-01
  8.50000000E-01  8.50000000E-01  8.50000000E-01  8.50000000E-01  8.50000000E-01
  8.50000000E-01  8.50000000E-01  8.50000000E-01  8.50000000E-01  8.50000000E-01
  8.50000000E-01  8.50000000E-01  8.50000000E-01  8.50000000E-01  8.50000000E-01
  8.50000000E-01  8.50000000E-01  8.50000000E-01  8.50000000E-01  8.50000000E-01
  8.50000000E-01  8.50000000E-01  8.50000000E-01  8.50000000E-01  8.50000000E-01
  8.50000000E-01  8.50000000E-01  8.50000000E-01  8.50000000E-01  8.50000000E-01
  8.50000000E-01  8.50000000E-01  8.50000000E-01  8.50000000E-01  8.50000000E-01
  8.50000000E-01  8.50000000E-01  8.50000000E-01  8.50000000E-01  8.50000000E-01
  8.50000000E-01  8.50000000E-01  8.50000000E-01  8.50000000E-01  8.50000000E-01
  8.50000000E-01  8.50000000E-01  8.50000000E-01  8.50000000E-01  8.50000000E-01
  8.50000000E-01  8.50000000E-01  8.50000000E-01  8.50000000E-01  8.50000000E-01
  8.50000000E-01  8.50000000E-01  8.50000000E-01  8.50000000E-01  8.50000000E-01
  8.50000000E-01  8.50000000E-01  8.50000000E-01  8.50000000E-01  8.50000000E-01
  8.50000000E-01  8.50000000E-01  8.50000000E-01  8.50000000E-01  8.50000000E-01
  8.50000000E-01  8.50000000E-01  8.50000000E-01  8.50000000E-01  8.50000000E-01
  8.50000000E-01  8.50000000E-01  8.50000000E-01  8.50000000E-01  8.50000000E-01
  8.50000000E-01  8.50000000E-01  8.50000000E-01  8.50000000E-01  8.50000000E-01
  8.50000000E-01  8.50000000E-01  8.50000000E-01  8.50000000E-01  8.50000000E-01
  8.50000000E-01  8.50000000E-01  8.50000000E-01  8.50000000E-01  8.50000000E-01
  8.50000000E-01  8.50000000E-01  8.50000000E-01  8.50000000E-01  8.50000000E-01
  8.50000000E-01  8.50000000E-01  8.50000000E-01  8.50000000E-01  8.50000000E-01
  8.50000000E-01  8.50000000E-01  8.50000000E-01  8.50000000E-01  8.50000000E-01
  8.50000000E-01  8.50000000E-01  8.50000000E-01  8.50000000E-01  8.50000000E-01
  8.50000000E-01  8.50000000E-01  8.50000000E-01  8.50000000E-01  8.50000000E-01
  8.50000000E-01  8.50000000E-01  8.50000000E-01  8.50000000E-01  8.50000000E-01
  8.50000000E-01  8.50000000E-01  8.50000000E-01  8.50000000E-01  8.50000000E-01
  8.50000000E-01  8.50000000E-01  8.50000000E-01  8.50000000E-01  8.50000000E-01
  8.50000000E-01  8.50000000E-01  8.50000000E-01  8.50000000E-01  8.50000000E-01
  8.50000000E-01  8.50000000E-01  8.50000000E-01  8.50000000E-01  8.50000000E-01
  8.50000000E-01  8.50000000E-01  8.50000000E-01  8.50000000E-01  8.50000000E-01
  8.50000000E-01  8.50000000E-01  8.50000000E-01  8.50000000E-01  8.50000000E-01
  8.50000000E-01  8.50000000E-01  8.50000000E-01  8.50000000E-01  8.50000000E-01
  8.50000000E-01  8.50000000E-01  8.50000000E-01  8.50000000E-01  8.50000000E-01
  8.50000000E-01  8.50000000E-01  8.50000000E-01  8.50000000E-01  8.50000000E-01
  8.50000000E-01  8.50000000E-01  8.50000000E-01  8.50000000E-01  8.50000000E-01
  8.50000000E-01  8.50000000E-01  8.50000000E-01  8.50000000E-01  8.50000000E-01
  8.50000000E-01  8.50000000E-01  8.50000000E-01  8.50000000E-01  8.50000000E-01
  8.50000000E-01  8.50000000E-01  8.50000000E-01  8.50000000E-01  8.50000000E-01
  8.50000000E-01  8.50000000E-01  8.50000000E-01  8.50000000E-01  8.50000000E-01
  8.50000000E-01  8.50000000E-01  8.50000000E-01  8.50000000E-01  8.50000000E-01
  8.50000000E-01  8.50000000E-01  8.50000000E-01  8.50000000E-01  8.50000000E-01
  8.50000000E-01  8.50000000E-01  8.50000000E-01  8.50000000E-01  8.50000000E-01
  8.50000000E-01  8.50000000E-01  8.50000000E-01  8.50000000E-01  8.50000000E-01
  8.50000000E-01  8.50000000E-01  8.50000000E-01  8.50000000E-01  8.50000000E-01
  8.50000000E-01  8.50000000E-01  8.50000000E-01  8.50000000E-01  8.50000000E-01
  8.50000000E-01  8.50000000E-01  8.50000000E-01  8.50000000E-01  8.50000000E-01
  8.50000000E-01  8.50000000E-01  8.50000000E-01  8.50000000E-01  8.50000000E-01
  8.50000000E-01  8.50000000E-01  8.50000000E-01  8.50000000E-01  8.50000000E-01
  8.50000000E-01  8.50000000E-01  8.50000000E-01  8.50000000E-01  8.50000000E-01
  8.50000000E-01  8.50000000E-01  8.50000000E-01  8.50000000E-01  8.50000000E-01
  8.50000000E-01  8.50000000E-01  8.50000000E-01  8.50000000E-01  8.50000000E-01
  8.50000000E-01  8.50000000E-01  8.50000000E-01  8.50000000E-01  8.50000000E-01
  8.50000000E-01  8.50000000E-01  8.50000000E-01  8.50000000E-01  8.50000000E-01
  8.50000000E-01  8.50000000E-01  8.50000000E-01  8.50000000E-01  8.50000000E-01
  8.50000000E-01  8.50000000E-01  8.50000000E-01  8.50000000E-01  8.50000000E-01
  8.50000000E-01  8.50000000E-01  8.50000000E-01  8.50000000E-01  8.50000000E-01
  8.50000000E-01  8.50000000E-01  8.50000000E-01  8.50000000E-01  8.50000000E-01
  8.50000000E-01  8.50000000E-01  8.50000000E-01  8.50000000E-01  8.50000000E-01
  8.50000000E-01  8.50000000E-01  8.50000000E-01  8.50000000E-01  8.50000000E-01
  8.50000000E-01  8.50000000E-01  8.50000000E-01  8.50000000E-01  8.50000000E-01
  8.50000000E-01  8.50000000E-01  8.50000000E-01  8.50000000E-01  8.50000000E-01
  8.50000000E-01  8.50000000E-01  8.50000000E-01  8.50000000E-01  8.50000000E-01
  8.50000000E-01  8.50000000E-01  8.50000000E-01  8.50000000E-01  8.50000000E-01
  8.50000000E-01  8.50000000E-01  8.50000000E-01  8.50000000E-01  8.50000000E-01
  8.50000000E-01  8.50000000E-01  8.50000000E-01  8.50000000E-01  8.50000000E-01
  8.50000000E-01  8.50000000E-01  8.50000000E-01  8.50000000E-01  8.50000000E-01
  8.50000000E-01  8.50000000E-01  8.50000000E-01  8.50000000E-01  8.50000000E-01
  8.50000000E-01  8.50000000E-01  8.50000000E-01  8.50000000E-01  8.50000000E-01
  8.50000000E-01  8.50000000E-01  8.50000000E-01  8.50000000E-01  8.50000000E-01
  8.50000000E-01  8.50000000E-01  8.50000000E-01  8.50000000E-01  8.50000000E-01
  8.50000000E-01  8.50000000E-01  8.50000000E-01  8.50000000E-01  8.50000000E-01
  8.50000000E-01  8.50000000E-01  8.50000000E-01  8.50000000E-01  8.50000000E-01
  8.50000000E-01  8.50000000E-01  8.50000000E-01  8.50000000E-01  8.50000000E-01
  8.50000000E-01  8.50000000E-01  8.50000000E-01  8.50000000E-01  8.50000000E-01
  8.50000000E-01  8.50000000E-01  8.50000000E-01  8.50000000E-01  8.50000000E-01
  8.50000000E-01  8.50000000E-01  8.50000000E-01  8.50000000E-01  8.50000000E-01
  8.50000000E-01  8.50000000E-01  8.50000000E-01  8.50000000E-01  8.50000000E-01
  8.50000000E-01  8.50000000E-01  8.50000000E-01  8.50000000E-01  8.50000000E-01
  8.50000000E-01  8.50000000E-01  8.50000000E-01  8.50000000E-01  8.50000000E-01
  8.50000000E-01  8.50000000E-01  8.50000000E-01  8.50000000E-01  8.50000000E-01
  8.50000000E-01  8.50000000E-01  8.50000000E-01  8.50000000E-01  8.50000000E-01
  8.50000000E-01  8.50000000E-01  8.50000000E-01  8.50000000E-01  8.50000000E-01
  8.50000000E-01  8.50000000E-01  8.50000000E-01  8.50000000E-01  8.50000000E-01
  8.50000000E-01  8.50000000E-01  8.50000000E-01  8.50000000E-01  8.50000000E-01
  8.50000000E-01  8.50000000E-01  8.50000000E-01  8.50000000E-01  8.50000000E-01
  8.50000000E-01  8.50000000E-01  8.50000000E-01  8.50000000E-01  8.50000000E-01
  8.50000000E-01  8.50000000E-01  8.50000000E-01  8.50000000E-01  8.50000000E-01
  8.50000000E-01  8.50000000E-01  8.50000000E-01  8.50000000E-01  8.50000000E-01
  8.50000000E-01  8.50000000E-01  8.50000000E-01  8.50000000E-01  8.50000000E-01
  8.50000000E-01  8.50000000E-01  8.50000000E-01  8.50000000E-01  8.50000000E-01
  8.50000000E-01  8.50000000E-01  8.50000000E-01  8.50000000E-01  8.50000000E-01
  8.50000000E-01  8.50000000E-01  8.50000000E-01  8.50000000E-01  8.50000000E-01
  8.50000000E-01  8.50000000E-01  8.50000000E-01  8.50000000E-01  8.50000000E-01
  8.50000000E-01  8.50000000E-01  8.50000000E-01  8.50000000E-01  8.50000000E-01
  8.50000000E-01  8.50000000E-01  8.50000000E-01  8.50000000E-01  8.50000000E-01
  8.50000000E-01  8.50000000E-01  8.50000000E-01  8.50000000E-01  8.50000000E-01
  8.50000000E-01  8.50000000E-01  8.50000000E-01  8.50000000E-01  8.50000000E-01
  8.50000000E-01  8.50000000E-01  8.50000000E-01  8.50000000E-01  8.50000000E-01
  8.50000000E-01  8.50000000E-01  8.50000000E-01  8.50000000E-01  8.50000000E-01
  8.50000000E-01  8.50000000E-01  8.50000000E-01  8.50000000E-01  8.50000000E-01
  8.50000000E-01  8.50000000E-01  8.50000000E-01  8.50000000E-01  8.50000000E-01
  8.50000000E-01  8.50000000E-01  8.50000000E-01  8.50000000E-01  8.50000000E-01
  8.50000000E-01  8.50000000E-01  8.50000000E-01  8.50000000E-01  8.50000000E-01
  8.50000000E-01  8.50000000E-01  8.50000000E-01  8.50000000E-01  8.50000000E-01
  8.50000000E-01  8.50000000E-01  8.50000000E-01  8.50000000E-01  8.50000000E-01
  8.50000000E-01  8.50000000E-01  8.50000000E-01  8.50000000E-01  8.50000000E-01
  8.50000000E-01  8.50000000E-01  8.50000000E-01  8.50000000E-01  8.50000000E-01
  8.50000000E-01  8.50000000E-01  8.50000000E-01  8.50000000E-01  8.50000000E-01
  8.50000000E-01  8.50000000E-01  8.50000000E-01  8.50000000E-01  8.50000000E-01
  8.50000000E-01  8.50000000E-01  8.50000000E-01  8.50000000E-01  8.50000000E-01
  8.50000000E-01  8.50000000E-01  8.50000000E-01  8.50000000E-01  8.50000000E-01
  8.50000000E-01  8.50000000E-01  8.50000000E-01  8.50000000E-01  8.50000000E-01
  8.50000000E-01  8.50000000E-01  8.50000000E-01  8.50000000E-01  8.50000000E-01
  8.50000000E-01  8.50000000E-01  8.50000000E-01  8.50000000E-01  8.50000000E-01
  8.50000000E-01  8.50000000E-01  8.50000000E-01  8.50000000E-01  8.50000000E-01
  8.50000000E-01  8.50000000E-01  8.50000000E-01  8.50000000E-01  8.50000000E-01
  8.50000000E-01  8.50000000E-01  8.50000000E-01  8.50000000E-01  8.50000000E-01
  8.50000000E-01  8.50000000E-01  8.50000000E-01  8.50000000E-01  8.50000000E-01
  8.50000000E-01  8.50000000E-01  8.50000000E-01  8.50000000E-01  8.50000000E-01
  8.50000000E-01  8.50000000E-01  8.50000000E-01  8.50000000E-01  8.50000000E-01
  8.50000000E-01  8.50000000E-01  8.50000000E-01  8.50000000E-01  8.50000000E-01
  8.50000000E-01  8.50000000E-01  8.50000000E-01  8.50000000E-01  8.50000000E-01
  8.50000000E-01  8.50000000E-01  8.50000000E-01  8.50000000E-01  8.50000000E-01
  8.50000000E-01  8.50000000E-01  8.50000000E-01  8.50000000E-01  8.50000000E-01
  8.50000000E-01  8.50000000E-01  8.50000000E-01  8.50000000E-01  8.50000000E-01
  8.50000000E-01  8.50000000E-01  8.50000000E-01  8.50000000E-01  8.50000000E-01
  8.50000000E-01  8.50000000E-01  8.50000000E-01  8.50000000E-01  8.50000000E-01
  8.50000000E-01  8.50000000E-01  8.50000000E-01  8.50000000E-01  8.50000000E-01
  8.50000000E-01  8.50000000E-01  8.50000000E-01  8.50000000E-01  8.50000000E-01
  8.50000000E-01  8.50000000E-01  8.50000000E-01  8.50000000E-01  8.50000000E-01
  8.50000000E-01  8.50000000E-01  8.50000000E-01  8.50000000E-01  8.50000000E-01
  8.50000000E-01  8.50000000E-01  8.50000000E-01  8.50000000E-01  8.50000000E-01
  8.50000000E-01  8.50000000E-01  8.50000000E-01  8.50000000E-01  8.50000000E-01
  8.50000000E-01  8.50000000E-01  8.50000000E-01  8.50000000E-01  8.50000000E-01
  8.50000000E-01  8.50000000E-01  8.50000000E-01  8.50000000E-01  8.50000000E-01
  8.50000000E-01  8.50000000E-01  8.50000000E-01  8.50000000E-01  8.50000000E-01
  8.50000000E-01  8.50000000E-01  8.50000000E-01  8.50000000E-01  8.50000000E-01
  8.50000000E-01  8.50000000E-01  8.50000000E-01  8.50000000E-01  8.50000000E-01
  8.50000000E-01  8.50000000E-01  8.50000000E-01  8.50000000E-01  8.50000000E-01
  8.50000000E-01  8.50000000E-01  8.50000000E-01  8.50000000E-01  8.50000000E-01
  8.50000000E-01  8.50000000E-01  8.50000000E-01  8.50000000E-01  8.50000000E-01
  8.50000000E-01  8.50000000E-01  8.50000000E-01  8.50000000E-01  8.50000000E-01
  8.50000000E-01  8.50000000E-01  8.50000000E-01  8.50000000E-01  8.50000000E-01
  8.50000000E-01  8.50000000E-01  8.50000000E-01  8.50000000E-01  8.50000000E-01
  8.50000000E-01  8.50000000E-01  8.50000000E-01  8.50000000E-01  8.50000000E-01
  8.50000000E-01  8.50000000E-01  8.50000000E-01  8.50000000E-01  8.50000000E-01
  8.50000000E-01  8.50000000E-01  8.50000000E-01  8.50000000E-01  8.50000000E-01
  8.50000000E-01  8.50000000E-01  8.50000000E-01  8.50000000E-01  8.50000000E-01
  8.50000000E-01  8.50000000E-01  8.50000000E-01  8.50000000E-01  8.50000000E-01
  8.50000000E-01  8.50000000E-01  8.50000000E-01  8.50000000E-01  8.50000000E-01
  8.50000000E-01  8.50000000E-01  8.50000000E-01  8.50000000E-01  8.50000000E-01
  8.50000000E-01  8.50000000E-01  8.50000000E-01  8.50000000E-01  8.50000000E-01
  8.50000000E-01  8.50000000E-01  8.50000000E-01  8.50000000E-01  8.50000000E-01
  8.50000000E-01  8.50000000E-01  8.50000000E-01  8.50000000E-01  8.50000000E-01
  8.50000000E-01  8.50000000E-01  8.50000000E-01  8.50000000E-01  8.50000000E-01
  8.50000000E-01  8.50000000E-01  8.50000000E-01  8.50000000E-01  8.50000000E-01
  8.50000000E-01  8.50000000E-01  8.50000000E-01  8.50000000E-01  8.50000000E-01
  8.50000000E-01  8.50000000E-01  8.50000000E-01  8.50000000E-01  8.50000000E-01
  8.50000000E-01  8.50000000E-01  8.50000000E-01  8.50000000E-01  8.50000000E-01
  8.50000000E-01  8.50000000E-01  8.50000000E-01  8.50000000E-01  8.50000000E-01
  8.50000000E-01  8.50000000E-01  8.50000000E-01  8.50000000E-01  8.50000000E-01
  8.50000000E-01  8.50000000E-01  8.50000000E-01  8.50000000E-01  8.50000000E-01
  8.50000000E-01  8.50000000E-01  8.50000000E-01  8.50000000E-01  8.50000000E-01
  8.50000000E-01  8.50000000E-01  8.50000000E-01  8.50000000E-01  8.50000000E-01
  8.50000000E-01  8.50000000E-01  8.50000000E-01  8.50000000E-01  8.50000000E-01
  8.50000000E-01  8.50000000E-01  8.50000000E-01  8.50000000E-01  8.50000000E-01
  8.50000000E-01  8.50000000E-01  8.50000000E-01  8.50000000E-01  8.50000000E-01
  8.50000000E-01  8.50000000E-01  8.50000000E-01  8.50000000E-01  8.50000000E-01
  8.50000000E-01  8.50000000E-01  8.50000000E-01  8.50000000E-01  8.50000000E-01
  8.50000000E-01  8.50000000E-01  8.50000000E-01  8.50000000E-01  8.50000000E-01
  8.50000000E-01  8.50000000E-01  8.50000000E-01  8.50000000E-01  8.50000000E-01
  8.50000000E-01  8.50000000E-01  8.50000000E-01  8.50000000E-01  8.50000000E-01
  8.50000000E-01  8.50000000E-01  8.50000000E-01  8.50000000E-01  8.50000000E-01
  8.50000000E-01  8.50000000E-01  8.50000000E-01  8.50000000E-01  8.50000000E-01
  8.50000000E-01  8.50000000E-01  8.50000000E-01  8.50000000E-01  8.50000000E-01
  8.50000000E-01  8.50000000E-01  8.50000000E-01  8.50000000E-01  8.50000000E-01
  8.50000000E-01  8.50000000E-01  8.50000000E-01  8.50000000E-01  8.50000000E-01
  8.50000000E-01  8.50000000E-01  8.50000000E-01  8.50000000E-01  8.50000000E-01
  8.50000000E-01  8.50000000E-01  8.50000000E-01  8.50000000E-01  8.50000000E-01
  8.50000000E-01  8.50000000E-01  8.50000000E-01  8.50000000E-01  8.50000000E-01
  8.50000000E-01  8.50000000E-01  8.50000000E-01  8.50000000E-01  8.50000000E-01
  8.50000000E-01  8.50000000E-01  8.50000000E-01  8.50000000E-01  8.50000000E-01
  8.50000000E-01  8.50000000E-01  8.50000000E-01  8.50000000E-01  8.50000000E-01
  8.50000000E-01  8.50000000E-01  8.50000000E-01  8.50000000E-01  8.50000000E-01
  8.50000000E-01  8.50000000E-01  8.50000000E-01  8.50000000E-01  8.50000000E-01
  8.50000000E-01  8.50000000E-01  8.50000000E-01  8.50000000E-01  8.50000000E-01
  8.50000000E-01  8.50000000E-01  8.50000000E-01  8.50000000E-01  8.50000000E-01
  8.50000000E-01  8.50000000E-01  8.50000000E-01  8.50000000E-01  8.50000000E-01
  8.50000000E-01  8.50000000E-01  8.50000000E-01  8.50000000E-01  8.50000000E-01
  8.50000000E-01  8.50000000E-01  8.50000000E-01  8.50000000E-01  8.50000000E-01
  8.50000000E-01  8.50000000E-01  8.50000000E-01  8.50000000E-01  8.50000000E-01
  8.50000000E-01  8.50000000E-01  8.50000000E-01  8.50000000E-01  8.50000000E-01
  8.50000000E-01  8.50000000E-01  8.50000000E-01  8.50000000E-01  8.50000000E-01
  8.50000000E-01  8.50000000E-01  8.50000000E-01  8.50000000E-01  8.50000000E-01
  8.50000000E-01  8.50000000E-01  8.50000000E-01  8.50000000E-01  8.50000000E-01
  8.50000000E-01  8.50000000E-01  8.50000000E-01  8.50000000E-01  8.50000000E-01
  8.50000000E-01  8.50000000E-01  8.50000000E-01  8.50000000E-01  8.50000000E-01
  8.50000000E-01  8.50000000E-01  8.50000000E-01  8.50000000E-01  8.50000000E-01
  8.50000000E-01  8.50000000E-01  8.50000000E-01  8.50000000E-01  8.50000000E-01
  8.50000000E-01  8.50000000E-01  8.50000000E-01  8.50000000E-01  8.50000000E-01
  8.50000000E-01  8.50000000E-01  8.50000000E-01  8.50000000E-01  8.50000000E-01
  8.50000000E-01  8.50000000E-01  8.50000000E-01  8.50000000E-01  8.50000000E-01
  8.50000000E-01  8.50000000E-01  8.50000000E-01  8.50000000E-01  8.50000000E-01
  8.50000000E-01  8.50000000E-01  8.50000000E-01  8.50000000E-01  8.50000000E-01
  8.50000000E-01  8.50000000E-01  8.50000000E-01  8.50000000E-01  8.50000000E-01
  8.50000000E-01  8.50000000E-01  8.50000000E-01  8.50000000E-01  8.50000000E-01
  8.50000000E-01  8.50000000E-01  8.50000000E-01  8.50000000E-01  8.50000000E-01
  8.50000000E-01  8.50000000E-01  8.50000000E-01  8.50000000E-01  8.50000000E-01
  8.50000000E-01  8.50000000E-01  8.50000000E-01  8.50000000E-01  8.50000000E-01
  8.50000000E-01  8.50000000E-01  8.50000000E-01  8.50000000E-01  8.50000000E-01
  8.50000000E-01  8.50000000E-01  8.50000000E-01  8.50000000E-01  8.50000000E-01
  8.50000000E-01  8.50000000E-01  8.50000000E-01  8.50000000E-01  8.50000000E-01
  8.50000000E-01  8.50000000E-01  8.50000000E-01  8.50000000E-01  8.50000000E-01
  8.50000000E-01  8.50000000E-01  8.50000000E-01  8.50000000E-01  8.50000000E-01
  8.50000000E-01  8.50000000E-01  8.50000000E-01  8.50000000E-01  8.50000000E-01
  8.50000000E-01  8.50000000E-01  8.50000000E-01  8.50000000E-01  8.50000000E-01
  8.50000000E-01  8.50000000E-01  8.50000000E-01  8.50000000E-01  8.50000000E-01
  8.50000000E-01  8.50000000E-01  8.50000000E-01  8.50000000E-01  8.50000000E-01
  8.50000000E-01  8.50000000E-01  8.50000000E-01  8.50000000E-01  8.50000000E-01
  8.50000000E-01  8.50000000E-01  8.50000000E-01  8.50000000E-01  8.50000000E-01
  8.50000000E-01  8.50000000E-01  8.50000000E-01  8.50000000E-01  8.50000000E-01
  8.50000000E-01  8.50000000E-01  8.50000000E-01  8.50000000E-01  8.50000000E-01
  8.50000000E-01  8.50000000E-01  8.50000000E-01  8.50000000E-01  8.50000000E-01
  8.50000000E-01  8.50000000E-01  8.50000000E-01  8.50000000E-01  8.50000000E-01
  8.50000000E-01  8.50000000E-01  8.50000000E-01  8.50000000E-01  8.50000000E-01
  8.50000000E-01  8.50000000E-01  8.50000000E-01  8.50000000E-01  8.50000000E-01
  8.50000000E-01  8.50000000E-01  8.50000000E-01  8.50000000E-01  8.50000000E-01
  8.50000000E-01  8.50000000E-01  8.50000000E-01  8.50000000E-01  8.50000000E-01
  8.50000000E-01  8.50000000E-01  8.50000000E-01  8.50000000E-01  8.50000000E-01
  8.50000000E-01  8.50000000E-01  8.50000000E-01  8.50000000E-01  8.50000000E-01
  8.50000000E-01  8.50000000E-01  8.50000000E-01  8.50000000E-01  8.50000000E-01
  8.50000000E-01  8.50000000E-01  8.50000000E-01  8.50000000E-01  8.50000000E-01
  8.50000000E-01  8.50000000E-01  8.50000000E-01  8.50000000E-01  8.50000000E-01
  8.50000000E-01  8.50000000E-01  8.50000000E-01  8.50000000E-01  8.50000000E-01
  8.50000000E-01  8.50000000E-01  8.50000000E-01  8.50000000E-01  8.50000000E-01
  8.50000000E-01  8.50000000E-01  8.50000000E-01  8.50000000E-01  8.50000000E-01
  8.50000000E-01  8.50000000E-01  8.50000000E-01  8.50000000E-01  8.50000000E-01
  8.50000000E-01  8.50000000E-01  8.50000000E-01  8.50000000E-01  8.50000000E-01
  8.50000000E-01  8.50000000E-01  8.50000000E-01  8.50000000E-01  8.50000000E-01
  8.50000000E-01  8.50000000E-01  8.50000000E-01  8.50000000E-01  8.50000000E-01
  8.50000000E-01  8.50000000E-01  8.50000000E-01  8.50000000E-01  8.50000000E-01
  8.50000000E-01  8.50000000E-01  8.50000000E-01  8.50000000E-01  8.50000000E-01
  8.50000000E-01  8.50000000E-01  8.50000000E-01  8.50000000E-01  8.50000000E-01
  8.50000000E-01  8.50000000E-01  8.50000000E-01  8.50000000E-01  8.50000000E-01
  8.50000000E-01  8.50000000E-01  8.50000000E-01  8.50000000E-01  8.50000000E-01
  8.50000000E-01  8.50000000E-01  8.50000000E-01  8.50000000E-01  8.50000000E-01
  8.50000000E-01  8.50000000E-01  8.50000000E-01  8.50000000E-01  8.50000000E-01
  8.50000000E-01  8.50000000E-01  8.50000000E-01  8.50000000E-01  8.50000000E-01
  8.50000000E-01  8.50000000E-01  8.50000000E-01  8.50000000E-01  8.50000000E-01
  8.50000000E-01  8.50000000E-01  8.50000000E-01  8.50000000E-01  8.50000000E-01
  8.50000000E-01  8.50000000E-01  8.50000000E-01  8.50000000E-01  8.50000000E-01
  8.50000000E-01  8.50000000E-01  8.50000000E-01  8.50000000E-01  8.50000000E-01
  8.50000000E-01  8.50000000E-01  8.50000000E-01  8.50000000E-01  8.50000000E-01
  8.50000000E-01  8.50000000E-01  8.50000000E-01  8.50000000E-01  8.50000000E-01
  8.50000000E-01  8.50000000E-01  8.50000000E-01  8.50000000E-01  8.50000000E-01
  8.50000000E-01  8.50000000E-01  8.50000000E-01  8.50000000E-01  8.50000000E-01
  8.50000000E-01  8.50000000E-01  8.50000000E-01  8.50000000E-01  8.50000000E-01
  8.50000000E-01  8.50000000E-01  8.50000000E-01  8.50000000E-01  8.50000000E-01
  8.50000000E-01  8.50000000E-01  8.50000000E-01  8.50000000E-01  8.50000000E-01
  8.50000000E-01  8.50000000E-01  8.50000000E-01  8.50000000E-01  8.50000000E-01
  8.50000000E-01  8.50000000E-01  8.50000000E-01  8.50000000E-01  8.50000000E-01
  8.50000000E-01  8.50000000E-01  8.50000000E-01  8.50000000E-01  8.50000000E-01
  8.50000000E-01  8.50000000E-01  8.50000000E-01  8.50000000E-01  8.50000000E-01
  8.50000000E-01  8.50000000E-01  8.50000000E-01  8.50000000E-01  8.50000000E-01
  8.50000000E-01  8.50000000E-01  8.50000000E-01  8.50000000E-01  8.50000000E-01
  8.50000000E-01  8.50000000E-01  8.50000000E-01  8.50000000E-01  8.50000000E-01
  8.50000000E-01  8.50000000E-01  8.50000000E-01  8.50000000E-01  8.50000000E-01
  8.50000000E-01  8.50000000E-01  8.50000000E-01  8.50000000E-01  8.50000000E-01
  8.50000000E-01  8.50000000E-01  8.50000000E-01  8.50000000E-01  8.50000000E-01
  8.50000000E-01  8.50000000E-01  8.50000000E-01  8.50000000E-01  8.50000000E-01
  8.50000000E-01  8.50000000E-01  8.50000000E-01  8.50000000E-01  8.50000000E-01
  8.50000000E-01  8.50000000E-01  8.50000000E-01  8.50000000E-01  8.50000000E-01
  8.50000000E-01  8.50000000E-01  8.50000000E-01  8.50000000E-01  8.50000000E-01
  8.50000000E-01  8.50000000E-01  8.50000000E-01  8.50000000E-01  8.50000000E-01
  8.50000000E-01  8.50000000E-01  8.50000000E-01  8.50000000E-01  8.50000000E-01
  8.50000000E-01  8.50000000E-01  8.50000000E-01  8.50000000E-01  8.50000000E-01
  8.50000000E-01  8.50000000E-01  8.50000000E-01  8.50000000E-01  8.50000000E-01
  8.50000000E-01  8.50000000E-01  8.50000000E-01  8.50000000E-01  8.50000000E-01
  8.50000000E-01  8.50000000E-01  8.50000000E-01  8.50000000E-01  8.50000000E-01
  8.50000000E-01  8.50000000E-01  8.50000000E-01  8.50000000E-01  8.50000000E-01
  8.50000000E-01  8.50000000E-01  8.50000000E-01  8.50000000E-01  8.50000000E-01
  8.50000000E-01  8.50000000E-01  8.50000000E-01  8.50000000E-01  8.50000000E-01
  8.50000000E-01  8.50000000E-01  8.50000000E-01  8.50000000E-01  8.50000000E-01
  8.50000000E-01  8.50000000E-01  8.50000000E-01  8.50000000E-01  8.50000000E-01
  8.50000000E-01  8.50000000E-01  8.50000000E-01  8.50000000E-01  8.50000000E-01
  8.50000000E-01  8.50000000E-01  8.50000000E-01  8.50000000E-01  8.50000000E-01
  8.50000000E-01  8.50000000E-01  8.50000000E-01  8.50000000E-01  8.50000000E-01
  8.50000000E-01  8.50000000E-01  8.50000000E-01  8.50000000E-01  8.50000000E-01
  8.50000000E-01  8.50000000E-01  8.50000000E-01  8.50000000E-01  8.50000000E-01
  8.50000000E-01  8.50000000E-01  8.50000000E-01  8.50000000E-01  8.50000000E-01
  8.50000000E-01  8.50000000E-01  8.50000000E-01  8.50000000E-01  8.50000000E-01
  8.50000000E-01  8.50000000E-01  8.50000000E-01  8.50000000E-01  8.50000000E-01
  8.50000000E-01  8.50000000E-01  8.50000000E-01  8.50000000E-01  8.50000000E-01
  8.50000000E-01  8.50000000E-01  8.50000000E-01  8.50000000E-01  8.50000000E-01
  8.50000000E-01  8.50000000E-01  8.50000000E-01  8.50000000E-01  8.50000000E-01
  8.50000000E-01  8.50000000E-01  8.50000000E-01  8.50000000E-01  8.50000000E-01
  8.50000000E-01  8.50000000E-01  8.50000000E-01  8.50000000E-01  8.50000000E-01
  8.50000000E-01  8.50000000E-01  8.50000000E-01  8.50000000E-01  8.50000000E-01
  8.50000000E-01  8.50000000E-01  8.50000000E-01  8.50000000E-01  8.50000000E-01
  8.50000000E-01  8.50000000E-01  8.50000000E-01  8.50000000E-01  8.50000000E-01
  8.50000000E-01  8.50000000E-01  8.50000000E-01  8.50000000E-01  8.50000000E-01
  8.50000000E-01  8.50000000E-01  8.50000000E-01  8.50000000E-01  8.50000000E-01
  8.50000000E-01  8.50000000E-01  8.50000000E-01  8.50000000E-01  8.50000000E-01
  8.50000000E-01  8.50000000E-01  8.50000000E-01  8.50000000E-01  8.50000000E-01
  8.50000000E-01  8.50000000E-01  8.50000000E-01  8.50000000E-01  8.50000000E-01
  8.50000000E-01  8.50000000E-01  8.50000000E-01  8.50000000E-01  8.50000000E-01
  8.50000000E-01  8.50000000E-01  8.50000000E-01  8.50000000E-01  8.50000000E-01
  8.50000000E-01  8.50000000E-01  8.50000000E-01  8.50000000E-01  8.50000000E-01
  8.50000000E-01  8.50000000E-01  8.50000000E-01  8.50000000E-01  8.50000000E-01
  8.50000000E-01  8.50000000E-01  8.50000000E-01  8.50000000E-01  8.50000000E-01
  8.50000000E-01  8.50000000E-01  8.50000000E-01  8.50000000E-01  8.50000000E-01
  8.50000000E-01  8.50000000E-01  8.50000000E-01  8.50000000E-01  8.50000000E-01
  8.50000000E-01  8.50000000E-01  8.50000000E-01  8.50000000E-01  8.50000000E-01
  8.50000000E-01  8.50000000E-01  8.50000000E-01  8.50000000E-01  8.50000000E-01
  8.50000000E-01  8.50000000E-01  8.50000000E-01  8.50000000E-01  8.50000000E-01
  8.50000000E-01  8.50000000E-01  8.50000000E-01  8.50000000E-01  8.50000000E-01
  8.50000000E-01  8.50000000E-01  8.50000000E-01  8.50000000E-01  8.50000000E-01
  8.50000000E-01  8.50000000E-01  8.50000000E-01  8.50000000E-01  8.50000000E-01
  8.50000000E-01  8.50000000E-01  8.50000000E-01  8.50000000E-01  8.50000000E-01
  8.50000000E-01  8.50000000E-01  8.50000000E-01  8.50000000E-01  8.50000000E-01
  8.50000000E-01  8.50000000E-01  8.50000000E-01  8.50000000E-01  8.50000000E-01
  8.50000000E-01  8.50000000E-01  8.50000000E-01  8.50000000E-01  8.50000000E-01
  8.50000000E-01  8.50000000E-01  8.50000000E-01  8.50000000E-01  8.50000000E-01
  8.50000000E-01  8.50000000E-01  8.50000000E-01  8.50000000E-01  8.50000000E-01
  8.50000000E-01  8.50000000E-01  8.50000000E-01  8.50000000E-01  8.50000000E-01
  8.50000000E-01  8.50000000E-01  8.50000000E-01  8.50000000E-01  8.50000000E-01
  8.50000000E-01  8.50000000E-01  8.50000000E-01  8.50000000E-01  8.50000000E-01
  8.50000000E-01  8.50000000E-01  8.50000000E-01  8.50000000E-01  8.50000000E-01
  8.50000000E-01  8.50000000E-01  8.50000000E-01  8.50000000E-01  8.50000000E-01
  8.50000000E-01  8.50000000E-01  8.50000000E-01  8.50000000E-01  8.50000000E-01
  8.50000000E-01  8.50000000E-01  8.50000000E-01  8.50000000E-01  8.50000000E-01
  8.50000000E-01  8.50000000E-01  8.50000000E-01  8.50000000E-01  8.50000000E-01
  8.50000000E-01  8.50000000E-01  8.50000000E-01  8.50000000E-01  8.50000000E-01
  8.50000000E-01  8.50000000E-01  8.50000000E-01  8.50000000E-01  8.50000000E-01
  8.50000000E-01  8.50000000E-01  8.50000000E-01  8.50000000E-01  8.50000000E-01
  8.50000000E-01  8.50000000E-01  8.50000000E-01  8.50000000E-01  8.50000000E-01
  8.50000000E-01  8.50000000E-01  8.50000000E-01  8.50000000E-01  8.50000000E-01
  8.50000000E-01  8.50000000E-01  8.50000000E-01  8.50000000E-01  8.50000000E-01
  8.50000000E-01  8.50000000E-01  8.50000000E-01  8.50000000E-01  8.50000000E-01
  8.50000000E-01  8.50000000E-01  8.50000000E-01  8.50000000E-01  8.50000000E-01
  8.50000000E-01  8.50000000E-01  8.50000000E-01  8.50000000E-01  8.50000000E-01
  8.50000000E-01  8.50000000E-01  8.50000000E-01  8.50000000E-01  8.50000000E-01
  8.50000000E-01  8.50000000E-01  8.50000000E-01  8.50000000E-01  8.50000000E-01
  8.50000000E-01  8.50000000E-01  8.50000000E-01  8.50000000E-01  8.50000000E-01
  8.50000000E-01  8.50000000E-01  8.50000000E-01  8.50000000E-01  8.50000000E-01
  8.50000000E-01  8.50000000E-01  8.50000000E-01  8.50000000E-01  8.50000000E-01
  8.50000000E-01  8.50000000E-01  8.50000000E-01  8.50000000E-01  8.50000000E-01
  8.50000000E-01  8.50000000E-01  8.50000000E-01  8.50000000E-01  8.50000000E-01
  8.50000000E-01  8.50000000E-01  8.50000000E-01  8.50000000E-01  8.50000000E-01
  8.50000000E-01  8.50000000E-01  8.50000000E-01  8.50000000E-01  8.50000000E-01
  8.50000000E-01  8.50000000E-01  8.50000000E-01  8.50000000E-01  8.50000000E-01
  8.50000000E-01  8.50000000E-01  8.50000000E-01  8.50000000E-01  8.50000000E-01
  8.50000000E-01  8.50000000E-01  8.50000000E-01  8.50000000E-01  8.50000000E-01
  8.50000000E-01  8.50000000E-01  8.50000000E-01  8.50000000E-01  8.50000000E-01
  8.50000000E-01  8.50000000E-01  8.50000000E-01  8.50000000E-01  8.50000000E-01
  8.50000000E-01  8.50000000E-01  8.50000000E-01  8.50000000E-01  8.50000000E-01
  8.50000000E-01  8.50000000E-01  8.50000000E-01  8.50000000E-01  8.50000000E-01
  8.50000000E-01  8.50000000E-01  8.50000000E-01  8.50000000E-01  8.50000000E-01
  8.50000000E-01  8.50000000E-01  8.50000000E-01  8.50000000E-01  8.50000000E-01
  8.50000000E-01  8.50000000E-01  8.50000000E-01  8.50000000E-01  8.50000000E-01
  8.50000000E-01  8.50000000E-01  8.50000000E-01  8.50000000E-01  8.50000000E-01
  8.50000000E-01  8.50000000E-01  8.50000000E-01  8.50000000E-01  8.50000000E-01
  8.50000000E-01  8.50000000E-01  8.50000000E-01  8.50000000E-01  8.50000000E-01
  8.50000000E-01  8.50000000E-01  8.50000000E-01  8.50000000E-01  8.50000000E-01
  8.50000000E-01  8.50000000E-01  8.50000000E-01  8.50000000E-01  8.50000000E-01
  8.50000000E-01  8.50000000E-01  8.50000000E-01  8.50000000E-01  8.50000000E-01
  8.50000000E-01  8.50000000E-01  8.50000000E-01  8.50000000E-01  8.50000000E-01
  8.50000000E-01  8.50000000E-01  8.50000000E-01  8.50000000E-01  8.50000000E-01
  8.50000000E-01  8.50000000E-01  8.50000000E-01  8.50000000E-01  8.50000000E-01
  8.50000000E-01  8.50000000E-01  8.50000000E-01  8.50000000E-01  8.50000000E-01
  8.50000000E-01  8.50000000E-01  8.50000000E-01  8.50000000E-01  8.50000000E-01
  8.50000000E-01  8.50000000E-01  8.50000000E-01  8.50000000E-01  8.50000000E-01
  8.50000000E-01  8.50000000E-01  8.50000000E-01  8.50000000E-01  8.50000000E-01
  8.50000000E-01  8.50000000E-01  8.50000000E-01  8.50000000E-01  8.50000000E-01
  8.50000000E-01  8.50000000E-01  8.50000000E-01  8.50000000E-01  8.50000000E-01
  8.50000000E-01  8.50000000E-01  8.50000000E-01  8.50000000E-01  8.50000000E-01
  8.50000000E-01  8.50000000E-01  8.50000000E-01  8.50000000E-01  8.50000000E-01
  8.50000000E-01  8.50000000E-01  8.50000000E-01  8.50000000E-01  8.50000000E-01
  8.50000000E-01  8.50000000E-01  8.50000000E-01  8.50000000E-01  8.50000000E-01
  8.50000000E-01  8.50000000E-01  8.50000000E-01  8.50000000E-01  8.50000000E-01
  8.50000000E-01  8.50000000E-01  8.50000000E-01  8.50000000E-01  8.50000000E-01
  8.50000000E-01  8.50000000E-01  8.50000000E-01  8.50000000E-01  8.50000000E-01
  8.50000000E-01  8.50000000E-01  8.50000000E-01  8.50000000E-01  8.50000000E-01
  8.50000000E-01  8.50000000E-01  8.50000000E-01  8.50000000E-01  8.50000000E-01
  8.50000000E-01  8.50000000E-01  8.50000000E-01  8.50000000E-01  8.50000000E-01
  8.50000000E-01  8.50000000E-01  8.50000000E-01  8.50000000E-01  8.50000000E-01
  8.50000000E-01  8.50000000E-01  8.50000000E-01  8.50000000E-01  8.50000000E-01
  8.50000000E-01  8.50000000E-01  8.50000000E-01  8.50000000E-01  8.50000000E-01
  8.50000000E-01  8.50000000E-01  8.50000000E-01  8.50000000E-01  8.50000000E-01
  8.50000000E-01  8.50000000E-01  8.50000000E-01  8.50000000E-01  8.50000000E-01
  8.50000000E-01  8.50000000E-01  8.50000000E-01  8.50000000E-01  8.50000000E-01
  8.50000000E-01  8.50000000E-01  8.50000000E-01  8.50000000E-01  8.50000000E-01
  8.50000000E-01  8.50000000E-01  8.50000000E-01  8.50000000E-01  8.50000000E-01
  8.50000000E-01  8.50000000E-01  8.50000000E-01  8.50000000E-01  8.50000000E-01
  8.50000000E-01  8.50000000E-01  8.50000000E-01  8.50000000E-01  8.50000000E-01
  8.50000000E-01  8.50000000E-01  8.50000000E-01  8.50000000E-01  8.50000000E-01
  8.50000000E-01  8.50000000E-01  8.50000000E-01  8.50000000E-01  8.50000000E-01
  8.50000000E-01  8.50000000E-01  8.50000000E-01  8.50000000E-01  8.50000000E-01
  8.50000000E-01  8.50000000E-01  8.50000000E-01  8.50000000E-01  8.50000000E-01
  8.50000000E-01  8.50000000E-01  8.50000000E-01  8.50000000E-01  8.50000000E-01
  8.50000000E-01  8.50000000E-01  8.50000000E-01  8.50000000E-01  8.50000000E-01
  8.50000000E-01  8.50000000E-01  8.50000000E-01  8.50000000E-01  8.50000000E-01
  8.50000000E-01  8.50000000E-01  8.50000000E-01  8.50000000E-01  8.50000000E-01
  8.50000000E-01  8.50000000E-01  8.50000000E-01  8.50000000E-01  8.50000000E-01
  8.50000000E-01  8.50000000E-01  8.50000000E-01  8.50000000E-01  8.50000000E-01
  8.50000000E-01  8.50000000E-01  8.50000000E-01  8.50000000E-01  8.50000000E-01
  8.50000000E-01  8.50000000E-01  8.50000000E-01  8.50000000E-01  8.50000000E-01
  8.50000000E-01  8.50000000E-01  8.50000000E-01  8.50000000E-01  8.50000000E-01
  8.50000000E-01  8.50000000E-01  8.50000000E-01  8.50000000E-01  8.50000000E-01
  8.50000000E-01  8.50000000E-01  8.50000000E-01  8.50000000E-01  8.50000000E-01
  8.50000000E-01  8.50000000E-01  8.50000000E-01  8.50000000E-01  8.50000000E-01
  8.50000000E-01  8.50000000E-01  8.50000000E-01  8.50000000E-01  8.50000000E-01
  8.50000000E-01  8.50000000E-01  8.50000000E-01  8.50000000E-01  8.50000000E-01
  8.50000000E-01  8.50000000E-01  8.50000000E-01  8.50000000E-01  8.50000000E-01
  8.50000000E-01  8.50000000E-01  8.50000000E-01  8.50000000E-01  8.50000000E-01
  8.50000000E-01  8.50000000E-01  8.50000000E-01  8.50000000E-01  8.50000000E-01
  8.50000000E-01  8.50000000E-01  8.50000000E-01  8.50000000E-01  8.50000000E-01
  8.50000000E-01  8.50000000E-01  8.50000000E-01  8.50000000E-01  8.50000000E-01
  8.50000000E-01  8.50000000E-01  8.50000000E-01  8.50000000E-01  8.50000000E-01
  8.50000000E-01  8.50000000E-01  8.50000000E-01  8.50000000E-01  8.50000000E-01
  8.50000000E-01  8.50000000E-01  8.50000000E-01  8.50000000E-01  8.50000000E-01
  8.50000000E-01  8.50000000E-01  8.50000000E-01  8.50000000E-01  8.50000000E-01
  8.50000000E-01  8.50000000E-01  8.50000000E-01  8.50000000E-01  8.50000000E-01
  8.50000000E-01  8.50000000E-01  8.50000000E-01  8.50000000E-01  8.50000000E-01
  8.50000000E-01  8.50000000E-01  8.50000000E-01  8.50000000E-01  8.50000000E-01
  8.50000000E-01  8.50000000E-01  8.50000000E-01  8.50000000E-01  8.50000000E-01
  8.50000000E-01  8.50000000E-01  8.50000000E-01  8.50000000E-01  8.50000000E-01
  8.50000000E-01  8.50000000E-01  8.50000000E-01  8.50000000E-01  8.50000000E-01
  8.50000000E-01  8.50000000E-01  8.50000000E-01  8.50000000E-01  8.50000000E-01
  8.50000000E-01  8.50000000E-01  8.50000000E-01  8.50000000E-01  8.50000000E-01
  8.50000000E-01  8.50000000E-01  8.50000000E-01  8.50000000E-01  8.50000000E-01
  8.50000000E-01  8.50000000E-01  8.50000000E-01  8.50000000E-01  8.50000000E-01
  8.50000000E-01  8.50000000E-01  8.50000000E-01  8.50000000E-01  8.50000000E-01
  8.50000000E-01  8.50000000E-01  8.50000000E-01  8.50000000E-01  8.50000000E-01
  8.50000000E-01  8.50000000E-01  8.50000000E-01  8.50000000E-01  8.50000000E-01
  8.50000000E-01  8.50000000E-01  8.50000000E-01  8.50000000E-01  8.50000000E-01
  8.50000000E-01  8.50000000E-01  8.50000000E-01  8.50000000E-01  8.50000000E-01
  8.50000000E-01  8.50000000E-01  8.50000000E-01  8.50000000E-01  8.50000000E-01
  8.50000000E-01  8.50000000E-01  8.50000000E-01  8.50000000E-01  8.50000000E-01
  8.50000000E-01  8.50000000E-01  8.50000000E-01  8.50000000E-01  8.50000000E-01
  8.50000000E-01  8.50000000E-01  8.50000000E-01  8.50000000E-01  8.50000000E-01
  8.50000000E-01  8.50000000E-01  8.50000000E-01  8.50000000E-01  8.50000000E-01
  8.50000000E-01  8.50000000E-01  8.50000000E-01  8.50000000E-01  8.50000000E-01
  8.50000000E-01  8.50000000E-01  8.50000000E-01  8.50000000E-01  8.50000000E-01
  8.50000000E-01  8.50000000E-01  8.50000000E-01  8.50000000E-01  8.50000000E-01
  8.50000000E-01  8.50000000E-01  8.50000000E-01  8.50000000E-01  8.50000000E-01
  8.50000000E-01  8.50000000E-01  8.50000000E-01  8.50000000E-01  8.50000000E-01
  8.50000000E-01  8.50000000E-01  8.50000000E-01  8.50000000E-01  8.50000000E-01
  8.50000000E-01  8.50000000E-01  8.50000000E-01  8.50000000E-01  8.50000000E-01
  8.50000000E-01  8.50000000E-01  8.50000000E-01  8.50000000E-01  8.50000000E-01
  8.50000000E-01  8.50000000E-01  8.50000000E-01  8.50000000E-01  8.50000000E-01
  8.50000000E-01  8.50000000E-01  8.50000000E-01  8.50000000E-01  8.50000000E-01
  8.50000000E-01  8.50000000E-01  8.50000000E-01  8.50000000E-01  8.50000000E-01
  8.50000000E-01  8.50000000E-01  8.50000000E-01  8.50000000E-01  8.50000000E-01
  8.50000000E-01  8.50000000E-01  8.50000000E-01  8.50000000E-01  8.50000000E-01
  8.50000000E-01  8.50000000E-01  8.50000000E-01  8.50000000E-01  8.50000000E-01
  8.50000000E-01  8.50000000E-01  8.50000000E-01  8.50000000E-01  8.50000000E-01
  8.50000000E-01  8.50000000E-01  8.50000000E-01  8.50000000E-01  8.50000000E-01
  8.50000000E-01  8.50000000E-01  8.50000000E-01  8.50000000E-01  8.50000000E-01
  8.50000000E-01  8.50000000E-01  8.50000000E-01  8.50000000E-01  8.50000000E-01
  8.50000000E-01  8.50000000E-01  8.50000000E-01  8.50000000E-01  8.50000000E-01
  8.50000000E-01  8.50000000E-01  8.50000000E-01  8.50000000E-01  8.50000000E-01
  8.50000000E-01  8.50000000E-01  8.50000000E-01  8.50000000E-01  8.50000000E-01
  8.50000000E-01  8.50000000E-01  8.50000000E-01  8.50000000E-01  8.50000000E-01
  8.50000000E-01  8.50000000E-01  8.50000000E-01  8.50000000E-01  8.50000000E-01
  8.50000000E-01  8.50000000E-01  8.50000000E-01  8.50000000E-01  8.50000000E-01
  8.50000000E-01  8.50000000E-01  8.50000000E-01  8.50000000E-01  8.50000000E-01
  8.50000000E-01  8.50000000E-01  8.50000000E-01  8.50000000E-01  8.50000000E-01
  8.50000000E-01  8.50000000E-01  8.50000000E-01  8.50000000E-01  8.50000000E-01
  8.50000000E-01  8.50000000E-01  8.50000000E-01  8.50000000E-01  8.50000000E-01
  8.50000000E-01  8.50000000E-01  8.50000000E-01  8.50000000E-01  8.50000000E-01
  8.50000000E-01  8.50000000E-01  8.50000000E-01  8.50000000E-01  8.50000000E-01
  8.50000000E-01  8.50000000E-01  8.50000000E-01  8.50000000E-01  8.50000000E-01
  8.50000000E-01  8.50000000E-01  8.50000000E-01  8.50000000E-01  8.50000000E-01
  8.50000000E-01  8.50000000E-01  8.50000000E-01  8.50000000E-01  8.50000000E-01
  8.50000000E-01  8.50000000E-01  8.50000000E-01  8.50000000E-01  8.50000000E-01
  8.50000000E-01  8.50000000E-01  8.50000000E-01  8.50000000E-01  8.50000000E-01
  8.50000000E-01  8.50000000E-01  8.50000000E-01  8.50000000E-01  8.50000000E-01
  8.50000000E-01  8.50000000E-01  8.50000000E-01  8.50000000E-01  8.50000000E-01
  8.50000000E-01  8.50000000E-01  8.50000000E-01  8.50000000E-01  8.50000000E-01
  8.50000000E-01  8.50000000E-01  8.50000000E-01  8.50000000E-01  8.50000000E-01
  8.50000000E-01  8.50000000E-01  8.50000000E-01  8.50000000E-01  8.50000000E-01
  8.50000000E-01  8.50000000E-01  8.50000000E-01  8.50000000E-01  8.50000000E-01
  8.50000000E-01  8.50000000E-01  8.50000000E-01  8.50000000E-01  8.50000000E-01
  8.50000000E-01  8.50000000E-01  8.50000000E-01  8.50000000E-01  8.50000000E-01
  8.50000000E-01  8.50000000E-01  8.50000000E-01  8.50000000E-01  8.50000000E-01
  8.50000000E-01  8.50000000E-01  8.50000000E-01  8.50000000E-01  8.50000000E-01
  8.50000000E-01  8.50000000E-01  8.50000000E-01  8.50000000E-01  8.50000000E-01
  8.50000000E-01  8.50000000E-01  8.50000000E-01  8.50000000E-01  8.50000000E-01
  8.50000000E-01  8.50000000E-01  8.50000000E-01  8.50000000E-01  8.50000000E-01
  8.50000000E-01  8.50000000E-01  8.50000000E-01  8.50000000E-01  8.50000000E-01
  8.50000000E-01  8.50000000E-01  8.50000000E-01  8.50000000E-01  8.50000000E-01
  8.50000000E-01  8.50000000E-01  8.50000000E-01  8.50000000E-01  8.50000000E-01
  8.50000000E-01  8.50000000E-01  8.50000000E-01  8.50000000E-01  8.50000000E-01
  8.50000000E-01  8.50000000E-01  8.50000000E-01  8.50000000E-01  8.50000000E-01
  8.50000000E-01  8.50000000E-01  8.50000000E-01  8.50000000E-01  8.50000000E-01
  8.50000000E-01  8.50000000E-01  8.50000000E-01  8.50000000E-01  8.50000000E-01
  8.50000000E-01  8.50000000E-01  8.50000000E-01  8.50000000E-01  8.50000000E-01
  8.50000000E-01  8.50000000E-01  8.50000000E-01  8.50000000E-01  8.50000000E-01
  8.50000000E-01  8.50000000E-01  8.50000000E-01  8.50000000E-01  8.50000000E-01
  8.50000000E-01  8.50000000E-01  8.50000000E-01  8.50000000E-01  8.50000000E-01
  8.50000000E-01  8.50000000E-01  8.50000000E-01  8.50000000E-01  8.50000000E-01
  8.50000000E-01  8.50000000E-01  8.50000000E-01  8.50000000E-01  8.50000000E-01
  8.50000000E-01  8.50000000E-01  8.50000000E-01  8.50000000E-01  8.50000000E-01
  8.50000000E-01  8.50000000E-01  8.50000000E-01  8.50000000E-01  8.50000000E-01
  8.50000000E-01  8.50000000E-01  8.50000000E-01  8.50000000E-01  8.50000000E-01
  8.50000000E-01  8.50000000E-01  8.50000000E-01  8.50000000E-01  8.50000000E-01
  8.50000000E-01  8.50000000E-01  8.50000000E-01  8.50000000E-01  8.50000000E-01
  8.50000000E-01  8.50000000E-01  8.50000000E-01  8.50000000E-01  8.50000000E-01
  8.50000000E-01  8.50000000E-01  8.50000000E-01  8.50000000E-01  8.50000000E-01
  8.50000000E-01  8.50000000E-01  8.50000000E-01  8.50000000E-01  8.50000000E-01
  8.50000000E-01  8.50000000E-01  8.50000000E-01  8.50000000E-01  8.50000000E-01
  8.50000000E-01  8.50000000E-01  8.50000000E-01  8.50000000E-01  8.50000000E-01
%FLAG IPOL                                                                      
%FORMAT(1I8)                                                                    
       0
